Generated by trjconv : CNT in water t= 380.00000
33518
    1C        C    1   2.848   2.777   4.748
    1C        C    2   2.902   2.729   4.870
    1C        C    3   2.847   2.780   4.988
    1C        C    4   2.852   2.778   4.263
    1C        C    5   2.903   2.727   4.384
    1C        C    6   2.847   2.775   4.505
    1C        C    7   3.014   2.642   4.628
    1C        C    8   2.899   2.726   4.627
    1C        C    9   3.076   2.606   4.749
    1C        C   10   3.012   2.640   4.870
    1C        C   11   3.179   2.493   4.976
    1C        C   12   3.059   2.565   4.978
    1C        C   13   2.854   2.773   3.773
    1C        C   14   2.905   2.727   3.897
    1C        C   15   2.854   2.779   4.018
    1C        C   16   3.017   2.647   4.139
    1C        C   17   2.902   2.728   4.141
    1C        C   18   3.082   2.617   4.261
    1C        C   19   3.021   2.649   4.384
    1C        C   20   3.209   2.557   4.506
    1C        C   21   3.078   2.609   4.506
    1C        C   22   3.278   2.532   4.627
    1C        C   23   3.207   2.551   4.747
    1C        C   24   3.411   2.483   4.867
    1C        C   25   3.270   2.505   4.866
    1C        C   26   3.491   2.473   4.982
    1C        C   27   2.852   2.774   3.285
    1C        C   28   2.905   2.727   3.407
    1C        C   29   2.854   2.776   3.529
    1C        C   30   3.019   2.640   3.651
    1C        C   31   2.908   2.728   3.651
    1C        C   32   3.081   2.607   3.773
    1C        C   33   3.018   2.641   3.895
    1C        C   34   3.210   2.557   4.018
    1C        C   35   3.077   2.604   4.018
    1C        C   36   3.278   2.536   4.140
    1C        C   37   3.211   2.559   4.263
    1C        C   38   3.415   2.503   4.382
    1C        C   39   3.277   2.533   4.385
    1C        C   40   3.487   2.501   4.504
    1C        C   41   3.417   2.506   4.627
    1C        C   42   3.630   2.485   4.744
    1C        C   43   3.488   2.486   4.747
    1C        C   44   3.705   2.485   4.864
    1C        C   45   3.630   2.477   4.982
    1C        C   46   2.841   2.754   2.796
    1C        C   47   2.896   2.711   2.919
    1C        C   48   2.846   2.763   3.041
    1C        C   49   3.016   2.638   3.165
    1C        C   50   2.904   2.724   3.163
    1C        C   51   3.080   2.604   3.287
    1C        C   52   3.015   2.639   3.408
    1C        C   53   3.207   2.545   3.529
    1C        C   54   3.076   2.599   3.529
    1C        C   55   3.278   2.529   3.650
    1C        C   56   3.212   2.553   3.772
    1C        C   57   3.415   2.504   3.896
    1C        C   58   3.276   2.532   3.896
    1C        C   59   3.486   2.504   4.018
    1C        C   60   3.416   2.508   4.141
    1C        C   61   3.630   2.498   4.260
    1C        C   62   3.489   2.497   4.261
    1C        C   63   3.700   2.509   4.382
    1C        C   64   3.628   2.503   4.503
    1C        C   65   3.838   2.543   4.623
    1C        C   66   3.702   2.504   4.624
    1C        C   67   3.909   2.563   4.744
    1C        C   68   3.840   2.527   4.862
    1C        C   69   4.051   2.582   4.978
    1C        C   70   3.922   2.527   4.975
    1C        C   71   2.824   2.731   2.310
    1C        C   72   2.886   2.696   2.432
    1C        C   73   2.832   2.748   2.552
    1C        C   74   3.014   2.635   2.673
    1C        C   75   2.892   2.707   2.673
    1C        C   76   3.071   2.599   2.797
    1C        C   77   3.010   2.628   2.920
    1C        C   78   3.204   2.545   3.038
    1C        C   79   3.070   2.592   3.043
    1C        C   80   3.273   2.523   3.159
    1C        C   81   3.209   2.547   3.282
    1C        C   82   3.414   2.502   3.404
    1C        C   83   3.274   2.525   3.406
    1C        C   84   3.484   2.500   3.526
    1C        C   85   3.417   2.507   3.650
    1C        C   86   3.626   2.500   3.771
    1C        C   87   3.485   2.495   3.773
    1C        C   88   3.697   2.507   3.893
    1C        C   89   3.627   2.504   4.015
    1C        C   90   3.835   2.545   4.137
    1C        C   91   3.698   2.511   4.137
    1C        C   92   3.905   2.566   4.258
    1C        C   93   3.837   2.545   4.380
    1C        C   94   4.030   2.632   4.502
    1C        C   95   3.905   2.566   4.502
    1C        C   96   4.094   2.670   4.622
    1C        C   97   4.036   2.627   4.743
    1C        C   98   4.193   2.766   4.864
    1C        C   99   4.100   2.657   4.866
    1C        C  100   4.221   2.841   4.979
    1C        C  101   2.824   2.726   2.073
    1C        C  102   2.994   2.591   2.192
    1C        C  103   2.878   2.675   2.191
    1C        C  104   3.068   2.575   2.312
    1C        C  105   3.006   2.621   2.430
    1C        C  106   3.202   2.537   2.552
    1C        C  107   3.072   2.593   2.551
    1C        C  108   3.270   2.521   2.675
    1C        C  109   3.200   2.541   2.796
    1C        C  110   3.411   2.497   2.916
    1C        C  111   3.272   2.523   2.916
    1C        C  112   3.481   2.494   3.038
    1C        C  113   3.413   2.501   3.162
    1C        C  114   3.626   2.495   3.281
    1C        C  115   3.485   2.491   3.283
    1C        C  116   3.695   2.510   3.404
    1C        C  117   3.626   2.501   3.527
    1C        C  118   3.834   2.541   3.649
    1C        C  119   3.697   2.508   3.649
    1C        C  120   3.900   2.567   3.771
    1C        C  121   3.834   2.542   3.893
    1C        C  122   4.023   2.640   4.015
    1C        C  123   3.902   2.567   4.015
    1C        C  124   4.086   2.674   4.137
    1C        C  125   4.030   2.633   4.260
    1C        C  126   4.195   2.769   4.379
    1C        C  127   4.090   2.674   4.381
    1C        C  128   4.244   2.823   4.499
    1C        C  129   4.197   2.767   4.620
    1C        C  130   4.328   2.934   4.742
    1C        C  131   4.246   2.818   4.743
    1C        C  132   4.366   2.998   4.862
    1C        C  133   4.293   2.960   4.976
    1C        C  134   3.171   2.464   2.083
    1C        C  135   3.038   2.508   2.083
    1C        C  136   3.261   2.479   2.189
    1C        C  137   3.197   2.516   2.309
    1C        C  138   3.404   2.473   2.431
    1C        C  139   3.265   2.499   2.432
    1C        C  140   3.478   2.474   2.552
    1C        C  141   3.408   2.491   2.673
    1C        C  142   3.622   2.489   2.791
    1C        C  143   3.481   2.485   2.794
    1C        C  144   3.692   2.499   2.914
    1C        C  145   3.622   2.494   3.037
    1C        C  146   3.831   2.540   3.156
    1C        C  147   3.695   2.502   3.158
    1C        C  148   3.897   2.564   3.278
    1C        C  149   3.832   2.544   3.402
    1C        C  150   4.024   2.628   3.524
    1C        C  151   3.899   2.563   3.525
    1C        C  152   4.085   2.667   3.646
    1C        C  153   4.026   2.632   3.769
    1C        C  154   4.191   2.765   3.889
    1C        C  155   4.082   2.675   3.891
    1C        C  156   4.237   2.819   4.011
    1C        C  157   4.189   2.770   4.134
    1C        C  158   4.332   2.928   4.252
    1C        C  159   4.245   2.816   4.256
    1C        C  160   4.372   2.987   4.374
    1C        C  161   4.332   2.933   4.499
    1C        C  162   4.441   3.115   4.619
    1C        C  163   4.369   2.994   4.621
    1C        C  164   4.472   3.183   4.739
    1C        C  165   4.435   3.121   4.861
    1C        C  166   4.519   3.322   4.975
    1C        C  167   4.478   3.189   4.976
    1C        C  168   3.475   2.440   2.074
    1C        C  169   3.401   2.460   2.191
    1C        C  170   3.619   2.473   2.305
    1C        C  171   3.477   2.462   2.310
    1C        C  172   3.691   2.483   2.426
    1C        C  173   3.619   2.482   2.548
    1C        C  174   3.828   2.534   2.667
    1C        C  175   3.690   2.502   2.668
    1C        C  176   3.894   2.561   2.789
    1C        C  177   3.828   2.537   2.911
    1C        C  178   4.023   2.624   3.031
    1C        C  179   3.896   2.563   3.032
    1C        C  180   4.082   2.662   3.154
    1C        C  181   4.023   2.628   3.278
    1C        C  182   4.192   2.755   3.399
    1C        C  183   4.082   2.665   3.401
    1C        C  184   4.239   2.809   3.521
    1C        C  185   4.193   2.757   3.644
    1C        C  186   4.331   2.922   3.765
    1C        C  187   4.242   2.812   3.766
    1C        C  188   4.371   2.982   3.886
    1C        C  189   4.327   2.928   4.008
    1C        C  190   4.446   3.106   4.129
    1C        C  191   4.369   2.987   4.129
    1C        C  192   4.471   3.173   4.251
    1C        C  193   4.438   3.112   4.374
    1C        C  194   4.509   3.313   4.492
    1C        C  195   4.467   3.178   4.495
    1C        C  196   4.526   3.385   4.613
    1C        C  197   4.514   3.318   4.737
    1C        C  198   4.558   3.535   4.851
    1C        C  199   4.526   3.395   4.856
    1C        C  200   4.585   3.622   4.961
    1C        C  201   3.613   2.417   2.075
    1C        C  202   3.827   2.514   2.183
    1C        C  203   3.690   2.471   2.182
    1C        C  204   3.898   2.541   2.303
    1C        C  205   3.828   2.517   2.424
    1C        C  206   4.017   2.620   2.542
    1C        C  207   3.895   2.549   2.544
    1C        C  208   4.081   2.659   2.662
    1C        C  209   4.018   2.629   2.785
    1C        C  210   4.188   2.754   2.908
    1C        C  211   4.079   2.665   2.908
    1C        C  212   4.240   2.803   3.030
    1C        C  213   4.194   2.749   3.152
    1C        C  214   4.330   2.910   3.274
    1C        C  215   4.241   2.800   3.275
    1C        C  216   4.365   2.975   3.395
    1C        C  217   4.323   2.922   3.519
    1C        C  218   4.431   3.104   3.640
    1C        C  219   4.370   2.977   3.641
    1C        C  220   4.462   3.172   3.760
    1C        C  221   4.441   3.106   3.883
    1C        C  222   4.499   3.307   4.003
    1C        C  223   4.476   3.168   4.005
    1C        C  224   4.504   3.380   4.124
    1C        C  225   4.501   3.311   4.248
    1C        C  226   4.518   3.523   4.369
    1C        C  227   4.512   3.382   4.369
    1C        C  228   4.516   3.596   4.490
    1C        C  229   4.534   3.526   4.611
    1C        C  230   4.500   3.741   4.725
    1C        C  231   4.539   3.604   4.728
    1C        C  232   4.496   3.820   4.842
    1C        C  233   4.548   3.757   4.956
    1C        C  234   4.021   2.605   2.061
    1C        C  235   3.895   2.545   2.065
    1C        C  236   4.085   2.647   2.179
    1C        C  237   4.022   2.610   2.299
    1C        C  238   4.195   2.738   2.420
    1C        C  239   4.082   2.652   2.420
    1C        C  240   4.249   2.789   2.540
    1C        C  241   4.193   2.744   2.661
    1C        C  242   4.335   2.902   2.787
    1C        C  243   4.244   2.793   2.784
    1C        C  244   4.375   2.963   2.907
    1C        C  245   4.333   2.909   3.030
    1C        C  246   4.436   3.094   3.150
    1C        C  247   4.374   2.967   3.152
    1C        C  248   4.461   3.162   3.272
    1C        C  249   4.427   3.101   3.395
    1C        C  250   4.497   3.303   3.514
    1C        C  251   4.454   3.169   3.516
    1C        C  252   4.512   3.374   3.635
    1C        C  253   4.502   3.307   3.759
    1C        C  254   4.518   3.519   3.881
    1C        C  255   4.513   3.378   3.881
    1C        C  256   4.520   3.592   4.002
    1C        C  257   4.524   3.519   4.124
    1C        C  258   4.493   3.731   4.244
    1C        C  259   4.518   3.592   4.245
    1C        C  260   4.469   3.803   4.363
    1C        C  261   4.490   3.735   4.485
    1C        C  262   4.426   3.942   4.604
    1C        C  263   4.473   3.809   4.604
    1C        C  264   4.399   4.011   4.724
    1C        C  265   4.433   3.946   4.845
    1C        C  266   4.316   4.131   4.965
    1C        C  267   4.388   4.012   4.960
    1C        C  268   4.271   2.771   2.066
    1C        C  269   4.198   2.732   2.179
    1C        C  270   4.344   2.891   2.299
    1C        C  271   4.252   2.783   2.299
    1C        C  272   4.378   2.956   2.420
    1C        C  273   4.340   2.897   2.543
    1C        C  274   4.446   3.083   2.664
    1C        C  275   4.379   2.958   2.665
    1C        C  276   4.471   3.154   2.784
    1C        C  277   4.443   3.087   2.905
    1C        C  278   4.499   3.293   3.025
    1C        C  279   4.464   3.156   3.026
    1C        C  280   4.507   3.367   3.145
    1C        C  281   4.495   3.299   3.268
    1C        C  282   4.513   3.510   3.390
    1C        C  283   4.513   3.369   3.390
    1C        C  284   4.512   3.584   3.511
    1C        C  285   4.517   3.515   3.634
    1C        C  286   4.493   3.725   3.755
    1C        C  287   4.515   3.586   3.757
    1C        C  288   4.479   3.796   3.877
    1C        C  289   4.500   3.732   4.001
    1C        C  290   4.425   3.931   4.116
    1C        C  291   4.481   3.801   4.122
    1C        C  292   4.392   3.996   4.237
    1C        C  293   4.423   3.937   4.362
    1C        C  294   4.323   4.128   4.480
    1C        C  295   4.396   4.006   4.482
    1C        C  296   4.284   4.188   4.601
    1C        C  297   4.323   4.131   4.724
    1C        C  298   4.195   4.309   4.843
    1C        C  299   4.282   4.195   4.845
    1C        C  300   4.172   4.399   4.952
    1C        C  301   4.355   2.883   2.066
    1C        C  302   4.470   3.073   2.180
    1C        C  303   4.396   2.950   2.181
    1C        C  304   4.489   3.142   2.303
    1C        C  305   4.448   3.079   2.422
    1C        C  306   4.506   3.286   2.537
    1C        C  307   4.471   3.149   2.542
    1C        C  308   4.520   3.359   2.657
    1C        C  309   4.503   3.291   2.779
    1C        C  310   4.520   3.502   2.900
    1C        C  311   4.516   3.360   2.902
    1C        C  312   4.516   3.577   3.020
    1C        C  313   4.518   3.508   3.143
    1C        C  314   4.495   3.717   3.267
    1C        C  315   4.515   3.578   3.266
    1C        C  316   4.475   3.789   3.387
    1C        C  317   4.493   3.724   3.512
    1C        C  318   4.428   3.927   3.630
    1C        C  319   4.478   3.795   3.633
    1C        C  320   4.389   3.989   3.751
    1C        C  321   4.430   3.928   3.873
    1C        C  322   4.312   4.108   3.991
    1C        C  323   4.395   3.994   3.993
    1C        C  324   4.272   4.166   4.114
    1C        C  325   4.317   4.115   4.238
    1C        C  326   4.180   4.282   4.359
    1C        C  327   4.277   4.179   4.357
    1C        C  328   4.125   4.331   4.479
    1C        C  329   4.184   4.288   4.600
    1C        C  330   4.022   4.431   4.718
    1C        C  331   4.137   4.346   4.719
    1C        C  332   3.970   4.489   4.836
    1C        C  333   4.057   4.478   4.945
    1C        C  334   4.550   3.271   2.064
    1C        C  335   4.536   3.132   2.068
    1C        C  336   4.545   3.352   2.178
    1C        C  337   4.528   3.279   2.298
    1C        C  338   4.532   3.497   2.416
    1C        C  339   4.522   3.356   2.416
    1C        C  340   4.525   3.572   2.536
    1C        C  341   4.527   3.500   2.657
    1C        C  342   4.497   3.712   2.776
    1C        C  343   4.520   3.573   2.778
    1C        C  344   4.479   3.783   2.897
    1C        C  345   4.495   3.716   3.021
    1C        C  346   4.425   3.914   3.140
    1C        C  347   4.481   3.785   3.143
    1C        C  348   4.392   3.981   3.260
    1C        C  349   4.426   3.921   3.383
    1C        C  350   4.325   4.105   3.505
    1C        C  351   4.404   3.988   3.505
    1C        C  352   4.275   4.165   3.622
    1C        C  353   4.310   4.106   3.746
    1C        C  354   4.173   4.266   3.869
    1C        C  355   4.272   4.165   3.868
    1C        C  356   4.120   4.316   3.990
    1C        C  357   4.178   4.272   4.111
    1C        C  358   4.015   4.405   4.233
    1C        C  359   4.129   4.322   4.233
    1C        C  360   3.957   4.453   4.353
    1C        C  361   4.014   4.419   4.478
    1C        C  362   3.827   4.523   4.594
    1C        C  363   3.955   4.463   4.598
    1C        C  364   3.763   4.555   4.716
    1C        C  365   3.841   4.546   4.834
    1C        C  366   3.632   4.596   4.950
    1C        C  367   3.769   4.577   4.950
    1C        C  368   4.507   3.564   2.054
    1C        C  369   4.523   3.491   2.173
    1C        C  370   4.499   3.705   2.288
    1C        C  371   4.520   3.565   2.293
    1C        C  372   4.487   3.778   2.408
    1C        C  373   4.505   3.712   2.532
    1C        C  374   4.427   3.910   2.648
    1C        C  375   4.485   3.781   2.653
    1C        C  376   4.395   3.973   2.770
    1C        C  377   4.426   3.914   2.895
    1C        C  378   4.319   4.096   3.013
    1C        C  379   4.396   3.978   3.017
    1C        C  380   4.274   4.154   3.134
    1C        C  381   4.312   4.098   3.258
    1C        C  382   4.174   4.253   3.379
    1C        C  383   4.272   4.152   3.382
    1C        C  384   4.117   4.304   3.498
    1C        C  385   4.172   4.262   3.621
    1C        C  386   4.008   4.392   3.745
    1C        C  387   4.123   4.310   3.744
    1C        C  388   3.945   4.428   3.867
    1C        C  389   4.007   4.401   3.991
    1C        C  390   3.821   4.501   4.110
    1C        C  391   3.949   4.440   4.113
    1C        C  392   3.755   4.530   4.231
    1C        C  393   3.828   4.511   4.351
    1C        C  394   3.620   4.562   4.476
    1C        C  395   3.759   4.536   4.471
    1C        C  396   3.546   4.572   4.596
    1C        C  397   3.623   4.572   4.715
    1C        C  398   3.412   4.558   4.839
    1C        C  399   3.551   4.583   4.836
    1C        C  400   3.343   4.518   4.954
    1C        C  401   4.502   3.703   2.051
    1C        C  402   4.457   3.916   2.168
    1C        C  403   4.488   3.778   2.168
    1C        C  404   4.412   3.980   2.285
    1C        C  405   4.436   3.910   2.405
    1C        C  406   4.329   4.095   2.525
    1C        C  407   4.405   3.977   2.525
    1C        C  408   4.277   4.146   2.646
    1C        C  409   4.313   4.088   2.770
    1C        C  410   4.170   4.247   2.890
    1C        C  411   4.270   4.147   2.891
    1C        C  412   4.118   4.294   3.012
    1C        C  413   4.175   4.255   3.136
    1C        C  414   4.002   4.379   3.254
    1C        C  415   4.118   4.299   3.257
    1C        C  416   3.937   4.412   3.375
    1C        C  417   3.999   4.382   3.499
    1C        C  418   3.816   4.481   3.621
    1C        C  419   3.944   4.422   3.622
    1C        C  420   3.750   4.508   3.743
    1C        C  421   3.818   4.489   3.866
    1C        C  422   3.614   4.541   3.990
    1C        C  423   3.753   4.520   3.988
    1C        C  424   3.542   4.547   4.112
    1C        C  425   3.615   4.547   4.232
    1C        C  426   3.406   4.551   4.359
    1C        C  427   3.547   4.559   4.356
    1C        C  428   3.331   4.550   4.479
    1C        C  429   3.405   4.565   4.599
    1C        C  430   3.196   4.521   4.724
    1C        C  431   3.334   4.554   4.721
    1C        C  432   3.124   4.498   4.844
    1C        C  433   3.205   4.502   4.958
    1C        C  434   4.387   4.123   2.049
    1C        C  435   4.452   3.999   2.055
    1C        C  436   4.303   4.162   2.159
    1C        C  437   4.334   4.099   2.282
    1C        C  438   4.179   4.246   2.404
    1C        C  439   4.284   4.152   2.403
    1C        C  440   4.123   4.295   2.524
    1C        C  441   4.177   4.245   2.645
    1C        C  442   4.003   4.371   2.768
    1C        C  443   4.119   4.292   2.766
    1C        C  444   3.941   4.411   2.888
    1C        C  445   4.000   4.372   3.010
    1C        C  446   3.810   4.470   3.129
    1C        C  447   3.939   4.412   3.131
    1C        C  448   3.747   4.497   3.252
    1C        C  449   3.812   4.476   3.376
    1C        C  450   3.611   4.537   3.496
    1C        C  451   3.748   4.503   3.499
    1C        C  452   3.545   4.544   3.621
    1C        C  453   3.612   4.540   3.745
    1C        C  454   3.402   4.548   3.868
    1C        C  455   3.543   4.550   3.868
    1C        C  456   3.332   4.535   3.989
    1C        C  457   3.400   4.541   4.113
    1C        C  458   3.196   4.510   4.239
    1C        C  459   3.335   4.534   4.238
    1C        C  460   3.128   4.491   4.361
    1C        C  461   3.195   4.514   4.484
    1C        C  462   2.996   4.435   4.602
    1C        C  463   3.126   4.491   4.605
    1C        C  464   2.932   4.403   4.724
    1C        C  465   2.993   4.440   4.847
    1C        C  466   2.808   4.333   4.959
    1C        C  467   2.908   4.432   4.962
    1C        C  468   4.119   4.284   2.044
    1C        C  469   4.184   4.241   2.161
    1C        C  470   4.005   4.366   2.281
    1C        C  471   4.125   4.290   2.281
    1C        C  472   3.940   4.400   2.401
    1C        C  473   4.005   4.372   2.523
    1C        C  474   3.813   4.465   2.644
    1C        C  475   3.941   4.405   2.645
    1C        C  476   3.744   4.489   2.764
    1C        C  477   3.811   4.468   2.886
    1C        C  478   3.604   4.518   3.009
    1C        C  479   3.743   4.493   3.007
    1C        C  480   3.535   4.527   3.133
    1C        C  481   3.608   4.524   3.253
    1C        C  482   3.396   4.537   3.378
    1C        C  483   3.538   4.538   3.375
    1C        C  484   3.331   4.529   3.503
    1C        C  485   3.404   4.540   3.623
    1C        C  486   3.196   4.500   3.745
    1C        C  487   3.333   4.533   3.745
    1C        C  488   3.131   4.478   3.869
    1C        C  489   3.195   4.501   3.993
    1C        C  490   3.009   4.410   4.117
    1C        C  491   3.130   4.483   4.117
    1C        C  492   2.945   4.379   4.239
    1C        C  493   3.004   4.423   4.359
    1C        C  494   2.831   4.302   4.483
    1C        C  495   2.937   4.395   4.480
    1C        C  496   2.775   4.256   4.605
    1C        C  497   2.821   4.314   4.725
    1C        C  498   2.664   4.166   4.843
    1C        C  499   2.755   4.274   4.843
    1C        C  500   2.597   4.118   4.956
    1C        C  501   4.001   4.357   2.038
    1C        C  502   3.817   4.462   2.155
    1C        C  503   3.944   4.401   2.158
    1C        C  504   3.746   4.479   2.276
    1C        C  505   3.810   4.456   2.400
    1C        C  506   3.605   4.511   2.523
    1C        C  507   3.743   4.480   2.522
    1C        C  508   3.534   4.520   2.644
    1C        C  509   3.604   4.512   2.766
    1C        C  510   3.392   4.530   2.888
    1C        C  511   3.533   4.527   2.887
    1C        C  512   3.323   4.532   3.011
    1C        C  513   3.394   4.538   3.133
    1C        C  514   3.189   4.496   3.257
    1C        C  515   3.325   4.536   3.256
    1C        C  516   3.126   4.467   3.380
    1C        C  517   3.193   4.497   3.500
    1C        C  518   3.004   4.408   3.625
    1C        C  519   3.128   4.474   3.624
    1C        C  520   2.950   4.369   3.750
    1C        C  521   3.010   4.404   3.872
    1C        C  522   2.846   4.273   3.996
    1C        C  523   2.956   4.362   3.995
    1C        C  524   2.791   4.231   4.119
    1C        C  525   2.837   4.287   4.240
    1C        C  526   2.696   4.132   4.364
    1C        C  527   2.786   4.241   4.363
    1C        C  528   2.657   4.075   4.487
    1C        C  529   2.689   4.144   4.606
    1C        C  530   2.582   3.960   4.729
    1C        C  531   2.639   4.091   4.726
    1C        C  532   2.543   3.901   4.852
    1C        C  533   2.531   3.995   4.960
    1C        C  534   3.620   4.556   2.042
    1C        C  535   3.755   4.518   2.042
    1C        C  536   3.538   4.535   2.158
    1C        C  537   3.609   4.514   2.280
    1C        C  538   3.394   4.519   2.400
    1C        C  539   3.535   4.519   2.400
    1C        C  540   3.322   4.514   2.521
    1C        C  541   3.392   4.523   2.643
    1C        C  542   3.184   4.490   2.766
    1C        C  543   3.322   4.522   2.766
    1C        C  544   3.121   4.465   2.890
    1C        C  545   3.188   4.490   3.012
    1C        C  546   2.998   4.400   3.136
    1C        C  547   3.124   4.466   3.136
    1C        C  548   2.941   4.363   3.260
    1C        C  549   3.002   4.399   3.382
    1C        C  550   2.836   4.274   3.504
    1C        C  551   2.939   4.371   3.505
    1C        C  552   2.789   4.225   3.628
    1C        C  553   2.840   4.280   3.748
    1C        C  554   2.709   4.116   3.871
    1C        C  555   2.796   4.228   3.872
    1C        C  556   2.665   4.064   3.995
    1C        C  557   2.701   4.122   4.119
    1C        C  558   2.598   3.942   4.246
    1C        C  559   2.666   4.066   4.243
    1C        C  560   2.569   3.879   4.369
    1C        C  561   2.596   3.947   4.490
    1C        C  562   2.529   3.747   4.616
    1C        C  563   2.566   3.883   4.612
    1C        C  564   2.516   3.679   4.740
    1C        C  565   2.524   3.759   4.858
    1C        C  566   2.530   3.545   4.976
    1C        C  567   2.527   3.684   4.976
    1C        C  568   3.330   4.486   2.038
    1C        C  569   3.397   4.516   2.157
    1C        C  570   3.184   4.482   2.280
    1C        C  571   3.323   4.511   2.278
    1C        C  572   3.114   4.465   2.402
    1C        C  573   3.183   4.488   2.523
    1C        C  574   2.989   4.404   2.645
    1C        C  575   3.115   4.468   2.645
    1C        C  576   2.935   4.363   2.769
    1C        C  577   2.996   4.399   2.892
    1C        C  578   2.827   4.273   3.015
    1C        C  579   2.939   4.360   3.015
    1C        C  580   2.779   4.220   3.137
    1C        C  581   2.836   4.269   3.257
    1C        C  582   2.701   4.111   3.383
    1C        C  583   2.787   4.223   3.382
    1C        C  584   2.662   4.053   3.506
    1C        C  585   2.701   4.115   3.627
    1C        C  586   2.598   3.933   3.754
    1C        C  587   2.664   4.058   3.751
    1C        C  588   2.579   3.869   3.879
    1C        C  589   2.603   3.937   4.001
    1C        C  590   2.541   3.738   4.128
    1C        C  591   2.572   3.875   4.124
    1C        C  592   2.521   3.672   4.252
    1C        C  593   2.532   3.742   4.374
    1C        C  594   2.509   3.532   4.498
    1C        C  595   2.518   3.673   4.496
    1C        C  596   2.518   3.462   4.620
    1C        C  597   2.518   3.537   4.740
    1C        C  598   2.530   3.325   4.864
    1C        C  599   2.532   3.466   4.861
    1C        C  600   2.534   3.244   4.979
    1C        C  601   3.202   4.434   2.043
    1C        C  602   2.987   4.397   2.157
    1C        C  603   3.122   4.443   2.158
    1C        C  604   2.926   4.362   2.281
    1C        C  605   2.989   4.401   2.402
    1C        C  606   2.821   4.273   2.526
    1C        C  607   2.928   4.364   2.524
    1C        C  608   2.775   4.220   2.649
    1C        C  609   2.823   4.277   2.769
    1C        C  610   2.691   4.112   2.894
    1C        C  611   2.776   4.225   2.892
    1C        C  612   2.654   4.051   3.015
    1C        C  613   2.694   4.108   3.138
    1C        C  614   2.594   3.924   3.264
    1C        C  615   2.661   4.049   3.263
    1C        C  616   2.571   3.862   3.389
    1C        C  617   2.597   3.927   3.511
    1C        C  618   2.526   3.729   3.637
    1C        C  619   2.569   3.864   3.634
    1C        C  620   2.516   3.663   3.762
    1C        C  621   2.538   3.734   3.882
    1C        C  622   2.512   3.527   4.009
    1C        C  623   2.529   3.668   4.006
    1C        C  624   2.508   3.459   4.133
    1C        C  625   2.506   3.531   4.254
    1C        C  626   2.530   3.322   4.381
    1C        C  627   2.504   3.461   4.377
    1C        C  628   2.540   3.248   4.501
    1C        C  629   2.528   3.321   4.622
    1C        C  630   2.575   3.113   4.741
    1C        C  631   2.541   3.251   4.744
    1C        C  632   2.616   3.049   4.861
    1C        C  633   2.561   3.107   4.980
    1C        C  634   2.785   4.300   2.051
    1C        C  635   2.896   4.386   2.047
    1C        C  636   2.754   4.228   2.167
    1C        C  637   2.815   4.274   2.286
    1C        C  638   2.679   4.110   2.411
    1C        C  639   2.762   4.224   2.407
    1C        C  640   2.642   4.049   2.532
    1C        C  641   2.689   4.109   2.651
    1C        C  642   2.593   3.920   2.776
    1C        C  643   2.655   4.047   2.774
    1C        C  644   2.569   3.854   2.899
    1C        C  645   2.595   3.923   3.019
    1C        C  646   2.528   3.723   3.144
    1C        C  647   2.562   3.861   3.142
    1C        C  648   2.516   3.656   3.268
    1C        C  649   2.530   3.727   3.389
    1C        C  650   2.509   3.521   3.520
    1C        C  651   2.517   3.662   3.513
    1C        C  652   2.510   3.450   3.642
    1C        C  653   2.509   3.521   3.764
    1C        C  654   2.535   3.315   3.892
    1C        C  655   2.514   3.454   3.888
    1C        C  656   2.550   3.248   4.016
    1C        C  657   2.532   3.320   4.137
    1C        C  658   2.608   3.123   4.260
    1C        C  659   2.550   3.252   4.259
    1C        C  660   2.639   3.060   4.382
    1C        C  661   2.595   3.118   4.504
    1C        C  662   2.700   2.934   4.625
    1C        C  663   2.613   3.045   4.623
    1C        C  664   2.747   2.877   4.745
    1C        C  665   2.698   2.932   4.867
    1C        C  666   2.745   2.875   4.986
    1C        C  667   2.690   4.021   2.054
    1C        C  668   2.691   4.101   2.169
    1C        C  669   2.600   3.909   2.292
    1C        C  670   2.656   4.039   2.291
    1C        C  671   2.565   3.846   2.413
    1C        C  672   2.587   3.918   2.533
    1C        C  673   2.525   3.717   2.659
    1C        C  674   2.562   3.853   2.656
    1C        C  675   2.511   3.647   2.781
    1C        C  676   2.527   3.719   2.901
    1C        C  677   2.500   3.510   3.029
    1C        C  678   2.511   3.651   3.024
    1C        C  679   2.500   3.444   3.154
    1C        C  680   2.506   3.515   3.276
    1C        C  681   2.530   3.307   3.402
    1C        C  682   2.508   3.446   3.400
    1C        C  683   2.547   3.241   3.526
    1C        C  684   2.528   3.310   3.647
    1C        C  685   2.602   3.113   3.772
    1C        C  686   2.556   3.246   3.770
    1C        C  687   2.635   3.052   3.895
    1C        C  688   2.600   3.116   4.016
    1C        C  689   2.716   2.939   4.140
    1C        C  690   2.637   3.056   4.139
    1C        C  691   2.756   2.882   4.263
    1C        C  692   2.714   2.941   4.385
    1C        C  693   2.752   2.879   4.506
    1C        C  694   2.632   3.894   2.056
    1C        C  695   2.532   3.703   2.174
    1C        C  696   2.588   3.833   2.174
    1C        C  697   2.506   3.640   2.297
    1C        C  698   2.516   3.714   2.417
    1C        C  699   2.491   3.504   2.540
    1C        C  700   2.504   3.645   2.540
    1C        C  701   2.495   3.434   2.663
    1C        C  702   2.498   3.506   2.784
    1C        C  703   2.527   3.298   2.910
    1C        C  704   2.506   3.438   2.908
    1C        C  705   2.541   3.235   3.035
    1C        C  706   2.526   3.305   3.156
    1C        C  707   2.595   3.107   3.280
    1C        C  708   2.542   3.238   3.279
    1C        C  709   2.633   3.049   3.403
    1C        C  710   2.602   3.111   3.526
    1C        C  711   2.715   2.934   3.652
    1C        C  712   2.633   3.049   3.650
    1C        C  713   2.760   2.878   3.774
    1C        C  714   2.712   2.934   3.895
    1C        C  715   2.756   2.881   4.018
    1C        C  716   2.452   3.502   2.063
    1C        C  717   2.501   3.633   2.057
    1C        C  718   2.467   3.422   2.181
    1C        C  719   2.483   3.499   2.300
    1C        C  720   2.520   3.290   2.423
    1C        C  721   2.490   3.428   2.421
    1C        C  722   2.540   3.223   2.546
    1C        C  723   2.523   3.296   2.666
    1C        C  724   2.597   3.097   2.790
    1C        C  725   2.547   3.229   2.788
    1C        C  726   2.624   3.037   2.915
    1C        C  727   2.592   3.103   3.036
    1C        C  728   2.709   2.926   3.159
    1C        C  729   2.630   3.043   3.159
    1C        C  730   2.753   2.875   3.283
    1C        C  731   2.715   2.934   3.406
    1C        C  732   2.757   2.879   3.529
    1C        C  733   2.492   3.196   2.072
    1C        C  734   2.486   3.280   2.184
    1C        C  735   2.581   3.084   2.304
    1C        C  736   2.525   3.214   2.304
    1C        C  737   2.612   3.020   2.427
    1C        C  738   2.586   3.090   2.547
    1C        C  739   2.700   2.910   2.672
    1C        C  740   2.628   3.031   2.669
    1C        C  741   2.746   2.859   2.796
    1C        C  742   2.702   2.919   2.915
    1C        C  743   2.751   2.868   3.038
    1C        C  744   2.544   3.067   2.073
    1C        C  745   2.684   2.894   2.187
    1C        C  746   2.607   3.013   2.185
    1C        C  747   2.730   2.838   2.308
    1C        C  748   2.682   2.898   2.427
    1C        C  749   2.738   2.853   2.549
    1C        C  750   2.741   2.838   2.072
    1C        C  751   3.647   2.284   2.018
    1C        O  752   3.658   2.182   2.091
    1C        O  753   3.620   2.265   1.882
    1C        C  754   4.607   3.048   1.968
    1C        O  755   4.584   3.067   1.846
    1C        O  756   4.708   2.961   2.012
    1C        C  757   4.466   4.219   1.971
    1C        O  758   4.562   4.291   2.012
    1C        O  759   4.489   4.183   1.837
    1C        C  760   3.579   4.647   1.933
    1C        O  761   3.616   4.767   1.921
    1C        O  762   3.564   4.600   1.802
    1C        C  763   2.896   4.474   1.928
    1C        O  764   2.909   4.415   1.817
    1C        O  765   2.808   4.582   1.916
    1C        C  766   2.325   3.491   1.987
    1C        O  767   2.324   3.434   1.875
    1C        O  768   2.198   3.507   2.043
    1C        C  769   4.689   3.589   5.062
    1C        O  770   4.651   3.573   5.181
    1C        O  771   4.820   3.630   5.034
    1C        C  772   4.282   4.476   5.013
    1C        O  773   4.297   4.494   5.137
    1C        O  774   4.358   4.568   4.939
    1C        C  775   4.139   2.533   5.086
    1C        O  776   4.245   2.469   5.064
    1C        O  777   4.124   2.544   5.225
    1C        C  778   2.871   4.554   5.036
    1C        O  779   2.759   4.612   5.022
    1C        O  780   2.930   4.588   5.158
    1C        C  781   2.454   3.030   5.048
    1C        O  782   2.346   2.987   4.999
    1C        O  783   2.448   3.035   5.186
    1C        C  784   2.412   3.996   5.048
    1C        O  785   2.295   4.005   5.002
    1C        O  786   2.419   3.941   5.177
    1C        C  787   2.942   2.438   1.995
    1C        O  788   2.964   2.415   1.873
    1C        O  789   2.813   2.405   2.033
    1C        C  790   3.189   2.397   5.088
    1C        O  791   3.186   2.272   5.074
    1C        O  792   3.181   2.431   5.224
    1C        H  793   4.255   3.036   5.040
    1C        H  794   4.209   2.790   5.072
    1C        H  795   4.472   3.136   5.068
    1C        H  796   4.479   3.377   5.058
    1C        H  797   4.584   3.821   5.033
    1C        H  798   4.431   3.983   5.054
    1C        H  799   4.280   4.164   5.060
    1C        H  800   4.018   4.507   5.041
    1C        H  801   3.821   4.586   5.044
    1C        H  802   3.588   4.645   5.034
    1C        H  803   3.390   4.535   5.048
    1C        H  804   3.170   4.469   5.054
    1C        H  805   3.898   2.461   5.055
    1C        H  806   3.679   2.447   5.072
    1C        H  807   2.982   2.515   5.035
    1C        H  808   3.445   2.507   5.072
    1C        H  809   2.873   2.750   5.087
    1C        H  810   2.719   2.914   5.082
    1C        H  811   2.568   3.296   5.067
    1C        H  812   2.484   3.497   5.060
    1C        H  813   2.468   3.730   5.052
    1C        H  814   2.595   4.178   5.045
    1C        H  815   2.745   4.336   5.045
    1C        H  816   2.735   2.896   1.982
    1C        H  817   2.802   2.656   1.995
    1C        H  818   3.219   2.476   1.988
    1C        H  819   3.430   2.444   1.976
    1C        H  820   3.845   2.538   1.971
    1C        H  821   4.082   2.583   1.976
    1C        H  822   4.292   2.704   1.985
    1C        H  823   4.348   2.949   1.982
    1C        H  824   4.575   3.317   1.970
    1C        H  825   4.423   3.518   2.006
    1C        H  826   4.543   3.754   1.967
    1C        H  827   3.796   4.497   1.946
    1C        H  828   3.994   4.418   1.950
    1C        H  829   4.176   4.273   1.954
    1C        H  830   4.492   3.964   1.962
    1C        H  831   2.659   3.830   1.974
    1C        H  832   2.774   4.035   1.988
    1C        H  833   2.730   4.287   1.961
    1C        H  834   3.375   4.494   1.941
    1C        H  835   3.180   4.359   1.971
    1C        H  836   2.502   3.002   1.999
    1C        H  837   2.471   3.241   1.978
    1C        H  838   2.459   3.692   1.977
    2V3OU   H29  839   2.807   3.556   4.194
    2V3OU   C27  840   2.792   3.505   4.293
    2V3OU   H27  841   2.736   3.573   4.363
    2V3OU   H28  842   2.741   3.406   4.283
    2V3OU   O11  843   2.916   3.464   4.353
    2V3OU   C15  844   2.928   3.399   4.474
    2V3OU   C13  845   3.056   3.376   4.529
    2V3OU   C14  846   3.080   3.277   4.624
    2V3OU   C16  847   2.983   3.189   4.674
    2V3OU    H6  848   2.997   3.106   4.744
    2V3OU   C12  849   3.218   3.228   4.642
    2V3OU    O2  850   3.240   3.130   4.716
    2V3OU   C10  851   3.330   3.310   4.592
    2V3OU    C8  852   3.461   3.271   4.614
    2V3OU   O10  853   3.488   3.157   4.683
    2V3OU   H26  854   3.401   3.115   4.687
    2V3OU    C6  855   3.567   3.350   4.559
    2V3OU    C5  856   3.535   3.468   4.494
    2V3OU    C4  857   3.707   3.297   4.560
    2V3OU    H4  858   3.728   3.231   4.648
    2V3OU    H5  859   3.712   3.230   4.469
    2V3OU    C2  860   3.820   3.400   4.554
    2V3OU    O6  861   3.807   3.476   4.674
    2V3OU   H21  862   3.764   3.560   4.651
    2V3OU    C3  863   3.783   3.499   4.443
    2V3OU    H2  864   3.863   3.577   4.438
    2V3OU    H3  865   3.779   3.445   4.345
    2V3OU   C25  866   3.953   3.326   4.540
    2V3OU    O7  867   3.999   3.296   4.430
    2V3OU   C26  868   4.030   3.292   4.667
    2V3OU   H22  869   4.063   3.385   4.720
    2V3OU   H23  870   4.119   3.227   4.644
    2V3OU    O8  871   3.958   3.209   4.755
    2V3OU   H24  872   3.926   3.275   4.819
    2V3OU    C1  873   3.647   3.562   4.462
    2V3OU    H1  874   3.622   3.620   4.368
    2V3OU    O3  875   3.656   3.659   4.567
    2V3OU   C19  876   3.618   3.795   4.548
    2V3OU    H9  877   3.520   3.806   4.492
    2V3OU    O4  878   3.716   3.852   4.463
    2V3OU   C20  879   3.847   3.877   4.514
    2V3OU   H10  880   3.891   3.773   4.525
    2V3OU   C24  881   3.610   3.855   4.688
    2V3OU   H16  882   3.544   3.794   4.755
    2V3OU   H17  883   3.567   3.958   4.676
    2V3OU   C23  884   3.750   3.875   4.747
    2V3OU   H15  885   3.790   3.771   4.772
    2V3OU    N1  886   3.734   3.951   4.869
    2V3OU   H19  887   3.808   3.922   4.930
    2V3OU   H20  888   3.650   3.941   4.922
    2V3OU   C21  889   3.850   3.946   4.651
    2V3OU   H11  890   3.955   3.936   4.692
    2V3OU    O5  891   3.828   4.086   4.656
    2V3OU   H18  892   3.796   4.103   4.746
    2V3OU   C22  893   3.913   3.956   4.403
    2V3OU   H12  894   3.861   4.053   4.385
    2V3OU   H13  895   3.904   3.901   4.305
    2V3OU   H14  896   4.023   3.961   4.422
    2V3OU   C11  897   3.161   3.471   4.489
    2V3OU    O1  898   3.144   3.594   4.472
    2V3OU    C9  899   3.299   3.426   4.516
    2V3OU    C7  900   3.400   3.510   4.471
    2V3OU    O9  901   3.383   3.616   4.384
    2V3OU   H25  902   3.287   3.630   4.393
    2V3OU   C17  903   2.833   3.309   4.527
    2V3OU    H7  904   2.736   3.357   4.510
    2V3OU   C18  905   2.856   3.213   4.624
    2V3OU    H8  906   2.784   3.170   4.695
    3SOL     OW  907   2.968   4.421   5.355
    3SOL    HW1  908   2.962   4.472   5.269
    3SOL    HW2  909   2.971   4.323   5.335
    4SOL     OW  910   6.999   0.516   0.069
    4SOL    HW1  911   6.999   0.423   0.107
    4SOL    HW2  912   0.031   0.518   7.012
    5SOL     OW  913   4.352   0.741   2.145
    5SOL    HW1  914   4.323   0.761   2.238
    5SOL    HW2  915   4.434   0.794   2.123
    6SOL     OW  916   5.564   1.377   3.358
    6SOL    HW1  917   5.560   1.398   3.456
    6SOL    HW2  918   5.486   1.419   3.312
    7SOL     OW  919   1.160   4.337   5.296
    7SOL    HW1  920   1.180   4.241   5.277
    7SOL    HW2  921   1.235   4.394   5.262
    8SOL     OW  922   2.463   2.221   5.562
    8SOL    HW1  923   2.504   2.181   5.479
    8SOL    HW2  924   2.489   2.317   5.570
    9SOL     OW  925   0.016   1.774   6.259
    9SOL    HW1  926   6.982   1.850   6.287
    9SOL    HW2  927   0.004   1.697   6.321
   10SOL     OW  928   4.314   5.027   3.046
   10SOL    HW1  929   4.384   4.959   3.022
   10SOL    HW2  930   4.225   4.982   3.053
   11SOL     OW  931   1.932   0.674   0.041
   11SOL    HW1  932   1.984   0.609   0.096
   11SOL    HW2  933   1.904   0.751   0.097
   12SOL     OW  934   2.643   4.694   3.411
   12SOL    HW1  935   2.603   4.688   3.503
   12SOL    HW2  936   2.610   4.619   3.354
   13SOL     OW  937   4.134   5.723   2.688
   13SOL    HW1  938   4.087   5.811   2.683
   13SOL    HW2  939   4.201   5.726   2.762
   14SOL     OW  940   4.933   5.044   5.555
   14SOL    HW1  941   4.936   5.071   5.458
   14SOL    HW2  942   4.876   4.962   5.565
   15SOL     OW  943   0.700   5.852   6.114
   15SOL    HW1  944   0.667   5.932   6.163
   15SOL    HW2  945   0.644   5.773   6.138
   16SOL     OW  946   5.839   2.657   6.485
   16SOL    HW1  947   5.777   2.657   6.407
   16SOL    HW2  948   5.930   2.686   6.456
   17SOL     OW  949   6.111   0.642   5.617
   17SOL    HW1  950   6.190   0.622   5.559
   17SOL    HW2  951   6.141   0.686   5.701
   18SOL     OW  952   2.845   0.804   5.113
   18SOL    HW1  953   2.918   0.736   5.120
   18SOL    HW2  954   2.872   0.888   5.160
   19SOL     OW  955   0.923   1.991   3.176
   19SOL    HW1  956   0.999   2.045   3.213
   19SOL    HW2  957   0.926   1.993   3.076
   20SOL     OW  958   5.727   2.583   5.852
   20SOL    HW1  959   5.797   2.644   5.817
   20SOL    HW2  960   5.637   2.625   5.840
   21SOL     OW  961   3.589   6.075   2.828
   21SOL    HW1  962   3.593   6.104   2.732
   21SOL    HW2  963   3.667   6.114   2.877
   22SOL     OW  964   1.305   6.437   5.058
   22SOL    HW1  965   1.387   6.425   5.114
   22SOL    HW2  966   1.244   6.359   5.072
   23SOL     OW  967   5.062   4.967   2.100
   23SOL    HW1  968   5.074   4.921   2.188
   23SOL    HW2  969   4.983   4.928   2.052
   24SOL     OW  970   3.942   0.465   1.680
   24SOL    HW1  971   3.961   0.378   1.727
   24SOL    HW2  972   3.847   0.465   1.649
   25SOL     OW  973   2.955   6.935   3.300
   25SOL    HW1  974   2.997   7.008   3.354
   25SOL    HW2  975   2.868   6.908   3.341
   26SOL     OW  976   1.706   2.116   6.643
   26SOL    HW1  977   1.772   2.168   6.696
   26SOL    HW2  978   1.665   2.175   6.574
   27SOL     OW  979   0.279   1.123   2.667
   27SOL    HW1  980   0.187   1.127   2.630
   27SOL    HW2  981   0.344   1.156   2.598
   28SOL     OW  982   1.706   0.664   4.836
   28SOL    HW1  983   1.681   0.632   4.744
   28SOL    HW2  984   1.735   0.585   4.891
   29SOL     OW  985   6.823   0.794   0.505
   29SOL    HW1  986   6.811   0.734   0.425
   29SOL    HW2  987   6.882   0.870   0.480
   30SOL     OW  988   3.809   0.629   5.007
   30SOL    HW1  989   3.853   0.711   4.969
   30SOL    HW2  990   3.812   0.555   4.940
   31SOL     OW  991   0.184   2.599   4.909
   31SOL    HW1  992   0.139   2.642   4.831
   31SOL    HW2  993   0.205   2.504   4.887
   32SOL     OW  994   1.413   1.644   1.204
   32SOL    HW1  995   1.490   1.582   1.190
   32SOL    HW2  996   1.431   1.730   1.156
   33SOL     OW  997   0.406   3.761   5.636
   33SOL    HW1  998   0.368   3.852   5.656
   33SOL    HW2  999   0.371   3.696   5.703
   34SOL     OW 1000   1.660   5.276   4.874
   34SOL    HW1 1001   1.670   5.329   4.790
   34SOL    HW2 1002   1.729   5.204   4.877
   35SOL     OW 1003   3.627   2.517   6.256
   35SOL    HW1 1004   3.624   2.586   6.328
   35SOL    HW2 1005   3.682   2.439   6.286
   36SOL     OW 1006   4.954   1.074   4.063
   36SOL    HW1 1007   4.932   1.170   4.078
   36SOL    HW2 1008   5.053   1.062   4.067
   37SOL     OW 1009   2.259   1.146   3.430
   37SOL    HW1 1010   2.215   1.176   3.515
   37SOL    HW2 1011   2.189   1.117   3.365
   38SOL     OW 1012   2.072   5.268   2.342
   38SOL    HW1 1013   2.087   5.319   2.427
   38SOL    HW2 1014   2.155   5.270   2.287
   39SOL     OW 1015   6.077   4.666   6.665
   39SOL    HW1 1016   6.169   4.705   6.657
   39SOL    HW2 1017   6.013   4.739   6.686
   40SOL     OW 1018   3.418   0.332   6.242
   40SOL    HW1 1019   3.405   0.334   6.143
   40SOL    HW2 1020   3.497   0.275   6.264
   41SOL     OW 1021   5.659   4.164   2.392
   41SOL    HW1 1022   5.718   4.115   2.328
   41SOL    HW2 1023   5.709   4.240   2.432
   42SOL     OW 1024   2.943   5.521   4.897
   42SOL    HW1 1025   2.877   5.558   4.831
   42SOL    HW2 1026   2.950   5.422   4.887
   43SOL     OW 1027   4.067   6.749   4.794
   43SOL    HW1 1028   3.980   6.703   4.777
   43SOL    HW2 1029   4.133   6.721   4.725
   44SOL     OW 1030   6.317   3.283   5.047
   44SOL    HW1 1031   6.361   3.269   4.959
   44SOL    HW2 1032   6.321   3.380   5.072
   45SOL     OW 1033   4.370   5.491   1.009
   45SOL    HW1 1034   4.389   5.588   0.992
   45SOL    HW2 1035   4.420   5.461   1.091
   46SOL     OW 1036   0.761   3.057   3.949
   46SOL    HW1 1037   0.752   3.031   3.853
   46SOL    HW2 1038   0.674   3.093   3.983
   47SOL     OW 1039   5.246   3.698   2.102
   47SOL    HW1 1040   5.197   3.746   2.175
   47SOL    HW2 1041   5.193   3.620   2.071
   48SOL     OW 1042   0.188   3.098   6.797
   48SOL    HW1 1043   0.159   3.041   6.721
   48SOL    HW2 1044   0.233   3.041   6.866
   49SOL     OW 1045   4.991   2.914   0.409
   49SOL    HW1 1046   5.065   2.875   0.465
   49SOL    HW2 1047   4.974   2.854   0.331
   50SOL     OW 1048   6.103   1.948   5.998
   50SOL    HW1 1049   6.132   2.003   5.920
   50SOL    HW2 1050   6.182   1.921   6.053
   51SOL     OW 1051   1.972   4.746   2.546
   51SOL    HW1 1052   1.946   4.655   2.515
   51SOL    HW2 1053   1.996   4.802   2.466
   52SOL     OW 1054   5.457   2.921   2.063
   52SOL    HW1 1055   5.494   2.961   2.146
   52SOL    HW2 1056   5.431   2.826   2.079
   53SOL     OW 1057   5.205   0.058   3.387
   53SOL    HW1 1058   5.249   0.034   3.473
   53SOL    HW2 1059   5.202   7.002   3.328
   54SOL     OW 1060   5.725   6.065   0.422
   54SOL    HW1 1061   5.691   6.157   0.403
   54SOL    HW2 1062   5.681   6.030   0.504
   55SOL     OW 1063   2.313   2.534   6.433
   55SOL    HW1 1064   2.234   2.594   6.444
   55SOL    HW2 1065   2.343   2.535   6.337
   56SOL     OW 1066   1.414   1.944   0.640
   56SOL    HW1 1067   1.460   1.876   0.697
   56SOL    HW2 1068   1.330   1.904   0.603
   57SOL     OW 1069   3.498   0.579   0.005
   57SOL    HW1 1070   3.458   0.489   7.016
   57SOL    HW2 1071   3.518   0.621   6.941
   58SOL     OW 1072   0.660   0.517   6.671
   58SOL    HW1 1073   0.705   0.604   6.650
   58SOL    HW2 1074   0.572   0.513   6.625
   59SOL     OW 1075   6.379   3.979   6.548
   59SOL    HW1 1076   6.429   3.893   6.539
   59SOL    HW2 1077   6.375   4.006   6.644
   60SOL     OW 1078   5.966   0.322   3.323
   60SOL    HW1 1079   6.014   0.399   3.283
   60SOL    HW2 1080   5.871   0.321   3.291
   61SOL     OW 1081   0.767   1.204   4.018
   61SOL    HW1 1082   0.686   1.206   4.076
   61SOL    HW2 1083   0.778   1.293   3.973
   62SOL     OW 1084   1.002   1.175   1.556
   62SOL    HW1 1085   0.948   1.133   1.629
   62SOL    HW2 1086   1.058   1.105   1.511
   63SOL     OW 1087   4.043   6.542   4.042
   63SOL    HW1 1088   4.082   6.450   4.038
   63SOL    HW2 1089   3.997   6.562   3.955
   64SOL     OW 1090   1.386   4.068   6.908
   64SOL    HW1 1091   1.470   4.015   6.895
   64SOL    HW2 1092   1.409   4.158   6.946
   65SOL     OW 1093   0.496   0.525   5.597
   65SOL    HW1 1094   0.480   0.624   5.599
   65SOL    HW2 1095   0.453   0.486   5.516
   66SOL     OW 1096   3.765   6.969   2.496
   66SOL    HW1 1097   3.747   6.965   2.398
   66SOL    HW2 1098   3.813   0.030   2.518
   67SOL     OW 1099   0.459   2.288   0.679
   67SOL    HW1 1100   0.480   2.317   0.585
   67SOL    HW2 1101   0.374   2.331   0.708
   68SOL     OW 1102   0.187   1.694   5.549
   68SOL    HW1 1103   0.183   1.717   5.646
   68SOL    HW2 1104   0.282   1.677   5.523
   69SOL     OW 1105   1.195   5.345   5.937
   69SOL    HW1 1106   1.171   5.338   6.034
   69SOL    HW2 1107   1.212   5.254   5.900
   70SOL     OW 1108   5.324   3.789   4.714
   70SOL    HW1 1109   5.326   3.776   4.615
   70SOL    HW2 1110   5.410   3.831   4.744
   71SOL     OW 1111   4.772   1.512   4.947
   71SOL    HW1 1112   4.719   1.430   4.971
   71SOL    HW2 1113   4.761   1.532   4.850
   72SOL     OW 1114   0.330   0.711   3.232
   72SOL    HW1 1115   0.395   0.788   3.239
   72SOL    HW2 1116   0.248   0.732   3.285
   73SOL     OW 1117   2.830   0.876   0.424
   73SOL    HW1 1118   2.816   0.778   0.408
   73SOL    HW2 1119   2.905   0.908   0.366
   74SOL     OW 1120   2.359   1.705   6.339
   74SOL    HW1 1121   2.361   1.641   6.262
   74SOL    HW2 1122   2.281   1.766   6.329
   75SOL     OW 1123   4.407   1.252   1.108
   75SOL    HW1 1124   4.488   1.232   1.163
   75SOL    HW2 1125   4.330   1.271   1.169
   76SOL     OW 1126   2.657   4.724   5.638
   76SOL    HW1 1127   2.697   4.665   5.708
   76SOL    HW2 1128   2.690   4.695   5.548
   77SOL     OW 1129   1.849   5.139   3.865
   77SOL    HW1 1130   1.866   5.234   3.838
   77SOL    HW2 1131   1.927   5.082   3.838
   78SOL     OW 1132   4.286   1.543   0.993
   78SOL    HW1 1133   4.374   1.520   0.950
   78SOL    HW2 1134   4.245   1.621   0.945
   79SOL     OW 1135   2.278   5.360   1.707
   79SOL    HW1 1136   2.203   5.346   1.772
   79SOL    HW2 1137   2.361   5.318   1.742
   80SOL     OW 1138   4.404   2.237   5.426
   80SOL    HW1 1139   4.339   2.237   5.502
   80SOL    HW2 1140   4.477   2.171   5.445
   81SOL     OW 1141   1.977   0.051   1.071
   81SOL    HW1 1142   1.995   7.013   0.995
   81SOL    HW2 1143   1.973   0.144   1.036
   82SOL     OW 1144   0.904   6.297   2.359
   82SOL    HW1 1145   0.932   6.219   2.415
   82SOL    HW2 1146   0.859   6.365   2.417
   83SOL     OW 1147   6.896   2.085   5.446
   83SOL    HW1 1148   6.832   2.007   5.446
   83SOL    HW2 1149   6.983   2.056   5.484
   84SOL     OW 1150   6.355   2.642   3.810
   84SOL    HW1 1151   6.346   2.701   3.890
   84SOL    HW2 1152   6.349   2.697   3.727
   85SOL     OW 1153   1.578   6.892   3.837
   85SOL    HW1 1154   1.606   6.803   3.802
   85SOL    HW2 1155   1.580   6.959   3.763
   86SOL     OW 1156   5.468   1.223   6.295
   86SOL    HW1 1157   5.380   1.267   6.310
   86SOL    HW2 1158   5.465   1.129   6.328
   87SOL     OW 1159   4.584   4.469   6.656
   87SOL    HW1 1160   4.539   4.538   6.600
   87SOL    HW2 1161   4.517   4.421   6.711
   88SOL     OW 1162   2.962   2.298   5.628
   88SOL    HW1 1163   2.991   2.387   5.663
   88SOL    HW2 1164   2.957   2.302   5.529
   89SOL     OW 1165   2.908   3.319   1.800
   89SOL    HW1 1166   2.896   3.401   1.744
   89SOL    HW2 1167   2.881   3.339   1.895
   90SOL     OW 1168   4.883   3.924   3.286
   90SOL    HW1 1169   4.981   3.927   3.267
   90SOL    HW2 1170   4.869   3.900   3.382
   91SOL     OW 1171   6.145   5.851   6.352
   91SOL    HW1 1172   6.054   5.884   6.378
   91SOL    HW2 1173   6.175   5.899   6.270
   92SOL     OW 1174   5.028   4.064   0.138
   92SOL    HW1 1175   4.981   4.134   0.084
   92SOL    HW2 1176   4.995   4.068   0.233
   93SOL     OW 1177   3.290   2.960   1.042
   93SOL    HW1 1178   3.329   2.876   1.004
   93SOL    HW2 1179   3.191   2.949   1.053
   94SOL     OW 1180   2.595   0.379   6.127
   94SOL    HW1 1181   2.671   0.438   6.100
   94SOL    HW2 1182   2.553   0.415   6.210
   95SOL     OW 1183   0.473   0.610   4.655
   95SOL    HW1 1184   0.485   0.708   4.639
   95SOL    HW2 1185   0.438   0.567   4.572
   96SOL     OW 1186   5.143   5.011   6.988
   96SOL    HW1 1187   5.078   5.048   0.029
   96SOL    HW2 1188   5.168   4.918   7.014
   97SOL     OW 1189   1.869   4.862   5.367
   97SOL    HW1 1190   1.941   4.794   5.381
   97SOL    HW2 1191   1.907   4.953   5.381
   98SOL     OW 1192   0.888   2.506   2.092
   98SOL    HW1 1193   0.872   2.499   2.190
   98SOL    HW2 1194   0.896   2.414   2.053
   99SOL     OW 1195   3.841   3.736   3.239
   99SOL    HW1 1196   3.854   3.816   3.181
   99SOL    HW2 1197   3.925   3.718   3.290
  100SOL     OW 1198   0.122   6.951   4.088
  100SOL    HW1 1199   0.188   6.899   4.034
  100SOL    HW2 1200   0.128   6.923   4.184
  101SOL     OW 1201   0.300   5.015   2.351
  101SOL    HW1 1202   0.299   4.993   2.449
  101SOL    HW2 1203   0.255   4.941   2.301
  102SOL     OW 1204   2.714   6.271   2.186
  102SOL    HW1 1205   2.758   6.195   2.139
  102SOL    HW2 1206   2.761   6.287   2.274
  103SOL     OW 1207   2.329   1.191   2.925
  103SOL    HW1 1208   2.335   1.236   2.836
  103SOL    HW2 1209   2.392   1.235   2.989
  104SOL     OW 1210   0.964   4.669   1.891
  104SOL    HW1 1211   0.936   4.647   1.984
  104SOL    HW2 1212   0.900   4.626   1.827
  105SOL     OW 1213   5.923   1.765   0.037
  105SOL    HW1 1214   5.831   1.770   0.076
  105SOL    HW2 1215   5.989   1.805   0.100
  106SOL     OW 1216   5.105   5.257   1.598
  106SOL    HW1 1217   5.029   5.203   1.633
  106SOL    HW2 1218   5.188   5.201   1.596
  107SOL     OW 1219   6.790   1.060   6.985
  107SOL    HW1 1220   6.869   1.120   6.999
  107SOL    HW2 1221   6.796   0.983   0.023
  108SOL     OW 1222   2.363   0.264   4.865
  108SOL    HW1 1223   2.305   0.201   4.916
  108SOL    HW2 1224   2.382   0.345   4.920
  109SOL     OW 1225   3.730   0.872   2.794
  109SOL    HW1 1226   3.807   0.926   2.827
  109SOL    HW2 1227   3.717   0.888   2.696
  110SOL     OW 1228   2.215   4.465   5.434
  110SOL    HW1 1229   2.225   4.404   5.512
  110SOL    HW2 1230   2.231   4.559   5.463
  111SOL     OW 1231   6.317   1.570   2.405
  111SOL    HW1 1232   6.253   1.578   2.481
  111SOL    HW2 1233   6.289   1.494   2.346
  112SOL     OW 1234   4.319   6.412   6.562
  112SOL    HW1 1235   4.270   6.430   6.476
  112SOL    HW2 1236   4.253   6.403   6.636
  113SOL     OW 1237   6.213   5.719   2.604
  113SOL    HW1 1238   6.226   5.640   2.544
  113SOL    HW2 1239   6.213   5.689   2.699
  114SOL     OW 1240   1.109   4.183   3.496
  114SOL    HW1 1241   1.130   4.135   3.410
  114SOL    HW2 1242   1.194   4.204   3.544
  115SOL     OW 1243   5.937   1.244   3.257
  115SOL    HW1 1244   5.871   1.184   3.303
  115SOL    HW2 1245   5.900   1.337   3.254
  116SOL     OW 1246   0.977   6.327   1.430
  116SOL    HW1 1247   1.004   6.419   1.461
  116SOL    HW2 1248   0.977   6.265   1.508
  117SOL     OW 1249   2.975   1.432   0.069
  117SOL    HW1 1250   3.038   1.476   0.133
  117SOL    HW2 1251   2.890   1.484   0.065
  118SOL     OW 1252   1.174   1.307   3.460
  118SOL    HW1 1253   1.249   1.275   3.519
  118SOL    HW2 1254   1.116   1.369   3.512
  119SOL     OW 1255   6.829   0.218   0.281
  119SOL    HW1 1256   6.924   0.186   0.275
  119SOL    HW2 1257   6.782   0.199   0.195
  120SOL     OW 1258   4.600   0.724   5.519
  120SOL    HW1 1259   4.605   0.754   5.614
  120SOL    HW2 1260   4.692   0.703   5.486
  121SOL     OW 1261   1.393   3.820   6.677
  121SOL    HW1 1262   1.378   3.897   6.740
  121SOL    HW2 1263   1.450   3.751   6.721
  122SOL     OW 1264   1.000   4.427   0.277
  122SOL    HW1 1265   1.017   4.463   0.186
  122SOL    HW2 1266   0.996   4.503   0.343
  123SOL     OW 1267   1.367   0.890   1.759
  123SOL    HW1 1268   1.442   0.851   1.812
  123SOL    HW2 1269   1.401   0.917   1.669
  124SOL     OW 1270   3.033   2.809   1.016
  124SOL    HW1 1271   2.958   2.773   0.960
  124SOL    HW2 1272   3.104   2.740   1.024
  125SOL     OW 1273   3.525   2.547   0.110
  125SOL    HW1 1274   3.518   2.448   0.104
  125SOL    HW2 1275   3.467   2.589   0.040
  126SOL     OW 1276   3.360   2.878   2.885
  126SOL    HW1 1277   3.266   2.881   2.920
  126SOL    HW2 1278   3.358   2.868   2.785
  127SOL     OW 1279   6.556   6.044   5.871
  127SOL    HW1 1280   6.458   6.064   5.875
  127SOL    HW2 1281   6.585   6.042   5.775
  128SOL     OW 1282   5.090   3.418   1.615
  128SOL    HW1 1283   4.993   3.401   1.635
  128SOL    HW2 1284   5.146   3.353   1.666
  129SOL     OW 1285   2.117   5.673   0.934
  129SOL    HW1 1286   2.109   5.772   0.941
  129SOL    HW2 1287   2.211   5.648   0.909
  130SOL     OW 1288   5.681   2.074   4.799
  130SOL    HW1 1289   5.605   2.012   4.817
  130SOL    HW2 1290   5.719   2.055   4.708
  131SOL     OW 1291   6.838   1.356   4.129
  131SOL    HW1 1292   6.859   1.297   4.051
  131SOL    HW2 1293   6.872   1.448   4.112
  132SOL     OW 1294   3.547   4.170   1.281
  132SOL    HW1 1295   3.626   4.179   1.343
  132SOL    HW2 1296   3.499   4.257   1.275
  133SOL     OW 1297   5.387   0.472   4.515
  133SOL    HW1 1298   5.292   0.504   4.507
  133SOL    HW2 1299   5.413   0.423   4.432
  134SOL     OW 1300   5.915   0.708   2.204
  134SOL    HW1 1301   6.014   0.701   2.215
  134SOL    HW2 1302   5.873   0.740   2.289
  135SOL     OW 1303   4.886   3.631   4.293
  135SOL    HW1 1304   4.889   3.547   4.238
  135SOL    HW2 1305   4.798   3.676   4.280
  136SOL     OW 1306   2.357   6.027   4.912
  136SOL    HW1 1307   2.305   6.068   4.837
  136SOL    HW2 1308   2.322   6.061   5.000
  137SOL     OW 1309   3.957   2.086   4.501
  137SOL    HW1 1310   3.999   2.020   4.562
  137SOL    HW2 1311   3.894   2.039   4.439
  138SOL     OW 1312   0.735   5.412   3.935
  138SOL    HW1 1313   0.648   5.461   3.943
  138SOL    HW2 1314   0.804   5.473   3.896
  139SOL     OW 1315   2.254   5.534   6.449
  139SOL    HW1 1316   2.167   5.524   6.497
  139SOL    HW2 1317   2.237   5.542   6.350
  140SOL     OW 1318   2.356   0.576   2.865
  140SOL    HW1 1319   2.396   0.647   2.808
  140SOL    HW2 1320   2.400   0.489   2.846
  141SOL     OW 1321   6.440   3.642   7.013
  141SOL    HW1 1322   6.526   3.646   0.038
  141SOL    HW2 1323   6.449   3.691   6.926
  142SOL     OW 1324   0.794   4.276   1.797
  142SOL    HW1 1325   0.880   4.257   1.844
  142SOL    HW2 1326   0.773   4.373   1.804
  143SOL     OW 1327   5.873   6.450   1.380
  143SOL    HW1 1328   5.890   6.525   1.444
  143SOL    HW2 1329   5.939   6.455   1.305
  144SOL     OW 1330   2.654   4.887   3.984
  144SOL    HW1 1331   2.606   4.967   3.949
  144SOL    HW2 1332   2.748   4.912   4.006
  145SOL     OW 1333   6.747   5.167   2.819
  145SOL    HW1 1334   6.700   5.079   2.824
  145SOL    HW2 1335   6.684   5.237   2.787
  146SOL     OW 1336   6.009   1.693   5.847
  146SOL    HW1 1337   6.060   1.732   5.770
  146SOL    HW2 1338   6.028   1.745   5.930
  147SOL     OW 1339   5.227   1.530   5.155
  147SOL    HW1 1340   5.321   1.564   5.163
  147SOL    HW2 1341   5.207   1.470   5.233
  148SOL     OW 1342   1.179   4.460   1.214
  148SOL    HW1 1343   1.171   4.521   1.135
  148SOL    HW2 1344   1.094   4.462   1.266
  149SOL     OW 1345   2.607   2.164   5.315
  149SOL    HW1 1346   2.696   2.123   5.293
  149SOL    HW2 1347   2.540   2.135   5.248
  150SOL     OW 1348   4.021   1.659   5.645
  150SOL    HW1 1349   3.953   1.591   5.620
  150SOL    HW2 1350   3.979   1.729   5.703
  151SOL     OW 1351   3.911   1.395   0.996
  151SOL    HW1 1352   3.940   1.490   1.007
  151SOL    HW2 1353   3.866   1.363   1.080
  152SOL     OW 1354   0.896   1.510   6.804
  152SOL    HW1 1355   0.924   1.602   6.776
  152SOL    HW2 1356   0.970   1.467   6.855
  153SOL     OW 1357   3.019   1.187   3.642
  153SOL    HW1 1358   2.982   1.230   3.724
  153SOL    HW2 1359   2.990   1.240   3.562
  154SOL     OW 1360   6.470   1.782   1.108
  154SOL    HW1 1361   6.375   1.785   1.074
  154SOL    HW2 1362   6.476   1.835   1.192
  155SOL     OW 1363   0.145   0.212   2.149
  155SOL    HW1 1364   0.212   0.243   2.217
  155SOL    HW2 1365   0.096   0.132   2.185
  156SOL     OW 1366   4.582   0.772   0.291
  156SOL    HW1 1367   4.659   0.835   0.299
  156SOL    HW2 1368   4.530   0.793   0.209
  157SOL     OW 1369   5.344   3.622   0.642
  157SOL    HW1 1370   5.414   3.607   0.712
  157SOL    HW2 1371   5.355   3.713   0.603
  158SOL     OW 1372   1.392   3.226   2.601
  158SOL    HW1 1373   1.323   3.269   2.660
  158SOL    HW2 1374   1.415   3.289   2.526
  159SOL     OW 1375   4.860   5.207   0.976
  159SOL    HW1 1376   4.847   5.126   0.920
  159SOL    HW2 1377   4.894   5.282   0.919
  160SOL     OW 1378   5.711   0.881   0.655
  160SOL    HW1 1379   5.800   0.866   0.614
  160SOL    HW2 1380   5.713   0.856   0.752
  161SOL     OW 1381   0.779   6.546   0.503
  161SOL    HW1 1382   0.858   6.538   0.442
  161SOL    HW2 1383   0.809   6.529   0.597
  162SOL     OW 1384   2.336   6.110   0.292
  162SOL    HW1 1385   2.318   6.019   0.256
  162SOL    HW2 1386   2.283   6.123   0.376
  163SOL     OW 1387   7.005   4.730   3.284
  163SOL    HW1 1388   0.077   4.756   3.285
  163SOL    HW2 1389   6.998   4.631   3.286
  164SOL     OW 1390   1.400   1.689   2.980
  164SOL    HW1 1391   1.356   1.729   3.060
  164SOL    HW2 1392   1.346   1.707   2.898
  165SOL     OW 1393   0.384   5.704   2.780
  165SOL    HW1 1394   0.447   5.714   2.857
  165SOL    HW2 1395   0.436   5.677   2.699
  166SOL     OW 1396   6.100   3.916   1.590
  166SOL    HW1 1397   6.077   3.843   1.526
  166SOL    HW2 1398   6.137   3.994   1.539
  167SOL     OW 1399   5.604   1.863   6.913
  167SOL    HW1 1400   5.535   1.812   6.963
  167SOL    HW2 1401   5.559   1.930   6.852
  168SOL     OW 1402   4.415   3.571   1.515
  168SOL    HW1 1403   4.423   3.472   1.528
  168SOL    HW2 1404   4.491   3.603   1.458
  169SOL     OW 1405   6.161   3.245   0.768
  169SOL    HW1 1406   6.122   3.169   0.821
  169SOL    HW2 1407   6.090   3.284   0.710
  170SOL     OW 1408   1.566   5.316   2.691
  170SOL    HW1 1409   1.664   5.297   2.702
  170SOL    HW2 1410   1.532   5.267   2.611
  171SOL     OW 1411   2.040   3.256   0.259
  171SOL    HW1 1412   2.076   3.319   0.328
  171SOL    HW2 1413   2.086   3.273   0.172
  172SOL     OW 1414   5.692   2.301   1.694
  172SOL    HW1 1415   5.680   2.258   1.783
  172SOL    HW2 1416   5.782   2.345   1.690
  173SOL     OW 1417   5.952   1.133   5.328
  173SOL    HW1 1418   5.998   1.085   5.403
  173SOL    HW2 1419   5.941   1.070   5.251
  174SOL     OW 1420   5.470   5.736   5.478
  174SOL    HW1 1421   5.470   5.641   5.446
  174SOL    HW2 1422   5.520   5.742   5.564
  175SOL     OW 1423   1.785   0.868   0.923
  175SOL    HW1 1424   1.767   0.794   0.857
  175SOL    HW2 1425   1.741   0.952   0.891
  176SOL     OW 1426   4.674   4.803   2.777
  176SOL    HW1 1427   4.712   4.834   2.689
  176SOL    HW2 1428   4.703   4.709   2.795
  177SOL     OW 1429   5.413   1.751   4.549
  177SOL    HW1 1430   5.429   1.743   4.648
  177SOL    HW2 1431   5.494   1.790   4.506
  178SOL     OW 1432   2.662   5.810   5.005
  178SOL    HW1 1433   2.632   5.803   4.911
  178SOL    HW2 1434   2.701   5.900   5.021
  179SOL     OW 1435   4.519   5.238   0.355
  179SOL    HW1 1436   4.560   5.313   0.302
  179SOL    HW2 1437   4.588   5.168   0.371
  180SOL     OW 1438   3.873   0.008   0.659
  180SOL    HW1 1439   3.952   0.063   0.632
  180SOL    HW2 1440   3.842   0.037   0.749
  181SOL     OW 1441   3.235   2.724   5.257
  181SOL    HW1 1442   3.160   2.694   5.316
  181SOL    HW2 1443   3.275   2.645   5.211
  182SOL     OW 1444   5.055   2.870   6.914
  182SOL    HW1 1445   4.990   2.899   6.985
  182SOL    HW2 1446   5.021   2.898   6.824
  183SOL     OW 1447   3.798   1.929   4.297
  183SOL    HW1 1448   3.706   1.901   4.323
  183SOL    HW2 1449   3.856   1.848   4.288
  184SOL     OW 1450   0.888   6.250   3.430
  184SOL    HW1 1451   0.797   6.228   3.465
  184SOL    HW2 1452   0.938   6.301   3.500
  185SOL     OW 1453   0.322   1.730   4.160
  185SOL    HW1 1454   0.252   1.792   4.125
  185SOL    HW2 1455   0.411   1.775   4.157
  186SOL     OW 1456   5.364   6.006   4.606
  186SOL    HW1 1457   5.460   6.027   4.586
  186SOL    HW2 1458   5.310   6.089   4.598
  187SOL     OW 1459   4.126   5.188   2.548
  187SOL    HW1 1460   4.173   5.190   2.460
  187SOL    HW2 1461   4.124   5.280   2.587
  188SOL     OW 1462   2.357   2.200   3.297
  188SOL    HW1 1463   2.430   2.251   3.252
  188SOL    HW2 1464   2.269   2.221   3.253
  189SOL     OW 1465   6.132   5.598   0.083
  189SOL    HW1 1466   6.129   5.524   0.015
  189SOL    HW2 1467   6.147   5.685   0.037
  190SOL     OW 1468   6.157   5.301   0.279
  190SOL    HW1 1469   6.195   5.294   0.187
  190SOL    HW2 1470   6.119   5.393   0.292
  191SOL     OW 1471   6.830   0.996   6.092
  191SOL    HW1 1472   6.881   0.928   6.144
  191SOL    HW2 1473   6.876   1.085   6.100
  192SOL     OW 1474   0.218   4.636   1.364
  192SOL    HW1 1475   0.283   4.713   1.365
  192SOL    HW2 1476   0.129   4.668   1.396
  193SOL     OW 1477   3.480   4.974   5.968
  193SOL    HW1 1478   3.465   4.889   5.917
  193SOL    HW2 1479   3.550   4.959   6.037
  194SOL     OW 1480   3.941   6.535   1.971
  194SOL    HW1 1481   3.980   6.474   2.040
  194SOL    HW2 1482   3.993   6.527   1.886
  195SOL     OW 1483   3.306   0.753   2.311
  195SOL    HW1 1484   3.293   0.659   2.279
  195SOL    HW2 1485   3.218   0.801   2.309
  196SOL     OW 1486   2.609   1.305   6.461
  196SOL    HW1 1487   2.671   1.358   6.404
  196SOL    HW2 1488   2.575   1.226   6.410
  197SOL     OW 1489   2.305   5.869   0.191
  197SOL    HW1 1490   2.325   5.855   0.094
  197SOL    HW2 1491   2.207   5.877   0.205
  198SOL     OW 1492   4.562   5.731   0.887
  198SOL    HW1 1493   4.547   5.639   0.850
  198SOL    HW2 1494   4.629   5.726   0.962
  199SOL     OW 1495   5.538   0.809   1.978
  199SOL    HW1 1496   5.517   0.905   1.960
  199SOL    HW2 1497   5.616   0.781   1.922
  200SOL     OW 1498   1.225   3.109   2.330
  200SOL    HW1 1499   1.199   3.080   2.421
  200SOL    HW2 1500   1.311   3.160   2.334
  201SOL     OW 1501   2.545   0.850   6.866
  201SOL    HW1 1502   2.445   0.856   6.861
  201SOL    HW2 1503   2.580   0.805   6.784
  202SOL     OW 1504   4.896   6.605   4.149
  202SOL    HW1 1505   4.920   6.698   4.122
  202SOL    HW2 1506   4.968   6.567   4.207
  203SOL     OW 1507   5.041   3.464   6.056
  203SOL    HW1 1508   5.019   3.378   6.102
  203SOL    HW2 1509   4.974   3.481   5.983
  204SOL     OW 1510   0.865   6.926   0.195
  204SOL    HW1 1511   0.862   6.896   0.100
  204SOL    HW2 1512   0.877   7.025   0.199
  205SOL     OW 1513   0.554   1.758   1.035
  205SOL    HW1 1514   0.581   1.808   1.117
  205SOL    HW2 1515   0.595   1.667   1.036
  206SOL     OW 1516   0.856   4.295   1.098
  206SOL    HW1 1517   0.895   4.380   1.064
  206SOL    HW2 1518   0.769   4.314   1.144
  207SOL     OW 1519   4.073   0.364   5.512
  207SOL    HW1 1520   4.036   0.443   5.463
  207SOL    HW2 1521   4.006   0.334   5.580
  208SOL     OW 1522   5.435   4.394   6.058
  208SOL    HW1 1523   5.472   4.441   6.139
  208SOL    HW2 1524   5.344   4.360   6.079
  209SOL     OW 1525   0.489   6.011   5.825
  209SOL    HW1 1526   0.562   6.069   5.861
  209SOL    HW2 1527   0.446   6.057   5.747
  210SOL     OW 1528   4.280   2.334   2.301
  210SOL    HW1 1529   4.185   2.344   2.333
  210SOL    HW2 1530   4.292   2.244   2.260
  211SOL     OW 1531   0.874   1.326   2.240
  211SOL    HW1 1532   0.836   1.236   2.218
  211SOL    HW2 1533   0.974   1.323   2.238
  212SOL     OW 1534   1.041   4.819   3.336
  212SOL    HW1 1535   1.061   4.890   3.269
  212SOL    HW2 1536   1.125   4.770   3.359
  213SOL     OW 1537   5.165   1.455   0.044
  213SOL    HW1 1538   5.130   1.508   6.991
  213SOL    HW2 1539   5.093   1.446   0.113
  214SOL     OW 1540   0.734   6.911   3.358
  214SOL    HW1 1541   0.731   6.811   3.369
  214SOL    HW2 1542   0.807   6.935   3.295
  215SOL     OW 1543   3.867   2.872   1.708
  215SOL    HW1 1544   3.942   2.898   1.770
  215SOL    HW2 1545   3.827   2.955   1.668
  216SOL     OW 1546   1.195   0.065   4.867
  216SOL    HW1 1547   1.156   7.020   4.808
  216SOL    HW2 1548   1.140   0.149   4.860
  217SOL     OW 1549   2.017   2.514   4.219
  217SOL    HW1 1550   1.953   2.440   4.238
  217SOL    HW2 1551   2.092   2.511   4.286
  218SOL     OW 1552   1.072   2.041   4.593
  218SOL    HW1 1553   1.138   2.030   4.668
  218SOL    HW2 1554   1.066   2.137   4.569
  219SOL     OW 1555   3.524   3.714   0.053
  219SOL    HW1 1556   3.474   3.799   0.066
  219SOL    HW2 1557   3.574   3.718   6.992
  220SOL     OW 1558   2.224   5.600   0.228
  220SOL    HW1 1559   2.280   5.610   0.311
  220SOL    HW2 1560   2.283   5.570   0.153
  221SOL     OW 1561   5.976   3.554   3.851
  221SOL    HW1 1562   5.974   3.459   3.820
  221SOL    HW2 1563   5.913   3.565   3.928
  222SOL     OW 1564   1.568   5.373   5.122
  222SOL    HW1 1565   1.559   5.472   5.127
  222SOL    HW2 1566   1.607   5.347   5.034
  223SOL     OW 1567   0.101   3.805   1.628
  223SOL    HW1 1568   0.197   3.782   1.643
  223SOL    HW2 1569   0.043   3.728   1.656
  224SOL     OW 1570   2.483   2.574   2.697
  224SOL    HW1 1571   2.421   2.496   2.701
  224SOL    HW2 1572   2.575   2.544   2.723
  225SOL     OW 1573   6.124   1.427   0.301
  225SOL    HW1 1574   6.144   1.512   0.351
  225SOL    HW2 1575   6.087   1.359   0.364
  226SOL     OW 1576   1.222   0.189   0.958
  226SOL    HW1 1577   1.244   0.164   0.864
  226SOL    HW2 1578   1.263   0.278   0.980
  227SOL     OW 1579   1.469   3.897   3.049
  227SOL    HW1 1580   1.419   3.832   3.106
  227SOL    HW2 1581   1.527   3.955   3.106
  228SOL     OW 1582   3.684   6.677   4.470
  228SOL    HW1 1583   3.758   6.624   4.428
  228SOL    HW2 1584   3.716   6.719   4.554
  229SOL     OW 1585   5.941   5.835   0.989
  229SOL    HW1 1586   6.000   5.757   0.969
  229SOL    HW2 1587   5.979   5.887   1.066
  230SOL     OW 1588   1.934   3.874   4.031
  230SOL    HW1 1589   1.920   3.947   3.964
  230SOL    HW2 1590   1.952   3.788   3.984
  231SOL     OW 1591   6.535   3.007   6.255
  231SOL    HW1 1592   6.612   2.973   6.201
  231SOL    HW2 1593   6.553   3.103   6.280
  232SOL     OW 1594   1.355   3.429   6.513
  232SOL    HW1 1595   1.452   3.411   6.498
  232SOL    HW2 1596   1.301   3.385   6.441
  233SOL     OW 1597   2.261   0.832   5.303
  233SOL    HW1 1598   2.208   0.792   5.378
  233SOL    HW2 1599   2.200   0.889   5.247
  234SOL     OW 1600   2.372   4.929   6.789
  234SOL    HW1 1601   2.439   4.862   6.757
  234SOL    HW2 1602   2.409   5.021   6.780
  235SOL     OW 1603   3.677   3.558   3.829
  235SOL    HW1 1604   3.729   3.498   3.768
  235SOL    HW2 1605   3.704   3.653   3.812
  236SOL     OW 1606   6.397   3.312   6.505
  236SOL    HW1 1607   6.307   3.314   6.462
  236SOL    HW2 1608   6.413   3.222   6.546
  237SOL     OW 1609   0.117   6.546   0.923
  237SOL    HW1 1610   0.085   6.498   0.841
  237SOL    HW2 1611   0.145   6.478   0.992
  238SOL     OW 1612   5.559   3.561   1.496
  238SOL    HW1 1613   5.601   3.473   1.475
  238SOL    HW2 1614   5.584   3.588   1.590
  239SOL     OW 1615   0.103   5.610   6.869
  239SOL    HW1 1616   0.116   5.689   6.808
  239SOL    HW2 1617   0.018   5.621   6.920
  240SOL     OW 1618   0.695   3.750   5.964
  240SOL    HW1 1619   0.707   3.659   5.923
  240SOL    HW2 1620   0.680   3.740   6.063
  241SOL     OW 1621   0.269   1.262   3.525
  241SOL    HW1 1622   0.269   1.192   3.596
  241SOL    HW2 1623   0.301   1.222   3.439
  242SOL     OW 1624   1.421   2.921   5.143
  242SOL    HW1 1625   1.514   2.932   5.178
  242SOL    HW2 1626   1.395   2.825   5.148
  243SOL     OW 1627   4.670   0.388   6.072
  243SOL    HW1 1628   4.685   0.466   6.011
  243SOL    HW2 1629   4.574   0.359   6.065
  244SOL     OW 1630   4.863   1.695   5.120
  244SOL    HW1 1631   4.932   1.725   5.054
  244SOL    HW2 1632   4.800   1.631   5.076
  245SOL     OW 1633   6.618   2.441   5.137
  245SOL    HW1 1634   6.694   2.506   5.131
  245SOL    HW2 1635   6.581   2.424   5.046
  246SOL     OW 1636   4.837   3.935   4.206
  246SOL    HW1 1637   4.776   3.914   4.282
  246SOL    HW2 1638   4.928   3.898   4.224
  247SOL     OW 1639   2.518   1.245   3.435
  247SOL    HW1 1640   2.438   1.189   3.415
  247SOL    HW2 1641   2.508   1.334   3.392
  248SOL     OW 1642   5.012   2.270   4.780
  248SOL    HW1 1643   4.912   2.273   4.789
  248SOL    HW2 1644   5.044   2.177   4.799
  249SOL     OW 1645   3.412   6.420   4.794
  249SOL    HW1 1646   3.395   6.358   4.718
  249SOL    HW2 1647   3.375   6.510   4.773
  250SOL     OW 1648   5.806   2.344   5.561
  250SOL    HW1 1649   5.757   2.305   5.639
  250SOL    HW2 1650   5.744   2.354   5.483
  251SOL     OW 1651   4.262   3.106   6.131
  251SOL    HW1 1652   4.338   3.095   6.195
  251SOL    HW2 1653   4.254   3.024   6.075
  252SOL     OW 1654   6.818   1.433   5.630
  252SOL    HW1 1655   6.766   1.518   5.626
  252SOL    HW2 1656   6.760   1.357   5.601
  253SOL     OW 1657   1.898   2.937   1.279
  253SOL    HW1 1658   1.863   2.939   1.372
  253SOL    HW2 1659   1.822   2.931   1.215
  254SOL     OW 1660   6.990   3.268   4.359
  254SOL    HW1 1661   0.062   3.290   4.348
  254SOL    HW2 1662   6.946   3.339   4.415
  255SOL     OW 1663   2.996   2.177   3.457
  255SOL    HW1 1664   3.009   2.188   3.555
  255SOL    HW2 1665   3.057   2.105   3.423
  256SOL     OW 1666   6.329   5.338   6.588
  256SOL    HW1 1667   6.321   5.276   6.666
  256SOL    HW2 1668   6.414   5.320   6.539
  257SOL     OW 1669   2.855   5.727   6.320
  257SOL    HW1 1670   2.861   5.772   6.409
  257SOL    HW2 1671   2.868   5.628   6.331
  258SOL     OW 1672   5.203   4.460   4.594
  258SOL    HW1 1673   5.109   4.496   4.592
  258SOL    HW2 1674   5.202   4.366   4.629
  259SOL     OW 1675   1.844   2.986   2.574
  259SOL    HW1 1676   1.792   2.943   2.648
  259SOL    HW2 1677   1.879   2.916   2.512
  260SOL     OW 1678   5.085   0.558   6.400
  260SOL    HW1 1679   5.028   0.562   6.318
  260SOL    HW2 1680   5.150   0.634   6.400
  261SOL     OW 1681   0.321   4.113   1.719
  261SOL    HW1 1682   0.408   4.111   1.669
  261SOL    HW2 1683   0.245   4.114   1.654
  262SOL     OW 1684   0.992   3.052   2.536
  262SOL    HW1 1685   0.922   2.982   2.526
  262SOL    HW2 1686   1.028   3.050   2.630
  263SOL     OW 1687   0.763   2.426   4.704
  263SOL    HW1 1688   0.726   2.399   4.793
  263SOL    HW2 1689   0.692   2.475   4.652
  264SOL     OW 1690   0.961   3.644   5.577
  264SOL    HW1 1691   0.880   3.689   5.614
  264SOL    HW2 1692   1.020   3.615   5.652
  265SOL     OW 1693   5.010   4.576   4.419
  265SOL    HW1 1694   5.085   4.643   4.425
  265SOL    HW2 1695   5.015   4.528   4.331
  266SOL     OW 1696   3.986   1.755   0.762
  266SOL    HW1 1697   3.986   1.835   0.701
  266SOL    HW2 1698   4.065   1.697   0.740
  267SOL     OW 1699   1.504   2.801   6.708
  267SOL    HW1 1700   1.528   2.845   6.621
  267SOL    HW2 1701   1.571   2.825   6.777
  268SOL     OW 1702   4.450   4.587   4.389
  268SOL    HW1 1703   4.477   4.597   4.485
  268SOL    HW2 1704   4.354   4.612   4.378
  269SOL     OW 1705   1.623   1.859   6.694
  269SOL    HW1 1706   1.678   1.943   6.687
  269SOL    HW2 1707   1.585   1.838   6.604
  270SOL     OW 1708   5.604   1.000   2.272
  270SOL    HW1 1709   5.617   1.097   2.288
  270SOL    HW2 1710   5.508   0.982   2.248
  271SOL     OW 1711   1.685   1.128   1.046
  271SOL    HW1 1712   1.622   1.065   1.090
  271SOL    HW2 1713   1.778   1.111   1.079
  272SOL     OW 1714   4.013   5.293   4.402
  272SOL    HW1 1715   3.964   5.213   4.366
  272SOL    HW2 1716   4.006   5.294   4.501
  273SOL     OW 1717   1.569   5.940   4.406
  273SOL    HW1 1718   1.514   5.901   4.332
  273SOL    HW2 1719   1.510   5.960   4.484
  274SOL     OW 1720   5.866   2.777   3.260
  274SOL    HW1 1721   5.835   2.756   3.353
  274SOL    HW2 1722   5.862   2.875   3.244
  275SOL     OW 1723   6.712   6.680   5.963
  275SOL    HW1 1724   6.757   6.725   6.041
  275SOL    HW2 1725   6.656   6.604   5.997
  276SOL     OW 1726   6.869   6.054   3.468
  276SOL    HW1 1727   6.843   5.969   3.515
  276SOL    HW2 1728   6.965   6.048   3.439
  277SOL     OW 1729   3.483   1.360   5.578
  277SOL    HW1 1730   3.414   1.432   5.581
  277SOL    HW2 1731   3.573   1.400   5.560
  278SOL     OW 1732   5.091   4.501   2.164
  278SOL    HW1 1733   5.092   4.600   2.149
  278SOL    HW2 1734   5.035   4.458   2.093
  279SOL     OW 1735   0.079   3.143   3.205
  279SOL    HW1 1736   0.166   3.156   3.253
  279SOL    HW2 1737   0.092   3.076   3.131
  280SOL     OW 1738   4.423   6.686   3.835
  280SOL    HW1 1739   4.404   6.699   3.932
  280SOL    HW2 1740   4.342   6.710   3.782
  281SOL     OW 1741   4.258   5.566   3.839
  281SOL    HW1 1742   4.250   5.549   3.938
  281SOL    HW2 1743   4.347   5.607   3.820
  282SOL     OW 1744   4.554   1.974   6.275
  282SOL    HW1 1745   4.536   2.035   6.353
  282SOL    HW2 1746   4.585   1.885   6.309
  283SOL     OW 1747   6.338   0.754   4.817
  283SOL    HW1 1748   6.420   0.811   4.824
  283SOL    HW2 1749   6.328   0.701   4.901
  284SOL     OW 1750   0.300   4.988   5.094
  284SOL    HW1 1751   0.241   4.935   5.155
  284SOL    HW2 1752   0.363   5.043   5.149
  285SOL     OW 1753   4.831   0.357   0.127
  285SOL    HW1 1754   4.799   0.442   0.170
  285SOL    HW2 1755   4.802   0.355   0.031
  286SOL     OW 1756   3.771   5.242   4.833
  286SOL    HW1 1757   3.842   5.306   4.805
  286SOL    HW2 1758   3.681   5.282   4.813
  287SOL     OW 1759   1.317   5.574   6.345
  287SOL    HW1 1760   1.265   5.659   6.333
  287SOL    HW2 1761   1.300   5.513   6.268
  288SOL     OW 1762   3.898   0.361   0.940
  288SOL    HW1 1763   3.875   0.409   1.025
  288SOL    HW2 1764   3.956   0.282   0.961
  289SOL     OW 1765   0.886   6.192   5.503
  289SOL    HW1 1766   0.881   6.162   5.598
  289SOL    HW2 1767   0.981   6.205   5.477
  290SOL     OW 1768   4.559   0.802   3.383
  290SOL    HW1 1769   4.555   0.858   3.466
  290SOL    HW2 1770   4.601   0.856   3.309
  291SOL     OW 1771   4.583   0.579   4.327
  291SOL    HW1 1772   4.652   0.645   4.355
  291SOL    HW2 1773   4.589   0.497   4.384
  292SOL     OW 1774   3.813   0.062   3.886
  292SOL    HW1 1775   3.806   0.027   3.979
  292SOL    HW2 1776   3.721   0.078   3.850
  293SOL     OW 1777   4.829   6.625   2.296
  293SOL    HW1 1778   4.867   6.556   2.234
  293SOL    HW2 1779   4.829   6.714   2.250
  294SOL     OW 1780   5.658   0.288   5.956
  294SOL    HW1 1781   5.713   0.212   5.993
  294SOL    HW2 1782   5.706   0.374   5.973
  295SOL     OW 1783   1.227   2.221   4.923
  295SOL    HW1 1784   1.142   2.273   4.927
  295SOL    HW2 1785   1.299   2.271   4.973
  296SOL     OW 1786   6.437   1.083   1.200
  296SOL    HW1 1787   6.519   1.121   1.158
  296SOL    HW2 1788   6.442   0.983   1.198
  297SOL     OW 1789   4.893   4.729   3.784
  297SOL    HW1 1790   4.876   4.710   3.687
  297SOL    HW2 1791   4.830   4.801   3.815
  298SOL     OW 1792   4.177   0.293   0.417
  298SOL    HW1 1793   4.246   0.231   0.455
  298SOL    HW2 1794   4.221   0.380   0.391
  299SOL     OW 1795   3.392   1.464   0.326
  299SOL    HW1 1796   3.352   1.497   0.411
  299SOL    HW2 1797   3.343   1.503   0.248
  300SOL     OW 1798   3.577   1.166   2.404
  300SOL    HW1 1799   3.572   1.182   2.306
  300SOL    HW2 1800   3.554   1.071   2.424
  301SOL     OW 1801   5.138   6.077   1.800
  301SOL    HW1 1802   5.194   6.099   1.720
  301SOL    HW2 1803   5.182   6.004   1.851
  302SOL     OW 1804   0.197   6.417   1.678
  302SOL    HW1 1805   0.262   6.421   1.601
  302SOL    HW2 1806   0.138   6.498   1.676
  303SOL     OW 1807   5.862   5.591   2.368
  303SOL    HW1 1808   5.890   5.566   2.461
  303SOL    HW2 1809   5.774   5.548   2.348
  304SOL     OW 1810   1.195   6.577   5.387
  304SOL    HW1 1811   1.122   6.640   5.413
  304SOL    HW2 1812   1.270   6.584   5.454
  305SOL     OW 1813   0.825   3.251   1.689
  305SOL    HW1 1814   0.736   3.284   1.658
  305SOL    HW2 1815   0.818   3.153   1.712
  306SOL     OW 1816   0.020   1.077   2.564
  306SOL    HW1 1817   6.998   0.989   2.567
  306SOL    HW2 1818   6.977   1.151   2.559
  307SOL     OW 1819   3.399   3.018   0.666
  307SOL    HW1 1820   3.477   3.017   0.728
  307SOL    HW2 1821   3.315   3.033   0.719
  308SOL     OW 1822   5.653   1.519   4.596
  308SOL    HW1 1823   5.609   1.570   4.669
  308SOL    HW2 1824   5.735   1.474   4.632
  309SOL     OW 1825   0.020   0.065   6.945
  309SOL    HW1 1826   0.045   6.998   6.917
  309SOL    HW2 1827   7.001   0.113   6.868
  310SOL     OW 1828   5.364   6.311   4.443
  310SOL    HW1 1829   5.332   6.264   4.360
  310SOL    HW2 1830   5.450   6.359   4.423
  311SOL     OW 1831   2.461   4.980   2.755
  311SOL    HW1 1832   2.521   4.900   2.765
  311SOL    HW2 1833   2.408   4.992   2.840
  312SOL     OW 1834   4.423   2.277   3.218
  312SOL    HW1 1835   4.408   2.221   3.300
  312SOL    HW2 1836   4.462   2.365   3.245
  313SOL     OW 1837   3.884   3.371   2.445
  313SOL    HW1 1838   3.904   3.366   2.542
  313SOL    HW2 1839   3.818   3.300   2.421
  314SOL     OW 1840   1.876   5.577   5.132
  314SOL    HW1 1841   1.942   5.510   5.098
  314SOL    HW2 1842   1.852   5.640   5.059
  315SOL     OW 1843   6.258   1.393   3.655
  315SOL    HW1 1844   6.328   1.457   3.623
  315SOL    HW2 1845   6.297   1.302   3.664
  316SOL     OW 1846   4.204   1.499   5.552
  316SOL    HW1 1847   4.249   1.539   5.472
  316SOL    HW2 1848   4.143   1.567   5.594
  317SOL     OW 1849   1.671   1.800   1.823
  317SOL    HW1 1850   1.746   1.745   1.858
  317SOL    HW2 1851   1.667   1.792   1.723
  318SOL     OW 1852   6.548   0.717   6.068
  318SOL    HW1 1853   6.506   0.807   6.051
  318SOL    HW2 1854   6.542   0.696   6.165
  319SOL     OW 1855   0.474   2.267   2.714
  319SOL    HW1 1856   0.469   2.245   2.812
  319SOL    HW2 1857   0.502   2.186   2.663
  320SOL     OW 1858   5.807   2.316   6.976
  320SOL    HW1 1859   5.763   2.308   6.887
  320SOL    HW2 1860   5.801   2.229   7.024
  321SOL     OW 1861   3.856   3.683   0.477
  321SOL    HW1 1862   3.952   3.657   0.474
  321SOL    HW2 1863   3.840   3.759   0.413
  322SOL     OW 1864   3.837   3.190   6.309
  322SOL    HW1 1865   3.749   3.143   6.316
  322SOL    HW2 1866   3.911   3.124   6.318
  323SOL     OW 1867   0.453   2.769   3.606
  323SOL    HW1 1868   0.467   2.698   3.537
  323SOL    HW2 1869   0.385   2.835   3.573
  324SOL     OW 1870   2.509   6.730   3.456
  324SOL    HW1 1871   2.490   6.657   3.390
  324SOL    HW2 1872   2.451   6.718   3.536
  325SOL     OW 1873   1.154   3.865   2.433
  325SOL    HW1 1874   1.054   3.866   2.434
  325SOL    HW2 1875   1.186   3.771   2.433
  326SOL     OW 1876   1.487   4.854   6.368
  326SOL    HW1 1877   1.558   4.787   6.343
  326SOL    HW2 1878   1.531   4.939   6.397
  327SOL     OW 1879   2.839   4.773   2.559
  327SOL    HW1 1880   2.781   4.714   2.504
  327SOL    HW2 1881   2.834   4.867   2.525
  328SOL     OW 1882   1.064   4.166   1.836
  328SOL    HW1 1883   1.150   4.199   1.876
  328SOL    HW2 1884   1.084   4.113   1.754
  329SOL     OW 1885   2.872   3.923   1.120
  329SOL    HW1 1886   2.780   3.894   1.092
  329SOL    HW2 1887   2.889   4.016   1.088
  330SOL     OW 1888   3.654   5.570   0.159
  330SOL    HW1 1889   3.753   5.566   0.173
  330SOL    HW2 1890   3.607   5.525   0.235
  331SOL     OW 1891   5.593   4.908   1.013
  331SOL    HW1 1892   5.664   4.948   0.955
  331SOL    HW2 1893   5.503   4.941   0.984
  332SOL     OW 1894   5.447   1.619   3.924
  332SOL    HW1 1895   5.450   1.714   3.956
  332SOL    HW2 1896   5.424   1.558   4.000
  333SOL     OW 1897   4.180   1.127   5.345
  333SOL    HW1 1898   4.176   1.104   5.442
  333SOL    HW2 1899   4.133   1.057   5.292
  334SOL     OW 1900   3.628   2.897   2.277
  334SOL    HW1 1901   3.548   2.920   2.222
  334SOL    HW2 1902   3.641   2.798   2.277
  335SOL     OW 1903   4.263   6.993   6.708
  335SOL    HW1 1904   4.361   7.014   6.705
  335SOL    HW2 1905   4.246   6.907   6.661
  336SOL     OW 1906   3.101   1.185   3.268
  336SOL    HW1 1907   3.198   1.164   3.254
  336SOL    HW2 1908   3.048   1.101   3.267
  337SOL     OW 1909   1.696   2.161   5.921
  337SOL    HW1 1910   1.710   2.077   5.869
  337SOL    HW2 1911   1.740   2.154   6.010
  338SOL     OW 1912   4.096   3.186   1.334
  338SOL    HW1 1913   4.032   3.145   1.399
  338SOL    HW2 1914   4.062   3.174   1.241
  339SOL     OW 1915   4.279   4.777   4.531
  339SOL    HW1 1916   4.232   4.850   4.480
  339SOL    HW2 1917   4.264   4.790   4.629
  340SOL     OW 1918   5.258   3.080   4.955
  340SOL    HW1 1919   5.252   3.104   5.052
  340SOL    HW2 1920   5.327   3.137   4.910
  341SOL     OW 1921   5.641   5.766   4.779
  341SOL    HW1 1922   5.652   5.668   4.794
  341SOL    HW2 1923   5.702   5.795   4.705
  342SOL     OW 1924   4.666   3.758   1.045
  342SOL    HW1 1925   4.597   3.705   0.996
  342SOL    HW2 1926   4.705   3.827   0.982
  343SOL     OW 1927   0.457   6.445   2.568
  343SOL    HW1 1928   0.455   6.538   2.530
  343SOL    HW2 1929   0.551   6.418   2.586
  344SOL     OW 1930   0.865   1.826   1.996
  344SOL    HW1 1931   0.778   1.846   2.040
  344SOL    HW2 1932   0.940   1.863   2.050
  345SOL     OW 1933   6.593   2.600   4.216
  345SOL    HW1 1934   6.623   2.634   4.305
  345SOL    HW2 1935   6.494   2.588   4.217
  346SOL     OW 1936   1.884   6.802   2.598
  346SOL    HW1 1937   1.958   6.747   2.559
  346SOL    HW2 1938   1.872   6.778   2.694
  347SOL     OW 1939   2.376   5.810   6.955
  347SOL    HW1 1940   2.409   5.878   6.890
  347SOL    HW2 1941   2.448   5.787   7.021
  348SOL     OW 1942   4.399   5.010   2.434
  348SOL    HW1 1943   4.351   4.996   2.520
  348SOL    HW2 1944   4.390   4.929   2.376
  349SOL     OW 1945   6.725   4.295   2.327
  349SOL    HW1 1946   6.784   4.376   2.319
  349SOL    HW2 1947   6.640   4.322   2.372
  350SOL     OW 1948   3.149   2.766   0.227
  350SOL    HW1 1949   3.244   2.798   0.229
  350SOL    HW2 1950   3.096   2.826   0.167
  351SOL     OW 1951   2.807   3.776   0.750
  351SOL    HW1 1952   2.855   3.863   0.746
  351SOL    HW2 1953   2.812   3.739   0.843
  352SOL     OW 1954   4.058   6.395   3.367
  352SOL    HW1 1955   4.038   6.475   3.311
  352SOL    HW2 1956   4.138   6.413   3.424
  353SOL     OW 1957   3.467   6.923   5.822
  353SOL    HW1 1958   3.468   6.938   5.920
  353SOL    HW2 1959   3.385   6.964   5.782
  354SOL     OW 1960   5.439   2.998   0.406
  354SOL    HW1 1961   5.364   2.941   0.438
  354SOL    HW2 1962   5.525   2.950   0.417
  355SOL     OW 1963   1.947   2.758   2.436
  355SOL    HW1 1964   2.036   2.729   2.400
  355SOL    HW2 1965   1.882   2.682   2.428
  356SOL     OW 1966   1.941   0.676   4.690
  356SOL    HW1 1967   1.887   0.696   4.772
  356SOL    HW2 1968   1.924   0.747   4.621
  357SOL     OW 1969   0.080   5.994   4.328
  357SOL    HW1 1970   0.068   5.926   4.255
  357SOL    HW2 1971   0.115   5.949   4.410
  358SOL     OW 1972   4.527   6.449   0.970
  358SOL    HW1 1973   4.504   6.411   1.060
  358SOL    HW2 1974   4.604   6.511   0.978
  359SOL     OW 1975   3.434   0.680   1.420
  359SOL    HW1 1976   3.429   0.724   1.330
  359SOL    HW2 1977   3.434   0.749   1.492
  360SOL     OW 1978   1.567   4.154   4.657
  360SOL    HW1 1979   1.567   4.094   4.737
  360SOL    HW2 1980   1.651   4.208   4.656
  361SOL     OW 1981   5.676   6.287   2.599
  361SOL    HW1 1982   5.649   6.360   2.535
  361SOL    HW2 1983   5.643   6.199   2.565
  362SOL     OW 1984   3.871   4.247   0.675
  362SOL    HW1 1985   3.804   4.209   0.738
  362SOL    HW2 1986   3.958   4.260   0.722
  363SOL     OW 1987   6.033   4.608   3.014
  363SOL    HW1 1988   5.966   4.612   3.089
  363SOL    HW2 1989   6.001   4.665   2.938
  364SOL     OW 1990   0.557   4.840   6.333
  364SOL    HW1 1991   0.616   4.921   6.334
  364SOL    HW2 1992   0.589   4.774   6.400
  365SOL     OW 1993   3.596   1.030   1.278
  365SOL    HW1 1994   3.691   1.003   1.268
  365SOL    HW2 1995   3.574   1.102   1.212
  366SOL     OW 1996   5.999   2.984   6.592
  366SOL    HW1 1997   6.046   2.921   6.530
  366SOL    HW2 1998   6.009   2.953   6.686
  367SOL     OW 1999   6.067   2.600   5.996
  367SOL    HW1 2000   6.123   2.623   5.916
  367SOL    HW2 2001   5.972   2.621   5.978
  368SOL     OW 2002   6.927   2.194   5.848
  368SOL    HW1 2003   7.013   2.221   5.805
  368SOL    HW2 2004   6.939   2.105   5.893
  369SOL     OW 2005   6.146   4.184   2.723
  369SOL    HW1 2006   6.142   4.087   2.699
  369SOL    HW2 2007   6.229   4.202   2.775
  370SOL     OW 2008   1.193   1.673   4.249
  370SOL    HW1 2009   1.281   1.716   4.270
  370SOL    HW2 2010   1.124   1.744   4.235
  371SOL     OW 2011   1.740   4.627   6.675
  371SOL    HW1 2012   1.823   4.614   6.730
  371SOL    HW2 2013   1.689   4.706   6.708
  372SOL     OW 2014   1.710   6.939   5.260
  372SOL    HW1 2015   1.694   6.870   5.189
  372SOL    HW2 2016   1.628   6.946   5.318
  373SOL     OW 2017   5.590   6.813   5.493
  373SOL    HW1 2018   5.534   6.890   5.525
  373SOL    HW2 2019   5.562   6.788   5.400
  374SOL     OW 2020   2.377   1.688   3.082
  374SOL    HW1 2021   2.399   1.663   2.987
  374SOL    HW2 2022   2.342   1.782   3.085
  375SOL     OW 2023   0.767   5.179   4.578
  375SOL    HW1 2024   0.817   5.237   4.513
  375SOL    HW2 2025   0.794   5.203   4.671
  376SOL     OW 2026   1.841   1.540   5.465
  376SOL    HW1 2027   1.936   1.564   5.482
  376SOL    HW2 2028   1.781   1.614   5.497
  377SOL     OW 2029   1.857   2.436   0.349
  377SOL    HW1 2030   1.943   2.399   0.316
  377SOL    HW2 2031   1.871   2.477   0.439
  378SOL     OW 2032   3.594   1.421   6.365
  378SOL    HW1 2033   3.509   1.474   6.364
  378SOL    HW2 2034   3.594   1.359   6.443
  379SOL     OW 2035   5.128   2.590   6.867
  379SOL    HW1 2036   5.086   2.514   6.917
  379SOL    HW2 2037   5.106   2.676   6.912
  380SOL     OW 2038   2.669   1.441   1.497
  380SOL    HW1 2039   2.754   1.411   1.454
  380SOL    HW2 2040   2.662   1.401   1.588
  381SOL     OW 2041   1.594   3.781   4.000
  381SOL    HW1 2042   1.669   3.724   3.967
  381SOL    HW2 2043   1.630   3.852   4.060
  382SOL     OW 2044   5.734   0.220   6.874
  382SOL    HW1 2045   5.781   0.146   6.826
  382SOL    HW2 2046   5.787   0.247   6.955
  383SOL     OW 2047   4.382   2.553   0.472
  383SOL    HW1 2048   4.398   2.458   0.443
  383SOL    HW2 2049   4.289   2.580   0.448
  384SOL     OW 2050   0.204   4.574   4.209
  384SOL    HW1 2051   0.227   4.640   4.137
  384SOL    HW2 2052   0.279   4.509   4.219
  385SOL     OW 2053   3.610   5.742   5.758
  385SOL    HW1 2054   3.708   5.755   5.771
  385SOL    HW2 2055   3.561   5.821   5.795
  386SOL     OW 2056   4.222   0.644   4.375
  386SOL    HW1 2057   4.255   0.689   4.293
  386SOL    HW2 2058   4.225   0.545   4.363
  387SOL     OW 2059   1.550   5.606   2.576
  387SOL    HW1 2060   1.464   5.557   2.585
  387SOL    HW2 2061   1.537   5.685   2.515
  388SOL     OW 2062   1.899   1.701   6.644
  388SOL    HW1 2063   1.804   1.720   6.671
  388SOL    HW2 2064   1.958   1.776   6.675
  389SOL     OW 2065   3.885   3.102   2.161
  389SOL    HW1 2066   3.955   3.171   2.178
  389SOL    HW2 2067   3.806   3.119   2.219
  390SOL     OW 2068   3.331   1.034   4.217
  390SOL    HW1 2069   3.395   1.060   4.289
  390SOL    HW2 2070   3.374   0.967   4.156
  391SOL     OW 2071   2.161   2.756   6.532
  391SOL    HW1 2072   2.230   2.821   6.499
  391SOL    HW2 2073   2.079   2.806   6.560
  392SOL     OW 2074   2.091   4.463   0.163
  392SOL    HW1 2075   2.179   4.485   0.204
  392SOL    HW2 2076   2.098   4.377   0.112
  393SOL     OW 2077   6.773   4.648   5.484
  393SOL    HW1 2078   6.755   4.575   5.550
  393SOL    HW2 2079   6.794   4.733   5.533
  394SOL     OW 2080   0.298   0.388   0.441
  394SOL    HW1 2081   0.392   0.405   0.468
  394SOL    HW2 2082   0.237   0.453   0.487
  395SOL     OW 2083   5.176   4.113   2.780
  395SOL    HW1 2084   5.247   4.180   2.801
  395SOL    HW2 2085   5.168   4.102   2.681
  396SOL     OW 2086   4.084   3.844   2.046
  396SOL    HW1 2087   4.143   3.921   2.027
  396SOL    HW2 2088   4.108   3.804   2.135
  397SOL     OW 2089   3.534   2.796   5.741
  397SOL    HW1 2090   3.628   2.826   5.730
  397SOL    HW2 2091   3.526   2.701   5.711
  398SOL     OW 2092   0.463   6.668   2.211
  398SOL    HW1 2093   0.509   6.644   2.126
  398SOL    HW2 2094   0.386   6.729   2.192
  399SOL     OW 2095   4.800   6.005   2.200
  399SOL    HW1 2096   4.754   6.050   2.123
  399SOL    HW2 2097   4.732   5.982   2.270
  400SOL     OW 2098   6.577   0.281   5.359
  400SOL    HW1 2099   6.604   0.271   5.455
  400SOL    HW2 2100   6.634   0.223   5.302
  401SOL     OW 2101   4.533   1.076   6.037
  401SOL    HW1 2102   4.585   1.145   5.987
  401SOL    HW2 2103   4.446   1.115   6.066
  402SOL     OW 2104   5.956   6.413   2.712
  402SOL    HW1 2105   5.986   6.440   2.803
  402SOL    HW2 2106   5.881   6.472   2.682
  403SOL     OW 2107   3.836   2.205   5.549
  403SOL    HW1 2108   3.808   2.112   5.573
  403SOL    HW2 2109   3.766   2.247   5.490
  404SOL     OW 2110   1.615   6.449   3.906
  404SOL    HW1 2111   1.669   6.469   3.824
  404SOL    HW2 2112   1.603   6.351   3.914
  405SOL     OW 2113   1.578   3.257   1.597
  405SOL    HW1 2114   1.543   3.350   1.587
  405SOL    HW2 2115   1.579   3.232   1.694
  406SOL     OW 2116   0.735   3.755   3.602
  406SOL    HW1 2117   0.728   3.854   3.609
  406SOL    HW2 2118   0.653   3.713   3.644
  407SOL     OW 2119   1.916   0.566   4.005
  407SOL    HW1 2120   1.840   0.548   3.943
  407SOL    HW2 2121   1.984   0.622   3.958
  408SOL     OW 2122   1.451   1.069   2.881
  408SOL    HW1 2123   1.543   1.053   2.918
  408SOL    HW2 2124   1.390   1.094   2.956
  409SOL     OW 2125   6.051   3.037   1.893
  409SOL    HW1 2126   6.119   3.098   1.853
  409SOL    HW2 2127   5.976   3.024   1.828
  410SOL     OW 2128   2.464   0.133   6.816
  410SOL    HW1 2129   2.433   0.122   6.722
  410SOL    HW2 2130   2.520   0.216   6.823
  411SOL     OW 2131   5.853   6.962   6.764
  411SOL    HW1 2132   5.771   6.937   6.713
  411SOL    HW2 2133   5.885   6.883   6.817
  412SOL     OW 2134   4.706   6.637   3.566
  412SOL    HW1 2135   4.705   6.711   3.634
  412SOL    HW2 2136   4.676   6.552   3.610
  413SOL     OW 2137   5.345   4.762   1.591
  413SOL    HW1 2138   5.433   4.810   1.594
  413SOL    HW2 2139   5.358   4.671   1.550
  414SOL     OW 2140   3.622   4.920   3.686
  414SOL    HW1 2141   3.588   4.873   3.767
  414SOL    HW2 2142   3.547   4.963   3.638
  415SOL     OW 2143   0.944   5.905   6.992
  415SOL    HW1 2144   0.989   5.851   6.921
  415SOL    HW2 2145   0.863   5.856   0.001
  416SOL     OW 2146   5.039   5.242   4.884
  416SOL    HW1 2147   4.942   5.248   4.861
  416SOL    HW2 2148   5.059   5.304   4.960
  417SOL     OW 2149   2.815   5.870   0.960
  417SOL    HW1 2150   2.780   5.944   1.017
  417SOL    HW2 2151   2.871   5.809   1.016
  418SOL     OW 2152   4.166   5.987   1.653
  418SOL    HW1 2153   4.265   5.994   1.666
  418SOL    HW2 2154   4.144   5.900   1.609
  419SOL     OW 2155   1.752   0.265   1.667
  419SOL    HW1 2156   1.773   0.359   1.641
  419SOL    HW2 2157   1.806   0.240   1.748
  420SOL     OW 2158   6.370   2.830   1.629
  420SOL    HW1 2159   6.445   2.896   1.641
  420SOL    HW2 2160   6.346   2.825   1.532
  421SOL     OW 2161   0.045   4.967   5.971
  421SOL    HW1 2162   0.095   4.883   5.987
  421SOL    HW2 2163   6.975   4.956   6.002
  422SOL     OW 2164   6.096   4.256   0.127
  422SOL    HW1 2165   6.026   4.262   0.056
  422SOL    HW2 2166   6.186   4.257   0.085
  423SOL     OW 2167   0.555   2.682   7.020
  423SOL    HW1 2168   0.457   2.664   0.008
  423SOL    HW2 2169   0.570   2.725   6.931
  424SOL     OW 2170   2.865   3.467   1.335
  424SOL    HW1 2171   2.822   3.505   1.417
  424SOL    HW2 2172   2.904   3.542   1.281
  425SOL     OW 2173   5.997   0.952   2.443
  425SOL    HW1 2174   5.985   1.051   2.451
  425SOL    HW2 2175   6.062   0.932   2.370
  426SOL     OW 2176   5.302   2.283   4.261
  426SOL    HW1 2177   5.350   2.357   4.310
  426SOL    HW2 2178   5.209   2.274   4.297
  427SOL     OW 2179   5.893   4.827   2.377
  427SOL    HW1 2180   5.795   4.831   2.358
  427SOL    HW2 2181   5.929   4.738   2.347
  428SOL     OW 2182   4.437   6.868   4.763
  428SOL    HW1 2183   4.461   6.929   4.839
  428SOL    HW2 2184   4.446   6.773   4.793
  429SOL     OW 2185   2.636   4.086   1.512
  429SOL    HW1 2186   2.671   4.165   1.562
  429SOL    HW2 2187   2.554   4.113   1.461
  430SOL     OW 2188   0.395   0.162   4.405
  430SOL    HW1 2189   0.410   0.133   4.500
  430SOL    HW2 2190   0.470   0.129   4.348
  431SOL     OW 2191   3.301   0.171   0.432
  431SOL    HW1 2192   3.212   0.206   0.462
  431SOL    HW2 2193   3.335   0.106   0.500
  432SOL     OW 2194   6.375   2.496   2.085
  432SOL    HW1 2195   6.314   2.416   2.088
  432SOL    HW2 2196   6.357   2.548   2.002
  433SOL     OW 2197   3.125   6.242   4.546
  433SOL    HW1 2198   3.125   6.205   4.639
  433SOL    HW2 2199   3.189   6.319   4.541
  434SOL     OW 2200   4.252   5.143   1.767
  434SOL    HW1 2201   4.189   5.210   1.730
  434SOL    HW2 2202   4.343   5.159   1.729
  435SOL     OW 2203   3.694   2.079   5.150
  435SOL    HW1 2204   3.603   2.092   5.112
  435SOL    HW2 2205   3.736   1.998   5.110
  436SOL     OW 2206   3.264   5.927   0.432
  436SOL    HW1 2207   3.291   5.835   0.461
  436SOL    HW2 2208   3.308   5.994   0.490
  437SOL     OW 2209   1.038   6.556   6.425
  437SOL    HW1 2210   1.103   6.534   6.498
  437SOL    HW2 2211   1.024   6.655   6.421
  438SOL     OW 2212   1.920   2.934   2.153
  438SOL    HW1 2213   1.941   2.880   2.235
  438SOL    HW2 2214   1.967   2.894   2.074
  439SOL     OW 2215   6.296   4.654   3.185
  439SOL    HW1 2216   6.236   4.574   3.170
  439SOL    HW2 2217   6.301   4.673   3.282
  440SOL     OW 2218   1.291   1.570   5.282
  440SOL    HW1 2219   1.229   1.642   5.250
  440SOL    HW2 2220   1.383   1.607   5.290
  441SOL     OW 2221   0.641   2.204   3.864
  441SOL    HW1 2222   0.637   2.282   3.801
  441SOL    HW2 2223   0.549   2.167   3.877
  442SOL     OW 2224   2.508   5.165   6.775
  442SOL    HW1 2225   2.536   5.189   6.868
  442SOL    HW2 2226   2.471   5.246   6.729
  443SOL     OW 2227   0.916   3.911   4.674
  443SOL    HW1 2228   0.830   3.928   4.722
  443SOL    HW2 2229   0.968   3.996   4.668
  444SOL     OW 2230   5.066   2.171   5.908
  444SOL    HW1 2231   4.978   2.220   5.905
  444SOL    HW2 2232   5.129   2.220   5.968
  445SOL     OW 2233   1.216   5.763   3.390
  445SOL    HW1 2234   1.226   5.843   3.449
  445SOL    HW2 2235   1.292   5.758   3.326
  446SOL     OW 2236   3.907   4.869   4.145
  446SOL    HW1 2237   3.857   4.942   4.097
  446SOL    HW2 2238   3.938   4.801   4.079
  447SOL     OW 2239   0.790   2.522   6.792
  447SOL    HW1 2240   0.886   2.521   6.763
  447SOL    HW2 2241   0.776   2.595   6.859
  448SOL     OW 2242   2.691   0.823   4.452
  448SOL    HW1 2243   2.773   0.810   4.508
  448SOL    HW2 2244   2.611   0.787   4.499
  449SOL     OW 2245   4.179   0.431   4.822
  449SOL    HW1 2246   4.273   0.407   4.796
  449SOL    HW2 2247   4.164   0.411   4.918
  450SOL     OW 2248   1.804   6.036   3.864
  450SOL    HW1 2249   1.896   6.073   3.856
  450SOL    HW2 2250   1.792   5.995   3.955
  451SOL     OW 2251   1.863   1.985   3.469
  451SOL    HW1 2252   1.794   1.958   3.402
  451SOL    HW2 2253   1.941   1.922   3.464
  452SOL     OW 2254   6.418   5.762   1.276
  452SOL    HW1 2255   6.497   5.780   1.335
  452SOL    HW2 2256   6.450   5.719   1.191
  453SOL     OW 2257   3.459   0.500   4.523
  453SOL    HW1 2258   3.557   0.485   4.531
  453SOL    HW2 2259   3.441   0.598   4.514
  454SOL     OW 2260   0.172   5.172   6.106
  454SOL    HW1 2261   0.104   5.104   6.079
  454SOL    HW2 2262   0.225   5.138   6.184
  455SOL     OW 2263   6.782   2.120   3.286
  455SOL    HW1 2264   6.876   2.145   3.265
  455SOL    HW2 2265   6.781   2.038   3.343
  456SOL     OW 2266   5.122   5.797   4.659
  456SOL    HW1 2267   5.207   5.850   4.661
  456SOL    HW2 2268   5.114   5.744   4.743
  457SOL     OW 2269   2.107   3.483   3.837
  457SOL    HW1 2270   2.087   3.414   3.768
  457SOL    HW2 2271   2.125   3.570   3.792
  458SOL     OW 2272   4.419   5.828   3.702
  458SOL    HW1 2273   4.411   5.808   3.605
  458SOL    HW2 2274   4.453   5.747   3.750
  459SOL     OW 2275   1.901   6.567   4.723
  459SOL    HW1 2276   1.907   6.509   4.805
  459SOL    HW2 2277   1.806   6.574   4.694
  460SOL     OW 2278   1.519   0.053   3.624
  460SOL    HW1 2279   1.483   0.143   3.644
  460SOL    HW2 2280   1.617   0.060   3.603
  461SOL     OW 2281   6.073   7.019   5.264
  461SOL    HW1 2282   6.073   0.065   5.195
  461SOL    HW2 2283   6.014   6.944   5.235
  462SOL     OW 2284   3.690   2.716   6.091
  462SOL    HW1 2285   3.618   2.726   6.021
  462SOL    HW2 2286   3.677   2.629   6.139
  463SOL     OW 2287   6.812   5.314   3.512
  463SOL    HW1 2288   6.767   5.235   3.556
  463SOL    HW2 2289   6.743   5.368   3.464
  464SOL     OW 2290   2.722   2.772   6.302
  464SOL    HW1 2291   2.735   2.677   6.328
  464SOL    HW2 2292   2.799   2.827   6.334
  465SOL     OW 2293   1.329   2.704   4.085
  465SOL    HW1 2294   1.271   2.722   4.006
  465SOL    HW2 2295   1.273   2.705   4.168
  466SOL     OW 2296   1.420   5.000   2.916
  466SOL    HW1 2297   1.507   4.998   2.965
  466SOL    HW2 2298   1.397   5.094   2.893
  467SOL     OW 2299   1.101   1.192   0.089
  467SOL    HW1 2300   1.109   1.096   0.061
  467SOL    HW2 2301   1.138   1.203   0.181
  468SOL     OW 2302   3.775   6.284   6.780
  468SOL    HW1 2303   3.763   6.191   6.813
  468SOL    HW2 2304   3.719   6.346   6.835
  469SOL     OW 2305   3.104   4.505   0.243
  469SOL    HW1 2306   3.164   4.562   0.186
  469SOL    HW2 2307   3.009   4.530   0.226
  470SOL     OW 2308   4.443   0.153   2.298
  470SOL    HW1 2309   4.500   0.220   2.344
  470SOL    HW2 2310   4.368   0.126   2.359
  471SOL     OW 2311   1.840   2.302   4.310
  471SOL    HW1 2312   1.773   2.325   4.380
  471SOL    HW2 2313   1.794   2.268   4.228
  472SOL     OW 2314   5.291   3.924   6.726
  472SOL    HW1 2315   5.319   4.017   6.701
  472SOL    HW2 2316   5.248   3.925   6.816
  473SOL     OW 2317   0.711   3.009   2.152
  473SOL    HW1 2318   0.800   2.964   2.142
  473SOL    HW2 2319   0.726   3.106   2.172
  474SOL     OW 2320   5.145   5.308   3.941
  474SOL    HW1 2321   5.079   5.240   3.910
  474SOL    HW2 2322   5.170   5.368   3.865
  475SOL     OW 2323   5.476   0.959   6.390
  475SOL    HW1 2324   5.385   0.925   6.366
  475SOL    HW2 2325   5.545   0.906   6.340
  476SOL     OW 2326   6.686   4.095   2.942
  476SOL    HW1 2327   6.754   4.043   2.993
  476SOL    HW2 2328   6.690   4.191   2.970
  477SOL     OW 2329   1.177   4.422   4.569
  477SOL    HW1 2330   1.250   4.392   4.631
  477SOL    HW2 2331   1.195   4.388   4.477
  478SOL     OW 2332   3.138   6.859   2.130
  478SOL    HW1 2333   3.126   6.769   2.087
  478SOL    HW2 2334   3.065   6.920   2.099
  479SOL     OW 2335   4.100   2.094   6.651
  479SOL    HW1 2336   4.106   2.031   6.729
  479SOL    HW2 2337   4.179   2.079   6.591
  480SOL     OW 2338   2.050   1.503   0.221
  480SOL    HW1 2339   2.141   1.482   0.184
  480SOL    HW2 2340   2.039   1.458   0.310
  481SOL     OW 2341   1.530   0.570   0.506
  481SOL    HW1 2342   1.576   0.601   0.423
  481SOL    HW2 2343   1.578   0.489   0.541
  482SOL     OW 2344   4.934   5.152   3.116
  482SOL    HW1 2345   4.976   5.224   3.060
  482SOL    HW2 2346   4.936   5.066   3.065
  483SOL     OW 2347   6.851   1.409   1.770
  483SOL    HW1 2348   6.839   1.397   1.868
  483SOL    HW2 2349   6.946   1.433   1.750
  484SOL     OW 2350   1.287   2.887   4.801
  484SOL    HW1 2351   1.342   2.968   4.819
  484SOL    HW2 2352   1.238   2.899   4.714
  485SOL     OW 2353   3.868   5.237   2.416
  485SOL    HW1 2354   3.888   5.177   2.339
  485SOL    HW2 2355   3.943   5.233   2.482
  486SOL     OW 2356   6.874   2.310   0.726
  486SOL    HW1 2357   6.846   2.332   0.820
  486SOL    HW2 2358   6.949   2.244   0.729
  487SOL     OW 2359   1.342   2.072   1.277
  487SOL    HW1 2360   1.331   2.073   1.178
  487SOL    HW2 2361   1.273   2.133   1.318
  488SOL     OW 2362   0.888   1.984   1.769
  488SOL    HW1 2363   0.892   1.925   1.849
  488SOL    HW2 2364   0.945   1.945   1.696
  489SOL     OW 2365   3.193   6.138   6.370
  489SOL    HW1 2366   3.204   6.083   6.453
  489SOL    HW2 2367   3.226   6.231   6.388
  490SOL     OW 2368   0.025   5.742   3.230
  490SOL    HW1 2369   0.037   5.714   3.135
  490SOL    HW2 2370   6.955   5.724   3.258
  491SOL     OW 2371   0.146   3.093   2.322
  491SOL    HW1 2372   0.211   3.025   2.287
  491SOL    HW2 2373   0.183   3.133   2.406
  492SOL     OW 2374   2.405   0.217   5.319
  492SOL    HW1 2375   2.339   0.146   5.296
  492SOL    HW2 2376   2.487   0.207   5.262
  493SOL     OW 2377   5.118   6.651   5.753
  493SOL    HW1 2378   5.039   6.632   5.695
  493SOL    HW2 2379   5.094   6.635   5.849
  494SOL     OW 2380   6.610   0.704   6.669
  494SOL    HW1 2381   6.605   0.780   6.734
  494SOL    HW2 2382   6.520   0.687   6.630
  495SOL     OW 2383   4.742   5.993   3.639
  495SOL    HW1 2384   4.659   6.048   3.636
  495SOL    HW2 2385   4.758   5.952   3.550
  496SOL     OW 2386   5.346   3.415   2.134
  496SOL    HW1 2387   5.324   3.461   2.219
  496SOL    HW2 2388   5.404   3.474   2.078
  497SOL     OW 2389   3.520   1.156   4.433
  497SOL    HW1 2390   3.470   1.241   4.415
  497SOL    HW2 2391   3.618   1.172   4.425
  498SOL     OW 2392   1.840   4.144   1.493
  498SOL    HW1 2393   1.753   4.097   1.500
  498SOL    HW2 2394   1.852   4.179   1.400
  499SOL     OW 2395   2.660   0.292   4.001
  499SOL    HW1 2396   2.618   0.268   4.088
  499SOL    HW2 2397   2.726   0.367   4.015
  500SOL     OW 2398   0.572   3.418   3.544
  500SOL    HW1 2399   0.538   3.440   3.452
  500SOL    HW2 2400   0.543   3.490   3.608
  501SOL     OW 2401   2.672   6.169   7.001
  501SOL    HW1 2402   2.766   6.191   6.977
  501SOL    HW2 2403   2.642   6.228   0.051
  502SOL     OW 2404   6.681   4.039   7.006
  502SOL    HW1 2405   6.587   4.037   0.014
  502SOL    HW2 2406   6.684   4.007   6.912
  503SOL     OW 2407   5.935   5.822   6.054
  503SOL    HW1 2408   6.023   5.814   6.007
  503SOL    HW2 2409   5.916   5.737   6.103
  504SOL     OW 2410   1.749   5.263   3.186
  504SOL    HW1 2411   1.767   5.361   3.192
  504SOL    HW2 2412   1.773   5.220   3.273
  505SOL     OW 2413   3.459   6.148   4.814
  505SOL    HW1 2414   3.556   6.130   4.796
  505SOL    HW2 2415   3.442   6.246   4.816
  506SOL     OW 2416   2.135   5.523   4.999
  506SOL    HW1 2417   2.196   5.521   5.079
  506SOL    HW2 2418   2.152   5.442   4.942
  507SOL     OW 2419   3.815   0.493   3.607
  507SOL    HW1 2420   3.845   0.462   3.697
  507SOL    HW2 2421   3.892   0.531   3.557
  508SOL     OW 2422   6.614   3.897   2.275
  508SOL    HW1 2423   6.519   3.918   2.299
  508SOL    HW2 2424   6.676   3.951   2.331
  509SOL     OW 2425   3.660   0.992   1.936
  509SOL    HW1 2426   3.679   0.991   2.034
  509SOL    HW2 2427   3.580   1.048   1.918
  510SOL     OW 2428   6.376   5.128   6.772
  510SOL    HW1 2429   6.443   5.096   6.705
  510SOL    HW2 2430   6.398   5.089   6.861
  511SOL     OW 2431   0.369   1.402   6.375
  511SOL    HW1 2432   0.314   1.475   6.335
  511SOL    HW2 2433   0.338   1.314   6.341
  512SOL     OW 2434   6.974   2.691   6.805
  512SOL    HW1 2435   7.007   2.621   6.868
  512SOL    HW2 2436   6.921   2.648   6.732
  513SOL     OW 2437   6.072   6.176   3.082
  513SOL    HW1 2438   6.025   6.234   3.149
  513SOL    HW2 2439   6.006   6.140   3.017
  514SOL     OW 2440   6.722   2.834   4.094
  514SOL    HW1 2441   6.801   2.884   4.129
  514SOL    HW2 2442   6.658   2.817   4.169
  515SOL     OW 2443   2.002   0.563   6.662
  515SOL    HW1 2444   2.014   0.647   6.609
  515SOL    HW2 2445   1.962   0.586   6.751
  516SOL     OW 2446   2.553   4.511   1.819
  516SOL    HW1 2447   2.497   4.480   1.896
  516SOL    HW2 2448   2.642   4.541   1.852
  517SOL     OW 2449   4.965   5.371   2.316
  517SOL    HW1 2450   4.895   5.301   2.297
  517SOL    HW2 2451   4.940   5.420   2.400
  518SOL     OW 2452   1.981   2.310   2.650
  518SOL    HW1 2453   2.074   2.345   2.641
  518SOL    HW2 2454   1.968   2.231   2.590
  519SOL     OW 2455   0.547   0.683   4.300
  519SOL    HW1 2456   0.582   0.589   4.298
  519SOL    HW2 2457   0.621   0.746   4.276
  520SOL     OW 2458   6.237   4.446   6.937
  520SOL    HW1 2459   6.203   4.530   6.979
  520SOL    HW2 2460   6.336   4.439   6.951
  521SOL     OW 2461   6.864   3.719   6.213
  521SOL    HW1 2462   6.870   3.818   6.207
  521SOL    HW2 2463   6.955   3.682   6.233
  522SOL     OW 2464   3.742   3.779   5.408
  522SOL    HW1 2465   3.833   3.805   5.377
  522SOL    HW2 2466   3.737   3.679   5.416
  523SOL     OW 2467   0.679   5.051   1.258
  523SOL    HW1 2468   0.671   4.961   1.301
  523SOL    HW2 2469   0.685   5.122   1.328
  524SOL     OW 2470   1.126   1.600   0.741
  524SOL    HW1 2471   1.142   1.512   0.696
  524SOL    HW2 2472   1.038   1.599   0.788
  525SOL     OW 2473   2.137   3.567   6.570
  525SOL    HW1 2474   2.213   3.503   6.554
  525SOL    HW2 2475   2.051   3.524   6.541
  526SOL     OW 2476   4.083   6.803   4.126
  526SOL    HW1 2477   4.078   6.712   4.085
  526SOL    HW2 2478   4.119   6.796   4.219
  527SOL     OW 2479   6.691   3.245   6.723
  527SOL    HW1 2480   6.710   3.190   6.642
  527SOL    HW2 2481   6.727   3.337   6.710
  528SOL     OW 2482   1.018   1.350   3.718
  528SOL    HW1 2483   1.061   1.266   3.752
  528SOL    HW2 2484   0.928   1.329   3.682
  529SOL     OW 2485   1.063   6.446   4.207
  529SOL    HW1 2486   1.132   6.518   4.211
  529SOL    HW2 2487   1.074   6.394   4.122
  530SOL     OW 2488   2.982   3.152   4.977
  530SOL    HW1 2489   2.915   3.077   4.975
  530SOL    HW2 2490   3.057   3.127   5.038
  531SOL     OW 2491   0.210   0.276   2.480
  531SOL    HW1 2492   0.163   0.359   2.511
  531SOL    HW2 2493   0.249   0.292   2.390
  532SOL     OW 2494   1.763   2.226   0.030
  532SOL    HW1 2495   1.718   2.313   0.010
  532SOL    HW2 2496   1.725   2.187   0.114
  533SOL     OW 2497   4.303   6.464   3.546
  533SOL    HW1 2498   4.359   6.546   3.551
  533SOL    HW2 2499   4.281   6.432   3.638
  534SOL     OW 2500   5.168   5.578   3.471
  534SOL    HW1 2501   5.167   5.562   3.372
  534SOL    HW2 2502   5.251   5.628   3.496
  535SOL     OW 2503   0.417   3.715   4.631
  535SOL    HW1 2504   0.329   3.698   4.588
  535SOL    HW2 2505   0.470   3.777   4.574
  536SOL     OW 2506   0.250   5.273   1.657
  536SOL    HW1 2507   0.287   5.323   1.579
  536SOL    HW2 2508   0.321   5.262   1.726
  537SOL     OW 2509   2.273   6.216   3.477
  537SOL    HW1 2510   2.372   6.222   3.490
  537SOL    HW2 2511   2.233   6.167   3.554
  538SOL     OW 2512   1.056   4.149   2.615
  538SOL    HW1 2513   1.034   4.110   2.526
  538SOL    HW2 2514   1.147   4.119   2.643
  539SOL     OW 2515   0.932   6.337   0.144
  539SOL    HW1 2516   0.933   6.309   0.047
  539SOL    HW2 2517   0.839   6.329   0.180
  540SOL     OW 2518   0.364   1.164   2.353
  540SOL    HW1 2519   0.371   1.239   2.419
  540SOL    HW2 2520   0.447   1.160   2.298
  541SOL     OW 2521   3.277   6.321   3.912
  541SOL    HW1 2522   3.340   6.392   3.944
  541SOL    HW2 2523   3.210   6.301   3.984
  542SOL     OW 2524   6.504   0.364   0.094
  542SOL    HW1 2525   6.573   0.292   0.094
  542SOL    HW2 2526   6.548   0.452   0.081
  543SOL     OW 2527   1.577   4.874   5.463
  543SOL    HW1 2528   1.572   4.891   5.562
  543SOL    HW2 2529   1.659   4.917   5.426
  544SOL     OW 2530   1.810   4.168   1.174
  544SOL    HW1 2531   1.838   4.264   1.177
  544SOL    HW2 2532   1.748   4.154   1.097
  545SOL     OW 2533   3.457   0.424   3.014
  545SOL    HW1 2534   3.419   0.498   3.069
  545SOL    HW2 2535   3.456   0.339   3.066
  546SOL     OW 2536   1.660   3.007   0.270
  546SOL    HW1 2537   1.756   3.004   0.298
  546SOL    HW2 2538   1.629   2.916   0.246
  547SOL     OW 2539   2.729   1.601   0.046
  547SOL    HW1 2540   2.741   1.654   6.987
  547SOL    HW2 2541   2.678   1.518   0.026
  548SOL     OW 2542   4.022   3.015   1.926
  548SOL    HW1 2543   4.080   3.092   1.902
  548SOL    HW2 2544   4.016   3.008   2.026
  549SOL     OW 2545   4.621   2.983   1.205
  549SOL    HW1 2546   4.594   2.932   1.287
  549SOL    HW2 2547   4.545   2.985   1.141
  550SOL     OW 2548   6.523   4.820   3.358
  550SOL    HW1 2549   6.507   4.913   3.392
  550SOL    HW2 2550   6.574   4.824   3.272
  551SOL     OW 2551   0.980   0.683   1.242
  551SOL    HW1 2552   0.912   0.654   1.310
  551SOL    HW2 2553   0.984   0.617   1.168
  552SOL     OW 2554   4.611   4.980   0.624
  552SOL    HW1 2555   4.586   4.899   0.571
  552SOL    HW2 2556   4.649   5.050   0.563
  553SOL     OW 2557   2.592   6.638   2.003
  553SOL    HW1 2558   2.558   6.646   2.097
  553SOL    HW2 2559   2.671   6.577   2.001
  554SOL     OW 2560   5.502   6.522   5.565
  554SOL    HW1 2561   5.406   6.552   5.563
  554SOL    HW2 2562   5.561   6.597   5.534
  555SOL     OW 2563   2.106   5.000   3.158
  555SOL    HW1 2564   2.015   4.965   3.138
  555SOL    HW2 2565   2.099   5.095   3.190
  556SOL     OW 2566   5.781   2.350   3.950
  556SOL    HW1 2567   5.743   2.374   4.039
  556SOL    HW2 2568   5.709   2.353   3.880
  557SOL     OW 2569   0.359   4.969   0.499
  557SOL    HW1 2570   0.414   5.042   0.457
  557SOL    HW2 2571   0.385   4.881   0.459
  558SOL     OW 2572   3.220   4.065   4.678
  558SOL    HW1 2573   3.143   4.069   4.742
  558SOL    HW2 2574   3.261   3.974   4.680
  559SOL     OW 2575   6.403   5.912   6.635
  559SOL    HW1 2576   6.479   5.976   6.629
  559SOL    HW2 2577   6.436   5.819   6.620
  560SOL     OW 2578   3.909   5.555   0.267
  560SOL    HW1 2579   4.000   5.596   0.258
  560SOL    HW2 2580   3.918   5.457   0.285
  561SOL     OW 2581   6.237   1.151   6.986
  561SOL    HW1 2582   6.302   1.211   0.007
  561SOL    HW2 2583   6.240   1.168   6.887
  562SOL     OW 2584   4.263   0.573   6.064
  562SOL    HW1 2585   4.176   0.577   6.015
  562SOL    HW2 2586   4.246   0.572   6.163
  563SOL     OW 2587   2.120   6.464   3.555
  563SOL    HW1 2588   2.167   6.376   3.542
  563SOL    HW2 2589   2.055   6.477   3.480
  564SOL     OW 2590   2.549   1.801   6.677
  564SOL    HW1 2591   2.527   1.891   6.640
  564SOL    HW2 2592   2.540   1.732   6.605
  565SOL     OW 2593   4.161   3.400   5.629
  565SOL    HW1 2594   4.112   3.433   5.709
  565SOL    HW2 2595   4.194   3.479   5.576
  566SOL     OW 2596   6.162   3.884   3.670
  566SOL    HW1 2597   6.105   3.934   3.736
  566SOL    HW2 2598   6.256   3.919   3.675
  567SOL     OW 2599   3.549   4.019   3.097
  567SOL    HW1 2600   3.524   3.923   3.089
  567SOL    HW2 2601   3.648   4.027   3.104
  568SOL     OW 2602   3.680   2.504   0.412
  568SOL    HW1 2603   3.585   2.497   0.445
  568SOL    HW2 2604   3.699   2.598   0.385
  569SOL     OW 2605   1.437   3.451   0.465
  569SOL    HW1 2606   1.428   3.403   0.378
  569SOL    HW2 2607   1.348   3.487   0.493
  570SOL     OW 2608   1.904   6.309   6.216
  570SOL    HW1 2609   1.953   6.335   6.132
  570SOL    HW2 2610   1.839   6.381   6.240
  571SOL     OW 2611   3.471   0.206   3.206
  571SOL    HW1 2612   3.492   0.197   3.304
  571SOL    HW2 2613   3.394   0.146   3.183
  572SOL     OW 2614   2.409   5.027   5.461
  572SOL    HW1 2615   2.312   5.048   5.469
  572SOL    HW2 2616   2.439   5.041   5.366
  573SOL     OW 2617   4.374   1.328   5.232
  573SOL    HW1 2618   4.296   1.273   5.262
  573SOL    HW2 2619   4.344   1.396   5.165
  574SOL     OW 2620   2.411   2.202   3.769
  574SOL    HW1 2621   2.351   2.276   3.739
  574SOL    HW2 2622   2.440   2.149   3.690
  575SOL     OW 2623   6.715   3.499   6.239
  575SOL    HW1 2624   6.692   3.465   6.148
  575SOL    HW2 2625   6.738   3.596   6.234
  576SOL     OW 2626   1.326   2.376   2.071
  576SOL    HW1 2627   1.420   2.394   2.041
  576SOL    HW2 2628   1.276   2.463   2.077
  577SOL     OW 2629   1.611   0.808   3.242
  577SOL    HW1 2630   1.557   0.891   3.256
  577SOL    HW2 2631   1.707   0.827   3.262
  578SOL     OW 2632   6.697   4.114   3.435
  578SOL    HW1 2633   6.656   4.158   3.516
  578SOL    HW2 2634   6.643   4.137   3.354
  579SOL     OW 2635   3.160   2.588   1.016
  579SOL    HW1 2636   3.226   2.581   1.091
  579SOL    HW2 2637   3.086   2.522   1.030
  580SOL     OW 2638   0.288   4.368   0.033
  580SOL    HW1 2639   0.256   4.276   0.057
  580SOL    HW2 2640   0.340   4.364   6.973
  581SOL     OW 2641   3.459   3.146   2.643
  581SOL    HW1 2642   3.376   3.193   2.672
  581SOL    HW2 2643   3.440   3.049   2.629
  582SOL     OW 2644   5.278   5.390   2.818
  582SOL    HW1 2645   5.304   5.316   2.755
  582SOL    HW2 2646   5.293   5.360   2.912
  583SOL     OW 2647   2.211   5.206   6.387
  583SOL    HW1 2648   2.139   5.266   6.353
  583SOL    HW2 2649   2.193   5.185   6.484
  584SOL     OW 2650   1.272   5.113   5.357
  584SOL    HW1 2651   1.295   5.194   5.303
  584SOL    HW2 2652   1.210   5.140   5.431
  585SOL     OW 2653   6.159   2.777   6.193
  585SOL    HW1 2654   6.134   2.692   6.146
  585SOL    HW2 2655   6.210   2.836   6.131
  586SOL     OW 2656   3.220   0.451   6.843
  586SOL    HW1 2657   3.211   0.358   6.879
  586SOL    HW2 2658   3.280   0.449   6.763
  587SOL     OW 2659   2.743   2.382   5.169
  587SOL    HW1 2660   2.679   2.319   5.213
  587SOL    HW2 2661   2.693   2.457   5.127
  588SOL     OW 2662   2.718   5.383   0.660
  588SOL    HW1 2663   2.804   5.435   0.662
  588SOL    HW2 2664   2.686   5.375   0.565
  589SOL     OW 2665   4.051   4.982   1.681
  589SOL    HW1 2666   4.049   4.993   1.582
  589SOL    HW2 2667   4.146   4.991   1.713
  590SOL     OW 2668   5.847   2.941   1.508
  590SOL    HW1 2669   5.763   2.972   1.551
  590SOL    HW2 2670   5.888   3.017   1.457
  591SOL     OW 2671   4.121   6.291   3.993
  591SOL    HW1 2672   4.048   6.236   3.951
  591SOL    HW2 2673   4.171   6.236   4.059
  592SOL     OW 2674   4.276   0.062   1.013
  592SOL    HW1 2675   4.296   0.006   0.933
  592SOL    HW2 2676   4.335   0.035   1.088
  593SOL     OW 2677   4.328   2.055   3.368
  593SOL    HW1 2678   4.337   1.964   3.328
  593SOL    HW2 2679   4.238   2.064   3.410
  594SOL     OW 2680   4.412   2.432   6.094
  594SOL    HW1 2681   4.387   2.337   6.077
  594SOL    HW2 2682   4.476   2.436   6.171
  595SOL     OW 2683   4.916   6.665   3.391
  595SOL    HW1 2684   4.846   6.666   3.463
  595SOL    HW2 2685   5.001   6.626   3.428
  596SOL     OW 2686   0.919   3.497   1.859
  596SOL    HW1 2687   0.837   3.550   1.881
  596SOL    HW2 2688   0.893   3.409   1.821
  597SOL     OW 2689   4.887   0.255   5.285
  597SOL    HW1 2690   4.961   0.241   5.219
  597SOL    HW2 2691   4.799   0.239   5.241
  598SOL     OW 2692   3.442   4.041   6.823
  598SOL    HW1 2693   3.462   4.036   6.921
  598SOL    HW2 2694   3.449   4.136   6.792
  599SOL     OW 2695   1.476   0.034   3.042
  599SOL    HW1 2696   1.540   0.020   2.966
  599SOL    HW2 2697   1.461   0.132   3.056
  600SOL     OW 2698   1.362   0.732   1.182
  600SOL    HW1 2699   1.285   0.766   1.128
  600SOL    HW2 2700   1.328   0.686   1.264
  601SOL     OW 2701   2.856   5.761   4.124
  601SOL    HW1 2702   2.837   5.769   4.026
  601SOL    HW2 2703   2.770   5.742   4.173
  602SOL     OW 2704   1.394   2.117   7.002
  602SOL    HW1 2705   1.401   2.021   6.976
  602SOL    HW2 2706   1.474   2.143   0.030
  603SOL     OW 2707   4.107   1.906   3.685
  603SOL    HW1 2708   4.204   1.900   3.663
  603SOL    HW2 2709   4.093   1.976   3.756
  604SOL     OW 2710   0.374   3.939   1.156
  604SOL    HW1 2711   0.455   3.889   1.187
  604SOL    HW2 2712   0.292   3.887   1.180
  605SOL     OW 2713   6.494   5.192   2.989
  605SOL    HW1 2714   6.541   5.279   2.971
  605SOL    HW2 2715   6.499   5.171   3.086
  606SOL     OW 2716   5.113   0.403   5.395
  606SOL    HW1 2717   5.033   0.365   5.350
  606SOL    HW2 2718   5.085   0.453   5.477
  607SOL     OW 2719   5.276   0.465   5.179
  607SOL    HW1 2720   5.220   0.469   5.262
  607SOL    HW2 2721   5.217   0.480   5.099
  608SOL     OW 2722   3.768   6.452   0.281
  608SOL    HW1 2723   3.830   6.530   0.285
  608SOL    HW2 2724   3.684   6.479   0.233
  609SOL     OW 2725   3.191   3.616   4.114
  609SOL    HW1 2726   3.191   3.574   4.024
  609SOL    HW2 2727   3.098   3.646   4.138
  610SOL     OW 2728   5.547   2.192   3.134
  610SOL    HW1 2729   5.559   2.285   3.167
  610SOL    HW2 2730   5.456   2.159   3.158
  611SOL     OW 2731   1.196   0.182   6.562
  611SOL    HW1 2732   1.106   0.178   6.520
  611SOL    HW2 2733   1.228   0.277   6.563
  612SOL     OW 2734   3.422   5.534   5.847
  612SOL    HW1 2735   3.474   5.616   5.823
  612SOL    HW2 2736   3.436   5.464   5.777
  613SOL     OW 2737   4.939   6.958   5.375
  613SOL    HW1 2738   4.908   6.895   5.447
  613SOL    HW2 2739   4.977   0.015   5.417
  614SOL     OW 2740   6.367   4.420   0.774
  614SOL    HW1 2741   6.397   4.423   0.679
  614SOL    HW2 2742   6.271   4.394   0.778
  615SOL     OW 2743   0.908   1.880   0.872
  615SOL    HW1 2744   1.007   1.862   0.867
  615SOL    HW2 2745   0.882   1.894   0.967
  616SOL     OW 2746   5.853   1.855   3.036
  616SOL    HW1 2747   5.817   1.858   3.129
  616SOL    HW2 2748   5.826   1.939   2.987
  617SOL     OW 2749   0.093   3.632   6.845
  617SOL    HW1 2750   7.019   3.621   6.838
  617SOL    HW2 2751   0.138   3.545   6.823
  618SOL     OW 2752   6.650   3.235   0.594
  618SOL    HW1 2753   6.678   3.148   0.635
  618SOL    HW2 2754   6.551   3.235   0.579
  619SOL     OW 2755   3.920   6.991   6.584
  619SOL    HW1 2756   3.989   6.919   6.583
  619SOL    HW2 2757   3.954   0.043   6.638
  620SOL     OW 2758   6.005   2.773   1.049
  620SOL    HW1 2759   6.067   2.851   1.038
  620SOL    HW2 2760   5.915   2.805   1.078
  621SOL     OW 2761   1.549   0.134   5.439
  621SOL    HW1 2762   1.538   0.179   5.350
  621SOL    HW2 2763   1.614   0.186   5.494
  622SOL     OW 2764   0.588   2.057   5.358
  622SOL    HW1 2765   0.493   2.086   5.371
  622SOL    HW2 2766   0.601   2.030   5.262
  623SOL     OW 2767   0.310   0.170   4.865
  623SOL    HW1 2768   0.289   0.244   4.928
  623SOL    HW2 2769   0.226   0.122   4.841
  624SOL     OW 2770   6.549   1.241   0.128
  624SOL    HW1 2771   6.561   1.335   0.093
  624SOL    HW2 2772   6.578   1.176   0.057
  625SOL     OW 2773   1.434   1.693   0.798
  625SOL    HW1 2774   1.508   1.631   0.823
  625SOL    HW2 2775   1.412   1.752   0.876
  626SOL     OW 2776   0.931   5.654   2.545
  626SOL    HW1 2777   1.029   5.667   2.532
  626SOL    HW2 2778   0.883   5.669   2.458
  627SOL     OW 2779   6.486   6.727   0.202
  627SOL    HW1 2780   6.517   6.822   0.204
  627SOL    HW2 2781   6.551   6.671   0.150
  628SOL     OW 2782   5.810   3.971   5.213
  628SOL    HW1 2783   5.874   4.011   5.148
  628SOL    HW2 2784   5.806   3.872   5.199
  629SOL     OW 2785   0.485   0.729   0.009
  629SOL    HW1 2786   0.464   0.656   0.074
  629SOL    HW2 2787   0.438   0.712   6.947
  630SOL     OW 2788   0.291   2.437   0.856
  630SOL    HW1 2789   0.284   2.358   0.916
  630SOL    HW2 2790   0.256   2.518   0.903
  631SOL     OW 2791   4.011   1.701   4.287
  631SOL    HW1 2792   4.101   1.731   4.254
  631SOL    HW2 2793   4.015   1.690   4.387
  632SOL     OW 2794   4.016   2.748   0.924
  632SOL    HW1 2795   4.004   2.689   0.844
  632SOL    HW2 2796   4.113   2.753   0.947
  633SOL     OW 2797   2.926   4.563   6.925
  633SOL    HW1 2798   2.826   4.556   6.934
  633SOL    HW2 2799   2.969   4.494   6.984
  634SOL     OW 2800   3.958   3.260   3.117
  634SOL    HW1 2801   3.909   3.334   3.072
  634SOL    HW2 2802   3.968   3.183   3.053
  635SOL     OW 2803   4.706   6.862   0.258
  635SOL    HW1 2804   4.774   6.838   0.190
  635SOL    HW2 2805   4.733   6.825   0.347
  636SOL     OW 2806   3.213   0.012   5.781
  636SOL    HW1 2807   3.181   0.104   5.800
  636SOL    HW2 2808   3.135   6.979   5.757
  637SOL     OW 2809   5.818   2.184   2.686
  637SOL    HW1 2810   5.747   2.254   2.684
  637SOL    HW2 2811   5.892   2.215   2.746
  638SOL     OW 2812   5.759   3.666   3.726
  638SOL    HW1 2813   5.858   3.659   3.733
  638SOL    HW2 2814   5.718   3.653   3.816
  639SOL     OW 2815   5.490   4.325   3.983
  639SOL    HW1 2816   5.484   4.367   3.893
  639SOL    HW2 2817   5.509   4.227   3.973
  640SOL     OW 2818   6.806   4.778   3.684
  640SOL    HW1 2819   6.904   4.795   3.680
  640SOL    HW2 2820   6.779   4.722   3.605
  641SOL     OW 2821   0.870   4.823   4.690
  641SOL    HW1 2822   0.845   4.728   4.708
  641SOL    HW2 2823   0.805   4.863   4.626
  642SOL     OW 2824   1.221   2.464   4.518
  642SOL    HW1 2825   1.249   2.537   4.457
  642SOL    HW2 2826   1.298   2.436   4.576
  643SOL     OW 2827   5.985   0.635   6.724
  643SOL    HW1 2828   5.999   0.718   6.670
  643SOL    HW2 2829   5.966   0.559   6.663
  644SOL     OW 2830   1.765   0.845   4.565
  644SOL    HW1 2831   1.721   0.756   4.563
  644SOL    HW2 2832   1.726   0.900   4.639
  645SOL     OW 2833   3.332   5.243   4.187
  645SOL    HW1 2834   3.288   5.199   4.265
  645SOL    HW2 2835   3.269   5.242   4.109
  646SOL     OW 2836   3.732   0.489   4.574
  646SOL    HW1 2837   3.808   0.506   4.512
  646SOL    HW2 2838   3.753   0.528   4.664
  647SOL     OW 2839   5.669   1.768   5.080
  647SOL    HW1 2840   5.608   1.846   5.065
  647SOL    HW2 2841   5.749   1.777   5.020
  648SOL     OW 2842   6.813   3.483   3.626
  648SOL    HW1 2843   6.796   3.572   3.583
  648SOL    HW2 2844   6.737   3.462   3.688
  649SOL     OW 2845   2.309   3.971   0.689
  649SOL    HW1 2846   2.347   3.907   0.755
  649SOL    HW2 2847   2.314   3.931   0.598
  650SOL     OW 2848   6.978   5.257   0.705
  650SOL    HW1 2849   6.910   5.304   0.649
  650SOL    HW2 2850   0.010   5.200   0.647
  651SOL     OW 2851   1.660   0.531   5.691
  651SOL    HW1 2852   1.649   0.626   5.722
  651SOL    HW2 2853   1.581   0.477   5.718
  652SOL     OW 2854   4.355   6.772   2.283
  652SOL    HW1 2855   4.334   6.836   2.357
  652SOL    HW2 2856   4.376   6.823   2.200
  653SOL     OW 2857   0.332   6.335   0.547
  653SOL    HW1 2858   0.295   6.356   0.456
  653SOL    HW2 2859   0.375   6.245   0.545
  654SOL     OW 2860   6.559   6.524   6.096
  654SOL    HW1 2861   6.605   6.531   6.185
  654SOL    HW2 2862   6.483   6.459   6.102
  655SOL     OW 2863   6.852   5.488   1.830
  655SOL    HW1 2864   6.901   5.406   1.801
  655SOL    HW2 2865   6.913   5.567   1.824
  656SOL     OW 2866   1.978   6.242   0.382
  656SOL    HW1 2867   1.908   6.311   0.401
  656SOL    HW2 2868   1.976   6.172   0.453
  657SOL     OW 2869   3.281   3.938   0.760
  657SOL    HW1 2870   3.302   3.841   0.773
  657SOL    HW2 2871   3.190   3.946   0.719
  658SOL     OW 2872   1.333   4.074   5.906
  658SOL    HW1 2873   1.241   4.090   5.941
  658SOL    HW2 2874   1.400   4.097   5.976
  659SOL     OW 2875   2.465   5.850   4.551
  659SOL    HW1 2876   2.430   5.915   4.482
  659SOL    HW2 2877   2.504   5.901   4.627
  660SOL     OW 2878   4.302   4.802   2.289
  660SOL    HW1 2879   4.258   4.812   2.200
  660SOL    HW2 2880   4.368   4.726   2.285
  661SOL     OW 2881   4.757   4.269   4.444
  661SOL    HW1 2882   4.855   4.272   4.421
  661SOL    HW2 2883   4.705   4.317   4.374
  662SOL     OW 2884   4.302   1.171   6.122
  662SOL    HW1 2885   4.216   1.199   6.080
  662SOL    HW2 2886   4.286   1.147   6.218
  663SOL     OW 2887   0.275   4.775   0.117
  663SOL    HW1 2888   0.262   4.833   0.037
  663SOL    HW2 2889   0.368   4.787   0.152
  664SOL     OW 2890   1.182   5.535   6.584
  664SOL    HW1 2891   1.199   5.443   6.618
  664SOL    HW2 2892   1.233   5.549   6.499
  665SOL     OW 2893   4.033   5.256   0.841
  665SOL    HW1 2894   4.074   5.188   0.902
  665SOL    HW2 2895   3.963   5.211   0.784
  666SOL     OW 2896   4.091   2.449   1.054
  666SOL    HW1 2897   4.132   2.537   1.078
  666SOL    HW2 2898   4.147   2.375   1.092
  667SOL     OW 2899   0.431   3.887   3.940
  667SOL    HW1 2900   0.426   3.793   3.973
  667SOL    HW2 2901   0.526   3.916   3.935
  668SOL     OW 2902   4.825   5.327   0.323
  668SOL    HW1 2903   4.806   5.425   0.328
  668SOL    HW2 2904   4.923   5.311   0.336
  669SOL     OW 2905   2.433   6.111   3.071
  669SOL    HW1 2906   2.479   6.176   3.010
  669SOL    HW2 2907   2.340   6.143   3.089
  670SOL     OW 2908   3.248   3.563   2.244
  670SOL    HW1 2909   3.234   3.478   2.193
  670SOL    HW2 2910   3.160   3.605   2.264
  671SOL     OW 2911   2.604   5.884   6.278
  671SOL    HW1 2912   2.610   5.944   6.358
  671SOL    HW2 2913   2.697   5.863   6.245
  672SOL     OW 2914   0.581   3.950   2.371
  672SOL    HW1 2915   0.594   4.001   2.457
  672SOL    HW2 2916   0.595   4.012   2.294
  673SOL     OW 2917   4.572   0.346   1.007
  673SOL    HW1 2918   4.595   0.399   1.089
  673SOL    HW2 2919   4.525   0.262   1.033
  674SOL     OW 2920   0.290   3.302   4.172
  674SOL    HW1 2921   0.333   3.390   4.192
  674SOL    HW2 2922   0.196   3.317   4.141
  675SOL     OW 2923   0.714   1.727   5.147
  675SOL    HW1 2924   0.637   1.763   5.094
  675SOL    HW2 2925   0.800   1.757   5.107
  676SOL     OW 2926   3.231   5.209   3.308
  676SOL    HW1 2927   3.222   5.120   3.263
  676SOL    HW2 2928   3.140   5.246   3.327
  677SOL     OW 2929   5.871   1.417   6.301
  677SOL    HW1 2930   5.790   1.409   6.244
  677SOL    HW2 2931   5.881   1.512   6.331
  678SOL     OW 2932   2.137   1.556   5.253
  678SOL    HW1 2933   2.116   1.593   5.343
  678SOL    HW2 2934   2.193   1.622   5.203
  679SOL     OW 2935   4.319   1.018   4.634
  679SOL    HW1 2936   4.234   1.067   4.655
  679SOL    HW2 2937   4.397   1.079   4.644
  680SOL     OW 2938   6.128   4.925   5.886
  680SOL    HW1 2939   6.039   4.962   5.909
  680SOL    HW2 2940   6.175   4.986   5.823
  681SOL     OW 2941   6.178   0.313   1.144
  681SOL    HW1 2942   6.203   0.248   1.215
  681SOL    HW2 2943   6.146   0.263   1.063
  682SOL     OW 2944   1.807   6.559   6.820
  682SOL    HW1 2945   1.729   6.496   6.824
  682SOL    HW2 2946   1.862   6.549   6.903
  683SOL     OW 2947   3.220   0.441   5.963
  683SOL    HW1 2948   3.277   0.362   5.940
  683SOL    HW2 2949   3.128   0.427   5.928
  684SOL     OW 2950   6.219   1.751   6.343
  684SOL    HW1 2951   6.171   1.773   6.428
  684SOL    HW2 2952   6.220   1.651   6.331
  685SOL     OW 2953   5.097   0.076   5.559
  685SOL    HW1 2954   5.033   0.124   5.619
  685SOL    HW2 2955   5.184   0.125   5.556
  686SOL     OW 2956   5.507   2.944   3.253
  686SOL    HW1 2957   5.430   2.934   3.191
  686SOL    HW2 2958   5.536   3.040   3.256
  687SOL     OW 2959   6.725   2.806   5.404
  687SOL    HW1 2960   6.767   2.717   5.389
  687SOL    HW2 2961   6.633   2.807   5.363
  688SOL     OW 2962   1.896   4.098   0.037
  688SOL    HW1 2963   1.901   4.008   7.019
  688SOL    HW2 2964   1.973   4.154   0.007
  689SOL     OW 2965   0.639   4.403   5.187
  689SOL    HW1 2966   0.588   4.488   5.200
  689SOL    HW2 2967   0.639   4.379   5.090
  690SOL     OW 2968   0.287   3.688   3.265
  690SOL    HW1 2969   0.276   3.696   3.364
  690SOL    HW2 2970   0.198   3.668   3.223
  691SOL     OW 2971   2.464   1.142   6.648
  691SOL    HW1 2972   2.504   1.226   6.611
  691SOL    HW2 2973   2.507   1.120   6.735
  692SOL     OW 2974   3.194   6.766   3.798
  692SOL    HW1 2975   3.124   6.833   3.823
  692SOL    HW2 2976   3.201   6.762   3.698
  693SOL     OW 2977   6.669   1.338   3.514
  693SOL    HW1 2978   6.693   1.249   3.474
  693SOL    HW2 2979   6.636   1.324   3.607
  694SOL     OW 2980   3.158   5.762   2.296
  694SOL    HW1 2981   3.193   5.749   2.203
  694SOL    HW2 2982   3.087   5.694   2.314
  695SOL     OW 2983   5.199   4.703   5.707
  695SOL    HW1 2984   5.269   4.665   5.767
  695SOL    HW2 2985   5.168   4.791   5.743
  696SOL     OW 2986   3.364   5.078   1.557
  696SOL    HW1 2987   3.382   4.996   1.502
  696SOL    HW2 2988   3.340   5.050   1.650
  697SOL     OW 2989   1.234   2.879   5.630
  697SOL    HW1 2990   1.218   2.868   5.728
  697SOL    HW2 2991   1.218   2.791   5.584
  698SOL     OW 2992   6.046   0.386   5.340
  698SOL    HW1 2993   6.138   0.375   5.377
  698SOL    HW2 2994   6.019   0.482   5.346
  699SOL     OW 2995   0.686   4.108   0.115
  699SOL    HW1 2996   0.777   4.077   0.089
  699SOL    HW2 2997   0.691   4.200   0.153
  700SOL     OW 2998   3.348   1.964   3.595
  700SOL    HW1 2999   3.347   1.877   3.644
  700SOL    HW2 3000   3.278   1.963   3.524
  701SOL     OW 3001   0.656   4.314   6.241
  701SOL    HW1 3002   0.564   4.309   6.282
  701SOL    HW2 3003   0.702   4.396   6.275
  702SOL     OW 3004   5.560   6.168   6.343
  702SOL    HW1 3005   5.581   6.149   6.439
  702SOL    HW2 3006   5.590   6.261   6.321
  703SOL     OW 3007   4.429   3.882   6.430
  703SOL    HW1 3008   4.396   3.962   6.479
  703SOL    HW2 3009   4.355   3.842   6.376
  704SOL     OW 3010   2.060   1.619   6.338
  704SOL    HW1 3011   1.979   1.653   6.291
  704SOL    HW2 3012   2.050   1.521   6.355
  705SOL     OW 3013   5.352   0.029   3.641
  705SOL    HW1 3014   5.444   0.049   3.675
  705SOL    HW2 3015   5.340   6.955   3.632
  706SOL     OW 3016   4.070   2.080   3.460
  706SOL    HW1 3017   3.995   2.119   3.407
  706SOL    HW2 3018   4.035   2.009   3.521
  707SOL     OW 3019   4.670   0.092   2.789
  707SOL    HW1 3020   4.735   0.133   2.725
  707SOL    HW2 3021   4.589   0.151   2.797
  708SOL     OW 3022   4.291   0.304   0.859
  708SOL    HW1 3023   4.303   0.242   0.937
  708SOL    HW2 3024   4.370   0.295   0.798
  709SOL     OW 3025   1.559   5.474   0.625
  709SOL    HW1 3026   1.481   5.487   0.563
  709SOL    HW2 3027   1.537   5.405   0.694
  710SOL     OW 3028   4.160   3.395   2.620
  710SOL    HW1 3029   4.182   3.413   2.716
  710SOL    HW2 3030   4.080   3.448   2.593
  711SOL     OW 3031   1.152   2.145   5.917
  711SOL    HW1 3032   1.082   2.190   5.973
  711SOL    HW2 3033   1.243   2.173   5.949
  712SOL     OW 3034   2.254   4.470   0.748
  712SOL    HW1 3035   2.235   4.376   0.777
  712SOL    HW2 3036   2.240   4.532   0.826
  713SOL     OW 3037   2.956   3.928   0.300
  713SOL    HW1 3038   2.932   4.008   0.356
  713SOL    HW2 3039   2.951   3.846   0.357
  714SOL     OW 3040   6.514   4.763   4.950
  714SOL    HW1 3041   6.453   4.685   4.932
  714SOL    HW2 3042   6.541   4.761   5.047
  715SOL     OW 3043   4.864   6.179   0.508
  715SOL    HW1 3044   4.867   6.137   0.599
  715SOL    HW2 3045   4.778   6.229   0.497
  716SOL     OW 3046   0.860   6.479   0.816
  716SOL    HW1 3047   0.773   6.431   0.823
  716SOL    HW2 3048   0.934   6.418   0.845
  717SOL     OW 3049   6.008   5.474   6.442
  717SOL    HW1 3050   6.003   5.552   6.505
  717SOL    HW2 3051   6.008   5.389   6.494
  718SOL     OW 3052   3.975   1.996   5.835
  718SOL    HW1 3053   3.943   1.975   5.928
  718SOL    HW2 3054   4.011   2.089   5.833
  719SOL     OW 3055   5.946   2.732   1.772
  719SOL    HW1 3056   5.923   2.706   1.678
  719SOL    HW2 3057   5.893   2.811   1.799
  720SOL     OW 3058   3.096   0.805   6.285
  720SOL    HW1 3059   3.076   0.828   6.190
  720SOL    HW2 3060   3.136   0.713   6.289
  721SOL     OW 3061   1.711   6.841   4.581
  721SOL    HW1 3062   1.761   6.870   4.662
  721SOL    HW2 3063   1.650   6.765   4.605
  722SOL     OW 3064   3.289   6.765   5.073
  722SOL    HW1 3065   3.209   6.819   5.100
  722SOL    HW2 3066   3.372   6.818   5.092
  723SOL     OW 3067   2.194   3.033   2.270
  723SOL    HW1 3068   2.246   3.032   2.355
  723SOL    HW2 3069   2.143   2.948   2.260
  724SOL     OW 3070   1.159   1.157   4.506
  724SOL    HW1 3071   1.119   1.231   4.559
  724SOL    HW2 3072   1.239   1.120   4.554
  725SOL     OW 3073   2.994   5.051   1.509
  725SOL    HW1 3074   3.075   5.086   1.555
  725SOL    HW2 3075   2.923   5.029   1.576
  726SOL     OW 3076   4.349   4.462   0.817
  726SOL    HW1 3077   4.405   4.392   0.862
  726SOL    HW2 3078   4.376   4.553   0.850
  727SOL     OW 3079   4.629   5.789   4.872
  727SOL    HW1 3080   4.677   5.868   4.835
  727SOL    HW2 3081   4.537   5.785   4.834
  728SOL     OW 3082   0.511   4.149   5.231
  728SOL    HW1 3083   0.579   4.075   5.229
  728SOL    HW2 3084   0.557   4.237   5.240
  729SOL     OW 3085   2.390   0.825   0.396
  729SOL    HW1 3086   2.334   0.904   0.371
  729SOL    HW2 3087   2.486   0.848   0.388
  730SOL     OW 3088   5.561   0.163   3.774
  730SOL    HW1 3089   5.564   0.207   3.684
  730SOL    HW2 3090   5.477   0.190   3.821
  731SOL     OW 3091   5.715   3.440   5.988
  731SOL    HW1 3092   5.724   3.524   5.933
  731SOL    HW2 3093   5.802   3.422   6.034
  732SOL     OW 3094   0.287   3.773   0.851
  732SOL    HW1 3095   0.222   3.819   0.911
  732SOL    HW2 3096   0.297   3.678   0.881
  733SOL     OW 3097   5.797   4.644   4.675
  733SOL    HW1 3098   5.716   4.621   4.620
  733SOL    HW2 3099   5.779   4.621   4.771
  734SOL     OW 3100   6.379   4.776   2.483
  734SOL    HW1 3101   6.407   4.783   2.388
  734SOL    HW2 3102   6.449   4.817   2.542
  735SOL     OW 3103   3.275   2.545   0.758
  735SOL    HW1 3104   3.220   2.548   0.842
  735SOL    HW2 3105   3.362   2.592   0.773
  736SOL     OW 3106   6.359   6.044   2.581
  736SOL    HW1 3107   6.304   6.003   2.654
  736SOL    HW2 3108   6.434   6.096   2.620
  737SOL     OW 3109   4.457   2.889   0.741
  737SOL    HW1 3110   4.532   2.950   0.768
  737SOL    HW2 3111   4.378   2.943   0.714
  738SOL     OW 3112   1.898   4.465   2.975
  738SOL    HW1 3113   1.968   4.502   3.036
  738SOL    HW2 3114   1.924   4.481   2.880
  739SOL     OW 3115   4.845   6.305   5.622
  739SOL    HW1 3116   4.818   6.346   5.535
  739SOL    HW2 3117   4.843   6.205   5.615
  740SOL     OW 3118   5.010   0.594   0.651
  740SOL    HW1 3119   5.025   0.537   0.571
  740SOL    HW2 3120   4.912   0.603   0.668
  741SOL     OW 3121   2.080   6.416   2.778
  741SOL    HW1 3122   2.168   6.462   2.787
  741SOL    HW2 3123   2.086   6.325   2.820
  742SOL     OW 3124   2.554   6.565   1.712
  742SOL    HW1 3125   2.557   6.632   1.638
  742SOL    HW2 3126   2.577   6.609   1.799
  743SOL     OW 3127   1.685   3.838   4.633
  743SOL    HW1 3128   1.632   3.766   4.588
  743SOL    HW2 3129   1.717   3.805   4.721
  744SOL     OW 3130   6.129   0.407   6.559
  744SOL    HW1 3131   6.115   0.311   6.584
  744SOL    HW2 3132   6.181   0.453   6.631
  745SOL     OW 3133   0.736   4.963   4.439
  745SOL    HW1 3134   0.829   4.962   4.401
  745SOL    HW2 3135   0.728   5.037   4.506
  746SOL     OW 3136   0.658   5.928   5.197
  746SOL    HW1 3137   0.567   5.966   5.180
  746SOL    HW2 3138   0.652   5.855   5.265
  747SOL     OW 3139   4.922   4.577   4.667
  747SOL    HW1 3140   4.920   4.676   4.685
  747SOL    HW2 3141   4.955   4.561   4.574
  748SOL     OW 3142   3.783   5.242   2.779
  748SOL    HW1 3143   3.871   5.274   2.816
  748SOL    HW2 3144   3.725   5.212   2.855
  749SOL     OW 3145   6.487   3.619   4.752
  749SOL    HW1 3146   6.455   3.531   4.718
  749SOL    HW2 3147   6.544   3.604   4.833
  750SOL     OW 3148   1.756   3.729   0.732
  750SOL    HW1 3149   1.755   3.635   0.767
  750SOL    HW2 3150   1.708   3.733   0.645
  751SOL     OW 3151   3.911   1.878   6.573
  751SOL    HW1 3152   3.966   1.959   6.593
  751SOL    HW2 3153   3.861   1.850   6.655
  752SOL     OW 3154   4.257   2.306   1.843
  752SOL    HW1 3155   4.322   2.256   1.786
  752SOL    HW2 3156   4.192   2.242   1.884
  753SOL     OW 3157   1.885   2.868   4.123
  753SOL    HW1 3158   1.889   2.804   4.200
  753SOL    HW2 3159   1.795   2.862   4.080
  754SOL     OW 3160   5.752   3.057   6.481
  754SOL    HW1 3161   5.753   3.061   6.381
  754SOL    HW2 3162   5.843   3.032   6.515
  755SOL     OW 3163   1.405   5.812   6.569
  755SOL    HW1 3164   1.428   5.741   6.502
  755SOL    HW2 3165   1.332   5.779   6.629
  756SOL     OW 3166   4.498   6.337   1.213
  756SOL    HW1 3167   4.440   6.256   1.222
  756SOL    HW2 3168   4.585   6.321   1.260
  757SOL     OW 3169   0.520   6.268   2.945
  757SOL    HW1 3170   0.477   6.330   3.011
  757SOL    HW2 3171   0.479   6.177   2.953
  758SOL     OW 3172   3.991   0.960   1.547
  758SOL    HW1 3173   3.981   1.059   1.533
  758SOL    HW2 3174   3.940   0.932   1.627
  759SOL     OW 3175   0.483   1.076   0.481
  759SOL    HW1 3176   0.575   1.115   0.482
  759SOL    HW2 3177   0.434   1.106   0.399
  760SOL     OW 3178   4.365   0.778   6.495
  760SOL    HW1 3179   4.450   0.750   6.540
  760SOL    HW2 3180   4.290   0.722   6.529
  761SOL     OW 3181   5.737   3.863   5.659
  761SOL    HW1 3182   5.789   3.918   5.593
  761SOL    HW2 3183   5.640   3.868   5.637
  762SOL     OW 3184   2.356   6.559   3.897
  762SOL    HW1 3185   2.450   6.556   3.931
  762SOL    HW2 3186   2.297   6.505   3.958
  763SOL     OW 3187   4.388   5.110   6.326
  763SOL    HW1 3188   4.387   5.112   6.226
  763SOL    HW2 3189   4.451   5.039   6.357
  764SOL     OW 3190   4.502   0.517   3.861
  764SOL    HW1 3191   4.555   0.508   3.777
  764SOL    HW2 3192   4.414   0.562   3.841
  765SOL     OW 3193   1.323   6.633   0.876
  765SOL    HW1 3194   1.297   6.585   0.792
  765SOL    HW2 3195   1.292   6.580   0.955
  766SOL     OW 3196   0.830   2.283   1.027
  766SOL    HW1 3197   0.777   2.328   0.955
  766SOL    HW2 3198   0.789   2.195   1.049
  767SOL     OW 3199   6.827   6.020   2.546
  767SOL    HW1 3200   6.925   6.039   2.535
  767SOL    HW2 3201   6.774   6.085   2.491
  768SOL     OW 3202   2.712   6.876   2.212
  768SOL    HW1 3203   2.632   6.836   2.167
  768SOL    HW2 3204   2.755   6.808   2.271
  769SOL     OW 3205   3.084   0.698   4.086
  769SOL    HW1 3206   3.016   0.630   4.113
  769SOL    HW2 3207   3.151   0.710   4.159
  770SOL     OW 3208   1.283   4.688   2.755
  770SOL    HW1 3209   1.290   4.713   2.851
  770SOL    HW2 3210   1.308   4.591   2.744
  771SOL     OW 3211   2.150   5.756   2.399
  771SOL    HW1 3212   2.182   5.702   2.476
  771SOL    HW2 3213   2.164   5.853   2.419
  772SOL     OW 3214   6.982   5.028   0.947
  772SOL    HW1 3215   0.054   5.014   0.927
  772SOL    HW2 3216   6.941   5.083   0.876
  773SOL     OW 3217   6.926   4.166   3.565
  773SOL    HW1 3218   6.971   4.240   3.515
  773SOL    HW2 3219   6.838   4.145   3.523
  774SOL     OW 3220   1.096   1.461   2.464
  774SOL    HW1 3221   1.016   1.461   2.524
  774SOL    HW2 3222   1.135   1.553   2.461
  775SOL     OW 3223   0.377   1.897   3.142
  775SOL    HW1 3224   0.399   1.889   3.045
  775SOL    HW2 3225   0.439   1.838   3.195
  776SOL     OW 3226   6.689   1.227   5.513
  776SOL    HW1 3227   6.738   1.141   5.505
  776SOL    HW2 3228   6.598   1.210   5.550
  777SOL     OW 3229   3.293   6.384   0.882
  777SOL    HW1 3230   3.202   6.372   0.840
  777SOL    HW2 3231   3.357   6.318   0.842
  778SOL     OW 3232   3.816   1.258   3.508
  778SOL    HW1 3233   3.870   1.340   3.490
  778SOL    HW2 3234   3.769   1.231   3.424
  779SOL     OW 3235   0.753   1.881   2.969
  779SOL    HW1 3236   0.761   1.980   2.959
  779SOL    HW2 3237   0.742   1.858   3.066
  780SOL     OW 3238   6.612   3.963   4.275
  780SOL    HW1 3239   6.602   4.006   4.365
  780SOL    HW2 3240   6.593   3.865   4.283
  781SOL     OW 3241   5.334   1.488   6.637
  781SOL    HW1 3242   5.273   1.419   6.676
  781SOL    HW2 3243   5.422   1.446   6.613
  782SOL     OW 3244   0.683   3.645   6.998
  782SOL    HW1 3245   0.615   3.718   6.999
  782SOL    HW2 3246   0.637   3.557   6.988
  783SOL     OW 3247   3.988   4.788   0.579
  783SOL    HW1 3248   3.947   4.839   0.655
  783SOL    HW2 3249   3.967   4.691   0.589
  784SOL     OW 3250   5.089   6.844   6.221
  784SOL    HW1 3251   5.001   6.884   6.247
  784SOL    HW2 3252   5.160   6.874   6.285
  785SOL     OW 3253   6.921   2.223   3.615
  785SOL    HW1 3254   6.917   2.320   3.592
  785SOL    HW2 3255   6.835   2.179   3.588
  786SOL     OW 3256   1.636   1.484   0.830
  786SOL    HW1 3257   1.587   1.427   0.764
  786SOL    HW2 3258   1.735   1.474   0.817
  787SOL     OW 3259   3.228   1.857   6.230
  787SOL    HW1 3260   3.281   1.793   6.286
  787SOL    HW2 3261   3.185   1.925   6.290
  788SOL     OW 3262   2.442   2.217   4.835
  788SOL    HW1 3263   2.416   2.219   4.932
  788SOL    HW2 3264   2.541   2.232   4.827
  789SOL     OW 3265   5.538   4.268   0.960
  789SOL    HW1 3266   5.503   4.178   0.984
  789SOL    HW2 3267   5.463   4.334   0.957
  790SOL     OW 3268   2.727   1.251   4.176
  790SOL    HW1 3269   2.703   1.154   4.175
  790SOL    HW2 3270   2.643   1.305   4.185
  791SOL     OW 3271   3.612   6.932   3.248
  791SOL    HW1 3272   3.630   6.836   3.272
  791SOL    HW2 3273   3.595   6.984   3.332
  792SOL     OW 3274   0.434   0.402   1.990
  792SOL    HW1 3275   0.419   0.500   1.975
  792SOL    HW2 3276   0.403   0.351   1.909
  793SOL     OW 3277   4.196   6.243   2.304
  793SOL    HW1 3278   4.195   6.144   2.291
  793SOL    HW2 3279   4.286   6.272   2.337
  794SOL     OW 3280   2.830   3.268   5.172
  794SOL    HW1 3281   2.797   3.190   5.225
  794SOL    HW2 3282   2.854   3.238   5.079
  795SOL     OW 3283   3.542   5.370   5.179
  795SOL    HW1 3284   3.517   5.466   5.163
  795SOL    HW2 3285   3.458   5.315   5.187
  796SOL     OW 3286   1.137   2.272   6.334
  796SOL    HW1 3287   1.100   2.269   6.241
  796SOL    HW2 3288   1.146   2.367   6.363
  797SOL     OW 3289   4.858   2.290   2.349
  797SOL    HW1 3290   4.949   2.256   2.374
  797SOL    HW2 3291   4.860   2.325   2.255
  798SOL     OW 3292   5.311   0.082   1.235
  798SOL    HW1 3293   5.395   0.137   1.240
  798SOL    HW2 3294   5.242   0.132   1.183
  799SOL     OW 3295   6.005   1.518   4.392
  799SOL    HW1 3296   5.969   1.437   4.346
  799SOL    HW2 3297   6.072   1.490   4.460
  800SOL     OW 3298   5.514   1.316   2.579
  800SOL    HW1 3299   5.482   1.271   2.663
  800SOL    HW2 3300   5.453   1.291   2.503
  801SOL     OW 3301   1.994   3.036   3.435
  801SOL    HW1 3302   1.930   2.982   3.489
  801SOL    HW2 3303   1.943   3.090   3.367
  802SOL     OW 3304   4.043   6.909   0.373
  802SOL    HW1 3305   3.965   6.971   0.366
  802SOL    HW2 3306   4.127   6.959   0.353
  803SOL     OW 3307   0.309   5.461   5.086
  803SOL    HW1 3308   0.297   5.429   4.992
  803SOL    HW2 3309   0.226   5.441   5.138
  804SOL     OW 3310   6.158   5.847   7.006
  804SOL    HW1 3311   6.162   5.825   6.909
  804SOL    HW2 3312   6.248   5.877   0.013
  805SOL     OW 3313   3.351   2.070   5.576
  805SOL    HW1 3314   3.293   2.123   5.515
  805SOL    HW2 3315   3.297   2.034   5.652
  806SOL     OW 3316   4.524   1.183   4.662
  806SOL    HW1 3317   4.622   1.166   4.659
  806SOL    HW2 3318   4.504   1.270   4.618
  807SOL     OW 3319   0.874   1.785   3.952
  807SOL    HW1 3320   0.874   1.779   3.852
  807SOL    HW2 3321   0.838   1.875   3.979
  808SOL     OW 3322   4.739   3.908   6.268
  808SOL    HW1 3323   4.679   3.975   6.313
  808SOL    HW2 3324   4.790   3.857   6.337
  809SOL     OW 3325   0.711   4.826   1.759
  809SOL    HW1 3326   0.720   4.908   1.702
  809SOL    HW2 3327   0.701   4.853   1.855
  810SOL     OW 3328   3.841   2.436   1.236
  810SOL    HW1 3329   3.918   2.407   1.179
  810SOL    HW2 3330   3.767   2.369   1.230
  811SOL     OW 3331   4.267   5.551   4.104
  811SOL    HW1 3332   4.361   5.523   4.118
  811SOL    HW2 3333   4.214   5.537   4.187
  812SOL     OW 3334   0.543   1.646   2.377
  812SOL    HW1 3335   0.447   1.631   2.353
  812SOL    HW2 3336   0.597   1.567   2.347
  813SOL     OW 3337   3.875   5.044   4.373
  813SOL    HW1 3338   3.778   5.052   4.397
  813SOL    HW2 3339   3.886   4.974   4.303
  814SOL     OW 3340   5.253   6.332   3.515
  814SOL    HW1 3341   5.165   6.298   3.483
  814SOL    HW2 3342   5.292   6.267   3.581
  815SOL     OW 3343   0.024   3.211   2.691
  815SOL    HW1 3344   0.085   3.260   2.629
  815SOL    HW2 3345   0.050   3.115   2.695
  816SOL     OW 3346   6.565   6.971   0.314
  816SOL    HW1 3347   6.581   6.943   0.409
  816SOL    HW2 3348   6.653   6.980   0.267
  817SOL     OW 3349   2.242   3.970   2.106
  817SOL    HW1 3350   2.308   4.019   2.049
  817SOL    HW2 3351   2.203   3.895   2.054
  818SOL     OW 3352   6.188   3.055   1.582
  818SOL    HW1 3353   6.135   2.997   1.520
  818SOL    HW2 3354   6.259   3.000   1.627
  819SOL     OW 3355   5.684   3.385   3.627
  819SOL    HW1 3356   5.768   3.420   3.585
  819SOL    HW2 3357   5.616   3.458   3.631
  820SOL     OW 3358   1.864   2.810   6.606
  820SOL    HW1 3359   1.848   2.839   6.700
  820SOL    HW2 3360   1.785   2.834   6.550
  821SOL     OW 3361   2.048   5.013   0.987
  821SOL    HW1 3362   2.099   5.078   0.930
  821SOL    HW2 3363   1.952   5.042   0.992
  822SOL     OW 3364   0.679   4.507   4.303
  822SOL    HW1 3365   0.651   4.558   4.222
  822SOL    HW2 3366   0.776   4.485   4.297
  823SOL     OW 3367   4.926   4.028   6.689
  823SOL    HW1 3368   5.018   4.007   6.722
  823SOL    HW2 3369   4.933   4.088   6.609
  824SOL     OW 3370   5.184   0.852   5.428
  824SOL    HW1 3371   5.229   0.783   5.485
  824SOL    HW2 3372   5.236   0.865   5.344
  825SOL     OW 3373   1.296   4.330   1.884
  825SOL    HW1 3374   1.309   4.303   1.788
  825SOL    HW2 3375   1.257   4.421   1.888
  826SOL     OW 3376   5.952   3.289   0.520
  826SOL    HW1 3377   6.015   3.300   0.444
  826SOL    HW2 3378   5.863   3.327   0.496
  827SOL     OW 3379   3.343   5.771   6.084
  827SOL    HW1 3380   3.264   5.828   6.108
  827SOL    HW2 3381   3.311   5.680   6.059
  828SOL     OW 3382   6.103   0.017   5.538
  828SOL    HW1 3383   6.012   0.043   5.572
  828SOL    HW2 3384   6.106   0.030   5.439
  829SOL     OW 3385   2.920   3.787   3.956
  829SOL    HW1 3386   2.940   3.803   4.053
  829SOL    HW2 3387   2.916   3.688   3.939
  830SOL     OW 3388   5.055   4.771   6.580
  830SOL    HW1 3389   5.050   4.819   6.667
  830SOL    HW2 3390   5.031   4.675   6.594
  831SOL     OW 3391   6.824   0.440   5.501
  831SOL    HW1 3392   6.743   0.384   5.521
  831SOL    HW2 3393   6.828   0.458   5.402
  832SOL     OW 3394   1.785   0.965   0.540
  832SOL    HW1 3395   1.746   0.991   0.629
  832SOL    HW2 3396   1.824   1.046   0.496
  833SOL     OW 3397   0.476   5.206   5.993
  833SOL    HW1 3398   0.401   5.143   6.013
  833SOL    HW2 3399   0.499   5.201   5.895
  834SOL     OW 3400   3.208   3.735   1.055
  834SOL    HW1 3401   3.263   3.801   1.106
  834SOL    HW2 3402   3.230   3.642   1.087
  835SOL     OW 3403   3.431   6.739   4.294
  835SOL    HW1 3404   3.333   6.759   4.296
  835SOL    HW2 3405   3.462   6.710   4.385
  836SOL     OW 3406   3.596   6.526   6.671
  836SOL    HW1 3407   3.601   6.535   6.771
  836SOL    HW2 3408   3.556   6.438   6.648
  837SOL     OW 3409   5.162   6.514   6.987
  837SOL    HW1 3410   5.103   6.573   6.932
  837SOL    HW2 3411   5.256   6.521   6.955
  838SOL     OW 3412   1.025   0.539   5.332
  838SOL    HW1 3413   1.026   0.615   5.396
  838SOL    HW2 3414   0.996   0.572   5.242
  839SOL     OW 3415   2.645   2.366   2.251
  839SOL    HW1 3416   2.686   2.357   2.342
  839SOL    HW2 3417   2.716   2.386   2.184
  840SOL     OW 3418   6.057   0.497   6.092
  840SOL    HW1 3419   6.028   0.406   6.121
  840SOL    HW2 3420   6.146   0.490   6.046
  841SOL     OW 3421   6.074   4.530   0.276
  841SOL    HW1 3422   6.072   4.625   0.242
  841SOL    HW2 3423   6.064   4.467   0.199
  842SOL     OW 3424   4.516   4.998   4.543
  842SOL    HW1 3425   4.540   5.060   4.618
  842SOL    HW2 3426   4.599   4.957   4.506
  843SOL     OW 3427   4.116   2.441   6.664
  843SOL    HW1 3428   4.036   2.382   6.654
  843SOL    HW2 3429   4.165   2.446   6.577
  844SOL     OW 3430   4.329   6.886   0.832
  844SOL    HW1 3431   4.275   6.878   0.748
  844SOL    HW2 3432   4.318   6.803   0.887
  845SOL     OW 3433   6.322   3.879   4.526
  845SOL    HW1 3434   6.417   3.862   4.552
  845SOL    HW2 3435   6.274   3.923   4.602
  846SOL     OW 3436   5.067   1.584   6.827
  846SOL    HW1 3437   5.015   1.505   6.794
  846SOL    HW2 3438   5.075   1.651   6.753
  847SOL     OW 3439   6.889   3.355   0.035
  847SOL    HW1 3440   6.824   3.286   0.003
  847SOL    HW2 3441   6.877   3.370   0.133
  848SOL     OW 3442   6.478   2.083   6.356
  848SOL    HW1 3443   6.406   2.111   6.420
  848SOL    HW2 3444   6.492   2.155   6.289
  849SOL     OW 3445   1.189   5.053   5.816
  849SOL    HW1 3446   1.185   4.953   5.817
  849SOL    HW2 3447   1.173   5.086   5.723
  850SOL     OW 3448   5.368   0.782   3.127
  850SOL    HW1 3449   5.290   0.839   3.155
  850SOL    HW2 3450   5.342   0.686   3.132
  851SOL     OW 3451   0.653   1.754   1.672
  851SOL    HW1 3452   0.717   1.787   1.741
  851SOL    HW2 3453   0.642   1.655   1.681
  852SOL     OW 3454   2.952   2.551   0.271
  852SOL    HW1 3455   3.022   2.616   0.241
  852SOL    HW2 3456   2.871   2.561   0.214
  853SOL     OW 3457   1.202   4.072   2.232
  853SOL    HW1 3458   1.275   4.046   2.169
  853SOL    HW2 3459   1.210   4.018   2.316
  854SOL     OW 3460   4.514   5.847   2.038
  854SOL    HW1 3461   4.561   5.875   2.122
  854SOL    HW2 3462   4.541   5.754   2.014
  855SOL     OW 3463   6.384   6.915   1.205
  855SOL    HW1 3464   6.315   6.943   1.137
  855SOL    HW2 3465   6.442   6.844   1.166
  856SOL     OW 3466   2.113   1.568   4.833
  856SOL    HW1 3467   2.016   1.559   4.854
  856SOL    HW2 3468   2.161   1.485   4.862
  857SOL     OW 3469   6.170   5.455   1.082
  857SOL    HW1 3470   6.111   5.459   1.163
  857SOL    HW2 3471   6.265   5.454   1.111
  858SOL     OW 3472   2.153   4.495   1.525
  858SOL    HW1 3473   2.186   4.539   1.609
  858SOL    HW2 3474   2.088   4.555   1.479
  859SOL     OW 3475   5.342   5.496   6.781
  859SOL    HW1 3476   5.343   5.426   6.710
  859SOL    HW2 3477   5.330   5.453   6.870
  860SOL     OW 3478   4.538   4.100   0.926
  860SOL    HW1 3479   4.541   4.197   0.951
  860SOL    HW2 3480   4.623   4.075   0.881
  861SOL     OW 3481   1.816   0.454   4.955
  861SOL    HW1 3482   1.799   0.432   5.051
  861SOL    HW2 3483   1.891   0.398   4.920
  862SOL     OW 3484   6.268   4.687   5.486
  862SOL    HW1 3485   6.337   4.617   5.504
  862SOL    HW2 3486   6.310   4.766   5.443
  863SOL     OW 3487   1.280   0.232   0.674
  863SOL    HW1 3488   1.205   0.243   0.610
  863SOL    HW2 3489   1.355   0.182   0.630
  864SOL     OW 3490   4.968   4.814   3.365
  864SOL    HW1 3491   4.885   4.817   3.310
  864SOL    HW2 3492   5.048   4.808   3.304
  865SOL     OW 3493   1.463   6.164   5.593
  865SOL    HW1 3494   1.420   6.096   5.534
  865SOL    HW2 3495   1.393   6.208   5.650
  866SOL     OW 3496   2.099   2.612   1.286
  866SOL    HW1 3497   2.107   2.665   1.371
  866SOL    HW2 3498   2.065   2.672   1.213
  867SOL     OW 3499   3.781   2.588   0.716
  867SOL    HW1 3500   3.857   2.540   0.760
  867SOL    HW2 3501   3.817   2.653   0.649
  868SOL     OW 3502   6.529   6.735   1.022
  868SOL    HW1 3503   6.541   6.831   1.048
  868SOL    HW2 3504   6.552   6.723   0.925
  869SOL     OW 3505   6.575   5.365   2.620
  869SOL    HW1 3506   6.565   5.418   2.704
  869SOL    HW2 3507   6.522   5.408   2.547
  870SOL     OW 3508   6.098   3.637   0.389
  870SOL    HW1 3509   6.176   3.583   0.422
  870SOL    HW2 3510   6.020   3.623   0.449
  871SOL     OW 3511   6.699   3.195   2.166
  871SOL    HW1 3512   6.782   3.143   2.179
  871SOL    HW2 3513   6.619   3.138   2.186
  872SOL     OW 3514   6.601   4.233   3.667
  872SOL    HW1 3515   6.657   4.198   3.742
  872SOL    HW2 3516   6.579   4.329   3.683
  873SOL     OW 3517   4.327   7.001   3.607
  873SOL    HW1 3518   4.319   0.051   3.542
  873SOL    HW2 3519   4.412   7.010   3.659
  874SOL     OW 3520   1.839   4.002   5.669
  874SOL    HW1 3521   1.827   4.071   5.740
  874SOL    HW2 3522   1.792   4.031   5.586
  875SOL     OW 3523   5.008   3.825   1.182
  875SOL    HW1 3524   4.991   3.727   1.181
  875SOL    HW2 3525   4.926   3.873   1.213
  876SOL     OW 3526   0.246   5.382   3.264
  876SOL    HW1 3527   0.278   5.307   3.206
  876SOL    HW2 3528   0.148   5.372   3.280
  877SOL     OW 3529   4.152   4.447   0.015
  877SOL    HW1 3530   4.213   4.526   0.009
  877SOL    HW2 3531   4.177   4.392   0.095
  878SOL     OW 3532   3.975   5.614   6.594
  878SOL    HW1 3533   3.931   5.568   6.671
  878SOL    HW2 3534   3.963   5.559   6.511
  879SOL     OW 3535   3.767   2.096   2.320
  879SOL    HW1 3536   3.737   2.135   2.233
  879SOL    HW2 3537   3.689   2.049   2.364
  880SOL     OW 3538   3.189   4.917   6.831
  880SOL    HW1 3539   3.144   4.837   6.791
  880SOL    HW2 3540   3.281   4.892   6.862
  881SOL     OW 3541   4.229   4.729   5.240
  881SOL    HW1 3542   4.283   4.650   5.212
  881SOL    HW2 3543   4.140   4.727   5.193
  882SOL     OW 3544   1.972   1.286   4.051
  882SOL    HW1 3545   2.063   1.250   4.073
  882SOL    HW2 3546   1.979   1.383   4.030
  883SOL     OW 3547   4.678   5.398   5.153
  883SOL    HW1 3548   4.744   5.450   5.207
  883SOL    HW2 3549   4.598   5.377   5.210
  884SOL     OW 3550   6.775   3.727   2.094
  884SOL    HW1 3551   6.748   3.812   2.138
  884SOL    HW2 3552   6.761   3.734   1.995
  885SOL     OW 3553   5.404   5.976   6.941
  885SOL    HW1 3554   5.399   5.940   6.848
  885SOL    HW2 3555   5.402   6.076   6.939
  886SOL     OW 3556   4.342   0.506   0.078
  886SOL    HW1 3557   4.338   0.522   0.176
  886SOL    HW2 3558   4.281   0.430   0.054
  887SOL     OW 3559   4.421   6.374   5.562
  887SOL    HW1 3560   4.409   6.346   5.467
  887SOL    HW2 3561   4.498   6.436   5.569
  888SOL     OW 3562   6.622   6.454   2.847
  888SOL    HW1 3563   6.560   6.377   2.864
  888SOL    HW2 3564   6.685   6.464   2.924
  889SOL     OW 3565   6.866   6.760   5.729
  889SOL    HW1 3566   6.810   6.684   5.760
  889SOL    HW2 3567   6.882   6.823   5.805
  890SOL     OW 3568   2.648   4.701   2.069
  890SOL    HW1 3569   2.575   4.639   2.098
  890SOL    HW2 3570   2.720   4.649   2.023
  891SOL     OW 3571   5.602   3.721   1.258
  891SOL    HW1 3572   5.510   3.714   1.221
  891SOL    HW2 3573   5.609   3.667   1.342
  892SOL     OW 3574   4.074   3.709   0.237
  892SOL    HW1 3575   4.080   3.809   0.241
  892SOL    HW2 3576   4.118   3.670   0.318
  893SOL     OW 3577   2.061   0.773   1.356
  893SOL    HW1 3578   2.108   0.835   1.293
  893SOL    HW2 3579   2.114   0.764   1.440
  894SOL     OW 3580   2.107   3.995   3.821
  894SOL    HW1 3581   2.025   4.047   3.843
  894SOL    HW2 3582   2.174   4.005   3.895
  895SOL     OW 3583   1.879   6.480   5.007
  895SOL    HW1 3584   1.854   6.384   5.016
  895SOL    HW2 3585   1.962   6.499   5.059
  896SOL     OW 3586   5.360   5.650   3.739
  896SOL    HW1 3587   5.389   5.667   3.833
  896SOL    HW2 3588   5.439   5.656   3.678
  897SOL     OW 3589   4.764   1.329   0.342
  897SOL    HW1 3590   4.776   1.334   0.441
  897SOL    HW2 3591   4.671   1.359   0.318
  898SOL     OW 3592   4.066   6.007   3.626
  898SOL    HW1 3593   4.138   6.019   3.695
  898SOL    HW2 3594   4.045   6.096   3.584
  899SOL     OW 3595   0.288   5.225   0.024
  899SOL    HW1 3596   0.247   5.174   0.099
  899SOL    HW2 3597   0.353   5.291   0.060
  900SOL     OW 3598   5.404   5.960   1.575
  900SOL    HW1 3599   5.317   5.983   1.533
  900SOL    HW2 3600   5.417   6.014   1.658
  901SOL     OW 3601   0.087   1.391   4.943
  901SOL    HW1 3602   0.008   1.330   4.932
  901SOL    HW2 3603   0.092   1.421   5.038
  902SOL     OW 3604   0.134   1.161   6.583
  902SOL    HW1 3605   0.230   1.188   6.572
  902SOL    HW2 3606   0.130   1.068   6.619
  903SOL     OW 3607   6.586   4.590   6.662
  903SOL    HW1 3608   6.593   4.521   6.734
  903SOL    HW2 3609   6.671   4.592   6.610
  904SOL     OW 3610   1.557   1.966   4.209
  904SOL    HW1 3611   1.596   2.049   4.249
  904SOL    HW2 3612   1.478   1.990   4.152
  905SOL     OW 3613   5.466   2.586   6.599
  905SOL    HW1 3614   5.497   2.680   6.588
  905SOL    HW2 3615   5.430   2.553   6.512
  906SOL     OW 3616   0.125   3.862   6.447
  906SOL    HW1 3617   0.032   3.829   6.456
  906SOL    HW2 3618   0.150   3.915   6.529
  907SOL     OW 3619   5.685   2.814   3.055
  907SOL    HW1 3620   5.610   2.867   3.096
  907SOL    HW2 3621   5.744   2.779   3.127
  908SOL     OW 3622   1.040   0.273   4.219
  908SOL    HW1 3623   0.975   0.343   4.248
  908SOL    HW2 3624   1.100   0.311   4.148
  909SOL     OW 3625   2.509   1.038   0.701
  909SOL    HW1 3626   2.519   0.941   0.721
  909SOL    HW2 3627   2.534   1.091   0.782
  910SOL     OW 3628   2.237   0.728   0.846
  910SOL    HW1 3629   2.186   0.642   0.839
  910SOL    HW2 3630   2.173   0.805   0.842
  911SOL     OW 3631   0.466   4.791   1.289
  911SOL    HW1 3632   0.424   4.834   1.369
  911SOL    HW2 3633   0.560   4.763   1.312
  912SOL     OW 3634   0.580   1.241   5.601
  912SOL    HW1 3635   0.517   1.252   5.524
  912SOL    HW2 3636   0.638   1.161   5.585
  913SOL     OW 3637   2.255   0.345   3.360
  913SOL    HW1 3638   2.181   0.299   3.410
  913SOL    HW2 3639   2.257   0.313   3.266
  914SOL     OW 3640   2.171   5.476   5.293
  914SOL    HW1 3641   2.236   5.538   5.249
  914SOL    HW2 3642   2.220   5.401   5.337
  915SOL     OW 3643   0.515   3.324   0.987
  915SOL    HW1 3644   0.607   3.362   0.982
  915SOL    HW2 3645   0.519   3.225   0.979
  916SOL     OW 3646   1.768   2.201   2.298
  916SOL    HW1 3647   1.743   2.105   2.283
  916SOL    HW2 3648   1.746   2.255   2.217
  917SOL     OW 3649   3.894   1.208   1.485
  917SOL    HW1 3650   3.805   1.216   1.531
  917SOL    HW2 3651   3.957   1.276   1.521
  918SOL     OW 3652   2.959   6.188   6.974
  918SOL    HW1 3653   3.036   6.213   6.916
  918SOL    HW2 3654   2.976   6.098   7.014
  919SOL     OW 3655   1.712   6.558   1.906
  919SOL    HW1 3656   1.799   6.602   1.888
  919SOL    HW2 3657   1.677   6.516   1.822
  920SOL     OW 3658   2.325   0.009   3.247
  920SOL    HW1 3659   2.421   0.030   3.229
  920SOL    HW2 3660   2.267   0.072   3.195
  921SOL     OW 3661   5.041   5.046   3.498
  921SOL    HW1 3662   4.977   5.115   3.464
  921SOL    HW2 3663   5.010   4.956   3.468
  922SOL     OW 3664   3.325   2.809   6.357
  922SOL    HW1 3665   3.419   2.804   6.320
  922SOL    HW2 3666   3.328   2.837   6.452
  923SOL     OW 3667   3.012   5.952   0.511
  923SOL    HW1 3668   2.967   5.981   0.427
  923SOL    HW2 3669   3.106   5.922   0.491
  924SOL     OW 3670   5.204   3.684   2.808
  924SOL    HW1 3671   5.285   3.660   2.754
  924SOL    HW2 3672   5.125   3.634   2.772
  925SOL     OW 3673   6.861   1.815   5.433
  925SOL    HW1 3674   6.952   1.808   5.392
  925SOL    HW2 3675   6.796   1.763   5.378
  926SOL     OW 3676   5.885   1.101   6.949
  926SOL    HW1 3677   5.911   1.149   0.009
  926SOL    HW2 3678   5.921   1.008   6.952
  927SOL     OW 3679   4.983   4.201   4.102
  927SOL    HW1 3680   5.029   4.211   4.014
  927SOL    HW2 3681   4.885   4.190   4.088
  928SOL     OW 3682   1.886   0.485   0.667
  928SOL    HW1 3683   1.835   0.441   0.741
  928SOL    HW2 3684   1.848   0.576   0.651
  929SOL     OW 3685   6.635   2.213   1.856
  929SOL    HW1 3686   6.729   2.207   1.824
  929SOL    HW2 3687   6.631   2.269   1.939
  930SOL     OW 3688   6.715   5.461   4.687
  930SOL    HW1 3689   6.647   5.533   4.700
  930SOL    HW2 3690   6.702   5.419   4.597
  931SOL     OW 3691   0.222   3.958   3.096
  931SOL    HW1 3692   0.160   3.940   3.019
  931SOL    HW2 3693   0.255   3.872   3.133
  932SOL     OW 3694   3.416   6.413   1.539
  932SOL    HW1 3695   3.429   6.496   1.484
  932SOL    HW2 3696   3.386   6.339   1.479
  933SOL     OW 3697   0.748   4.796   2.473
  933SOL    HW1 3698   0.747   4.883   2.424
  933SOL    HW2 3699   0.662   4.749   2.458
  934SOL     OW 3700   2.660   1.461   4.547
  934SOL    HW1 3701   2.565   1.473   4.578
  934SOL    HW2 3702   2.665   1.482   4.449
  935SOL     OW 3703   4.570   3.777   5.840
  935SOL    HW1 3704   4.641   3.840   5.871
  935SOL    HW2 3705   4.591   3.745   5.748
  936SOL     OW 3706   0.515   6.686   6.951
  936SOL    HW1 3707   0.579   6.641   7.013
  936SOL    HW2 3708   0.558   6.767   6.912
  937SOL     OW 3709   4.435   1.911   5.202
  937SOL    HW1 3710   4.446   1.853   5.283
  937SOL    HW2 3711   4.514   1.972   5.193
  938SOL     OW 3712   0.024   4.599   6.186
  938SOL    HW1 3713   0.075   4.561   6.263
  938SOL    HW2 3714   0.087   4.640   6.121
  939SOL     OW 3715   5.055   1.446   5.811
  939SOL    HW1 3716   4.966   1.486   5.833
  939SOL    HW2 3717   5.112   1.515   5.765
  940SOL     OW 3718   6.619   1.889   3.091
  940SOL    HW1 3719   6.716   1.908   3.080
  940SOL    HW2 3720   6.566   1.968   3.060
  941SOL     OW 3721   6.079   1.083   4.078
  941SOL    HW1 3722   6.069   1.014   4.150
  941SOL    HW2 3723   6.097   1.037   3.991
  942SOL     OW 3724   5.118   0.444   4.937
  942SOL    HW1 3725   5.026   0.407   4.951
  942SOL    HW2 3726   5.168   0.384   4.875
  943SOL     OW 3727   0.284   3.222   2.535
  943SOL    HW1 3728   0.334   3.235   2.621
  943SOL    HW2 3729   0.286   3.307   2.482
  944SOL     OW 3730   6.210   3.190   6.018
  944SOL    HW1 3731   6.173   3.259   5.956
  944SOL    HW2 3732   6.306   3.210   6.037
  945SOL     OW 3733   5.419   4.906   4.968
  945SOL    HW1 3734   5.323   4.930   4.986
  945SOL    HW2 3735   5.433   4.897   4.869
  946SOL     OW 3736   5.607   2.806   6.562
  946SOL    HW1 3737   5.691   2.752   6.552
  946SOL    HW2 3738   5.630   2.902   6.571
  947SOL     OW 3739   3.056   3.365   5.299
  947SOL    HW1 3740   3.094   3.275   5.320
  947SOL    HW2 3741   2.973   3.355   5.245
  948SOL     OW 3742   4.162   0.744   1.029
  948SOL    HW1 3743   4.130   0.824   0.978
  948SOL    HW2 3744   4.107   0.733   1.112
  949SOL     OW 3745   6.328   6.364   6.041
  949SOL    HW1 3746   6.323   6.302   6.120
  949SOL    HW2 3747   6.257   6.434   6.050
  950SOL     OW 3748   4.271   4.989   2.671
  950SOL    HW1 3749   4.288   4.901   2.628
  950SOL    HW2 3750   4.185   5.027   2.636
  951SOL     OW 3751   2.002   0.435   2.206
  951SOL    HW1 3752   2.061   0.429   2.126
  951SOL    HW2 3753   1.910   0.404   2.183
  952SOL     OW 3754   5.982   1.806   2.398
  952SOL    HW1 3755   6.011   1.866   2.324
  952SOL    HW2 3756   5.907   1.847   2.448
  953SOL     OW 3757   4.651   5.696   5.284
  953SOL    HW1 3758   4.686   5.642   5.361
  953SOL    HW2 3759   4.727   5.727   5.227
  954SOL     OW 3760   5.875   0.569   0.765
  954SOL    HW1 3761   5.848   0.576   0.669
  954SOL    HW2 3762   5.795   0.587   0.823
  955SOL     OW 3763   0.960   4.904   3.899
  955SOL    HW1 3764   0.948   4.872   3.805
  955SOL    HW2 3765   1.053   4.941   3.910
  956SOL     OW 3766   1.240   1.816   1.908
  956SOL    HW1 3767   1.266   1.739   1.967
  956SOL    HW2 3768   1.169   1.870   1.954
  957SOL     OW 3769   1.311   4.796   4.945
  957SOL    HW1 3770   1.365   4.878   4.962
  957SOL    HW2 3771   1.270   4.765   5.030
  958SOL     OW 3772   4.833   2.029   0.932
  958SOL    HW1 3773   4.836   2.029   1.032
  958SOL    HW2 3774   4.743   1.996   0.902
  959SOL     OW 3775   3.124   4.947   3.292
  959SOL    HW1 3776   3.200   4.894   3.330
  959SOL    HW2 3777   3.037   4.914   3.330
  960SOL     OW 3778   0.922   6.087   3.696
  960SOL    HW1 3779   0.976   6.065   3.777
  960SOL    HW2 3780   0.899   6.003   3.647
  961SOL     OW 3781   4.507   6.330   2.754
  961SOL    HW1 3782   4.490   6.257   2.820
  961SOL    HW2 3783   4.503   6.418   2.800
  962SOL     OW 3784   1.493   1.221   3.817
  962SOL    HW1 3785   1.515   1.220   3.915
  962SOL    HW2 3786   1.574   1.193   3.765
  963SOL     OW 3787   5.843   0.592   0.421
  963SOL    HW1 3788   5.877   0.679   0.455
  963SOL    HW2 3789   5.867   0.581   0.324
  964SOL     OW 3790   6.090   3.458   1.117
  964SOL    HW1 3791   6.179   3.459   1.071
  964SOL    HW2 3792   6.064   3.552   1.141
  965SOL     OW 3793   6.002   1.823   1.136
  965SOL    HW1 3794   6.092   1.780   1.121
  965SOL    HW2 3795   5.971   1.865   1.051
  966SOL     OW 3796   6.133   1.641   2.588
  966SOL    HW1 3797   6.098   1.645   2.681
  966SOL    HW2 3798   6.096   1.718   2.535
  967SOL     OW 3799   1.418   5.057   0.249
  967SOL    HW1 3800   1.389   5.089   0.340
  967SOL    HW2 3801   1.477   4.977   0.259
  968SOL     OW 3802   4.742   2.696   2.353
  968SOL    HW1 3803   4.799   2.663   2.278
  968SOL    HW2 3804   4.663   2.636   2.364
  969SOL     OW 3805   3.400   5.968   5.630
  969SOL    HW1 3806   3.400   5.954   5.729
  969SOL    HW2 3807   3.472   6.033   5.605
  970SOL     OW 3808   4.763   1.358   5.237
  970SOL    HW1 3809   4.800   1.431   5.295
  970SOL    HW2 3810   4.831   1.286   5.227
  971SOL     OW 3811   0.494   1.403   2.799
  971SOL    HW1 3812   0.534   1.327   2.851
  971SOL    HW2 3813   0.518   1.490   2.843
  972SOL     OW 3814   5.953   4.017   0.858
  972SOL    HW1 3815   5.897   3.955   0.913
  972SOL    HW2 3816   5.899   4.051   0.781
  973SOL     OW 3817   0.324   5.059   6.298
  973SOL    HW1 3818   0.377   5.093   6.376
  973SOL    HW2 3819   0.350   4.965   6.279
  974SOL     OW 3820   4.047   0.459   2.167
  974SOL    HW1 3821   3.999   0.518   2.231
  974SOL    HW2 3822   4.146   0.465   2.183
  975SOL     OW 3823   2.003   6.241   6.891
  975SOL    HW1 3824   1.903   6.239   6.899
  975SOL    HW2 3825   2.030   6.323   6.840
  976SOL     OW 3826   6.476   3.061   2.827
  976SOL    HW1 3827   6.498   3.033   2.734
  976SOL    HW2 3828   6.432   2.985   2.875
  977SOL     OW 3829   2.466   1.357   4.213
  977SOL    HW1 3830   2.425   1.368   4.123
  977SOL    HW2 3831   2.406   1.396   4.282
  978SOL     OW 3832   5.268   3.999   4.886
  978SOL    HW1 3833   5.354   3.949   4.877
  978SOL    HW2 3834   5.286   4.090   4.924
  979SOL     OW 3835   6.330   1.575   2.871
  979SOL    HW1 3836   6.242   1.584   2.824
  979SOL    HW2 3837   6.327   1.625   2.957
  980SOL     OW 3838   4.960   1.801   3.838
  980SOL    HW1 3839   4.933   1.806   3.934
  980SOL    HW2 3840   5.048   1.754   3.831
  981SOL     OW 3841   0.995   1.580   5.027
  981SOL    HW1 3842   1.012   1.652   5.095
  981SOL    HW2 3843   0.936   1.616   4.955
  982SOL     OW 3844   1.929   2.780   3.232
  982SOL    HW1 3845   2.025   2.776   3.261
  982SOL    HW2 3846   1.884   2.693   3.254
  983SOL     OW 3847   5.760   2.766   3.577
  983SOL    HW1 3848   5.694   2.770   3.652
  983SOL    HW2 3849   5.844   2.813   3.604
  984SOL     OW 3850   3.555   0.571   5.079
  984SOL    HW1 3851   3.654   0.575   5.066
  984SOL    HW2 3852   3.509   0.598   4.994
  985SOL     OW 3853   5.316   4.967   6.629
  985SOL    HW1 3854   5.315   4.930   6.722
  985SOL    HW2 3855   5.223   4.966   6.593
  986SOL     OW 3856   5.113   5.290   0.300
  986SOL    HW1 3857   5.163   5.251   0.378
  986SOL    HW2 3858   5.118   5.390   0.304
  987SOL     OW 3859   3.950   6.450   1.115
  987SOL    HW1 3860   3.877   6.457   1.183
  987SOL    HW2 3861   3.910   6.437   1.025
  988SOL     OW 3862   4.050   2.876   1.490
  988SOL    HW1 3863   3.962   2.854   1.532
  988SOL    HW2 3864   4.067   2.815   1.413
  989SOL     OW 3865   0.271   0.699   5.968
  989SOL    HW1 3866   0.255   0.646   5.884
  989SOL    HW2 3867   0.247   0.644   6.047
  990SOL     OW 3868   4.670   0.263   3.510
  990SOL    HW1 3869   4.626   0.308   3.432
  990SOL    HW2 3870   4.737   0.196   3.476
  991SOL     OW 3871   1.760   1.446   5.200
  991SOL    HW1 3872   1.785   1.479   5.291
  991SOL    HW2 3873   1.832   1.469   5.135
  992SOL     OW 3874   0.791   3.269   0.638
  992SOL    HW1 3875   0.769   3.173   0.620
  992SOL    HW2 3876   0.848   3.275   0.720
  993SOL     OW 3877   2.067   5.655   2.133
  993SOL    HW1 3878   2.086   5.691   2.224
  993SOL    HW2 3879   1.971   5.630   2.126
  994SOL     OW 3880   3.853   3.654   2.386
  994SOL    HW1 3881   3.775   3.671   2.447
  994SOL    HW2 3882   3.857   3.556   2.365
  995SOL     OW 3883   2.570   2.301   6.330
  995SOL    HW1 3884   2.587   2.241   6.251
  995SOL    HW2 3885   2.482   2.278   6.371
  996SOL     OW 3886   1.840   4.089   3.815
  996SOL    HW1 3887   1.743   4.089   3.791
  996SOL    HW2 3888   1.853   4.144   3.898
  997SOL     OW 3889   6.748   6.911   1.242
  997SOL    HW1 3890   6.808   6.845   1.195
  997SOL    HW2 3891   6.738   6.993   1.186
  998SOL     OW 3892   4.559   0.070   3.727
  998SOL    HW1 3893   4.548   0.079   3.826
  998SOL    HW2 3894   4.597   0.154   3.689
  999SOL     OW 3895   5.547   5.518   1.366
  999SOL    HW1 3896   5.627   5.493   1.420
  999SOL    HW2 3897   5.480   5.565   1.424
 1000SOL     OW 3898   1.232   0.803   2.545
 1000SOL    HW1 3899   1.222   0.811   2.645
 1000SOL    HW2 3900   1.315   0.852   2.516
 1001SOL     OW 3901   4.720   6.660   6.835
 1001SOL    HW1 3902   4.815   6.632   6.849
 1001SOL    HW2 3903   4.666   6.581   6.807
 1002SOL     OW 3904   5.800   1.841   6.589
 1002SOL    HW1 3905   5.722   1.785   6.614
 1002SOL    HW2 3906   5.787   1.878   6.497
 1003SOL     OW 3907   2.786   6.902   1.588
 1003SOL    HW1 3908   2.781   6.875   1.685
 1003SOL    HW2 3909   2.700   6.877   1.543
 1004SOL     OW 3910   7.016   0.630   0.734
 1004SOL    HW1 3911   0.058   0.631   0.809
 1004SOL    HW2 3912   6.924   0.638   0.771
 1005SOL     OW 3913   0.080   1.034   3.091
 1005SOL    HW1 3914   0.146   1.107   3.109
 1005SOL    HW2 3915   7.014   1.073   3.079
 1006SOL     OW 3916   2.415   6.277   1.687
 1006SOL    HW1 3917   2.357   6.352   1.718
 1006SOL    HW2 3918   2.509   6.309   1.676
 1007SOL     OW 3919   6.203   6.961   3.605
 1007SOL    HW1 3920   6.277   6.924   3.549
 1007SOL    HW2 3921   6.135   7.005   3.546
 1008SOL     OW 3922   1.847   2.865   4.590
 1008SOL    HW1 3923   1.878   2.782   4.543
 1008SOL    HW2 3924   1.778   2.911   4.533
 1009SOL     OW 3925   0.293   5.872   3.992
 1009SOL    HW1 3926   0.251   5.930   3.923
 1009SOL    HW2 3927   0.224   5.844   4.058
 1010SOL     OW 3928   3.675   2.453   6.745
 1010SOL    HW1 3929   3.585   2.493   6.728
 1010SOL    HW2 3930   3.740   2.525   6.769
 1011SOL     OW 3931   2.648   5.447   2.689
 1011SOL    HW1 3932   2.746   5.433   2.707
 1011SOL    HW2 3933   2.606   5.360   2.664
 1012SOL     OW 3934   6.850   5.815   0.444
 1012SOL    HW1 3935   6.803   5.810   0.532
 1012SOL    HW2 3936   6.941   5.773   0.453
 1013SOL     OW 3937   0.467   0.976   6.384
 1013SOL    HW1 3938   0.454   0.944   6.478
 1013SOL    HW2 3939   0.379   0.997   6.344
 1014SOL     OW 3940   5.255   5.717   0.120
 1014SOL    HW1 3941   5.192   5.794   0.108
 1014SOL    HW2 3942   5.347   5.752   0.142
 1015SOL     OW 3943   2.697   6.934   5.417
 1015SOL    HW1 3944   2.606   6.892   5.418
 1015SOL    HW2 3945   2.747   6.903   5.336
 1016SOL     OW 3946   2.330   3.164   0.790
 1016SOL    HW1 3947   2.282   3.178   0.876
 1016SOL    HW2 3948   2.266   3.136   0.719
 1017SOL     OW 3949   4.426   2.549   0.959
 1017SOL    HW1 3950   4.475   2.629   0.925
 1017SOL    HW2 3951   4.361   2.576   1.030
 1018SOL     OW 3952   1.784   3.605   3.915
 1018SOL    HW1 3953   1.761   3.608   3.818
 1018SOL    HW2 3954   1.878   3.573   3.925
 1019SOL     OW 3955   1.111   0.453   0.701
 1019SOL    HW1 3956   1.188   0.504   0.663
 1019SOL    HW2 3957   1.105   0.364   0.657
 1020SOL     OW 3958   2.078   6.749   1.227
 1020SOL    HW1 3959   2.017   6.826   1.245
 1020SOL    HW2 3960   2.053   6.705   1.141
 1021SOL     OW 3961   6.543   0.773   0.572
 1021SOL    HW1 3962   6.468   0.820   0.525
 1021SOL    HW2 3963   6.630   0.803   0.532
 1022SOL     OW 3964   4.047   4.499   5.937
 1022SOL    HW1 3965   3.981   4.435   5.899
 1022SOL    HW2 3966   4.081   4.465   6.025
 1023SOL     OW 3967   6.298   0.507   2.438
 1023SOL    HW1 3968   6.317   0.593   2.485
 1023SOL    HW2 3969   6.231   0.454   2.491
 1024SOL     OW 3970   6.443   2.938   4.258
 1024SOL    HW1 3971   6.376   2.889   4.316
 1024SOL    HW2 3972   6.494   3.003   4.314
 1025SOL     OW 3973   3.431   3.995   0.075
 1025SOL    HW1 3974   3.494   4.049   0.131
 1025SOL    HW2 3975   3.341   3.993   0.118
 1026SOL     OW 3976   1.269   2.080   1.028
 1026SOL    HW1 3977   1.230   2.171   1.046
 1026SOL    HW2 3978   1.242   2.050   0.936
 1027SOL     OW 3979   3.045   6.098   1.135
 1027SOL    HW1 3980   3.043   6.191   1.098
 1027SOL    HW2 3981   3.113   6.044   1.086
 1028SOL     OW 3982   3.495   5.883   6.939
 1028SOL    HW1 3983   3.447   5.800   6.910
 1028SOL    HW2 3984   3.429   5.947   6.980
 1029SOL     OW 3985   1.934   0.387   0.426
 1029SOL    HW1 3986   1.910   0.421   0.517
 1029SOL    HW2 3987   1.977   0.297   0.434
 1030SOL     OW 3988   3.147   3.053   2.429
 1030SOL    HW1 3989   3.097   3.137   2.450
 1030SOL    HW2 3990   3.131   3.029   2.333
 1031SOL     OW 3991   5.055   4.958   0.559
 1031SOL    HW1 3992   5.004   4.882   0.519
 1031SOL    HW2 3993   5.100   4.929   0.643
 1032SOL     OW 3994   1.461   1.523   4.970
 1032SOL    HW1 3995   1.363   1.517   4.952
 1032SOL    HW2 3996   1.476   1.576   5.054
 1033SOL     OW 3997   1.372   6.703   1.404
 1033SOL    HW1 3998   1.288   6.713   1.352
 1033SOL    HW2 3999   1.438   6.773   1.376
 1034SOL     OW 4000   1.456   6.439   4.832
 1034SOL    HW1 4001   1.380   6.450   4.768
 1034SOL    HW2 4002   1.424   6.456   4.925
 1035SOL     OW 4003   3.059   1.692   3.546
 1035SOL    HW1 4004   3.115   1.725   3.622
 1035SOL    HW2 4005   3.119   1.666   3.470
 1036SOL     OW 4006   2.910   0.482   0.998
 1036SOL    HW1 4007   2.992   0.464   1.053
 1036SOL    HW2 4008   2.847   0.539   1.051
 1037SOL     OW 4009   1.374   1.181   1.485
 1037SOL    HW1 4010   1.336   1.232   1.563
 1037SOL    HW2 4011   1.343   1.223   1.400
 1038SOL     OW 4012   1.188   0.928   5.831
 1038SOL    HW1 4013   1.231   0.917   5.742
 1038SOL    HW2 4014   1.116   0.997   5.826
 1039SOL     OW 4015   4.282   2.543   5.631
 1039SOL    HW1 4016   4.239   2.543   5.721
 1039SOL    HW2 4017   4.382   2.540   5.642
 1040SOL     OW 4018   5.160   3.326   3.029
 1040SOL    HW1 4019   5.081   3.384   3.007
 1040SOL    HW2 4020   5.244   3.373   3.002
 1041SOL     OW 4021   6.643   6.852   4.195
 1041SOL    HW1 4022   6.614   6.866   4.289
 1041SOL    HW2 4023   6.735   6.812   4.194
 1042SOL     OW 4024   3.207   4.889   2.179
 1042SOL    HW1 4025   3.118   4.854   2.206
 1042SOL    HW2 4026   3.262   4.907   2.261
 1043SOL     OW 4027   4.529   1.146   5.671
 1043SOL    HW1 4028   4.555   1.194   5.587
 1043SOL    HW2 4029   4.570   1.192   5.750
 1044SOL     OW 4030   4.243   2.538   1.708
 1044SOL    HW1 4031   4.242   2.453   1.761
 1044SOL    HW2 4032   4.152   2.554   1.669
 1045SOL     OW 4033   2.816   0.329   1.428
 1045SOL    HW1 4034   2.859   0.252   1.474
 1045SOL    HW2 4035   2.792   0.303   1.334
 1046SOL     OW 4036   2.088   6.899   6.856
 1046SOL    HW1 4037   2.138   6.830   6.804
 1046SOL    HW2 4038   2.078   6.982   6.801
 1047SOL     OW 4039   1.397   5.281   2.898
 1047SOL    HW1 4040   1.298   5.295   2.890
 1047SOL    HW2 4041   1.441   5.306   2.812
 1048SOL     OW 4042   4.504   5.356   5.519
 1048SOL    HW1 4043   4.577   5.297   5.555
 1048SOL    HW2 4044   4.468   5.413   5.593
 1049SOL     OW 4045   6.882   4.345   4.831
 1049SOL    HW1 4046   6.804   4.348   4.769
 1049SOL    HW2 4047   6.849   4.340   4.926
 1050SOL     OW 4048   3.075   5.390   1.258
 1050SOL    HW1 4049   3.085   5.425   1.164
 1050SOL    HW2 4050   2.987   5.419   1.295
 1051SOL     OW 4051   3.503   4.599   6.929
 1051SOL    HW1 4052   3.467   4.691   6.946
 1051SOL    HW2 4053   3.601   4.605   6.908
 1052SOL     OW 4054   4.429   0.369   4.091
 1052SOL    HW1 4055   4.447   0.421   4.007
 1052SOL    HW2 4056   4.330   0.356   4.101
 1053SOL     OW 4057   5.485   5.976   3.346
 1053SOL    HW1 4058   5.475   6.075   3.347
 1053SOL    HW2 4059   5.579   5.952   3.323
 1054SOL     OW 4060   2.459   4.813   5.208
 1054SOL    HW1 4061   2.387   4.793   5.142
 1054SOL    HW2 4062   2.508   4.729   5.230
 1055SOL     OW 4063   5.515   6.777   4.264
 1055SOL    HW1 4064   5.574   6.762   4.343
 1055SOL    HW2 4065   5.573   6.794   4.183
 1056SOL     OW 4066   1.640   6.104   5.249
 1056SOL    HW1 4067   1.656   6.032   5.182
 1056SOL    HW2 4068   1.696   6.087   5.330
 1057SOL     OW 4069   3.353   3.766   2.751
 1057SOL    HW1 4070   3.347   3.863   2.725
 1057SOL    HW2 4071   3.359   3.759   2.850
 1058SOL     OW 4072   4.816   1.439   2.666
 1058SOL    HW1 4073   4.845   1.482   2.581
 1058SOL    HW2 4074   4.896   1.408   2.718
 1059SOL     OW 4075   3.310   0.522   2.171
 1059SOL    HW1 4076   3.372   0.527   2.093
 1059SOL    HW2 4077   3.279   0.428   2.184
 1060SOL     OW 4078   0.126   3.529   5.282
 1060SOL    HW1 4079   0.158   3.623   5.269
 1060SOL    HW2 4080   0.060   3.506   5.210
 1061SOL     OW 4081   4.697   4.244   1.440
 1061SOL    HW1 4082   4.628   4.178   1.411
 1061SOL    HW2 4083   4.681   4.269   1.536
 1062SOL     OW 4084   6.617   5.665   6.133
 1062SOL    HW1 4085   6.629   5.614   6.048
 1062SOL    HW2 4086   6.685   5.738   6.138
 1063SOL     OW 4087   1.096   4.208   1.192
 1063SOL    HW1 4088   1.147   4.294   1.195
 1063SOL    HW2 4089   1.000   4.227   1.171
 1064SOL     OW 4090   0.715   4.266   2.347
 1064SOL    HW1 4091   0.716   4.365   2.366
 1064SOL    HW2 4092   0.753   4.250   2.256
 1065SOL     OW 4093   4.518   0.618   4.908
 1065SOL    HW1 4094   4.600   0.643   4.960
 1065SOL    HW2 4095   4.469   0.546   4.956
 1066SOL     OW 4096   5.334   0.658   4.252
 1066SOL    HW1 4097   5.318   0.753   4.280
 1066SOL    HW2 4098   5.252   0.604   4.269
 1067SOL     OW 4099   1.613   2.670   0.368
 1067SOL    HW1 4100   1.680   2.725   0.418
 1067SOL    HW2 4101   1.572   2.603   0.430
 1068SOL     OW 4102   5.585   4.127   1.801
 1068SOL    HW1 4103   5.494   4.100   1.770
 1068SOL    HW2 4104   5.578   4.170   1.891
 1069SOL     OW 4105   5.013   5.019   1.386
 1069SOL    HW1 4106   4.984   4.930   1.350
 1069SOL    HW2 4107   5.099   5.009   1.435
 1070SOL     OW 4108   1.112   1.341   6.891
 1070SOL    HW1 4109   1.106   1.272   6.963
 1070SOL    HW2 4110   1.101   1.298   6.802
 1071SOL     OW 4111   4.008   0.569   3.436
 1071SOL    HW1 4112   4.084   0.627   3.465
 1071SOL    HW2 4113   4.029   0.527   3.348
 1072SOL     OW 4114   1.912   6.340   1.836
 1072SOL    HW1 4115   1.950   6.316   1.925
 1072SOL    HW2 4116   1.931   6.436   1.816
 1073SOL     OW 4117   3.856   5.521   2.501
 1073SOL    HW1 4118   3.840   5.534   2.599
 1073SOL    HW2 4119   3.768   5.510   2.454
 1074SOL     OW 4120   2.020   5.583   1.724
 1074SOL    HW1 4121   2.078   5.584   1.806
 1074SOL    HW2 4122   1.929   5.618   1.748
 1075SOL     OW 4123   4.877   5.256   3.469
 1075SOL    HW1 4124   4.892   5.351   3.440
 1075SOL    HW2 4125   4.782   5.244   3.497
 1076SOL     OW 4126   0.594   4.357   4.918
 1076SOL    HW1 4127   0.592   4.274   4.861
 1076SOL    HW2 4128   0.530   4.424   4.880
 1077SOL     OW 4129   5.903   0.240   0.085
 1077SOL    HW1 4130   5.997   0.225   0.114
 1077SOL    HW2 4131   5.843   0.173   0.129
 1078SOL     OW 4132   1.464   0.924   2.457
 1078SOL    HW1 4133   1.509   0.990   2.397
 1078SOL    HW2 4134   1.532   0.883   2.518
 1079SOL     OW 4135   1.784   5.100   2.986
 1079SOL    HW1 4136   1.764   5.149   3.071
 1079SOL    HW2 4137   1.778   5.164   2.909
 1080SOL     OW 4138   1.422   4.200   3.269
 1080SOL    HW1 4139   1.338   4.150   3.246
 1080SOL    HW2 4140   1.490   4.135   3.303
 1081SOL     OW 4141   0.324   1.112   5.368
 1081SOL    HW1 4142   0.415   1.081   5.340
 1081SOL    HW2 4143   0.321   1.212   5.368
 1082SOL     OW 4144   1.552   0.125   6.137
 1082SOL    HW1 4145   1.502   0.145   6.221
 1082SOL    HW2 4146   1.620   0.054   6.154
 1083SOL     OW 4147   3.620   4.072   2.086
 1083SOL    HW1 4148   3.522   4.089   2.088
 1083SOL    HW2 4149   3.652   4.070   1.991
 1084SOL     OW 4150   6.541   5.650   1.051
 1084SOL    HW1 4151   6.530   5.577   0.983
 1084SOL    HW2 4152   6.637   5.654   1.079
 1085SOL     OW 4153   1.816   3.827   3.191
 1085SOL    HW1 4154   1.838   3.757   3.123
 1085SOL    HW2 4155   1.772   3.905   3.146
 1086SOL     OW 4156   6.148   5.750   3.056
 1086SOL    HW1 4157   6.213   5.689   3.010
 1086SOL    HW2 4158   6.087   5.791   2.988
 1087SOL     OW 4159   5.624   2.867   5.558
 1087SOL    HW1 4160   5.710   2.919   5.559
 1087SOL    HW2 4161   5.553   2.921   5.513
 1088SOL     OW 4162   6.432   5.097   3.474
 1088SOL    HW1 4163   6.410   5.167   3.541
 1088SOL    HW2 4164   6.401   5.126   3.384
 1089SOL     OW 4165   1.004   0.461   4.625
 1089SOL    HW1 4166   0.947   0.543   4.622
 1089SOL    HW2 4167   1.090   0.479   4.576
 1090SOL     OW 4168   2.774   1.436   3.940
 1090SOL    HW1 4169   2.853   1.497   3.939
 1090SOL    HW2 4170   2.759   1.404   4.034
 1091SOL     OW 4171   1.764   1.489   4.209
 1091SOL    HW1 4172   1.672   1.518   4.183
 1091SOL    HW2 4173   1.765   1.389   4.222
 1092SOL     OW 4174   2.313   3.529   1.101
 1092SOL    HW1 4175   2.402   3.517   1.147
 1092SOL    HW2 4176   2.269   3.611   1.135
 1093SOL     OW 4177   2.389   1.510   3.330
 1093SOL    HW1 4178   2.432   1.516   3.420
 1093SOL    HW2 4179   2.347   1.597   3.307
 1094SOL     OW 4180   6.862   6.665   2.526
 1094SOL    HW1 4181   6.818   6.749   2.558
 1094SOL    HW2 4182   6.926   6.632   2.595
 1095SOL     OW 4183   6.754   2.269   5.636
 1095SOL    HW1 4184   6.815   2.258   5.714
 1095SOL    HW2 4185   6.791   2.220   5.557
 1096SOL     OW 4186   3.589   4.581   1.358
 1096SOL    HW1 4187   3.500   4.556   1.321
 1096SOL    HW2 4188   3.661   4.548   1.297
 1097SOL     OW 4189   0.952   4.343   4.700
 1097SOL    HW1 4190   0.871   4.345   4.641
 1097SOL    HW2 4191   1.028   4.389   4.655
 1098SOL     OW 4192   5.544   2.749   0.969
 1098SOL    HW1 4193   5.445   2.747   0.984
 1098SOL    HW2 4194   5.576   2.844   0.968
 1099SOL     OW 4195   4.444   1.405   4.546
 1099SOL    HW1 4196   4.447   1.368   4.453
 1099SOL    HW2 4197   4.404   1.496   4.544
 1100SOL     OW 4198   1.709   1.561   6.268
 1100SOL    HW1 4199   1.642   1.497   6.305
 1100SOL    HW2 4200   1.702   1.649   6.315
 1101SOL     OW 4201   5.353   2.714   1.366
 1101SOL    HW1 4202   5.308   2.730   1.454
 1101SOL    HW2 4203   5.413   2.634   1.373
 1102SOL     OW 4204   1.450   4.802   3.228
 1102SOL    HW1 4205   1.546   4.817   3.207
 1102SOL    HW2 4206   1.415   4.877   3.284
 1103SOL     OW 4207   2.287   0.807   1.120
 1103SOL    HW1 4208   2.261   0.761   1.035
 1103SOL    HW2 4209   2.254   0.901   1.119
 1104SOL     OW 4210   1.637   3.860   6.257
 1104SOL    HW1 4211   1.726   3.895   6.288
 1104SOL    HW2 4212   1.651   3.800   6.178
 1105SOL     OW 4213   5.003   3.699   5.658
 1105SOL    HW1 4214   4.970   3.677   5.750
 1105SOL    HW2 4215   5.086   3.754   5.665
 1106SOL     OW 4216   1.201   1.578   0.382
 1106SOL    HW1 4217   1.119   1.557   0.328
 1106SOL    HW2 4218   1.193   1.671   0.419
 1107SOL     OW 4219   0.457   0.330   6.860
 1107SOL    HW1 4220   0.418   0.240   6.880
 1107SOL    HW2 4221   0.474   0.379   6.946
 1108SOL     OW 4222   2.743   0.331   5.773
 1108SOL    HW1 4223   2.700   0.403   5.719
 1108SOL    HW2 4224   2.707   0.242   5.744
 1109SOL     OW 4225   4.318   5.667   4.647
 1109SOL    HW1 4226   4.336   5.760   4.678
 1109SOL    HW2 4227   4.400   5.630   4.603
 1110SOL     OW 4228   3.271   1.838   2.311
 1110SOL    HW1 4229   3.294   1.934   2.298
 1110SOL    HW2 4230   3.171   1.828   2.319
 1111SOL     OW 4231   5.375   6.074   0.264
 1111SOL    HW1 4232   5.439   6.132   0.212
 1111SOL    HW2 4233   5.413   5.982   0.274
 1112SOL     OW 4234   6.260   1.234   2.630
 1112SOL    HW1 4235   6.286   1.315   2.577
 1112SOL    HW2 4236   6.170   1.203   2.601
 1113SOL     OW 4237   6.045   3.344   2.578
 1113SOL    HW1 4238   5.997   3.427   2.609
 1113SOL    HW2 4239   6.086   3.361   2.489
 1114SOL     OW 4240   4.548   0.695   6.281
 1114SOL    HW1 4241   4.498   0.748   6.349
 1114SOL    HW2 4242   4.562   0.602   6.314
 1115SOL     OW 4243   4.478   3.755   0.082
 1115SOL    HW1 4244   4.545   3.688   0.115
 1115SOL    HW2 4245   4.481   3.760   7.008
 1116SOL     OW 4246   5.245   5.594   4.323
 1116SOL    HW1 4247   5.235   5.495   4.329
 1116SOL    HW2 4248   5.162   5.633   4.283
 1117SOL     OW 4249   2.861   2.484   1.425
 1117SOL    HW1 4250   2.956   2.479   1.456
 1117SOL    HW2 4251   2.800   2.481   1.504
 1118SOL     OW 4252   1.526   5.016   2.175
 1118SOL    HW1 4253   1.607   4.960   2.188
 1118SOL    HW2 4254   1.452   4.984   2.234
 1119SOL     OW 4255   3.646   3.887   0.969
 1119SOL    HW1 4256   3.584   3.965   0.975
 1119SOL    HW2 4257   3.632   3.840   0.882
 1120SOL     OW 4258   5.550   6.408   5.964
 1120SOL    HW1 4259   5.593   6.343   5.900
 1120SOL    HW2 4260   5.519   6.488   5.913
 1121SOL     OW 4261   4.968   3.544   2.675
 1121SOL    HW1 4262   4.938   3.490   2.596
 1121SOL    HW2 4263   4.920   3.513   2.757
 1122SOL     OW 4264   5.099   3.025   6.018
 1122SOL    HW1 4265   5.192   3.036   5.985
 1122SOL    HW2 4266   5.068   3.109   6.061
 1123SOL     OW 4267   4.868   1.594   2.432
 1123SOL    HW1 4268   4.780   1.573   2.390
 1123SOL    HW2 4269   4.922   1.650   2.369
 1124SOL     OW 4270   6.831   4.084   5.195
 1124SOL    HW1 4271   6.853   4.022   5.119
 1124SOL    HW2 4272   6.915   4.104   5.246
 1125SOL     OW 4273   2.715   1.826   5.163
 1125SOL    HW1 4274   2.648   1.838   5.237
 1125SOL    HW2 4275   2.670   1.841   5.075
 1126SOL     OW 4276   4.820   0.363   6.871
 1126SOL    HW1 4277   4.898   0.370   6.808
 1126SOL    HW2 4278   4.736   0.386   6.822
 1127SOL     OW 4279   3.743   5.299   5.355
 1127SOL    HW1 4280   3.663   5.323   5.300
 1127SOL    HW2 4281   3.729   5.330   5.449
 1128SOL     OW 4282   4.791   2.577   4.640
 1128SOL    HW1 4283   4.845   2.607   4.719
 1128SOL    HW2 4284   4.694   2.589   4.661
 1129SOL     OW 4285   4.009   6.744   6.943
 1129SOL    HW1 4286   4.068   6.820   6.971
 1129SOL    HW2 4287   3.987   6.687   7.022
 1130SOL     OW 4288   1.785   4.207   0.499
 1130SOL    HW1 4289   1.831   4.254   0.424
 1130SOL    HW2 4290   1.852   4.182   0.569
 1131SOL     OW 4291   0.158   6.326   5.849
 1131SOL    HW1 4292   0.109   6.242   5.871
 1131SOL    HW2 4293   0.093   6.401   5.840
 1132SOL     OW 4294   4.404   0.224   6.931
 1132SOL    HW1 4295   4.466   0.185   6.862
 1132SOL    HW2 4296   4.454   0.237   7.017
 1133SOL     OW 4297   6.774   2.374   0.971
 1133SOL    HW1 4298   6.740   2.316   1.046
 1133SOL    HW2 4299   6.785   2.468   1.003
 1134SOL     OW 4300   5.904   2.160   0.355
 1134SOL    HW1 4301   5.867   2.252   0.369
 1134SOL    HW2 4302   5.855   2.115   0.281
 1135SOL     OW 4303   3.016   1.903   2.543
 1135SOL    HW1 4304   2.996   1.829   2.607
 1135SOL    HW2 4305   3.056   1.980   2.592
 1136SOL     OW 4306   2.978   4.827   4.537
 1136SOL    HW1 4307   3.071   4.844   4.570
 1136SOL    HW2 4308   2.919   4.806   4.614
 1137SOL     OW 4309   1.059   3.001   0.137
 1137SOL    HW1 4310   0.979   3.027   0.191
 1137SOL    HW2 4311   1.062   2.902   0.127
 1138SOL     OW 4312   1.808   1.802   6.130
 1138SOL    HW1 4313   1.828   1.711   6.166
 1138SOL    HW2 4314   1.725   1.800   6.075
 1139SOL     OW 4315   2.451   6.777   2.488
 1139SOL    HW1 4316   2.504   6.773   2.573
 1139SOL    HW2 4317   2.400   6.692   2.477
 1140SOL     OW 4318   4.034   2.233   2.373
 1140SOL    HW1 4319   4.020   2.201   2.467
 1140SOL    HW2 4320   3.945   2.242   2.328
 1141SOL     OW 4321   6.314   6.048   5.624
 1141SOL    HW1 4322   6.271   5.960   5.646
 1141SOL    HW2 4323   6.293   6.114   5.696
 1142SOL     OW 4324   4.748   0.664   5.047
 1142SOL    HW1 4325   4.820   0.732   5.031
 1142SOL    HW2 4326   4.702   0.684   5.133
 1143SOL     OW 4327   3.418   2.134   2.700
 1143SOL    HW1 4328   3.506   2.176   2.721
 1143SOL    HW2 4329   3.427   2.034   2.703
 1144SOL     OW 4330   6.651   4.312   4.660
 1144SOL    HW1 4331   6.632   4.407   4.634
 1144SOL    HW2 4332   6.576   4.278   4.717
 1145SOL     OW 4333   0.478   5.142   3.368
 1145SOL    HW1 4334   0.462   5.220   3.428
 1145SOL    HW2 4335   0.418   5.148   3.289
 1146SOL     OW 4336   5.463   0.973   1.245
 1146SOL    HW1 4337   5.443   1.051   1.304
 1146SOL    HW2 4338   5.451   0.999   1.149
 1147SOL     OW 4339   1.144   4.097   0.684
 1147SOL    HW1 4340   1.208   4.171   0.701
 1147SOL    HW2 4341   1.165   4.019   0.744
 1148SOL     OW 4342   2.646   6.500   6.898
 1148SOL    HW1 4343   2.740   6.527   6.914
 1148SOL    HW2 4344   2.616   6.437   6.969
 1149SOL     OW 4345   5.442   3.392   2.984
 1149SOL    HW1 4346   5.473   3.386   2.889
 1149SOL    HW2 4347   5.464   3.483   3.020
 1150SOL     OW 4348   2.071   4.157   1.072
 1150SOL    HW1 4349   2.120   4.186   1.154
 1150SOL    HW2 4350   1.977   4.131   1.096
 1151SOL     OW 4351   5.397   5.964   6.646
 1151SOL    HW1 4352   5.475   5.912   6.609
 1151SOL    HW2 4353   5.313   5.911   6.635
 1152SOL     OW 4354   0.856   6.855   5.336
 1152SOL    HW1 4355   0.901   6.812   5.415
 1152SOL    HW2 4356   0.812   6.940   5.365
 1153SOL     OW 4357   3.079   6.522   2.102
 1153SOL    HW1 4358   3.135   6.522   2.020
 1153SOL    HW2 4359   3.135   6.548   2.181
 1154SOL     OW 4360   0.333   3.573   1.686
 1154SOL    HW1 4361   0.316   3.495   1.626
 1154SOL    HW2 4362   0.292   3.557   1.775
 1155SOL     OW 4363   3.699   5.059   6.401
 1155SOL    HW1 4364   3.692   5.031   6.497
 1155SOL    HW2 4365   3.789   5.032   6.365
 1156SOL     OW 4366   2.053   0.460   4.237
 1156SOL    HW1 4367   2.142   0.493   4.207
 1156SOL    HW2 4368   1.984   0.485   4.169
 1157SOL     OW 4369   6.448   2.102   4.500
 1157SOL    HW1 4370   6.366   2.049   4.522
 1157SOL    HW2 4371   6.496   2.058   4.424
 1158SOL     OW 4372   6.326   5.296   5.491
 1158SOL    HW1 4373   6.374   5.259   5.411
 1158SOL    HW2 4374   6.256   5.360   5.460
 1159SOL     OW 4375   4.641   0.629   2.823
 1159SOL    HW1 4376   4.654   0.639   2.922
 1159SOL    HW2 4377   4.692   0.550   2.790
 1160SOL     OW 4378   3.350   3.438   1.487
 1160SOL    HW1 4379   3.266   3.421   1.540
 1160SOL    HW2 4380   3.428   3.445   1.549
 1161SOL     OW 4381   5.085   0.180   5.082
 1161SOL    HW1 4382   5.134   0.110   5.030
 1161SOL    HW2 4383   5.135   0.267   5.074
 1162SOL     OW 4384   3.788   3.190   0.432
 1162SOL    HW1 4385   3.846   3.216   0.356
 1162SOL    HW2 4386   3.697   3.165   0.398
 1163SOL     OW 4387   5.324   2.237   1.955
 1163SOL    HW1 4388   5.253   2.277   2.012
 1163SOL    HW2 4389   5.284   2.165   1.898
 1164SOL     OW 4390   5.826   2.846   3.909
 1164SOL    HW1 4391   5.804   2.909   3.834
 1164SOL    HW2 4392   5.749   2.843   3.973
 1165SOL     OW 4393   1.844   4.053   3.514
 1165SOL    HW1 4394   1.876   4.055   3.609
 1165SOL    HW2 4395   1.899   3.988   3.462
 1166SOL     OW 4396   3.916   0.777   6.782
 1166SOL    HW1 4397   3.929   0.742   6.874
 1166SOL    HW2 4398   3.957   0.868   6.774
 1167SOL     OW 4399   2.931   0.419   5.997
 1167SOL    HW1 4400   2.964   0.329   6.027
 1167SOL    HW2 4401   2.877   0.408   5.913
 1168SOL     OW 4402   6.026   0.209   2.262
 1168SOL    HW1 4403   6.117   0.213   2.222
 1168SOL    HW2 4404   5.990   0.116   2.252
 1169SOL     OW 4405   0.519   3.218   0.391
 1169SOL    HW1 4406   0.513   3.298   0.450
 1169SOL    HW2 4407   0.450   3.225   0.318
 1170SOL     OW 4408   4.119   0.836   2.036
 1170SOL    HW1 4409   4.207   0.794   2.057
 1170SOL    HW2 4410   4.070   0.780   1.969
 1171SOL     OW 4411   2.579   5.782   0.547
 1171SOL    HW1 4412   2.659   5.793   0.606
 1171SOL    HW2 4413   2.497   5.802   0.600
 1172SOL     OW 4414   3.225   3.994   3.440
 1172SOL    HW1 4415   3.189   3.909   3.401
 1172SOL    HW2 4416   3.252   4.055   3.365
 1173SOL     OW 4417   3.490   6.455   5.808
 1173SOL    HW1 4418   3.438   6.379   5.769
 1173SOL    HW2 4419   3.577   6.420   5.843
 1174SOL     OW 4420   2.976   5.714   1.073
 1174SOL    HW1 4421   2.919   5.644   1.029
 1174SOL    HW2 4422   2.956   5.717   1.171
 1175SOL     OW 4423   5.101   3.937   6.933
 1175SOL    HW1 4424   5.085   3.841   6.954
 1175SOL    HW2 4425   5.063   3.994   7.006
 1176SOL     OW 4426   6.075   4.822   0.247
 1176SOL    HW1 4427   6.097   4.909   0.203
 1176SOL    HW2 4428   6.111   4.821   0.340
 1177SOL     OW 4429   0.331   2.097   5.350
 1177SOL    HW1 4430   0.249   2.129   5.398
 1177SOL    HW2 4431   0.304   2.052   5.265
 1178SOL     OW 4432   4.669   3.678   1.423
 1178SOL    HW1 4433   4.735   3.640   1.489
 1178SOL    HW2 4434   4.695   3.772   1.400
 1179SOL     OW 4435   2.655   4.965   0.504
 1179SOL    HW1 4436   2.740   4.996   0.545
 1179SOL    HW2 4437   2.628   4.877   0.546
 1180SOL     OW 4438   2.498   0.432   3.761
 1180SOL    HW1 4439   2.581   0.406   3.810
 1180SOL    HW2 4440   2.485   0.531   3.769
 1181SOL     OW 4441   0.695   3.304   4.439
 1181SOL    HW1 4442   0.770   3.366   4.416
 1181SOL    HW2 4443   0.671   3.249   4.359
 1182SOL     OW 4444   2.064   4.850   2.767
 1182SOL    HW1 4445   2.050   4.799   2.682
 1182SOL    HW2 4446   2.162   4.862   2.783
 1183SOL     OW 4447   4.249   5.187   2.302
 1183SOL    HW1 4448   4.319   5.135   2.351
 1183SOL    HW2 4449   4.252   5.163   2.205
 1184SOL     OW 4450   3.417   2.415   5.375
 1184SOL    HW1 4451   3.461   2.499   5.407
 1184SOL    HW2 4452   3.331   2.438   5.329
 1185SOL     OW 4453   2.272   0.487   0.497
 1185SOL    HW1 4454   2.263   0.444   0.407
 1185SOL    HW2 4455   2.362   0.469   0.535
 1186SOL     OW 4456   5.958   0.278   6.221
 1186SOL    HW1 4457   5.889   0.224   6.171
 1186SOL    HW2 4458   5.934   0.281   6.318
 1187SOL     OW 4459   5.220   6.141   5.288
 1187SOL    HW1 4460   5.291   6.081   5.324
 1187SOL    HW2 4461   5.230   6.232   5.327
 1188SOL     OW 4462   3.252   6.418   6.392
 1188SOL    HW1 4463   3.162   6.446   6.425
 1188SOL    HW2 4464   3.300   6.498   6.356
 1189SOL     OW 4465   5.137   1.465   2.101
 1189SOL    HW1 4466   5.135   1.496   2.195
 1189SOL    HW2 4467   5.056   1.409   2.082
 1190SOL     OW 4468   4.091   5.003   4.566
 1190SOL    HW1 4469   4.063   5.015   4.661
 1190SOL    HW2 4470   4.014   5.026   4.506
 1191SOL     OW 4471   3.650   5.425   5.607
 1191SOL    HW1 4472   3.574   5.365   5.635
 1191SOL    HW2 4473   3.613   5.509   5.569
 1192SOL     OW 4474   5.620   4.915   3.240
 1192SOL    HW1 4475   5.676   4.877   3.166
 1192SOL    HW2 4476   5.676   4.973   3.298
 1193SOL     OW 4477   6.372   0.586   4.021
 1193SOL    HW1 4478   6.463   0.545   4.026
 1193SOL    HW2 4479   6.350   0.610   3.927
 1194SOL     OW 4480   0.438   1.315   1.020
 1194SOL    HW1 4481   0.393   1.253   1.084
 1194SOL    HW2 4482   0.496   1.263   0.958
 1195SOL     OW 4483   6.505   1.875   0.730
 1195SOL    HW1 4484   6.491   1.890   0.828
 1195SOL    HW2 4485   6.426   1.911   0.679
 1196SOL     OW 4486   6.997   5.015   1.933
 1196SOL    HW1 4487   6.923   4.970   1.983
 1196SOL    HW2 4488   0.012   5.087   1.990
 1197SOL     OW 4489   3.964   5.859   5.552
 1197SOL    HW1 4490   4.033   5.806   5.502
 1197SOL    HW2 4491   3.905   5.906   5.487
 1198SOL     OW 4492   2.358   2.680   2.105
 1198SOL    HW1 4493   2.419   2.648   2.178
 1198SOL    HW2 4494   2.406   2.674   2.017
 1199SOL     OW 4495   4.064   3.124   2.614
 1199SOL    HW1 4496   4.113   3.044   2.580
 1199SOL    HW2 4497   4.118   3.207   2.596
 1200SOL     OW 4498   4.177   3.502   4.916
 1200SOL    HW1 4499   4.179   3.423   4.977
 1200SOL    HW2 4500   4.232   3.576   4.955
 1201SOL     OW 4501   0.605   1.370   4.202
 1201SOL    HW1 4502   0.689   1.423   4.206
 1201SOL    HW2 4503   0.530   1.423   4.241
 1202SOL     OW 4504   6.232   0.993   5.788
 1202SOL    HW1 4505   6.255   0.980   5.885
 1202SOL    HW2 4506   6.250   1.088   5.762
 1203SOL     OW 4507   5.806   6.870   0.942
 1203SOL    HW1 4508   5.711   6.875   0.972
 1203SOL    HW2 4509   5.832   6.774   0.933
 1204SOL     OW 4510   3.984   1.139   0.293
 1204SOL    HW1 4511   4.069   1.107   0.250
 1204SOL    HW2 4512   3.921   1.062   0.304
 1205SOL     OW 4513   4.738   3.082   6.587
 1205SOL    HW1 4514   4.659   3.143   6.576
 1205SOL    HW2 4515   4.774   3.058   6.497
 1206SOL     OW 4516   1.615   1.490   4.756
 1206SOL    HW1 4517   1.694   1.551   4.757
 1206SOL    HW2 4518   1.562   1.503   4.839
 1207SOL     OW 4519   6.975   6.694   1.065
 1207SOL    HW1 4520   0.005   6.713   1.146
 1207SOL    HW2 4521   7.020   6.624   1.010
 1208SOL     OW 4522   3.818   3.983   2.504
 1208SOL    HW1 4523   3.803   3.885   2.518
 1208SOL    HW2 4524   3.819   4.030   2.592
 1209SOL     OW 4525   5.881   6.643   4.793
 1209SOL    HW1 4526   5.792   6.689   4.791
 1209SOL    HW2 4527   5.952   6.705   4.760
 1210SOL     OW 4528   4.584   6.582   2.868
 1210SOL    HW1 4529   4.681   6.577   2.843
 1210SOL    HW2 4530   4.574   6.638   2.951
 1211SOL     OW 4531   1.765   3.421   3.711
 1211SOL    HW1 4532   1.684   3.417   3.769
 1211SOL    HW2 4533   1.742   3.383   3.621
 1212SOL     OW 4534   0.290   2.473   5.224
 1212SOL    HW1 4535   0.250   2.435   5.307
 1212SOL    HW2 4536   0.237   2.553   5.196
 1213SOL     OW 4537   6.054   2.719   4.731
 1213SOL    HW1 4538   6.021   2.660   4.806
 1213SOL    HW2 4539   6.085   2.806   4.769
 1214SOL     OW 4540   1.597   3.209   4.283
 1214SOL    HW1 4541   1.657   3.281   4.319
 1214SOL    HW2 4542   1.502   3.230   4.305
 1215SOL     OW 4543   2.064   4.513   2.185
 1215SOL    HW1 4544   2.012   4.432   2.210
 1215SOL    HW2 4545   2.055   4.530   2.087
 1216SOL     OW 4546   0.331   0.317   1.750
 1216SOL    HW1 4547   0.282   0.234   1.775
 1216SOL    HW2 4548   0.404   0.294   1.685
 1217SOL     OW 4549   1.855   6.680   1.055
 1217SOL    HW1 4550   1.776   6.733   1.087
 1217SOL    HW2 4551   1.828   6.628   0.973
 1218SOL     OW 4552   0.989   2.758   4.897
 1218SOL    HW1 4553   0.966   2.790   4.989
 1218SOL    HW2 4554   0.927   2.799   4.830
 1219SOL     OW 4555   4.425   4.710   0.930
 1219SOL    HW1 4556   4.439   4.710   1.029
 1219SOL    HW2 4557   4.424   4.804   0.897
 1220SOL     OW 4558   5.135   4.317   2.348
 1220SOL    HW1 4559   5.124   4.378   2.269
 1220SOL    HW2 4560   5.231   4.312   2.372
 1221SOL     OW 4561   5.782   3.395   6.820
 1221SOL    HW1 4562   5.717   3.343   6.876
 1221SOL    HW2 4563   5.782   3.357   6.727
 1222SOL     OW 4564   0.136   0.211   1.150
 1222SOL    HW1 4565   0.196   0.138   1.118
 1222SOL    HW2 4566   0.117   0.198   1.248
 1223SOL     OW 4567   5.334   1.225   0.804
 1223SOL    HW1 4568   5.355   1.207   0.708
 1223SOL    HW2 4569   5.252   1.174   0.829
 1224SOL     OW 4570   3.705   6.056   6.903
 1224SOL    HW1 4571   3.753   5.984   6.953
 1224SOL    HW2 4572   3.607   6.034   6.900
 1225SOL     OW 4573   3.911   2.047   1.054
 1225SOL    HW1 4574   3.839   2.097   1.006
 1225SOL    HW2 4575   3.997   2.057   1.004
 1226SOL     OW 4576   5.663   6.527   1.187
 1226SOL    HW1 4577   5.724   6.499   1.261
 1226SOL    HW2 4578   5.601   6.599   1.219
 1227SOL     OW 4579   6.140   5.062   5.535
 1227SOL    HW1 4580   6.203   4.988   5.561
 1227SOL    HW2 4581   6.189   5.149   5.537
 1228SOL     OW 4582   3.771   3.205   0.771
 1228SOL    HW1 4583   3.677   3.188   0.799
 1228SOL    HW2 4584   3.775   3.287   0.713
 1229SOL     OW 4585   2.096   0.356   1.962
 1229SOL    HW1 4586   2.171   0.296   1.935
 1229SOL    HW2 4587   2.010   0.321   1.922
 1230SOL     OW 4588   5.108   5.744   2.941
 1230SOL    HW1 4589   5.049   5.824   2.941
 1230SOL    HW2 4590   5.125   5.716   3.036
 1231SOL     OW 4591   1.669   2.830   6.155
 1231SOL    HW1 4592   1.600   2.894   6.121
 1231SOL    HW2 4593   1.658   2.742   6.109
 1232SOL     OW 4594   4.577   1.245   5.406
 1232SOL    HW1 4595   4.651   1.289   5.354
 1232SOL    HW2 4596   4.491   1.253   5.355
 1233SOL     OW 4597   0.963   5.233   3.925
 1233SOL    HW1 4598   0.986   5.216   3.829
 1233SOL    HW2 4599   0.882   5.292   3.930
 1234SOL     OW 4600   0.336   2.648   6.733
 1234SOL    HW1 4601   0.277   2.662   6.653
 1234SOL    HW2 4602   0.398   2.571   6.715
 1235SOL     OW 4603   6.309   5.303   0.057
 1235SOL    HW1 4604   6.390   5.307   0.115
 1235SOL    HW2 4605   6.337   5.307   6.986
 1236SOL     OW 4606   3.340   1.847   0.316
 1236SOL    HW1 4607   3.425   1.836   0.369
 1236SOL    HW2 4608   3.361   1.894   0.230
 1237SOL     OW 4609   1.602   6.620   5.265
 1237SOL    HW1 4610   1.542   6.691   5.228
 1237SOL    HW2 4611   1.548   6.537   5.283
 1238SOL     OW 4612   0.322   6.940   3.433
 1238SOL    HW1 4613   0.251   6.874   3.407
 1238SOL    HW2 4614   0.322   7.015   3.367
 1239SOL     OW 4615   6.832   5.177   4.713
 1239SOL    HW1 4616   6.794   5.268   4.729
 1239SOL    HW2 4617   6.820   5.121   4.796
 1240SOL     OW 4618   5.764   5.400   2.067
 1240SOL    HW1 4619   5.812   5.340   2.004
 1240SOL    HW2 4620   5.739   5.348   2.149
 1241SOL     OW 4621   6.895   4.710   5.027
 1241SOL    HW1 4622   6.935   4.789   5.074
 1241SOL    HW2 4623   6.839   4.742   4.951
 1242SOL     OW 4624   2.095   4.070   0.431
 1242SOL    HW1 4625   2.059   4.146   0.486
 1242SOL    HW2 4626   2.043   3.987   0.451
 1243SOL     OW 4627   0.213   1.990   4.701
 1243SOL    HW1 4628   0.274   1.910   4.693
 1243SOL    HW2 4629   0.269   2.072   4.714
 1244SOL     OW 4630   5.377   0.015   5.066
 1244SOL    HW1 4631   5.398   0.098   5.119
 1244SOL    HW2 4632   5.327   6.976   5.124
 1245SOL     OW 4633   5.179   6.022   1.198
 1245SOL    HW1 4634   5.141   6.042   1.288
 1245SOL    HW2 4635   5.228   6.102   1.164
 1246SOL     OW 4636   3.985   1.208   2.189
 1246SOL    HW1 4637   3.960   1.302   2.163
 1246SOL    HW2 4638   4.082   1.205   2.214
 1247SOL     OW 4639   6.162   6.923   4.748
 1247SOL    HW1 4640   6.177   6.995   4.680
 1247SOL    HW2 4641   6.165   6.833   4.703
 1248SOL     OW 4642   0.780   6.290   3.823
 1248SOL    HW1 4643   0.685   6.290   3.853
 1248SOL    HW2 4644   0.800   6.204   3.775
 1249SOL     OW 4645   6.726   4.355   1.573
 1249SOL    HW1 4646   6.698   4.447   1.546
 1249SOL    HW2 4647   6.695   4.337   1.667
 1250SOL     OW 4648   6.391   3.175   5.293
 1250SOL    HW1 4649   6.359   3.258   5.338
 1250SOL    HW2 4650   6.346   3.165   5.205
 1251SOL     OW 4651   1.972   0.773   2.688
 1251SOL    HW1 4652   1.937   0.762   2.781
 1251SOL    HW2 4653   1.952   0.690   2.635
 1252SOL     OW 4654   3.558   5.285   6.287
 1252SOL    HW1 4655   3.612   5.366   6.263
 1252SOL    HW2 4656   3.615   5.220   6.336
 1253SOL     OW 4657   2.810   0.949   1.596
 1253SOL    HW1 4658   2.764   0.941   1.507
 1253SOL    HW2 4659   2.886   1.013   1.588
 1254SOL     OW 4660   6.432   1.454   3.453
 1254SOL    HW1 4661   6.451   1.546   3.419
 1254SOL    HW2 4662   6.518   1.410   3.481
 1255SOL     OW 4663   5.582   2.906   5.160
 1255SOL    HW1 4664   5.554   2.814   5.133
 1255SOL    HW2 4665   5.644   2.944   5.092
 1256SOL     OW 4666   6.812   6.181   3.019
 1256SOL    HW1 4667   6.757   6.153   3.097
 1256SOL    HW2 4668   6.847   6.101   2.971
 1257SOL     OW 4669   6.729   4.682   4.347
 1257SOL    HW1 4670   6.802   4.618   4.370
 1257SOL    HW2 4671   6.740   4.714   4.253
 1258SOL     OW 4672   2.030   6.150   2.776
 1258SOL    HW1 4673   2.055   6.054   2.764
 1258SOL    HW2 4674   1.994   6.187   2.691
 1259SOL     OW 4675   3.652   6.544   4.954
 1259SOL    HW1 4676   3.592   6.471   4.986
 1259SOL    HW2 4677   3.598   6.618   4.916
 1260SOL     OW 4678   3.110   0.999   1.949
 1260SOL    HW1 4679   3.154   0.996   2.038
 1260SOL    HW2 4680   3.011   0.988   1.960
 1261SOL     OW 4681   6.904   3.420   0.289
 1261SOL    HW1 4682   6.867   3.497   0.340
 1261SOL    HW2 4683   6.900   3.337   0.344
 1262SOL     OW 4684   4.571   4.370   0.988
 1262SOL    HW1 4685   4.636   4.420   0.931
 1262SOL    HW2 4686   4.581   4.399   1.083
 1263SOL     OW 4687   6.170   2.050   1.276
 1263SOL    HW1 4688   6.113   1.968   1.267
 1263SOL    HW2 4689   6.194   2.062   1.373
 1264SOL     OW 4690   0.276   4.384   2.918
 1264SOL    HW1 4691   0.286   4.458   2.984
 1264SOL    HW2 4692   0.330   4.305   2.948
 1265SOL     OW 4693   6.556   4.502   3.671
 1265SOL    HW1 4694   6.502   4.548   3.741
 1265SOL    HW2 4695   6.623   4.566   3.634
 1266SOL     OW 4696   2.448   0.971   4.105
 1266SOL    HW1 4697   2.541   0.991   4.074
 1266SOL    HW2 4698   2.445   0.975   4.205
 1267SOL     OW 4699   5.782   5.955   1.795
 1267SOL    HW1 4700   5.718   5.881   1.816
 1267SOL    HW2 4701   5.806   5.952   1.698
 1268SOL     OW 4702   5.246   2.143   0.243
 1268SOL    HW1 4703   5.198   2.217   0.290
 1268SOL    HW2 4704   5.219   2.055   0.283
 1269SOL     OW 4705   6.100   6.556   5.026
 1269SOL    HW1 4706   6.019   6.612   5.046
 1269SOL    HW2 4707   6.087   6.464   5.063
 1270SOL     OW 4708   2.229   4.034   4.082
 1270SOL    HW1 4709   2.263   3.959   4.139
 1270SOL    HW2 4710   2.129   4.029   4.077
 1271SOL     OW 4711   3.551   1.707   3.149
 1271SOL    HW1 4712   3.580   1.789   3.098
 1271SOL    HW2 4713   3.503   1.645   3.087
 1272SOL     OW 4714   0.156   5.966   1.250
 1272SOL    HW1 4715   0.129   5.870   1.257
 1272SOL    HW2 4716   0.220   5.988   1.323
 1273SOL     OW 4717   2.057   4.008   6.844
 1273SOL    HW1 4718   2.032   3.957   6.762
 1273SOL    HW2 4719   2.112   3.950   6.904
 1274SOL     OW 4720   6.888   3.092   1.522
 1274SOL    HW1 4721   6.862   3.074   1.427
 1274SOL    HW2 4722   6.930   3.009   1.561
 1275SOL     OW 4723   4.643   0.537   3.321
 1275SOL    HW1 4724   4.572   0.484   3.275
 1275SOL    HW2 4725   4.607   0.626   3.346
 1276SOL     OW 4726   7.007   0.548   3.479
 1276SOL    HW1 4727   6.913   0.522   3.456
 1276SOL    HW2 4728   0.029   0.577   3.395
 1277SOL     OW 4729   0.845   0.672   4.611
 1277SOL    HW1 4730   0.812   0.759   4.574
 1277SOL    HW2 4731   0.768   0.621   4.650
 1278SOL     OW 4732   1.628   1.776   5.518
 1278SOL    HW1 4733   1.591   1.740   5.432
 1278SOL    HW2 4734   1.587   1.729   5.595
 1279SOL     OW 4735   2.336   0.219   0.893
 1279SOL    HW1 4736   2.239   0.241   0.887
 1279SOL    HW2 4737   2.350   0.122   0.873
 1280SOL     OW 4738   2.835   6.374   3.394
 1280SOL    HW1 4739   2.762   6.437   3.422
 1280SOL    HW2 4740   2.793   6.291   3.357
 1281SOL     OW 4741   1.085   5.677   2.979
 1281SOL    HW1 4742   1.156   5.667   2.910
 1281SOL    HW2 4743   1.112   5.745   3.047
 1282SOL     OW 4744   1.097   0.923   0.667
 1282SOL    HW1 4745   1.055   0.996   0.721
 1282SOL    HW2 4746   1.196   0.926   0.678
 1283SOL     OW 4747   5.421   3.007   5.363
 1283SOL    HW1 4748   5.479   2.993   5.282
 1283SOL    HW2 4749   5.339   3.058   5.337
 1284SOL     OW 4750   3.493   2.834   1.830
 1284SOL    HW1 4751   3.558   2.778   1.779
 1284SOL    HW2 4752   3.434   2.883   1.766
 1285SOL     OW 4753   5.660   3.471   6.311
 1285SOL    HW1 4754   5.660   3.567   6.339
 1285SOL    HW2 4755   5.566   3.437   6.310
 1286SOL     OW 4756   4.605   4.439   2.590
 1286SOL    HW1 4757   4.606   4.470   2.495
 1286SOL    HW2 4758   4.665   4.359   2.599
 1287SOL     OW 4759   5.537   4.512   6.290
 1287SOL    HW1 4760   5.627   4.554   6.302
 1287SOL    HW2 4761   5.489   4.509   6.378
 1288SOL     OW 4762   6.704   3.489   1.453
 1288SOL    HW1 4763   6.655   3.576   1.453
 1288SOL    HW2 4764   6.702   3.450   1.545
 1289SOL     OW 4765   0.712   6.211   2.086
 1289SOL    HW1 4766   0.788   6.245   2.142
 1289SOL    HW2 4767   0.740   6.209   1.990
 1290SOL     OW 4768   0.689   1.058   0.202
 1290SOL    HW1 4769   0.601   1.043   0.158
 1290SOL    HW2 4770   0.695   1.001   0.284
 1291SOL     OW 4771   1.337   4.251   6.194
 1291SOL    HW1 4772   1.359   4.334   6.144
 1291SOL    HW2 4773   1.395   4.176   6.161
 1292SOL     OW 4774   6.577   5.270   2.265
 1292SOL    HW1 4775   6.481   5.251   2.286
 1292SOL    HW2 4776   6.584   5.358   2.217
 1293SOL     OW 4777   2.736   1.554   6.326
 1293SOL    HW1 4778   2.820   1.506   6.354
 1293SOL    HW2 4779   2.671   1.554   6.402
 1294SOL     OW 4780   0.779   3.161   1.005
 1294SOL    HW1 4781   0.817   3.167   1.097
 1294SOL    HW2 4782   0.851   3.139   0.940
 1295SOL     OW 4783   6.647   3.601   2.647
 1295SOL    HW1 4784   6.637   3.650   2.561
 1295SOL    HW2 4785   6.573   3.535   2.658
 1296SOL     OW 4786   4.213   1.152   5.817
 1296SOL    HW1 4787   4.302   1.191   5.793
 1296SOL    HW2 4788   4.141   1.216   5.790
 1297SOL     OW 4789   5.846   0.900   6.677
 1297SOL    HW1 4790   5.749   0.913   6.694
 1297SOL    HW2 4791   5.895   0.890   6.764
 1298SOL     OW 4792   6.166   3.375   3.522
 1298SOL    HW1 4793   6.159   3.467   3.559
 1298SOL    HW2 4794   6.258   3.340   3.538
 1299SOL     OW 4795   0.912   3.748   2.741
 1299SOL    HW1 4796   0.919   3.649   2.728
 1299SOL    HW2 4797   0.870   3.789   2.660
 1300SOL     OW 4798   3.498   3.463   2.279
 1300SOL    HW1 4799   3.514   3.380   2.225
 1300SOL    HW2 4800   3.400   3.483   2.281
 1301SOL     OW 4801   1.221   5.935   2.770
 1301SOL    HW1 4802   1.220   5.976   2.679
 1301SOL    HW2 4803   1.131   5.896   2.791
 1302SOL     OW 4804   3.109   6.955   4.850
 1302SOL    HW1 4805   3.072   7.015   4.779
 1302SOL    HW2 4806   3.164   7.008   4.914
 1303SOL     OW 4807   4.196   1.653   0.636
 1303SOL    HW1 4808   4.167   1.610   0.550
 1303SOL    HW2 4809   4.294   1.670   0.633
 1304SOL     OW 4810   1.918   1.432   6.701
 1304SOL    HW1 4811   1.941   1.445   6.798
 1304SOL    HW2 4812   1.924   1.520   6.653
 1305SOL     OW 4813   5.906   5.905   6.648
 1305SOL    HW1 4814   5.915   5.982   6.711
 1305SOL    HW2 4815   5.894   5.940   6.555
 1306SOL     OW 4816   0.589   4.915   5.406
 1306SOL    HW1 4817   0.688   4.905   5.413
 1306SOL    HW2 4818   0.545   4.830   5.435
 1307SOL     OW 4819   1.914   3.130   4.281
 1307SOL    HW1 4820   1.865   3.051   4.244
 1307SOL    HW2 4821   1.938   3.113   4.376
 1308SOL     OW 4822   3.903   5.748   4.798
 1308SOL    HW1 4823   3.943   5.701   4.877
 1308SOL    HW2 4824   3.904   5.687   4.719
 1309SOL     OW 4825   5.171   3.065   5.218
 1309SOL    HW1 4826   5.082   3.110   5.210
 1309SOL    HW2 4827   5.159   2.977   5.264
 1310SOL     OW 4828   6.089   3.833   5.127
 1310SOL    HW1 4829   6.074   3.762   5.196
 1310SOL    HW2 4830   6.114   3.790   5.040
 1311SOL     OW 4831   6.444   6.517   4.130
 1311SOL    HW1 4832   6.428   6.511   4.229
 1311SOL    HW2 4833   6.395   6.596   4.093
 1312SOL     OW 4834   0.941   0.467   6.771
 1312SOL    HW1 4835   0.869   0.416   6.724
 1312SOL    HW2 4836   0.966   0.547   6.717
 1313SOL     OW 4837   1.780   5.447   5.619
 1313SOL    HW1 4838   1.809   5.513   5.549
 1313SOL    HW2 4839   1.746   5.364   5.575
 1314SOL     OW 4840   2.233   1.902   5.365
 1314SOL    HW1 4841   2.237   1.965   5.442
 1314SOL    HW2 4842   2.173   1.825   5.387
 1315SOL     OW 4843   0.858   1.281   0.180
 1315SOL    HW1 4844   0.943   1.252   0.135
 1315SOL    HW2 4845   0.808   1.201   0.213
 1316SOL     OW 4846   2.100   6.904   3.362
 1316SOL    HW1 4847   2.113   6.899   3.461
 1316SOL    HW2 4848   2.182   6.941   3.319
 1317SOL     OW 4849   1.175   3.990   4.820
 1317SOL    HW1 4850   1.159   4.034   4.732
 1317SOL    HW2 4851   1.254   3.929   4.813
 1318SOL     OW 4852   0.171   0.882   0.472
 1318SOL    HW1 4853   0.085   0.924   0.443
 1318SOL    HW2 4854   0.240   0.952   0.488
 1319SOL     OW 4855   6.651   1.624   0.307
 1319SOL    HW1 4856   6.573   1.602   0.249
 1319SOL    HW2 4857   6.712   1.687   0.259
 1320SOL     OW 4858   6.008   3.897   0.262
 1320SOL    HW1 4859   5.974   3.902   0.356
 1320SOL    HW2 4860   6.046   3.806   0.245
 1321SOL     OW 4861   4.168   2.758   6.345
 1321SOL    HW1 4862   4.169   2.660   6.329
 1321SOL    HW2 4863   4.251   2.784   6.395
 1322SOL     OW 4864   5.595   0.792   2.982
 1322SOL    HW1 4865   5.657   0.865   3.012
 1322SOL    HW2 4866   5.512   0.794   3.038
 1323SOL     OW 4867   5.106   2.083   5.441
 1323SOL    HW1 4868   5.158   2.000   5.463
 1323SOL    HW2 4869   5.092   2.088   5.342
 1324SOL     OW 4870   1.105   2.641   1.776
 1324SOL    HW1 4871   1.134   2.641   1.872
 1324SOL    HW2 4872   1.046   2.562   1.759
 1325SOL     OW 4873   2.930   7.018   2.017
 1325SOL    HW1 4874   2.904   0.064   1.951
 1325SOL    HW2 4875   2.875   0.003   2.100
 1326SOL     OW 4876   4.785   2.901   4.818
 1326SOL    HW1 4877   4.870   2.952   4.825
 1326SOL    HW2 4878   4.746   2.913   4.726
 1327SOL     OW 4879   2.936   5.388   2.703
 1327SOL    HW1 4880   2.981   5.389   2.614
 1327SOL    HW2 4881   2.991   5.438   2.770
 1328SOL     OW 4882   0.997   3.154   0.793
 1328SOL    HW1 4883   0.972   3.076   0.736
 1328SOL    HW2 4884   1.084   3.191   0.762
 1329SOL     OW 4885   0.023   1.570   0.237
 1329SOL    HW1 4886   7.018   1.663   0.258
 1329SOL    HW2 4887   0.019   1.514   0.320
 1330SOL     OW 4888   6.779   0.113   1.089
 1330SOL    HW1 4889   6.787   0.178   1.164
 1330SOL    HW2 4890   6.817   0.153   1.005
 1331SOL     OW 4891   4.652   2.128   2.837
 1331SOL    HW1 4892   4.623   2.049   2.783
 1331SOL    HW2 4893   4.697   2.195   2.778
 1332SOL     OW 4894   3.023   6.931   0.045
 1332SOL    HW1 4895   2.971   7.016   0.050
 1332SOL    HW2 4896   2.984   6.865   0.109
 1333SOL     OW 4897   3.829   4.166   6.236
 1333SOL    HW1 4898   3.887   4.248   6.243
 1333SOL    HW2 4899   3.740   4.185   6.278
 1334SOL     OW 4900   0.462   2.844   4.267
 1334SOL    HW1 4901   0.404   2.825   4.346
 1334SOL    HW2 4902   0.521   2.764   4.249
 1335SOL     OW 4903   3.243   6.305   3.250
 1335SOL    HW1 4904   3.176   6.258   3.192
 1335SOL    HW2 4905   3.206   6.315   3.343
 1336SOL     OW 4906   1.963   1.121   6.314
 1336SOL    HW1 4907   2.027   1.170   6.374
 1336SOL    HW2 4908   1.873   1.117   6.358
 1337SOL     OW 4909   0.806   1.442   5.169
 1337SOL    HW1 4910   0.862   1.499   5.109
 1337SOL    HW2 4911   0.716   1.484   5.181
 1338SOL     OW 4912   4.323   3.803   5.973
 1338SOL    HW1 4913   4.406   3.801   5.917
 1338SOL    HW2 4914   4.245   3.774   5.918
 1339SOL     OW 4915   0.207   6.719   0.042
 1339SOL    HW1 4916   0.184   6.759   0.131
 1339SOL    HW2 4917   0.305   6.702   0.037
 1340SOL     OW 4918   1.171   1.533   2.013
 1340SOL    HW1 4919   1.253   1.481   1.988
 1340SOL    HW2 4920   1.090   1.487   1.979
 1341SOL     OW 4921   3.849   0.245   5.221
 1341SOL    HW1 4922   3.790   0.222   5.144
 1341SOL    HW2 4923   3.826   0.336   5.255
 1342SOL     OW 4924   1.066   5.103   6.110
 1342SOL    HW1 4925   0.972   5.135   6.112
 1342SOL    HW2 4926   1.098   5.100   6.016
 1343SOL     OW 4927   4.109   6.649   2.695
 1343SOL    HW1 4928   4.079   6.556   2.672
 1343SOL    HW2 4929   4.208   6.649   2.709
 1344SOL     OW 4930   6.742   3.861   3.473
 1344SOL    HW1 4931   6.824   3.846   3.528
 1344SOL    HW2 4932   6.722   3.959   3.469
 1345SOL     OW 4933   0.548   1.695   3.653
 1345SOL    HW1 4934   0.586   1.607   3.683
 1345SOL    HW2 4935   0.497   1.736   3.729
 1346SOL     OW 4936   2.086   0.089   2.854
 1346SOL    HW1 4937   2.012   0.155   2.868
 1346SOL    HW2 4938   2.099   0.074   2.757
 1347SOL     OW 4939   6.239   6.401   3.769
 1347SOL    HW1 4940   6.199   6.492   3.756
 1347SOL    HW2 4941   6.336   6.410   3.791
 1348SOL     OW 4942   5.691   5.435   3.039
 1348SOL    HW1 4943   5.717   5.518   2.988
 1348SOL    HW2 4944   5.592   5.431   3.048
 1349SOL     OW 4945   5.016   2.596   6.323
 1349SOL    HW1 4946   5.001   2.590   6.422
 1349SOL    HW2 4947   4.946   2.655   6.282
 1350SOL     OW 4948   3.746   4.599   6.849
 1350SOL    HW1 4949   3.812   4.531   6.816
 1350SOL    HW2 4950   3.787   4.690   6.844
 1351SOL     OW 4951   0.307   1.561   2.989
 1351SOL    HW1 4952   0.292   1.588   2.894
 1351SOL    HW2 4953   0.219   1.541   3.032
 1352SOL     OW 4954   0.560   0.906   3.237
 1352SOL    HW1 4955   0.596   0.865   3.321
 1352SOL    HW2 4956   0.592   0.854   3.158
 1353SOL     OW 4957   6.993   4.326   5.800
 1353SOL    HW1 4958   0.000   4.273   5.878
 1353SOL    HW2 4959   6.893   4.324   5.798
 1354SOL     OW 4960   0.103   1.907   0.575
 1354SOL    HW1 4961   0.097   1.809   0.595
 1354SOL    HW2 4962   0.194   1.929   0.539
 1355SOL     OW 4963   5.264   3.473   6.171
 1355SOL    HW1 4964   5.248   3.533   6.249
 1355SOL    HW2 4965   5.186   3.476   6.109
 1356SOL     OW 4966   3.271   3.905   4.221
 1356SOL    HW1 4967   3.319   3.949   4.296
 1356SOL    HW2 4968   3.230   3.976   4.163
 1357SOL     OW 4969   2.793   3.058   5.819
 1357SOL    HW1 4970   2.767   3.049   5.915
 1357SOL    HW2 4971   2.763   2.976   5.769
 1358SOL     OW 4972   2.981   1.751   6.253
 1358SOL    HW1 4973   2.927   1.819   6.302
 1358SOL    HW2 4974   3.074   1.785   6.241
 1359SOL     OW 4975   6.927   4.482   1.119
 1359SOL    HW1 4976   6.891   4.573   1.098
 1359SOL    HW2 4977   7.024   4.479   1.092
 1360SOL     OW 4978   4.151   3.461   2.901
 1360SOL    HW1 4979   4.163   3.397   2.978
 1360SOL    HW2 4980   4.139   3.553   2.936
 1361SOL     OW 4981   6.852   6.915   6.633
 1361SOL    HW1 4982   6.855   7.007   6.674
 1361SOL    HW2 4983   6.945   6.882   6.619
 1362SOL     OW 4984   2.913   3.544   4.906
 1362SOL    HW1 4985   2.863   3.459   4.889
 1362SOL    HW2 4986   3.011   3.528   4.896
 1363SOL     OW 4987   6.910   6.245   3.912
 1363SOL    HW1 4988   6.968   6.246   3.993
 1363SOL    HW2 4989   6.967   6.247   3.830
 1364SOL     OW 4990   0.220   2.307   6.703
 1364SOL    HW1 4991   0.166   2.230   6.736
 1364SOL    HW2 4992   0.307   2.310   6.752
 1365SOL     OW 4993   1.429   3.603   5.437
 1365SOL    HW1 4994   1.385   3.645   5.516
 1365SOL    HW2 4995   1.398   3.508   5.428
 1366SOL     OW 4996   0.332   4.118   0.950
 1366SOL    HW1 4997   0.347   4.078   1.040
 1366SOL    HW2 4998   0.400   4.083   0.886
 1367SOL     OW 4999   1.069   5.258   3.163
 1367SOL    HW1 5000   1.018   5.330   3.210
 1367SOL    HW2 5001   1.088   5.287   3.069
 1368SOL     OW 5002   6.618   0.514   4.068
 1368SOL    HW1 5003   6.682   0.581   4.105
 1368SOL    HW2 5004   6.642   0.423   4.100
 1369SOL     OW 5005   2.260   6.401   2.171
 1369SOL    HW1 5006   2.334   6.427   2.232
 1369SOL    HW2 5007   2.298   6.355   2.090
 1370SOL     OW 5008   6.516   2.092   4.080
 1370SOL    HW1 5009   6.579   2.147   4.024
 1370SOL    HW2 5010   6.424   2.097   4.042
 1371SOL     OW 5011   4.838   1.093   4.917
 1371SOL    HW1 5012   4.760   1.031   4.925
 1371SOL    HW2 5013   4.812   1.173   4.863
 1372SOL     OW 5014   7.011   1.947   1.289
 1372SOL    HW1 5015   7.004   2.034   1.239
 1372SOL    HW2 5016   6.966   1.875   1.236
 1373SOL     OW 5017   4.810   1.992   0.436
 1373SOL    HW1 5018   4.866   1.982   0.519
 1373SOL    HW2 5019   4.834   2.077   0.390
 1374SOL     OW 5020   5.416   4.186   6.806
 1374SOL    HW1 5021   5.347   4.259   6.797
 1374SOL    HW2 5022   5.423   4.159   6.901
 1375SOL     OW 5023   0.072   6.803   6.572
 1375SOL    HW1 5024   0.119   6.837   6.491
 1375SOL    HW2 5025   0.043   6.709   6.557
 1376SOL     OW 5026   3.670   4.660   5.628
 1376SOL    HW1 5027   3.608   4.738   5.619
 1376SOL    HW2 5028   3.671   4.629   5.723
 1377SOL     OW 5029   1.154   3.079   3.583
 1377SOL    HW1 5030   1.179   3.010   3.516
 1377SOL    HW2 5031   1.118   3.035   3.665
 1378SOL     OW 5032   5.132   2.707   4.678
 1378SOL    HW1 5033   5.176   2.617   4.675
 1378SOL    HW2 5034   5.044   2.699   4.724
 1379SOL     OW 5035   4.413   5.554   3.007
 1379SOL    HW1 5036   4.476   5.560   3.084
 1379SOL    HW2 5037   4.455   5.502   2.933
 1380SOL     OW 5038   6.923   6.393   2.885
 1380SOL    HW1 5039   6.890   6.391   2.791
 1380SOL    HW2 5040   6.863   6.338   2.943
 1381SOL     OW 5041   5.984   1.878   0.285
 1381SOL    HW1 5042   6.040   1.879   0.368
 1381SOL    HW2 5043   5.888   1.893   0.309
 1382SOL     OW 5044   4.958   2.924   1.324
 1382SOL    HW1 5045   4.920   2.986   1.255
 1382SOL    HW2 5046   4.940   2.961   1.416
 1383SOL     OW 5047   1.150   0.248   1.543
 1383SOL    HW1 5048   1.222   0.259   1.475
 1383SOL    HW2 5049   1.189   0.212   1.628
 1384SOL     OW 5050   4.684   6.864   1.523
 1384SOL    HW1 5051   4.731   6.819   1.598
 1384SOL    HW2 5052   4.672   6.800   1.447
 1385SOL     OW 5053   2.576   4.781   3.691
 1385SOL    HW1 5054   2.523   4.865   3.681
 1385SOL    HW2 5055   2.669   4.804   3.719
 1386SOL     OW 5056   3.381   0.250   4.001
 1386SOL    HW1 5057   3.403   0.155   3.981
 1386SOL    HW2 5058   3.310   0.282   3.937
 1387SOL     OW 5059   3.320   5.848   2.681
 1387SOL    HW1 5060   3.300   5.942   2.711
 1387SOL    HW2 5061   3.242   5.812   2.630
 1388SOL     OW 5062   6.633   6.960   2.183
 1388SOL    HW1 5063   6.672   0.021   2.217
 1388SOL    HW2 5064   6.697   6.885   2.199
 1389SOL     OW 5065   6.181   1.863   4.335
 1389SOL    HW1 5066   6.138   1.817   4.257
 1389SOL    HW2 5067   6.268   1.819   4.356
 1390SOL     OW 5068   0.367   3.678   6.662
 1390SOL    HW1 5069   0.423   3.635   6.592
 1390SOL    HW2 5070   0.312   3.750   6.622
 1391SOL     OW 5071   6.107   6.685   4.609
 1391SOL    HW1 5072   6.054   6.660   4.527
 1391SOL    HW2 5073   6.181   6.619   4.622
 1392SOL     OW 5074   6.085   6.116   6.267
 1392SOL    HW1 5075   6.177   6.151   6.283
 1392SOL    HW2 5076   6.039   6.174   6.200
 1393SOL     OW 5077   6.078   4.608   5.306
 1393SOL    HW1 5078   6.158   4.613   5.365
 1393SOL    HW2 5079   6.008   4.671   5.340
 1394SOL     OW 5080   3.368   5.170   5.229
 1394SOL    HW1 5081   3.276   5.142   5.257
 1394SOL    HW2 5082   3.434   5.142   5.298
 1395SOL     OW 5083   2.692   4.234   5.602
 1395SOL    HW1 5084   2.693   4.204   5.506
 1395SOL    HW2 5085   2.785   4.234   5.638
 1396SOL     OW 5086   1.121   1.318   5.427
 1396SOL    HW1 5087   1.159   1.383   5.492
 1396SOL    HW2 5088   1.176   1.318   5.343
 1397SOL     OW 5089   6.952   0.144   4.063
 1397SOL    HW1 5090   6.882   0.124   4.131
 1397SOL    HW2 5091   0.001   0.077   4.070
 1398SOL     OW 5092   3.170   0.515   6.266
 1398SOL    HW1 5093   3.099   0.521   6.195
 1398SOL    HW2 5094   3.253   0.475   6.227
 1399SOL     OW 5095   3.535   5.438   0.404
 1399SOL    HW1 5096   3.500   5.348   0.427
 1399SOL    HW2 5097   3.598   5.469   0.476
 1400SOL     OW 5098   6.985   1.438   3.083
 1400SOL    HW1 5099   6.918   1.365   3.099
 1400SOL    HW2 5100   6.967   1.481   2.995
 1401SOL     OW 5101   6.323   1.473   4.510
 1401SOL    HW1 5102   6.306   1.406   4.436
 1401SOL    HW2 5103   6.351   1.424   4.592
 1402SOL     OW 5104   0.086   3.671   0.111
 1402SOL    HW1 5105   0.110   3.576   0.132
 1402SOL    HW2 5106   0.071   3.681   0.013
 1403SOL     OW 5107   2.119   2.384   1.495
 1403SOL    HW1 5108   2.164   2.346   1.576
 1403SOL    HW2 5109   2.132   2.483   1.493
 1404SOL     OW 5110   5.809   6.577   0.068
 1404SOL    HW1 5111   5.885   6.518   0.038
 1404SOL    HW2 5112   5.844   6.668   0.089
 1405SOL     OW 5113   2.235   3.931   0.992
 1405SOL    HW1 5114   2.167   3.858   0.991
 1405SOL    HW2 5115   2.199   4.010   1.043
 1406SOL     OW 5116   1.056   5.389   0.937
 1406SOL    HW1 5117   0.969   5.435   0.919
 1406SOL    HW2 5118   1.068   5.378   1.036
 1407SOL     OW 5119   0.363   2.356   2.462
 1407SOL    HW1 5120   0.431   2.413   2.416
 1407SOL    HW2 5121   0.388   2.347   2.558
 1408SOL     OW 5122   5.459   1.095   5.912
 1408SOL    HW1 5123   5.503   1.141   5.989
 1408SOL    HW2 5124   5.374   1.142   5.889
 1409SOL     OW 5125   0.454   0.405   5.339
 1409SOL    HW1 5126   0.429   0.308   5.343
 1409SOL    HW2 5127   0.446   0.437   5.244
 1410SOL     OW 5128   1.632   3.120   6.571
 1410SOL    HW1 5129   1.600   3.138   6.664
 1410SOL    HW2 5130   1.618   3.202   6.514
 1411SOL     OW 5131   3.018   6.804   1.181
 1411SOL    HW1 5132   3.070   6.728   1.222
 1411SOL    HW2 5133   3.081   6.869   1.139
 1412SOL     OW 5134   0.314   1.983   1.115
 1412SOL    HW1 5135   0.249   1.917   1.075
 1412SOL    HW2 5136   0.395   1.988   1.058
 1413SOL     OW 5137   1.768   2.048   5.388
 1413SOL    HW1 5138   1.831   1.995   5.445
 1413SOL    HW2 5139   1.818   2.125   5.347
 1414SOL     OW 5140   2.318   1.587   2.477
 1414SOL    HW1 5141   2.295   1.544   2.390
 1414SOL    HW2 5142   2.285   1.682   2.477
 1415SOL     OW 5143   2.564   0.885   4.808
 1415SOL    HW1 5144   2.564   0.845   4.899
 1415SOL    HW2 5145   2.545   0.813   4.740
 1416SOL     OW 5146   5.215   5.303   4.651
 1416SOL    HW1 5147   5.160   5.234   4.698
 1416SOL    HW2 5148   5.228   5.276   4.556
 1417SOL     OW 5149   2.851   2.145   0.127
 1417SOL    HW1 5150   2.780   2.087   0.086
 1417SOL    HW2 5151   2.881   2.213   0.061
 1418SOL     OW 5152   3.115   3.734   3.294
 1418SOL    HW1 5153   3.131   3.636   3.309
 1418SOL    HW2 5154   3.088   3.750   3.200
 1419SOL     OW 5155   2.574   5.420   4.524
 1419SOL    HW1 5156   2.505   5.356   4.559
 1419SOL    HW2 5157   2.646   5.433   4.593
 1420SOL     OW 5158   2.707   0.288   0.876
 1420SOL    HW1 5159   2.783   0.353   0.877
 1420SOL    HW2 5160   2.627   0.328   0.921
 1421SOL     OW 5161   1.906   4.166   2.949
 1421SOL    HW1 5162   1.945   4.174   3.041
 1421SOL    HW2 5163   1.898   4.257   2.908
 1422SOL     OW 5164   1.300   3.796   1.331
 1422SOL    HW1 5165   1.346   3.709   1.309
 1422SOL    HW2 5166   1.233   3.817   1.259
 1423SOL     OW 5167   5.139   6.402   3.214
 1423SOL    HW1 5168   5.126   6.500   3.200
 1423SOL    HW2 5169   5.083   6.372   3.291
 1424SOL     OW 5170   6.621   5.294   6.509
 1424SOL    HW1 5171   6.707   5.322   6.551
 1424SOL    HW2 5172   6.626   5.306   6.410
 1425SOL     OW 5173   0.980   6.193   4.804
 1425SOL    HW1 5174   0.937   6.172   4.892
 1425SOL    HW2 5175   0.931   6.268   4.760
 1426SOL     OW 5176   1.862   3.207   5.945
 1426SOL    HW1 5177   1.883   3.166   5.856
 1426SOL    HW2 5178   1.788   3.155   5.989
 1427SOL     OW 5179   0.297   0.234   3.603
 1427SOL    HW1 5180   0.389   0.219   3.568
 1427SOL    HW2 5181   0.281   0.176   3.683
 1428SOL     OW 5182   6.866   3.206   0.457
 1428SOL    HW1 5183   6.790   3.250   0.505
 1428SOL    HW2 5184   6.847   3.108   0.447
 1429SOL     OW 5185   4.506   2.224   7.016
 1429SOL    HW1 5186   4.521   2.216   0.090
 1429SOL    HW2 5187   4.429   2.167   6.989
 1430SOL     OW 5188   1.762   4.466   3.732
 1430SOL    HW1 5189   1.831   4.471   3.804
 1430SOL    HW2 5190   1.800   4.417   3.653
 1431SOL     OW 5191   2.559   2.144   0.883
 1431SOL    HW1 5192   2.559   2.243   0.898
 1431SOL    HW2 5193   2.646   2.106   0.913
 1432SOL     OW 5194   2.782   1.506   2.317
 1432SOL    HW1 5195   2.796   1.433   2.250
 1432SOL    HW2 5196   2.736   1.583   2.272
 1433SOL     OW 5197   4.046   0.625   5.387
 1433SOL    HW1 5198   4.138   0.661   5.405
 1433SOL    HW2 5199   3.979   0.698   5.401
 1434SOL     OW 5200   0.035   0.131   5.515
 1434SOL    HW1 5201   0.042   0.201   5.586
 1434SOL    HW2 5202   0.097   0.056   5.537
 1435SOL     OW 5203   6.238   0.435   3.173
 1435SOL    HW1 5204   6.317   0.377   3.156
 1435SOL    HW2 5205   6.172   0.425   3.099
 1436SOL     OW 5206   5.422   3.669   0.245
 1436SOL    HW1 5207   5.443   3.767   0.241
 1436SOL    HW2 5208   5.340   3.655   0.301
 1437SOL     OW 5209   2.627   2.262   3.539
 1437SOL    HW1 5210   2.559   2.189   3.550
 1437SOL    HW2 5211   2.668   2.256   3.448
 1438SOL     OW 5212   3.372   6.074   1.503
 1438SOL    HW1 5213   3.396   5.986   1.460
 1438SOL    HW2 5214   3.301   6.059   1.571
 1439SOL     OW 5215   6.912   5.527   1.424
 1439SOL    HW1 5216   6.877   5.559   1.512
 1439SOL    HW2 5217   6.970   5.598   1.384
 1440SOL     OW 5218   3.010   2.918   6.944
 1440SOL    HW1 5219   3.019   3.017   6.960
 1440SOL    HW2 5220   3.064   2.892   6.864
 1441SOL     OW 5221   6.287   0.645   3.746
 1441SOL    HW1 5222   6.248   0.556   3.725
 1441SOL    HW2 5223   6.239   0.715   3.692
 1442SOL     OW 5224   0.256   6.044   0.282
 1442SOL    HW1 5225   0.181   6.016   0.223
 1442SOL    HW2 5226   0.319   5.967   0.296
 1443SOL     OW 5227   0.560   3.164   3.587
 1443SOL    HW1 5228   0.563   3.262   3.572
 1443SOL    HW2 5229   0.559   3.116   3.499
 1444SOL     OW 5230   4.972   5.921   1.000
 1444SOL    HW1 5231   5.025   5.958   1.076
 1444SOL    HW2 5232   4.960   5.992   0.931
 1445SOL     OW 5233   1.158   2.689   3.359
 1445SOL    HW1 5234   1.182   2.770   3.305
 1445SOL    HW2 5235   1.190   2.701   3.453
 1446SOL     OW 5236   6.283   1.579   6.968
 1446SOL    HW1 5237   6.272   1.666   6.919
 1446SOL    HW2 5238   6.197   1.529   6.967
 1447SOL     OW 5239   5.838   6.295   4.468
 1447SOL    HW1 5240   5.888   6.299   4.381
 1447SOL    HW2 5241   5.893   6.336   4.540
 1448SOL     OW 5242   6.666   3.078   5.289
 1448SOL    HW1 5243   6.678   2.979   5.293
 1448SOL    HW2 5244   6.590   3.100   5.228
 1449SOL     OW 5245   1.627   3.041   5.954
 1449SOL    HW1 5246   1.532   3.062   5.929
 1449SOL    HW2 5247   1.665   2.976   5.888
 1450SOL     OW 5248   0.948   1.960   0.461
 1450SOL    HW1 5249   0.876   1.905   0.503
 1450SOL    HW2 5250   0.939   2.056   0.489
 1451SOL     OW 5251   0.669   6.087   2.596
 1451SOL    HW1 5252   0.576   6.095   2.561
 1451SOL    HW2 5253   0.672   6.018   2.668
 1452SOL     OW 5254   4.526   1.811   5.457
 1452SOL    HW1 5255   4.591   1.739   5.434
 1452SOL    HW2 5256   4.465   1.778   5.529
 1453SOL     OW 5257   0.582   4.208   5.858
 1453SOL    HW1 5258   0.553   4.304   5.863
 1453SOL    HW2 5259   0.682   4.203   5.861
 1454SOL     OW 5260   0.559   2.554   2.332
 1454SOL    HW1 5261   0.561   2.636   2.389
 1454SOL    HW2 5262   0.505   2.572   2.250
 1455SOL     OW 5263   1.854   6.969   1.838
 1455SOL    HW1 5264   1.901   6.883   1.859
 1455SOL    HW2 5265   1.909   7.021   1.772
 1456SOL     OW 5266   6.327   0.409   6.342
 1456SOL    HW1 5267   6.378   0.496   6.344
 1456SOL    HW2 5268   6.251   0.414   6.407
 1457SOL     OW 5269   0.837   6.333   1.207
 1457SOL    HW1 5270   0.778   6.256   1.181
 1457SOL    HW2 5271   0.879   6.315   1.296
 1458SOL     OW 5272   5.770   5.221   4.503
 1458SOL    HW1 5273   5.780   5.183   4.411
 1458SOL    HW2 5274   5.733   5.313   4.498
 1459SOL     OW 5275   3.701   6.354   5.930
 1459SOL    HW1 5276   3.715   6.276   5.869
 1459SOL    HW2 5277   3.785   6.372   5.981
 1460SOL     OW 5278   0.844   0.215   5.020
 1460SOL    HW1 5279   0.745   0.214   5.001
 1460SOL    HW2 5280   0.859   0.235   5.116
 1461SOL     OW 5281   6.467   4.096   2.668
 1461SOL    HW1 5282   6.552   4.138   2.638
 1461SOL    HW2 5283   6.486   4.012   2.718
 1462SOL     OW 5284   1.477   1.157   0.012
 1462SOL    HW1 5285   1.403   1.223   7.023
 1462SOL    HW2 5286   1.496   1.148   0.110
 1463SOL     OW 5287   0.065   5.696   6.164
 1463SOL    HW1 5288   0.138   5.632   6.189
 1463SOL    HW2 5289   0.061   5.704   6.065
 1464SOL     OW 5290   0.281   5.962   2.165
 1464SOL    HW1 5291   0.348   6.036   2.161
 1464SOL    HW2 5292   0.206   5.988   2.226
 1465SOL     OW 5293   1.536   1.235   4.090
 1465SOL    HW1 5294   1.612   1.206   4.148
 1465SOL    HW2 5295   1.453   1.244   4.146
 1466SOL     OW 5296   2.629   2.028   2.684
 1466SOL    HW1 5297   2.568   2.053   2.608
 1466SOL    HW2 5298   2.692   1.956   2.653
 1467SOL     OW 5299   2.177   1.313   3.665
 1467SOL    HW1 5300   2.122   1.256   3.726
 1467SOL    HW2 5301   2.272   1.314   3.696
 1468SOL     OW 5302   2.369   5.622   2.234
 1468SOL    HW1 5303   2.387   5.703   2.178
 1468SOL    HW2 5304   2.307   5.647   2.310
 1469SOL     OW 5305   7.022   0.481   2.844
 1469SOL    HW1 5306   7.008   0.391   2.887
 1469SOL    HW2 5307   0.094   0.495   2.827
 1470SOL     OW 5308   1.312   1.952   2.277
 1470SOL    HW1 5309   1.272   1.860   2.278
 1470SOL    HW2 5310   1.407   1.948   2.306
 1471SOL     OW 5311   0.719   0.280   0.706
 1471SOL    HW1 5312   0.763   0.204   0.659
 1471SOL    HW2 5313   0.681   0.344   0.639
 1472SOL     OW 5314   1.965   5.344   5.798
 1472SOL    HW1 5315   1.916   5.350   5.711
 1472SOL    HW2 5316   1.920   5.403   5.866
 1473SOL     OW 5317   3.564   5.668   5.499
 1473SOL    HW1 5318   3.594   5.707   5.586
 1473SOL    HW2 5319   3.605   5.718   5.424
 1474SOL     OW 5320   5.234   4.890   1.895
 1474SOL    HW1 5321   5.182   4.933   1.969
 1474SOL    HW2 5322   5.205   4.795   1.886
 1475SOL     OW 5323   5.371   0.708   1.353
 1475SOL    HW1 5324   5.276   0.681   1.337
 1475SOL    HW2 5325   5.397   0.777   1.286
 1476SOL     OW 5326   2.672   0.963   1.832
 1476SOL    HW1 5327   2.731   0.953   1.752
 1476SOL    HW2 5328   2.622   0.878   1.848
 1477SOL     OW 5329   3.323   6.568   6.007
 1477SOL    HW1 5330   3.394   6.535   5.945
 1477SOL    HW2 5331   3.272   6.490   6.045
 1478SOL     OW 5332   6.130   5.898   5.285
 1478SOL    HW1 5333   6.091   5.954   5.211
 1478SOL    HW2 5334   6.229   5.896   5.276
 1479SOL     OW 5335   2.475   2.675   1.043
 1479SOL    HW1 5336   2.396   2.716   0.998
 1479SOL    HW2 5337   2.539   2.747   1.069
 1480SOL     OW 5338   3.093   0.484   4.550
 1480SOL    HW1 5339   3.101   0.439   4.461
 1480SOL    HW2 5340   3.157   0.443   4.614
 1481SOL     OW 5341   6.111   3.259   6.450
 1481SOL    HW1 5342   6.089   3.230   6.357
 1481SOL    HW2 5343   6.072   3.193   6.515
 1482SOL     OW 5344   4.684   1.236   1.515
 1482SOL    HW1 5345   4.754   1.178   1.556
 1482SOL    HW2 5346   4.648   1.192   1.433
 1483SOL     OW 5347   5.211   2.266   5.639
 1483SOL    HW1 5348   5.215   2.231   5.545
 1483SOL    HW2 5349   5.121   2.246   5.679
 1484SOL     OW 5350   4.604   4.942   3.953
 1484SOL    HW1 5351   4.648   4.899   4.032
 1484SOL    HW2 5352   4.587   5.039   3.973
 1485SOL     OW 5353   4.402   0.769   4.558
 1485SOL    HW1 5354   4.357   0.844   4.607
 1485SOL    HW2 5355   4.349   0.745   4.477
 1486SOL     OW 5356   5.904   0.654   2.918
 1486SOL    HW1 5357   5.948   0.645   2.828
 1486SOL    HW2 5358   5.812   0.691   2.906
 1487SOL     OW 5359   0.269   2.521   0.184
 1487SOL    HW1 5360   0.195   2.541   0.120
 1487SOL    HW2 5361   0.336   2.463   0.139
 1488SOL     OW 5362   5.678   6.937   3.755
 1488SOL    HW1 5363   5.775   6.946   3.736
 1488SOL    HW2 5364   5.638   0.003   3.767
 1489SOL     OW 5365   4.392   5.387   6.334
 1489SOL    HW1 5366   4.397   5.289   6.314
 1489SOL    HW2 5367   4.346   5.401   6.422
 1490SOL     OW 5368   0.332   3.543   0.980
 1490SOL    HW1 5369   0.380   3.455   0.974
 1490SOL    HW2 5370   0.360   3.591   1.062
 1491SOL     OW 5371   6.277   4.843   2.061
 1491SOL    HW1 5372   6.347   4.865   2.129
 1491SOL    HW2 5373   6.317   4.790   1.987
 1492SOL     OW 5374   6.227   0.322   2.095
 1492SOL    HW1 5375   6.195   0.415   2.110
 1492SOL    HW2 5376   6.324   0.315   2.118
 1493SOL     OW 5377   3.909   6.653   6.187
 1493SOL    HW1 5378   3.848   6.685   6.114
 1493SOL    HW2 5379   3.870   6.678   6.276
 1494SOL     OW 5380   5.175   2.226   6.495
 1494SOL    HW1 5381   5.125   2.253   6.578
 1494SOL    HW2 5382   5.220   2.306   6.455
 1495SOL     OW 5383   0.691   3.962   5.291
 1495SOL    HW1 5384   0.658   3.894   5.357
 1495SOL    HW2 5385   0.704   3.918   5.202
 1496SOL     OW 5386   0.847   1.603   0.819
 1496SOL    HW1 5387   0.862   1.696   0.853
 1496SOL    HW2 5388   0.792   1.552   0.886
 1497SOL     OW 5389   5.092   2.894   2.630
 1497SOL    HW1 5390   5.132   2.981   2.659
 1497SOL    HW2 5391   4.993   2.897   2.644
 1498SOL     OW 5392   2.692   4.554   6.290
 1498SOL    HW1 5393   2.744   4.600   6.218
 1498SOL    HW2 5394   2.707   4.600   6.377
 1499SOL     OW 5395   0.750   2.270   5.114
 1499SOL    HW1 5396   0.726   2.173   5.106
 1499SOL    HW2 5397   0.668   2.323   5.132
 1500SOL     OW 5398   0.631   0.155   0.010
 1500SOL    HW1 5399   0.558   0.099   6.996
 1500SOL    HW2 5400   0.597   0.247   0.029
 1501SOL     OW 5401   5.413   2.196   6.351
 1501SOL    HW1 5402   5.328   2.158   6.389
 1501SOL    HW2 5403   5.447   2.268   6.412
 1502SOL     OW 5404   4.175   0.484   6.772
 1502SOL    HW1 5405   4.232   0.562   6.799
 1502SOL    HW2 5406   4.173   0.417   6.846
 1503SOL     OW 5407   1.444   2.855   2.236
 1503SOL    HW1 5408   1.348   2.836   2.215
 1503SOL    HW2 5409   1.455   2.868   2.335
 1504SOL     OW 5410   0.325   0.557   4.171
 1504SOL    HW1 5411   0.244   0.610   4.150
 1504SOL    HW2 5412   0.389   0.613   4.225
 1505SOL     OW 5413   4.441   0.472   5.122
 1505SOL    HW1 5414   4.453   0.521   5.208
 1505SOL    HW2 5415   4.346   0.442   5.114
 1506SOL     OW 5416   0.605   6.346   0.498
 1506SOL    HW1 5417   0.656   6.432   0.500
 1506SOL    HW2 5418   0.513   6.361   0.535
 1507SOL     OW 5419   6.846   1.776   5.709
 1507SOL    HW1 5420   6.866   1.789   5.612
 1507SOL    HW2 5421   6.922   1.810   5.764
 1508SOL     OW 5422   6.175   1.150   0.925
 1508SOL    HW1 5423   6.194   1.201   1.009
 1508SOL    HW2 5424   6.093   1.095   0.938
 1509SOL     OW 5425   4.181   1.861   5.085
 1509SOL    HW1 5426   4.134   1.791   5.139
 1509SOL    HW2 5427   4.278   1.864   5.110
 1510SOL     OW 5428   5.078   0.930   4.814
 1510SOL    HW1 5429   5.134   1.013   4.812
 1510SOL    HW2 5430   4.986   0.952   4.847
 1511SOL     OW 5431   3.921   3.352   3.488
 1511SOL    HW1 5432   3.918   3.288   3.565
 1511SOL    HW2 5433   3.829   3.385   3.467
 1512SOL     OW 5434   6.492   6.243   1.043
 1512SOL    HW1 5435   6.499   6.148   1.072
 1512SOL    HW2 5436   6.558   6.299   1.094
 1513SOL     OW 5437   3.913   0.736   4.701
 1513SOL    HW1 5438   3.938   0.808   4.767
 1513SOL    HW2 5439   3.987   0.669   4.697
 1514SOL     OW 5440   3.911   2.870   5.233
 1514SOL    HW1 5441   3.993   2.813   5.234
 1514SOL    HW2 5442   3.852   2.846   5.310
 1515SOL     OW 5443   5.192   2.310   2.212
 1515SOL    HW1 5444   5.191   2.217   2.248
 1515SOL    HW2 5445   5.186   2.375   2.288
 1516SOL     OW 5446   6.291   5.768   5.673
 1516SOL    HW1 5447   6.378   5.735   5.636
 1516SOL    HW2 5448   6.217   5.747   5.609
 1517SOL     OW 5449   3.841   5.609   2.769
 1517SOL    HW1 5450   3.932   5.628   2.807
 1517SOL    HW2 5451   3.771   5.645   2.831
 1518SOL     OW 5452   0.264   2.242   0.364
 1518SOL    HW1 5453   0.320   2.300   0.423
 1518SOL    HW2 5454   0.168   2.269   0.373
 1519SOL     OW 5455   6.694   4.615   1.492
 1519SOL    HW1 5456   6.673   4.671   1.573
 1519SOL    HW2 5457   6.785   4.638   1.458
 1520SOL     OW 5458   0.376   4.487   1.858
 1520SOL    HW1 5459   0.390   4.495   1.759
 1520SOL    HW2 5460   0.319   4.407   1.877
 1521SOL     OW 5461   2.309   4.605   6.442
 1521SOL    HW1 5462   2.236   4.538   6.432
 1521SOL    HW2 5463   2.397   4.562   6.424
 1522SOL     OW 5464   5.651   6.284   5.090
 1522SOL    HW1 5465   5.616   6.321   5.176
 1522SOL    HW2 5466   5.646   6.354   5.019
 1523SOL     OW 5467   4.376   6.566   6.845
 1523SOL    HW1 5468   4.278   6.547   6.842
 1523SOL    HW2 5469   4.427   6.481   6.829
 1524SOL     OW 5470   2.109   1.722   2.954
 1524SOL    HW1 5471   2.135   1.813   2.922
 1524SOL    HW2 5472   2.160   1.700   3.037
 1525SOL     OW 5473   6.304   3.470   0.409
 1525SOL    HW1 5474   6.334   3.406   0.339
 1525SOL    HW2 5475   6.371   3.474   0.483
 1526SOL     OW 5476   6.822   0.866   0.114
 1526SOL    HW1 5477   6.744   0.851   0.176
 1526SOL    HW2 5478   6.903   0.823   0.153
 1527SOL     OW 5479   4.118   1.711   4.858
 1527SOL    HW1 5480   4.059   1.777   4.811
 1527SOL    HW2 5481   4.156   1.753   4.940
 1528SOL     OW 5482   3.913   4.878   2.750
 1528SOL    HW1 5483   3.967   4.868   2.667
 1528SOL    HW2 5484   3.968   4.850   2.829
 1529SOL     OW 5485   4.027   0.127   0.117
 1529SOL    HW1 5486   3.998   0.166   0.204
 1529SOL    HW2 5487   4.086   0.047   0.134
 1530SOL     OW 5488   4.022   1.837   2.489
 1530SOL    HW1 5489   3.952   1.827   2.560
 1530SOL    HW2 5490   3.979   1.828   2.399
 1531SOL     OW 5491   4.561   6.848   5.470
 1531SOL    HW1 5492   4.480   6.810   5.514
 1531SOL    HW2 5493   4.554   6.838   5.371
 1532SOL     OW 5494   3.569   3.849   6.278
 1532SOL    HW1 5495   3.576   3.919   6.349
 1532SOL    HW2 5496   3.605   3.762   6.313
 1533SOL     OW 5497   5.819   5.226   6.802
 1533SOL    HW1 5498   5.782   5.158   6.866
 1533SOL    HW2 5499   5.828   5.314   6.849
 1534SOL     OW 5500   2.808   5.759   6.886
 1534SOL    HW1 5501   2.762   5.765   6.798
 1534SOL    HW2 5502   2.739   5.754   6.959
 1535SOL     OW 5503   4.866   6.195   4.343
 1535SOL    HW1 5504   4.802   6.191   4.420
 1535SOL    HW2 5505   4.957   6.166   4.373
 1536SOL     OW 5506   3.736   4.417   5.498
 1536SOL    HW1 5507   3.660   4.372   5.545
 1536SOL    HW2 5508   3.702   4.499   5.452
 1537SOL     OW 5509   4.042   5.739   3.779
 1537SOL    HW1 5510   4.114   5.673   3.799
 1537SOL    HW2 5511   4.074   5.802   3.707
 1538SOL     OW 5512   3.113   6.903   6.391
 1538SOL    HW1 5513   3.035   6.927   6.332
 1538SOL    HW2 5514   3.149   6.986   6.433
 1539SOL     OW 5515   4.844   3.736   1.888
 1539SOL    HW1 5516   4.798   3.675   1.823
 1539SOL    HW2 5517   4.941   3.715   1.890
 1540SOL     OW 5518   0.528   6.250   4.978
 1540SOL    HW1 5519   0.439   6.220   5.013
 1540SOL    HW2 5520   0.580   6.293   5.051
 1541SOL     OW 5521   3.122   3.248   3.943
 1541SOL    HW1 5522   3.077   3.213   4.026
 1541SOL    HW2 5523   3.213   3.283   3.966
 1542SOL     OW 5524   6.560   0.101   2.632
 1542SOL    HW1 5525   6.656   0.123   2.643
 1542SOL    HW2 5526   6.510   0.123   2.716
 1543SOL     OW 5527   3.490   4.862   5.142
 1543SOL    HW1 5528   3.421   4.896   5.079
 1543SOL    HW2 5529   3.581   4.868   5.100
 1544SOL     OW 5530   3.273   3.335   2.696
 1544SOL    HW1 5531   3.183   3.303   2.727
 1544SOL    HW2 5532   3.262   3.420   2.645
 1545SOL     OW 5533   5.096   0.611   2.968
 1545SOL    HW1 5534   5.043   0.526   2.970
 1545SOL    HW2 5535   5.072   0.667   3.047
 1546SOL     OW 5536   3.997   6.503   5.580
 1546SOL    HW1 5537   3.939   6.531   5.656
 1546SOL    HW2 5538   4.053   6.580   5.550
 1547SOL     OW 5539   2.225   4.018   1.655
 1547SOL    HW1 5540   2.175   3.933   1.675
 1547SOL    HW2 5541   2.165   4.096   1.669
 1548SOL     OW 5542   5.535   3.757   6.073
 1548SOL    HW1 5543   5.594   3.746   6.153
 1548SOL    HW2 5544   5.590   3.753   5.990
 1549SOL     OW 5545   4.125   1.879   1.822
 1549SOL    HW1 5546   4.096   1.974   1.818
 1549SOL    HW2 5547   4.099   1.832   1.738
 1550SOL     OW 5548   2.228   3.773   0.034
 1550SOL    HW1 5549   2.266   3.710   0.102
 1550SOL    HW2 5550   2.253   3.742   6.967
 1551SOL     OW 5551   2.081   4.156   6.113
 1551SOL    HW1 5552   2.048   4.165   6.207
 1551SOL    HW2 5553   2.109   4.061   6.097
 1552SOL     OW 5554   1.450   5.756   0.043
 1552SOL    HW1 5555   1.355   5.790   0.039
 1552SOL    HW2 5556   1.449   5.657   0.056
 1553SOL     OW 5557   6.880   1.865   6.657
 1553SOL    HW1 5558   6.946   1.912   6.598
 1553SOL    HW2 5559   6.787   1.890   6.629
 1554SOL     OW 5560   4.013   2.174   2.668
 1554SOL    HW1 5561   4.080   2.111   2.708
 1554SOL    HW2 5562   4.028   2.266   2.703
 1555SOL     OW 5563   5.161   2.701   0.504
 1555SOL    HW1 5564   5.147   2.636   0.578
 1555SOL    HW2 5565   5.163   2.652   0.417
 1556SOL     OW 5566   2.942   1.849   0.261
 1556SOL    HW1 5567   2.872   1.916   0.285
 1556SOL    HW2 5568   2.961   1.854   0.162
 1557SOL     OW 5569   1.909   2.228   5.235
 1557SOL    HW1 5570   1.869   2.317   5.256
 1557SOL    HW2 5571   1.995   2.217   5.286
 1558SOL     OW 5572   6.063   0.840   4.901
 1558SOL    HW1 5573   5.966   0.861   4.890
 1558SOL    HW2 5574   6.105   0.826   4.811
 1559SOL     OW 5575   1.713   2.864   6.896
 1559SOL    HW1 5576   1.749   2.950   6.932
 1559SOL    HW2 5577   1.692   2.802   6.972
 1560SOL     OW 5578   6.879   1.010   5.572
 1560SOL    HW1 5579   6.884   0.975   5.666
 1560SOL    HW2 5580   6.907   0.938   5.508
 1561SOL     OW 5581   6.052   6.518   4.145
 1561SOL    HW1 5582   6.115   6.528   4.222
 1561SOL    HW2 5583   6.048   6.603   4.093
 1562SOL     OW 5584   4.509   5.439   2.790
 1562SOL    HW1 5585   4.504   5.356   2.846
 1562SOL    HW2 5586   4.558   5.419   2.705
 1563SOL     OW 5587   2.413   6.900   5.418
 1563SOL    HW1 5588   2.426   6.970   5.488
 1563SOL    HW2 5589   2.320   6.863   5.426
 1564SOL     OW 5590   1.250   2.482   3.774
 1564SOL    HW1 5591   1.287   2.415   3.709
 1564SOL    HW2 5592   1.190   2.435   3.839
 1565SOL     OW 5593   4.344   4.624   3.484
 1565SOL    HW1 5594   4.417   4.574   3.531
 1565SOL    HW2 5595   4.275   4.653   3.550
 1566SOL     OW 5596   5.880   4.804   2.878
 1566SOL    HW1 5597   5.785   4.777   2.892
 1566SOL    HW2 5598   5.892   4.834   2.783
 1567SOL     OW 5599   6.389   6.130   0.743
 1567SOL    HW1 5600   6.401   6.218   0.790
 1567SOL    HW2 5601   6.320   6.076   0.791
 1568SOL     OW 5602   1.387   6.698   0.098
 1568SOL    HW1 5603   1.479   6.729   0.072
 1568SOL    HW2 5604   1.331   6.776   0.123
 1569SOL     OW 5605   4.603   6.218   3.230
 1569SOL    HW1 5606   4.687   6.266   3.256
 1569SOL    HW2 5607   4.531   6.238   3.296
 1570SOL     OW 5608   1.962   0.393   1.511
 1570SOL    HW1 5609   1.920   0.470   1.560
 1570SOL    HW2 5610   2.061   0.404   1.511
 1571SOL     OW 5611   5.157   2.433   1.153
 1571SOL    HW1 5612   5.186   2.344   1.190
 1571SOL    HW2 5613   5.088   2.419   1.082
 1572SOL     OW 5614   0.524   6.524   0.892
 1572SOL    HW1 5615   0.509   6.596   0.824
 1572SOL    HW2 5616   0.449   6.458   0.888
 1573SOL     OW 5617   5.392   2.689   2.704
 1573SOL    HW1 5618   5.390   2.708   2.606
 1573SOL    HW2 5619   5.318   2.625   2.727
 1574SOL     OW 5620   6.434   0.608   1.632
 1574SOL    HW1 5621   6.468   0.632   1.541
 1574SOL    HW2 5622   6.379   0.525   1.626
 1575SOL     OW 5623   3.497   1.201   0.803
 1575SOL    HW1 5624   3.597   1.206   0.793
 1575SOL    HW2 5625   3.457   1.167   0.718
 1576SOL     OW 5626   0.551   6.926   3.587
 1576SOL    HW1 5627   0.488   6.899   3.514
 1576SOL    HW2 5628   0.644   6.927   3.550
 1577SOL     OW 5629   3.275   2.154   4.580
 1577SOL    HW1 5630   3.208   2.162   4.654
 1577SOL    HW2 5631   3.364   2.187   4.612
 1578SOL     OW 5632   6.492   3.262   6.056
 1578SOL    HW1 5633   6.558   3.257   6.131
 1578SOL    HW2 5634   6.538   3.247   5.969
 1579SOL     OW 5635   6.705   1.613   3.147
 1579SOL    HW1 5636   6.751   1.617   3.058
 1579SOL    HW2 5637   6.648   1.695   3.158
 1580SOL     OW 5638   2.828   3.931   5.201
 1580SOL    HW1 5639   2.769   3.878   5.139
 1580SOL    HW2 5640   2.846   3.877   5.283
 1581SOL     OW 5641   0.289   4.277   4.817
 1581SOL    HW1 5642   0.304   4.375   4.810
 1581SOL    HW2 5643   0.306   4.248   4.912
 1582SOL     OW 5644   1.377   6.752   4.425
 1582SOL    HW1 5645   1.376   6.733   4.523
 1582SOL    HW2 5646   1.344   6.845   4.408
 1583SOL     OW 5647   0.942   4.349   3.385
 1583SOL    HW1 5648   1.010   4.295   3.434
 1583SOL    HW2 5649   0.859   4.295   3.372
 1584SOL     OW 5650   1.476   6.809   5.104
 1584SOL    HW1 5651   1.485   6.896   5.055
 1584SOL    HW2 5652   1.384   6.772   5.088
 1585SOL     OW 5653   5.734   1.655   3.457
 1585SOL    HW1 5654   5.765   1.582   3.397
 1585SOL    HW2 5655   5.724   1.740   3.404
 1586SOL     OW 5656   3.208   4.128   0.922
 1586SOL    HW1 5657   3.224   4.061   0.850
 1586SOL    HW2 5658   3.124   4.104   0.971
 1587SOL     OW 5659   2.842   5.789   6.568
 1587SOL    HW1 5660   2.900   5.860   6.608
 1587SOL    HW2 5661   2.750   5.795   6.606
 1588SOL     OW 5662   5.137   1.514   3.038
 1588SOL    HW1 5663   5.084   1.445   2.988
 1588SOL    HW2 5664   5.209   1.468   3.090
 1589SOL     OW 5665   6.186   4.367   2.227
 1589SOL    HW1 5666   6.141   4.306   2.292
 1589SOL    HW2 5667   6.178   4.461   2.261
 1590SOL     OW 5668   2.569   6.055   6.489
 1590SOL    HW1 5669   2.530   6.140   6.454
 1590SOL    HW2 5670   2.611   6.072   6.578
 1591SOL     OW 5671   0.519   5.173   2.555
 1591SOL    HW1 5672   0.525   5.249   2.620
 1591SOL    HW2 5673   0.450   5.108   2.586
 1592SOL     OW 5674   1.879   4.458   1.094
 1592SOL    HW1 5675   1.802   4.507   1.053
 1592SOL    HW2 5676   1.962   4.512   1.083
 1593SOL     OW 5677   0.502   6.511   3.707
 1593SOL    HW1 5678   0.523   6.540   3.613
 1593SOL    HW2 5679   0.521   6.587   3.770
 1594SOL     OW 5680   6.629   5.953   2.725
 1594SOL    HW1 5681   6.609   5.855   2.720
 1594SOL    HW2 5682   6.694   5.977   2.652
 1595SOL     OW 5683   1.255   5.095   0.016
 1595SOL    HW1 5684   1.309   5.106   0.100
 1595SOL    HW2 5685   1.313   5.056   6.969
 1596SOL     OW 5686   0.631   3.358   4.696
 1596SOL    HW1 5687   0.677   3.326   4.614
 1596SOL    HW2 5688   0.699   3.390   4.763
 1597SOL     OW 5689   2.272   6.177   6.959
 1597SOL    HW1 5690   2.172   6.183   6.961
 1597SOL    HW2 5691   2.308   6.202   0.024
 1598SOL     OW 5692   0.888   3.605   0.131
 1598SOL    HW1 5693   0.865   3.559   0.217
 1598SOL    HW2 5694   0.806   3.614   0.075
 1599SOL     OW 5695   4.870   4.268   5.754
 1599SOL    HW1 5696   4.939   4.328   5.795
 1599SOL    HW2 5697   4.864   4.285   5.656
 1600SOL     OW 5698   5.046   2.112   5.184
 1600SOL    HW1 5699   5.092   2.082   5.100
 1600SOL    HW2 5700   4.987   2.039   5.217
 1601SOL     OW 5701   6.942   4.514   4.413
 1601SOL    HW1 5702   6.916   4.427   4.454
 1601SOL    HW2 5703   7.023   4.501   4.355
 1602SOL     OW 5704   2.139   5.047   3.903
 1602SOL    HW1 5705   2.159   4.956   3.939
 1602SOL    HW2 5706   2.154   5.115   3.975
 1603SOL     OW 5707   0.212   6.078   2.611
 1603SOL    HW1 5708   0.284   6.134   2.569
 1603SOL    HW2 5709   0.177   6.014   2.543
 1604SOL     OW 5710   6.379   4.516   6.520
 1604SOL    HW1 5711   6.364   4.417   6.527
 1604SOL    HW2 5712   6.451   4.543   6.583
 1605SOL     OW 5713   6.192   6.581   2.269
 1605SOL    HW1 5714   6.174   6.546   2.360
 1605SOL    HW2 5715   6.291   6.582   2.252
 1606SOL     OW 5716   3.275   0.367   4.943
 1606SOL    HW1 5717   3.336   0.335   5.016
 1606SOL    HW2 5718   3.323   0.361   4.855
 1607SOL     OW 5719   4.352   2.319   0.332
 1607SOL    HW1 5720   4.435   2.266   0.312
 1607SOL    HW2 5721   4.273   2.257   0.334
 1608SOL     OW 5722   1.440   0.584   5.260
 1608SOL    HW1 5723   1.390   0.654   5.309
 1608SOL    HW2 5724   1.384   0.501   5.254
 1609SOL     OW 5725   4.542   0.580   6.915
 1609SOL    HW1 5726   4.536   0.504   6.850
 1609SOL    HW2 5727   4.503   0.552   7.002
 1610SOL     OW 5728   5.915   4.474   5.709
 1610SOL    HW1 5729   5.835   4.441   5.760
 1610SOL    HW2 5730   5.952   4.555   5.754
 1611SOL     OW 5731   3.152   3.069   1.652
 1611SOL    HW1 5732   3.117   3.007   1.582
 1611SOL    HW2 5733   3.079   3.132   1.680
 1612SOL     OW 5734   2.694   1.032   5.289
 1612SOL    HW1 5735   2.786   1.054   5.320
 1612SOL    HW2 5736   2.691   1.036   5.189
 1613SOL     OW 5737   1.653   6.101   1.368
 1613SOL    HW1 5738   1.725   6.056   1.421
 1613SOL    HW2 5739   1.669   6.199   1.365
 1614SOL     OW 5740   6.249   3.919   0.155
 1614SOL    HW1 5741   6.303   3.848   0.199
 1614SOL    HW2 5742   6.162   3.930   0.204
 1615SOL     OW 5743   6.357   4.913   0.692
 1615SOL    HW1 5744   6.419   4.834   0.699
 1615SOL    HW2 5745   6.363   4.967   0.775
 1616SOL     OW 5746   3.925   2.045   5.340
 1616SOL    HW1 5747   3.838   2.039   5.292
 1616SOL    HW2 5748   3.922   2.120   5.406
 1617SOL     OW 5749   6.180   6.771   1.376
 1617SOL    HW1 5750   6.259   6.802   1.322
 1617SOL    HW2 5751   6.097   6.813   1.340
 1618SOL     OW 5752   1.077   3.675   1.127
 1618SOL    HW1 5753   1.039   3.762   1.159
 1618SOL    HW2 5754   1.132   3.692   1.045
 1619SOL     OW 5755   1.031   1.583   3.505
 1619SOL    HW1 5756   0.983   1.613   3.588
 1619SOL    HW2 5757   1.002   1.639   3.427
 1620SOL     OW 5758   2.379   5.658   0.902
 1620SOL    HW1 5759   2.369   5.562   0.930
 1620SOL    HW2 5760   2.439   5.705   0.967
 1621SOL     OW 5761   1.034   1.482   0.178
 1621SOL    HW1 5762   1.009   1.571   0.140
 1621SOL    HW2 5763   0.952   1.432   0.204
 1622SOL     OW 5764   0.597   2.498   4.494
 1622SOL    HW1 5765   0.508   2.470   4.457
 1622SOL    HW2 5766   0.669   2.475   4.428
 1623SOL     OW 5767   2.620   3.314   5.454
 1623SOL    HW1 5768   2.632   3.235   5.393
 1623SOL    HW2 5769   2.683   3.386   5.426
 1624SOL     OW 5770   3.173   0.753   5.647
 1624SOL    HW1 5771   3.260   0.776   5.605
 1624SOL    HW2 5772   3.136   0.834   5.693
 1625SOL     OW 5773   1.412   5.811   1.700
 1625SOL    HW1 5774   1.346   5.768   1.762
 1625SOL    HW2 5775   1.442   5.898   1.739
 1626SOL     OW 5776   2.858   2.395   6.268
 1626SOL    HW1 5777   2.850   2.296   6.281
 1626SOL    HW2 5778   2.813   2.443   6.344
 1627SOL     OW 5779   6.285   2.193   3.868
 1627SOL    HW1 5780   6.302   2.121   3.801
 1627SOL    HW2 5781   6.283   2.282   3.821
 1628SOL     OW 5782   4.570   4.590   0.001
 1628SOL    HW1 5783   4.567   4.494   0.029
 1628SOL    HW2 5784   4.481   4.617   6.990
 1629SOL     OW 5785   2.816   1.794   4.254
 1629SOL    HW1 5786   2.881   1.813   4.327
 1629SOL    HW2 5787   2.739   1.857   4.261
 1630SOL     OW 5788   1.108   5.955   5.480
 1630SOL    HW1 5789   1.077   5.954   5.575
 1630SOL    HW2 5790   1.184   6.019   5.470
 1631SOL     OW 5791   0.436   1.453   6.640
 1631SOL    HW1 5792   0.416   1.435   6.544
 1631SOL    HW2 5793   0.360   1.503   6.681
 1632SOL     OW 5794   0.199   1.655   0.051
 1632SOL    HW1 5795   0.117   1.617   0.092
 1632SOL    HW2 5796   0.216   1.746   0.088
 1633SOL     OW 5797   4.958   2.101   4.213
 1633SOL    HW1 5798   5.006   2.181   4.178
 1633SOL    HW2 5799   4.897   2.065   4.142
 1634SOL     OW 5800   3.977   4.762   5.890
 1634SOL    HW1 5801   3.982   4.682   5.949
 1634SOL    HW2 5802   4.027   4.745   5.805
 1635SOL     OW 5803   6.488   5.432   5.219
 1635SOL    HW1 5804   6.394   5.463   5.233
 1635SOL    HW2 5805   6.500   5.341   5.259
 1636SOL     OW 5806   2.394   3.602   1.396
 1636SOL    HW1 5807   2.469   3.558   1.347
 1636SOL    HW2 5808   2.392   3.568   1.490
 1637SOL     OW 5809   0.427   0.551   3.016
 1637SOL    HW1 5810   0.397   0.615   3.087
 1637SOL    HW2 5811   0.526   0.552   3.010
 1638SOL     OW 5812   0.684   4.011   3.969
 1638SOL    HW1 5813   0.698   4.110   3.964
 1638SOL    HW2 5814   0.761   3.965   3.924
 1639SOL     OW 5815   4.213   0.037   3.141
 1639SOL    HW1 5816   4.211   0.130   3.104
 1639SOL    HW2 5817   4.255   7.001   3.074
 1640SOL     OW 5818   5.610   1.960   1.458
 1640SOL    HW1 5819   5.573   1.996   1.372
 1640SOL    HW2 5820   5.707   1.986   1.466
 1641SOL     OW 5821   5.185   2.882   4.105
 1641SOL    HW1 5822   5.172   2.813   4.035
 1641SOL    HW2 5823   5.170   2.842   4.195
 1642SOL     OW 5824   6.082   3.375   6.813
 1642SOL    HW1 5825   6.149   3.434   6.769
 1642SOL    HW2 5826   5.997   3.377   6.761
 1643SOL     OW 5827   2.893   5.062   4.004
 1643SOL    HW1 5828   2.889   5.138   4.069
 1643SOL    HW2 5829   2.877   5.097   3.911
 1644SOL     OW 5830   1.222   3.181   1.371
 1644SOL    HW1 5831   1.187   3.205   1.462
 1644SOL    HW2 5832   1.234   3.082   1.364
 1645SOL     OW 5833   2.585   6.278   5.463
 1645SOL    HW1 5834   2.626   6.187   5.467
 1645SOL    HW2 5835   2.647   6.340   5.414
 1646SOL     OW 5836   2.597   6.501   1.053
 1646SOL    HW1 5837   2.519   6.561   1.037
 1646SOL    HW2 5838   2.682   6.552   1.039
 1647SOL     OW 5839   5.782   3.129   4.332
 1647SOL    HW1 5840   5.860   3.067   4.320
 1647SOL    HW2 5841   5.705   3.097   4.277
 1648SOL     OW 5842   5.918   6.165   0.976
 1648SOL    HW1 5843   5.886   6.132   0.887
 1648SOL    HW2 5844   5.841   6.168   1.040
 1649SOL     OW 5845   4.034   0.019   3.719
 1649SOL    HW1 5846   4.104   6.983   3.753
 1649SOL    HW2 5847   3.958   0.024   3.784
 1650SOL     OW 5848   1.946   6.843   4.741
 1650SOL    HW1 5849   1.925   6.745   4.734
 1650SOL    HW2 5850   1.946   6.870   4.837
 1651SOL     OW 5851   1.094   0.874   1.761
 1651SOL    HW1 5852   1.189   0.885   1.789
 1651SOL    HW2 5853   1.034   0.911   1.831
 1652SOL     OW 5854   1.817   3.204   1.882
 1652SOL    HW1 5855   1.875   3.193   1.801
 1652SOL    HW2 5856   1.725   3.230   1.853
 1653SOL     OW 5857   0.038   6.704   1.324
 1653SOL    HW1 5858   7.014   6.619   1.344
 1653SOL    HW2 5859   0.092   6.730   1.403
 1654SOL     OW 5860   6.475   2.717   2.219
 1654SOL    HW1 5861   6.421   2.641   2.183
 1654SOL    HW2 5862   6.543   2.744   2.152
 1655SOL     OW 5863   6.025   3.342   5.296
 1655SOL    HW1 5864   6.025   3.278   5.374
 1655SOL    HW2 5865   5.954   3.410   5.309
 1656SOL     OW 5866   1.619   4.382   2.907
 1656SOL    HW1 5867   1.687   4.374   2.981
 1656SOL    HW2 5868   1.632   4.468   2.859
 1657SOL     OW 5869   6.774   0.508   4.352
 1657SOL    HW1 5870   6.859   0.550   4.320
 1657SOL    HW2 5871   6.784   0.409   4.356
 1658SOL     OW 5872   0.940   0.822   2.437
 1658SOL    HW1 5873   1.038   0.829   2.456
 1658SOL    HW2 5874   0.898   0.757   2.501
 1659SOL     OW 5875   3.614   1.112   6.202
 1659SOL    HW1 5876   3.700   1.112   6.252
 1659SOL    HW2 5877   3.596   1.021   6.165
 1660SOL     OW 5878   1.637   4.708   3.837
 1660SOL    HW1 5879   1.674   4.622   3.801
 1660SOL    HW2 5880   1.575   4.688   3.912
 1661SOL     OW 5881   2.976   1.690   1.657
 1661SOL    HW1 5882   3.005   1.725   1.746
 1661SOL    HW2 5883   3.009   1.596   1.646
 1662SOL     OW 5884   6.576   1.105   4.409
 1662SOL    HW1 5885   6.499   1.046   4.431
 1662SOL    HW2 5886   6.596   1.099   4.311
 1663SOL     OW 5887   3.239   0.868   3.216
 1663SOL    HW1 5888   3.160   0.861   3.154
 1663SOL    HW2 5889   3.305   0.797   3.194
 1664SOL     OW 5890   1.411   0.174   4.208
 1664SOL    HW1 5891   1.429   0.183   4.110
 1664SOL    HW2 5892   1.319   0.138   4.221
 1665SOL     OW 5893   6.798   1.506   2.880
 1665SOL    HW1 5894   6.709   1.460   2.873
 1665SOL    HW2 5895   6.845   1.500   2.792
 1666SOL     OW 5896   5.686   3.315   0.426
 1666SOL    HW1 5897   5.604   3.263   0.449
 1666SOL    HW2 5898   5.700   3.314   0.327
 1667SOL     OW 5899   5.523   6.888   0.988
 1667SOL    HW1 5900   5.476   6.969   0.954
 1667SOL    HW2 5901   5.496   6.808   0.934
 1668SOL     OW 5902   5.334   5.517   5.796
 1668SOL    HW1 5903   5.370   5.583   5.861
 1668SOL    HW2 5904   5.274   5.563   5.731
 1669SOL     OW 5905   6.174   0.187   0.143
 1669SOL    HW1 5906   6.196   0.283   0.163
 1669SOL    HW2 5907   6.236   0.127   0.194
 1670SOL     OW 5908   0.021   5.263   6.903
 1670SOL    HW1 5909   0.099   5.231   6.956
 1670SOL    HW2 5910   0.033   5.361   6.883
 1671SOL     OW 5911   4.252   2.243   1.145
 1671SOL    HW1 5912   4.333   2.233   1.088
 1671SOL    HW2 5913   4.266   2.196   1.232
 1672SOL     OW 5914   2.190   3.922   2.389
 1672SOL    HW1 5915   2.104   3.944   2.342
 1672SOL    HW2 5916   2.264   3.916   2.321
 1673SOL     OW 5917   0.319   2.523   4.372
 1673SOL    HW1 5918   0.276   2.561   4.290
 1673SOL    HW2 5919   0.307   2.424   4.372
 1674SOL     OW 5920   0.344   3.976   1.952
 1674SOL    HW1 5921   0.339   4.027   1.866
 1674SOL    HW2 5922   0.432   3.994   1.996
 1675SOL     OW 5923   4.273   0.340   5.923
 1675SOL    HW1 5924   4.298   0.414   5.985
 1675SOL    HW2 5925   4.294   0.367   5.829
 1676SOL     OW 5926   3.221   1.100   2.211
 1676SOL    HW1 5927   3.172   1.022   2.251
 1676SOL    HW2 5928   3.307   1.070   2.173
 1677SOL     OW 5929   4.154   2.776   5.356
 1677SOL    HW1 5930   4.163   2.690   5.307
 1677SOL    HW2 5931   4.245   2.811   5.380
 1678SOL     OW 5932   5.301   4.644   4.760
 1678SOL    HW1 5933   5.268   4.574   4.697
 1678SOL    HW2 5934   5.230   4.666   4.826
 1679SOL     OW 5935   2.127   3.326   4.710
 1679SOL    HW1 5936   2.159   3.269   4.786
 1679SOL    HW2 5937   2.128   3.422   4.738
 1680SOL     OW 5938   0.546   1.869   4.156
 1680SOL    HW1 5939   0.559   1.920   4.241
 1680SOL    HW2 5940   0.621   1.889   4.093
 1681SOL     OW 5941   6.780   5.649   1.176
 1681SOL    HW1 5942   6.795   5.736   1.223
 1681SOL    HW2 5943   6.835   5.578   1.220
 1682SOL     OW 5944   6.810   2.637   5.059
 1682SOL    HW1 5945   6.884   2.656   5.124
 1682SOL    HW2 5946   6.827   2.548   5.015
 1683SOL     OW 5947   4.103   5.540   0.817
 1683SOL    HW1 5948   4.027   5.588   0.773
 1683SOL    HW2 5949   4.078   5.444   0.831
 1684SOL     OW 5950   1.618   6.112   2.599
 1684SOL    HW1 5951   1.575   6.197   2.568
 1684SOL    HW2 5952   1.684   6.132   2.671
 1685SOL     OW 5953   2.913   1.104   6.216
 1685SOL    HW1 5954   2.950   1.099   6.309
 1685SOL    HW2 5955   2.912   1.199   6.185
 1686SOL     OW 5956   1.785   5.037   5.031
 1686SOL    HW1 5957   1.742   5.090   5.105
 1686SOL    HW2 5958   1.809   4.947   5.065
 1687SOL     OW 5959   2.354   3.002   1.078
 1687SOL    HW1 5960   2.448   2.979   1.104
 1687SOL    HW2 5961   2.356   3.075   1.009
 1688SOL     OW 5962   1.436   2.411   4.122
 1688SOL    HW1 5963   1.512   2.464   4.082
 1688SOL    HW2 5964   1.357   2.471   4.134
 1689SOL     OW 5965   4.177   1.095   1.943
 1689SOL    HW1 5966   4.170   1.011   1.998
 1689SOL    HW2 5967   4.089   1.143   1.944
 1690SOL     OW 5968   1.459   2.865   3.757
 1690SOL    HW1 5969   1.422   2.905   3.841
 1690SOL    HW2 5970   1.533   2.922   3.722
 1691SOL     OW 5971   4.873   3.900   3.558
 1691SOL    HW1 5972   4.836   3.977   3.611
 1691SOL    HW2 5973   4.831   3.815   3.589
 1692SOL     OW 5974   6.583   0.119   1.435
 1692SOL    HW1 5975   6.544   0.048   1.377
 1692SOL    HW2 5976   6.520   0.141   1.509
 1693SOL     OW 5977   0.306   2.111   2.289
 1693SOL    HW1 5978   0.354   2.195   2.316
 1693SOL    HW2 5979   0.234   2.092   2.356
 1694SOL     OW 5980   5.013   0.162   3.641
 1694SOL    HW1 5981   5.087   0.102   3.672
 1694SOL    HW2 5982   5.034   0.257   3.666
 1695SOL     OW 5983   2.367   1.043   5.791
 1695SOL    HW1 5984   2.365   1.066   5.888
 1695SOL    HW2 5985   2.325   0.953   5.777
 1696SOL     OW 5986   5.459   4.935   0.472
 1696SOL    HW1 5987   5.416   4.971   0.554
 1696SOL    HW2 5988   5.478   5.009   0.408
 1697SOL     OW 5989   5.664   6.298   2.212
 1697SOL    HW1 5990   5.584   6.247   2.180
 1697SOL    HW2 5991   5.715   6.243   2.278
 1698SOL     OW 5992   4.649   0.901   0.763
 1698SOL    HW1 5993   4.592   0.885   0.682
 1698SOL    HW2 5994   4.604   0.967   0.823
 1699SOL     OW 5995   2.853   1.011   2.025
 1699SOL    HW1 5996   2.815   1.014   2.117
 1699SOL    HW2 5997   2.781   0.983   1.961
 1700SOL     OW 5998   6.068   1.772   3.330
 1700SOL    HW1 5999   5.969   1.785   3.334
 1700SOL    HW2 6000   6.114   1.861   3.340
 1701SOL     OW 6001   5.108   2.805   5.416
 1701SOL    HW1 6002   5.087   2.723   5.362
 1701SOL    HW2 6003   5.086   2.788   5.512
 1702SOL     OW 6004   6.959   2.685   0.877
 1702SOL    HW1 6005   6.881   2.663   0.936
 1702SOL    HW2 6006   0.019   2.680   0.931
 1703SOL     OW 6007   3.980   3.919   2.857
 1703SOL    HW1 6008   3.910   3.989   2.853
 1703SOL    HW2 6009   4.043   3.929   2.780
 1704SOL     OW 6010   0.748   1.462   2.018
 1704SOL    HW1 6011   0.797   1.486   2.102
 1704SOL    HW2 6012   0.813   1.461   1.942
 1705SOL     OW 6013   3.417   2.009   2.109
 1705SOL    HW1 6014   3.329   2.057   2.106
 1705SOL    HW2 6015   3.491   2.076   2.105
 1706SOL     OW 6016   4.526   0.037   1.559
 1706SOL    HW1 6017   4.532   0.117   1.499
 1706SOL    HW2 6018   4.596   6.996   1.534
 1707SOL     OW 6019   4.468   1.387   3.030
 1707SOL    HW1 6020   4.564   1.403   3.010
 1707SOL    HW2 6021   4.456   1.374   3.128
 1708SOL     OW 6022   4.766   5.189   2.253
 1708SOL    HW1 6023   4.707   5.262   2.220
 1708SOL    HW2 6024   4.729   5.154   2.340
 1709SOL     OW 6025   2.762   6.125   1.562
 1709SOL    HW1 6026   2.761   6.212   1.613
 1709SOL    HW2 6027   2.716   6.055   1.617
 1710SOL     OW 6028   5.865   4.485   3.649
 1710SOL    HW1 6029   5.783   4.440   3.613
 1710SOL    HW2 6030   5.844   4.526   3.738
 1711SOL     OW 6031   1.137   4.217   4.941
 1711SOL    HW1 6032   1.152   4.130   4.895
 1711SOL    HW2 6033   1.052   4.258   4.908
 1712SOL     OW 6034   1.188   3.003   6.663
 1712SOL    HW1 6035   1.258   2.969   6.727
 1712SOL    HW2 6036   1.176   3.101   6.675
 1713SOL     OW 6037   3.288   1.922   1.040
 1713SOL    HW1 6038   3.246   1.866   1.111
 1713SOL    HW2 6039   3.231   1.921   0.959
 1714SOL     OW 6040   4.685   1.449   6.101
 1714SOL    HW1 6041   4.610   1.508   6.131
 1714SOL    HW2 6042   4.738   1.497   6.031
 1715SOL     OW 6043   6.868   3.641   2.803
 1715SOL    HW1 6044   6.780   3.612   2.765
 1715SOL    HW2 6045   6.912   3.704   2.739
 1716SOL     OW 6046   5.160   6.763   1.663
 1716SOL    HW1 6047   5.217   6.819   1.724
 1716SOL    HW2 6048   5.113   6.823   1.598
 1717SOL     OW 6049   1.539   6.580   6.387
 1717SOL    HW1 6050   1.538   6.619   6.479
 1717SOL    HW2 6051   1.534   6.480   6.393
 1718SOL     OW 6052   1.743   1.849   0.952
 1718SOL    HW1 6053   1.742   1.751   0.973
 1718SOL    HW2 6054   1.837   1.880   0.939
 1719SOL     OW 6055   2.453   4.113   1.304
 1719SOL    HW1 6056   2.475   4.141   1.210
 1719SOL    HW2 6057   2.394   4.033   1.301
 1720SOL     OW 6058   6.681   1.105   1.083
 1720SOL    HW1 6059   6.699   1.192   1.129
 1720SOL    HW2 6060   6.758   1.044   1.095
 1721SOL     OW 6061   0.889   6.762   3.107
 1721SOL    HW1 6062   0.799   6.722   3.088
 1721SOL    HW2 6063   0.928   6.797   3.022
 1722SOL     OW 6064   4.722   1.625   3.767
 1722SOL    HW1 6065   4.731   1.684   3.688
 1722SOL    HW2 6066   4.805   1.570   3.778
 1723SOL     OW 6067   6.708   2.952   3.223
 1723SOL    HW1 6068   6.785   2.952   3.287
 1723SOL    HW2 6069   6.740   2.986   3.134
 1724SOL     OW 6070   5.894   2.115   1.120
 1724SOL    HW1 6071   5.945   2.069   1.193
 1724SOL    HW2 6072   5.905   2.214   1.130
 1725SOL     OW 6073   2.711   5.138   0.291
 1725SOL    HW1 6074   2.809   5.118   0.290
 1725SOL    HW2 6075   2.665   5.074   0.353
 1726SOL     OW 6076   6.048   4.127   5.124
 1726SOL    HW1 6077   6.103   4.175   5.192
 1726SOL    HW2 6078   6.071   4.030   5.125
 1727SOL     OW 6079   3.596   2.937   4.443
 1727SOL    HW1 6080   3.687   2.958   4.479
 1727SOL    HW2 6081   3.588   2.838   4.428
 1728SOL     OW 6082   5.632   5.445   4.776
 1728SOL    HW1 6083   5.636   5.348   4.801
 1728SOL    HW2 6084   5.537   5.474   4.774
 1729SOL     OW 6085   2.050   3.859   3.466
 1729SOL    HW1 6086   2.050   3.809   3.379
 1729SOL    HW2 6087   2.101   3.944   3.455
 1730SOL     OW 6088   6.729   0.396   4.981
 1730SOL    HW1 6089   6.686   0.483   5.008
 1730SOL    HW2 6090   6.737   0.337   5.061
 1731SOL     OW 6091   0.995   5.370   1.952
 1731SOL    HW1 6092   1.087   5.332   1.962
 1731SOL    HW2 6093   0.936   5.302   1.907
 1732SOL     OW 6094   2.267   4.373   6.051
 1732SOL    HW1 6095   2.194   4.319   6.095
 1732SOL    HW2 6096   2.240   4.394   5.957
 1733SOL     OW 6097   0.865   3.890   2.512
 1733SOL    HW1 6098   0.803   3.847   2.446
 1733SOL    HW2 6099   0.832   3.982   2.534
 1734SOL     OW 6100   4.920   3.144   1.946
 1734SOL    HW1 6101   4.988   3.161   2.017
 1734SOL    HW2 6102   4.845   3.089   1.984
 1735SOL     OW 6103   6.159   5.694   0.921
 1735SOL    HW1 6104   6.181   5.609   0.968
 1735SOL    HW2 6105   6.199   5.694   0.830
 1736SOL     OW 6106   4.406   2.232   0.807
 1736SOL    HW1 6107   4.338   2.300   0.780
 1736SOL    HW2 6108   4.495   2.276   0.818
 1737SOL     OW 6109   3.146   1.319   4.610
 1737SOL    HW1 6110   3.053   1.289   4.590
 1737SOL    HW2 6111   3.191   1.253   4.671
 1738SOL     OW 6112   2.095   1.931   3.863
 1738SOL    HW1 6113   2.054   1.981   3.787
 1738SOL    HW2 6114   2.194   1.943   3.862
 1739SOL     OW 6115   5.040   2.561   5.291
 1739SOL    HW1 6116   4.942   2.578   5.303
 1739SOL    HW2 6117   5.055   2.504   5.210
 1740SOL     OW 6118   0.355   1.809   6.472
 1740SOL    HW1 6119   0.304   1.769   6.396
 1740SOL    HW2 6120   0.445   1.767   6.477
 1741SOL     OW 6121   2.576   0.692   3.825
 1741SOL    HW1 6122   2.638   0.720   3.898
 1741SOL    HW2 6123   2.628   0.676   3.741
 1742SOL     OW 6124   4.617   6.140   6.372
 1742SOL    HW1 6125   4.576   6.202   6.305
 1742SOL    HW2 6126   4.658   6.062   6.325
 1743SOL     OW 6127   1.891   1.859   2.100
 1743SOL    HW1 6128   1.831   1.923   2.147
 1743SOL    HW2 6129   1.960   1.911   2.049
 1744SOL     OW 6130   0.730   0.401   1.465
 1744SOL    HW1 6131   0.809   0.358   1.423
 1744SOL    HW2 6132   0.700   0.347   1.543
 1745SOL     OW 6133   6.590   0.770   4.320
 1745SOL    HW1 6134   6.514   0.718   4.281
 1745SOL    HW2 6135   6.624   0.723   4.401
 1746SOL     OW 6136   2.124   5.288   4.809
 1746SOL    HW1 6137   2.047   5.264   4.751
 1746SOL    HW2 6138   2.111   5.247   4.900
 1747SOL     OW 6139   5.313   0.408   2.822
 1747SOL    HW1 6140   5.329   0.500   2.858
 1747SOL    HW2 6141   5.289   0.414   2.725
 1748SOL     OW 6142   0.346   1.085   3.720
 1748SOL    HW1 6143   0.430   1.084   3.667
 1748SOL    HW2 6144   0.319   0.992   3.742
 1749SOL     OW 6145   2.785   6.418   5.359
 1749SOL    HW1 6146   2.808   6.479   5.283
 1749SOL    HW2 6147   2.834   6.447   5.441
 1750SOL     OW 6148   6.496   0.293   3.142
 1750SOL    HW1 6149   6.529   0.387   3.144
 1750SOL    HW2 6150   6.573   0.229   3.148
 1751SOL     OW 6151   3.683   5.835   4.925
 1751SOL    HW1 6152   3.760   5.824   4.863
 1751SOL    HW2 6153   3.692   5.922   4.974
 1752SOL     OW 6154   6.953   2.207   2.577
 1752SOL    HW1 6155   6.888   2.141   2.538
 1752SOL    HW2 6156   6.964   2.284   2.514
 1753SOL     OW 6157   0.473   2.053   0.859
 1753SOL    HW1 6158   0.446   1.965   0.820
 1753SOL    HW2 6159   0.471   2.124   0.788
 1754SOL     OW 6160   3.280   3.522   1.186
 1754SOL    HW1 6161   3.268   3.488   1.279
 1754SOL    HW2 6162   3.372   3.558   1.175
 1755SOL     OW 6163   5.607   5.337   2.320
 1755SOL    HW1 6164   5.624   5.243   2.348
 1755SOL    HW2 6165   5.587   5.394   2.400
 1756SOL     OW 6166   4.243   4.307   6.278
 1756SOL    HW1 6167   4.319   4.362   6.313
 1756SOL    HW2 6168   4.252   4.297   6.179
 1757SOL     OW 6169   2.371   5.222   4.547
 1757SOL    HW1 6170   2.325   5.240   4.634
 1757SOL    HW2 6171   2.321   5.268   4.473
 1758SOL     OW 6172   2.112   0.188   3.878
 1758SOL    HW1 6173   2.052   0.108   3.886
 1758SOL    HW2 6174   2.205   0.158   3.858
 1759SOL     OW 6175   0.997   4.655   5.498
 1759SOL    HW1 6176   0.953   4.568   5.521
 1759SOL    HW2 6177   1.022   4.655   5.401
 1760SOL     OW 6178   6.632   1.501   1.611
 1760SOL    HW1 6179   6.697   1.441   1.658
 1760SOL    HW2 6180   6.679   1.550   1.537
 1761SOL     OW 6181   0.313   0.574   0.807
 1761SOL    HW1 6182   0.315   0.604   0.712
 1761SOL    HW2 6183   0.298   0.475   0.811
 1762SOL     OW 6184   6.094   1.888   4.878
 1762SOL    HW1 6185   6.053   1.972   4.912
 1762SOL    HW2 6186   6.172   1.910   4.820
 1763SOL     OW 6187   2.199   3.762   4.231
 1763SOL    HW1 6188   2.155   3.694   4.171
 1763SOL    HW2 6189   2.170   3.748   4.325
 1764SOL     OW 6190   1.357   3.972   2.572
 1764SOL    HW1 6191   1.454   3.950   2.565
 1764SOL    HW2 6192   1.304   3.915   2.509
 1765SOL     OW 6193   3.484   1.660   6.653
 1765SOL    HW1 6194   3.487   1.712   6.738
 1765SOL    HW2 6195   3.566   1.604   6.645
 1766SOL     OW 6196   4.883   3.207   3.761
 1766SOL    HW1 6197   4.834   3.126   3.792
 1766SOL    HW2 6198   4.973   3.211   3.805
 1767SOL     OW 6199   6.266   3.682   2.862
 1767SOL    HW1 6200   6.325   3.655   2.938
 1767SOL    HW2 6201   6.305   3.763   2.818
 1768SOL     OW 6202   3.708   1.590   4.982
 1768SOL    HW1 6203   3.775   1.517   4.991
 1768SOL    HW2 6204   3.727   1.643   4.900
 1769SOL     OW 6205   4.300   2.307   4.845
 1769SOL    HW1 6206   4.303   2.327   4.943
 1769SOL    HW2 6207   4.320   2.390   4.793
 1770SOL     OW 6208   0.476   5.061   4.793
 1770SOL    HW1 6209   0.420   4.996   4.741
 1770SOL    HW2 6210   0.490   5.144   4.739
 1771SOL     OW 6211   2.521   5.199   0.035
 1771SOL    HW1 6212   2.575   5.212   0.118
 1771SOL    HW2 6213   2.433   5.157   0.059
 1772SOL     OW 6214   2.822   6.654   3.565
 1772SOL    HW1 6215   2.782   6.742   3.591
 1772SOL    HW2 6216   2.902   6.670   3.507
 1773SOL     OW 6217   2.492   4.799   5.996
 1773SOL    HW1 6218   2.469   4.808   5.899
 1773SOL    HW2 6219   2.462   4.710   6.029
 1774SOL     OW 6220   4.290   6.953   1.662
 1774SOL    HW1 6221   4.371   7.008   1.641
 1774SOL    HW2 6222   4.210   6.996   1.622
 1775SOL     OW 6223   0.985   4.059   4.342
 1775SOL    HW1 6224   0.953   4.109   4.261
 1775SOL    HW2 6225   0.984   3.960   4.322
 1776SOL     OW 6226   3.517   0.245   4.400
 1776SOL    HW1 6227   3.454   0.311   4.440
 1776SOL    HW2 6228   3.587   0.293   4.347
 1777SOL     OW 6229   3.223   5.130   5.990
 1777SOL    HW1 6230   3.162   5.061   6.029
 1777SOL    HW2 6231   3.318   5.110   6.017
 1778SOL     OW 6232   4.816   2.815   5.961
 1778SOL    HW1 6233   4.833   2.898   5.907
 1778SOL    HW2 6234   4.750   2.757   5.914
 1779SOL     OW 6235   4.584   1.001   4.899
 1779SOL    HW1 6236   4.540   0.922   4.856
 1779SOL    HW2 6237   4.551   1.084   4.856
 1780SOL     OW 6238   3.096   2.895   5.684
 1780SOL    HW1 6239   3.029   2.833   5.725
 1780SOL    HW2 6240   3.074   2.989   5.709
 1781SOL     OW 6241   4.280   6.037   3.808
 1781SOL    HW1 6242   4.264   6.060   3.904
 1781SOL    HW2 6243   4.321   5.946   3.802
 1782SOL     OW 6244   3.237   1.839   2.943
 1782SOL    HW1 6245   3.140   1.863   2.953
 1782SOL    HW2 6246   3.285   1.860   3.029
 1783SOL     OW 6247   1.168   4.354   6.530
 1783SOL    HW1 6248   1.117   4.325   6.449
 1783SOL    HW2 6249   1.173   4.279   6.595
 1784SOL     OW 6250   3.941   1.504   5.331
 1784SOL    HW1 6251   3.920   1.455   5.246
 1784SOL    HW2 6252   3.898   1.458   5.408
 1785SOL     OW 6253   6.450   5.333   3.646
 1785SOL    HW1 6254   6.360   5.375   3.630
 1785SOL    HW2 6255   6.521   5.400   3.624
 1786SOL     OW 6256   1.262   2.916   1.374
 1786SOL    HW1 6257   1.198   2.874   1.309
 1786SOL    HW2 6258   1.258   2.867   1.461
 1787SOL     OW 6259   2.320   0.500   4.989
 1787SOL    HW1 6260   2.363   0.531   5.073
 1787SOL    HW2 6261   2.293   0.579   4.934
 1788SOL     OW 6262   3.392   2.726   6.962
 1788SOL    HW1 6263   3.455   2.788   6.914
 1788SOL    HW2 6264   3.351   2.774   0.015
 1789SOL     OW 6265   5.809   2.495   2.983
 1789SOL    HW1 6266   5.736   2.537   2.930
 1789SOL    HW2 6267   5.776   2.474   3.075
 1790SOL     OW 6268   3.654   6.296   4.138
 1790SOL    HW1 6269   3.584   6.346   4.088
 1790SOL    HW2 6270   3.662   6.203   4.101
 1791SOL     OW 6271   6.742   1.080   3.427
 1791SOL    HW1 6272   6.842   1.092   3.426
 1791SOL    HW2 6273   6.719   1.009   3.494
 1792SOL     OW 6274   0.140   3.115   3.851
 1792SOL    HW1 6275   0.218   3.165   3.814
 1792SOL    HW2 6276   0.086   3.175   3.910
 1793SOL     OW 6277   6.539   6.725   3.158
 1793SOL    HW1 6278   6.599   6.662   3.110
 1793SOL    HW2 6279   6.553   6.716   3.257
 1794SOL     OW 6280   5.992   6.321   6.137
 1794SOL    HW1 6281   6.014   6.398   6.077
 1794SOL    HW2 6282   5.972   6.355   6.229
 1795SOL     OW 6283   0.325   3.358   1.511
 1795SOL    HW1 6284   0.384   3.353   1.431
 1795SOL    HW2 6285   0.272   3.274   1.519
 1796SOL     OW 6286   2.493   0.448   4.202
 1796SOL    HW1 6287   2.444   0.519   4.150
 1796SOL    HW2 6288   2.441   0.362   4.197
 1797SOL     OW 6289   1.361   0.266   0.277
 1797SOL    HW1 6290   1.452   0.267   0.320
 1797SOL    HW2 6291   1.370   0.231   0.183
 1798SOL     OW 6292   5.168   2.033   4.646
 1798SOL    HW1 6293   5.176   1.947   4.596
 1798SOL    HW2 6294   5.257   2.078   4.650
 1799SOL     OW 6295   6.545   2.162   5.800
 1799SOL    HW1 6296   6.572   2.072   5.766
 1799SOL    HW2 6297   6.574   2.232   5.735
 1800SOL     OW 6298   3.948   4.843   2.232
 1800SOL    HW1 6299   4.038   4.870   2.200
 1800SOL    HW2 6300   3.944   4.744   2.242
 1801SOL     OW 6301   0.741   0.807   2.240
 1801SOL    HW1 6302   0.716   0.733   2.178
 1801SOL    HW2 6303   0.825   0.781   2.290
 1802SOL     OW 6304   5.196   5.548   2.291
 1802SOL    HW1 6305   5.180   5.632   2.239
 1802SOL    HW2 6306   5.108   5.508   2.318
 1803SOL     OW 6307   0.128   6.189   6.998
 1803SOL    HW1 6308   0.207   6.150   0.021
 1803SOL    HW2 6309   0.145   6.286   6.980
 1804SOL     OW 6310   2.238   3.749   5.563
 1804SOL    HW1 6311   2.220   3.755   5.465
 1804SOL    HW2 6312   2.323   3.799   5.584
 1805SOL     OW 6313   6.333   4.041   5.572
 1805SOL    HW1 6314   6.275   4.026   5.653
 1805SOL    HW2 6315   6.276   4.037   5.490
 1806SOL     OW 6316   1.185   1.386   0.596
 1806SOL    HW1 6317   1.188   1.416   0.501
 1806SOL    HW2 6318   1.132   1.302   0.602
 1807SOL     OW 6319   4.817   2.308   5.926
 1807SOL    HW1 6320   4.876   2.388   5.934
 1807SOL    HW2 6321   4.729   2.335   5.887
 1808SOL     OW 6322   0.342   3.599   5.858
 1808SOL    HW1 6323   0.413   3.540   5.894
 1808SOL    HW2 6324   0.324   3.674   5.922
 1809SOL     OW 6325   2.194   2.455   4.417
 1809SOL    HW1 6326   2.187   2.493   4.509
 1809SOL    HW2 6327   2.204   2.355   4.423
 1810SOL     OW 6328   2.961   0.389   3.945
 1810SOL    HW1 6329   2.930   0.416   3.854
 1810SOL    HW2 6330   2.913   0.443   4.014
 1811SOL     OW 6331   4.579   4.490   3.595
 1811SOL    HW1 6332   4.668   4.533   3.583
 1811SOL    HW2 6333   4.577   4.440   3.682
 1812SOL     OW 6334   4.277   6.735   5.475
 1812SOL    HW1 6335   4.225   6.772   5.552
 1812SOL    HW2 6336   4.214   6.690   5.411
 1813SOL     OW 6337   6.090   5.078   0.622
 1813SOL    HW1 6338   6.097   5.171   0.656
 1813SOL    HW2 6339   6.167   5.058   0.562
 1814SOL     OW 6340   6.774   1.442   0.470
 1814SOL    HW1 6341   6.725   1.413   0.552
 1814SOL    HW2 6342   6.736   1.529   0.437
 1815SOL     OW 6343   6.154   2.497   1.868
 1815SOL    HW1 6344   6.115   2.494   1.960
 1815SOL    HW2 6345   6.207   2.581   1.858
 1816SOL     OW 6346   2.436   3.779   0.850
 1816SOL    HW1 6347   2.362   3.817   0.905
 1816SOL    HW2 6348   2.413   3.686   0.823
 1817SOL     OW 6349   3.327   6.929   3.269
 1817SOL    HW1 6350   3.422   6.929   3.238
 1817SOL    HW2 6351   3.275   6.996   3.216
 1818SOL     OW 6352   1.931   6.505   2.264
 1818SOL    HW1 6353   1.966   6.425   2.215
 1818SOL    HW2 6354   1.848   6.481   2.314
 1819SOL     OW 6355   0.647   5.199   1.843
 1819SOL    HW1 6356   0.591   5.281   1.831
 1819SOL    HW2 6357   0.601   5.136   1.906
 1820SOL     OW 6358   5.238   0.836   1.858
 1820SOL    HW1 6359   5.225   0.772   1.782
 1820SOL    HW2 6360   5.288   0.917   1.825
 1821SOL     OW 6361   2.293   0.789   1.864
 1821SOL    HW1 6362   2.330   0.834   1.945
 1821SOL    HW2 6363   2.351   0.810   1.785
 1822SOL     OW 6364   1.551   2.641   1.781
 1822SOL    HW1 6365   1.465   2.672   1.741
 1822SOL    HW2 6366   1.626   2.656   1.716
 1823SOL     OW 6367   2.779   5.592   3.125
 1823SOL    HW1 6368   2.848   5.550   3.184
 1823SOL    HW2 6369   2.736   5.669   3.172
 1824SOL     OW 6370   3.557   3.153   1.424
 1824SOL    HW1 6371   3.476   3.134   1.367
 1824SOL    HW2 6372   3.535   3.226   1.489
 1825SOL     OW 6373   1.277   1.481   3.833
 1825SOL    HW1 6374   1.187   1.455   3.797
 1825SOL    HW2 6375   1.285   1.448   3.927
 1826SOL     OW 6376   2.947   0.130   1.209
 1826SOL    HW1 6377   2.857   0.126   1.165
 1826SOL    HW2 6378   2.953   0.059   1.279
 1827SOL     OW 6379   6.897   6.230   1.928
 1827SOL    HW1 6380   6.909   6.325   1.954
 1827SOL    HW2 6381   6.843   6.224   1.844
 1828SOL     OW 6382   1.286   2.734   0.597
 1828SOL    HW1 6383   1.296   2.805   0.527
 1828SOL    HW2 6384   1.197   2.690   0.587
 1829SOL     OW 6385   3.393   0.205   3.518
 1829SOL    HW1 6386   3.303   0.168   3.540
 1829SOL    HW2 6387   3.429   0.257   3.595
 1830SOL     OW 6388   5.576   6.155   3.935
 1830SOL    HW1 6389   5.524   6.119   3.858
 1830SOL    HW2 6390   5.595   6.081   4.000
 1831SOL     OW 6391   6.030   0.226   1.942
 1831SOL    HW1 6392   6.106   0.246   2.003
 1831SOL    HW2 6393   5.954   0.188   1.995
 1832SOL     OW 6394   5.468   1.025   0.967
 1832SOL    HW1 6395   5.451   0.947   0.907
 1832SOL    HW2 6396   5.498   1.103   0.912
 1833SOL     OW 6397   5.303   0.244   6.045
 1833SOL    HW1 6398   5.205   0.249   6.063
 1833SOL    HW2 6399   5.326   0.155   6.006
 1834SOL     OW 6400   2.632   4.084   0.229
 1834SOL    HW1 6401   2.696   4.158   0.211
 1834SOL    HW2 6402   2.573   4.109   0.305
 1835SOL     OW 6403   0.708   3.661   1.927
 1835SOL    HW1 6404   0.716   3.580   1.986
 1835SOL    HW2 6405   0.632   3.649   1.863
 1836SOL     OW 6406   4.931   1.953   0.708
 1836SOL    HW1 6407   4.894   1.969   0.800
 1836SOL    HW2 6408   4.996   1.877   0.711
 1837SOL     OW 6409   0.941   1.803   4.553
 1837SOL    HW1 6410   0.868   1.824   4.488
 1837SOL    HW2 6411   0.981   1.888   4.587
 1838SOL     OW 6412   0.209   1.340   4.158
 1838SOL    HW1 6413   0.139   1.331   4.229
 1838SOL    HW2 6414   0.205   1.261   4.098
 1839SOL     OW 6415   5.321   2.873   4.786
 1839SOL    HW1 6416   5.254   2.810   4.746
 1839SOL    HW2 6417   5.273   2.944   4.838
 1840SOL     OW 6418   3.611   5.640   1.677
 1840SOL    HW1 6419   3.668   5.704   1.729
 1840SOL    HW2 6420   3.648   5.631   1.584
 1841SOL     OW 6421   2.325   1.539   3.923
 1841SOL    HW1 6422   2.235   1.581   3.932
 1841SOL    HW2 6423   2.315   1.439   3.921
 1842SOL     OW 6424   1.395   5.548   0.430
 1842SOL    HW1 6425   1.316   5.608   0.432
 1842SOL    HW2 6426   1.472   5.596   0.388
 1843SOL     OW 6427   6.709   2.087   3.852
 1843SOL    HW1 6428   6.715   2.028   3.771
 1843SOL    HW2 6429   6.711   2.183   3.824
 1844SOL     OW 6430   3.541   0.124   5.310
 1844SOL    HW1 6431   3.470   0.106   5.378
 1844SOL    HW2 6432   3.539   0.051   5.241
 1845SOL     OW 6433   1.727   6.727   5.005
 1845SOL    HW1 6434   1.630   6.724   5.029
 1845SOL    HW2 6435   1.762   6.634   4.994
 1846SOL     OW 6436   4.080   1.924   0.136
 1846SOL    HW1 6437   4.044   2.011   0.103
 1846SOL    HW2 6438   4.049   1.908   0.230
 1847SOL     OW 6439   1.288   0.423   6.503
 1847SOL    HW1 6440   1.370   0.405   6.557
 1847SOL    HW2 6441   1.279   0.521   6.488
 1848SOL     OW 6442   1.160   6.793   2.524
 1848SOL    HW1 6443   1.127   6.881   2.487
 1848SOL    HW2 6444   1.211   6.810   2.608
 1849SOL     OW 6445   3.360   2.193   0.993
 1849SOL    HW1 6446   3.366   2.094   1.007
 1849SOL    HW2 6447   3.386   2.215   0.899
 1850SOL     OW 6448   0.765   2.966   2.735
 1850SOL    HW1 6449   0.849   3.017   2.753
 1850SOL    HW2 6450   0.707   3.018   2.672
 1851SOL     OW 6451   0.228   2.762   1.441
 1851SOL    HW1 6452   0.259   2.817   1.363
 1851SOL    HW2 6453   0.136   2.728   1.423
 1852SOL     OW 6454   5.895   3.749   2.412
 1852SOL    HW1 6455   5.846   3.789   2.489
 1852SOL    HW2 6456   5.830   3.716   2.344
 1853SOL     OW 6457   0.060   3.368   2.969
 1853SOL    HW1 6458   0.088   3.393   2.876
 1853SOL    HW2 6459   0.041   3.270   2.972
 1854SOL     OW 6460   2.736   6.065   3.647
 1854SOL    HW1 6461   2.652   6.011   3.651
 1854SOL    HW2 6462   2.760   6.084   3.552
 1855SOL     OW 6463   5.270   3.784   6.066
 1855SOL    HW1 6464   5.237   3.693   6.088
 1855SOL    HW2 6465   5.370   3.785   6.068
 1856SOL     OW 6466   6.066   3.380   5.864
 1856SOL    HW1 6467   5.982   3.389   5.810
 1856SOL    HW2 6468   6.062   3.443   5.942
 1857SOL     OW 6469   3.852   1.137   5.490
 1857SOL    HW1 6470   3.928   1.188   5.529
 1857SOL    HW2 6471   3.791   1.105   5.563
 1858SOL     OW 6472   6.194   3.605   3.702
 1858SOL    HW1 6473   6.194   3.703   3.686
 1858SOL    HW2 6474   6.114   3.580   3.757
 1859SOL     OW 6475   4.576   1.875   3.233
 1859SOL    HW1 6476   4.483   1.841   3.242
 1859SOL    HW2 6477   4.575   1.962   3.184
 1860SOL     OW 6478   6.483   0.540   4.548
 1860SOL    HW1 6479   6.473   0.518   4.451
 1860SOL    HW2 6480   6.394   0.567   4.585
 1861SOL     OW 6481   5.728   0.453   1.786
 1861SOL    HW1 6482   5.755   0.453   1.883
 1861SOL    HW2 6483   5.800   0.410   1.732
 1862SOL     OW 6484   2.434   0.510   5.919
 1862SOL    HW1 6485   2.525   0.516   5.960
 1862SOL    HW2 6486   2.387   0.430   5.955
 1863SOL     OW 6487   1.534   1.955   1.451
 1863SOL    HW1 6488   1.606   2.017   1.417
 1863SOL    HW2 6489   1.462   1.947   1.382
 1864SOL     OW 6490   0.753   0.161   5.649
 1864SOL    HW1 6491   0.754   0.259   5.630
 1864SOL    HW2 6492   0.728   0.111   5.567
 1865SOL     OW 6493   3.627   6.498   6.383
 1865SOL    HW1 6494   3.621   6.436   6.461
 1865SOL    HW2 6495   3.536   6.507   6.341
 1866SOL     OW 6496   4.152   4.997   3.539
 1866SOL    HW1 6497   4.141   4.898   3.552
 1866SOL    HW2 6498   4.225   5.030   3.599
 1867SOL     OW 6499   0.381   3.858   0.059
 1867SOL    HW1 6500   0.460   3.885   0.004
 1867SOL    HW2 6501   0.379   3.758   0.067
 1868SOL     OW 6502   4.511   4.353   0.078
 1868SOL    HW1 6503   4.431   4.337   0.136
 1868SOL    HW2 6504   4.544   4.265   0.043
 1869SOL     OW 6505   6.213   2.648   5.765
 1869SOL    HW1 6506   6.284   2.687   5.825
 1869SOL    HW2 6507   6.191   2.714   5.693
 1870SOL     OW 6508   2.244   2.712   5.701
 1870SOL    HW1 6509   2.288   2.798   5.726
 1870SOL    HW2 6510   2.161   2.730   5.649
 1871SOL     OW 6511   0.724   0.679   0.601
 1871SOL    HW1 6512   0.820   0.669   0.629
 1871SOL    HW2 6513   0.666   0.671   0.682
 1872SOL     OW 6514   3.366   2.160   6.387
 1872SOL    HW1 6515   3.438   2.107   6.342
 1872SOL    HW2 6516   3.338   2.236   6.328
 1873SOL     OW 6517   4.958   1.800   5.543
 1873SOL    HW1 6518   5.024   1.726   5.553
 1873SOL    HW2 6519   4.946   1.845   5.632
 1874SOL     OW 6520   3.557   1.201   1.088
 1874SOL    HW1 6521   3.618   1.276   1.113
 1874SOL    HW2 6522   3.511   1.222   1.002
 1875SOL     OW 6523   0.292   1.171   0.143
 1875SOL    HW1 6524   0.310   1.177   0.045
 1875SOL    HW2 6525   0.287   1.075   0.170
 1876SOL     OW 6526   3.926   6.385   6.102
 1876SOL    HW1 6527   3.902   6.477   6.134
 1876SOL    HW2 6528   3.980   6.391   6.019
 1877SOL     OW 6529   0.424   0.134   2.582
 1877SOL    HW1 6530   0.447   0.210   2.643
 1877SOL    HW2 6531   0.346   0.161   2.525
 1878SOL     OW 6532   6.859   2.494   3.621
 1878SOL    HW1 6533   6.811   2.554   3.557
 1878SOL    HW2 6534   6.943   2.539   3.652
 1879SOL     OW 6535   1.461   4.418   4.236
 1879SOL    HW1 6536   1.411   4.495   4.198
 1879SOL    HW2 6537   1.398   4.355   4.281
 1880SOL     OW 6538   6.731   1.339   4.470
 1880SOL    HW1 6539   6.726   1.417   4.408
 1880SOL    HW2 6540   6.672   1.266   4.436
 1881SOL     OW 6541   6.035   2.178   3.198
 1881SOL    HW1 6542   5.957   2.177   3.135
 1881SOL    HW2 6543   6.038   2.266   3.245
 1882SOL     OW 6544   1.342   3.879   6.255
 1882SOL    HW1 6545   1.441   3.867   6.259
 1882SOL    HW2 6546   1.312   3.879   6.160
 1883SOL     OW 6547   0.017   2.076   3.403
 1883SOL    HW1 6548   7.000   2.130   3.475
 1883SOL    HW2 6549   7.007   1.982   3.407
 1884SOL     OW 6550   6.961   2.561   0.615
 1884SOL    HW1 6551   6.987   2.594   0.706
 1884SOL    HW2 6552   6.917   2.472   0.624
 1885SOL     OW 6553   2.002   2.198   6.726
 1885SOL    HW1 6554   2.086   2.252   6.722
 1885SOL    HW2 6555   2.005   2.137   6.805
 1886SOL     OW 6556   1.774   1.135   1.958
 1886SOL    HW1 6557   1.785   1.072   2.034
 1886SOL    HW2 6558   1.816   1.223   1.980
 1887SOL     OW 6559   0.894   6.397   4.660
 1887SOL    HW1 6560   0.797   6.383   4.682
 1887SOL    HW2 6561   0.909   6.377   4.563
 1888SOL     OW 6562   2.665   1.966   0.356
 1888SOL    HW1 6563   2.693   1.986   0.449
 1888SOL    HW2 6564   2.658   1.867   0.343
 1889SOL     OW 6565   0.645   3.258   5.737
 1889SOL    HW1 6566   0.597   3.174   5.709
 1889SOL    HW2 6567   0.608   3.336   5.687
 1890SOL     OW 6568   1.727   6.089   4.606
 1890SOL    HW1 6569   1.674   6.051   4.530
 1890SOL    HW2 6570   1.666   6.134   4.671
 1891SOL     OW 6571   5.666   2.696   2.204
 1891SOL    HW1 6572   5.566   2.694   2.199
 1891SOL    HW2 6573   5.704   2.683   2.112
 1892SOL     OW 6574   2.452   0.330   2.808
 1892SOL    HW1 6575   2.547   0.361   2.797
 1892SOL    HW2 6576   2.440   0.242   2.762
 1893SOL     OW 6577   3.178   3.054   0.251
 1893SOL    HW1 6578   3.174   3.048   0.351
 1893SOL    HW2 6579   3.266   3.095   0.224
 1894SOL     OW 6580   3.611   4.120   4.140
 1894SOL    HW1 6581   3.534   4.152   4.084
 1894SOL    HW2 6582   3.629   4.187   4.212
 1895SOL     OW 6583   4.524   0.599   1.584
 1895SOL    HW1 6584   4.580   0.519   1.559
 1895SOL    HW2 6585   4.547   0.675   1.524
 1896SOL     OW 6586   5.171   0.519   1.327
 1896SOL    HW1 6587   5.073   0.502   1.322
 1896SOL    HW2 6588   5.208   0.476   1.409
 1897SOL     OW 6589   2.580   5.591   1.377
 1897SOL    HW1 6590   2.605   5.681   1.340
 1897SOL    HW2 6591   2.505   5.602   1.442
 1898SOL     OW 6592   2.243   5.507   3.255
 1898SOL    HW1 6593   2.167   5.572   3.247
 1898SOL    HW2 6594   2.294   5.525   3.340
 1899SOL     OW 6595   0.839   1.114   1.756
 1899SOL    HW1 6596   0.746   1.137   1.727
 1899SOL    HW2 6597   0.836   1.044   1.828
 1900SOL     OW 6598   1.776   0.412   6.567
 1900SOL    HW1 6599   1.816   0.498   6.535
 1900SOL    HW2 6600   1.839   0.367   6.630
 1901SOL     OW 6601   1.525   2.352   1.070
 1901SOL    HW1 6602   1.576   2.266   1.064
 1901SOL    HW2 6603   1.514   2.378   1.166
 1902SOL     OW 6604   2.131   1.191   5.387
 1902SOL    HW1 6605   2.133   1.118   5.319
 1902SOL    HW2 6606   2.043   1.239   5.381
 1903SOL     OW 6607   0.219   3.491   2.740
 1903SOL    HW1 6608   0.215   3.590   2.753
 1903SOL    HW2 6609   0.307   3.457   2.771
 1904SOL     OW 6610   5.590   5.719   3.565
 1904SOL    HW1 6611   5.531   5.670   3.501
 1904SOL    HW2 6612   5.685   5.715   3.534
 1905SOL     OW 6613   1.001   6.979   3.261
 1905SOL    HW1 6614   1.090   7.023   3.251
 1905SOL    HW2 6615   0.998   6.896   3.205
 1906SOL     OW 6616   2.090   0.058   4.727
 1906SOL    HW1 6617   2.125   0.040   4.819
 1906SOL    HW2 6618   2.023   7.012   4.703
 1907SOL     OW 6619   3.390   1.423   1.909
 1907SOL    HW1 6620   3.389   1.433   2.008
 1907SOL    HW2 6621   3.399   1.513   1.866
 1908SOL     OW 6622   3.344   6.828   5.463
 1908SOL    HW1 6623   3.371   6.778   5.545
 1908SOL    HW2 6624   3.353   6.769   5.383
 1909SOL     OW 6625   0.517   3.811   2.795
 1909SOL    HW1 6626   0.498   3.883   2.729
 1909SOL    HW2 6627   0.480   3.724   2.762
 1910SOL     OW 6628   0.185   4.690   6.756
 1910SOL    HW1 6629   0.268   4.640   6.782
 1910SOL    HW2 6630   0.209   4.761   6.689
 1911SOL     OW 6631   0.149   3.917   5.098
 1911SOL    HW1 6632   0.208   3.843   5.067
 1911SOL    HW2 6633   0.124   3.902   5.194
 1912SOL     OW 6634   3.046   5.683   0.409
 1912SOL    HW1 6635   3.072   5.644   0.321
 1912SOL    HW2 6636   3.007   5.774   0.395
 1913SOL     OW 6637   2.467   6.987   4.884
 1913SOL    HW1 6638   2.534   0.011   4.828
 1913SOL    HW2 6639   2.386   0.019   4.896
 1914SOL     OW 6640   3.609   2.837   6.305
 1914SOL    HW1 6641   3.648   2.800   6.221
 1914SOL    HW2 6642   3.603   2.764   6.374
 1915SOL     OW 6643   3.704   2.313   5.324
 1915SOL    HW1 6644   3.706   2.250   5.246
 1915SOL    HW2 6645   3.618   2.364   5.322
 1916SOL     OW 6646   3.922   5.691   1.411
 1916SOL    HW1 6647   3.905   5.750   1.332
 1916SOL    HW2 6648   4.011   5.712   1.450
 1917SOL     OW 6649   2.296   3.139   6.416
 1917SOL    HW1 6650   2.377   3.080   6.407
 1917SOL    HW2 6651   2.247   3.115   6.500
 1918SOL     OW 6652   1.330   1.321   4.674
 1918SOL    HW1 6653   1.290   1.403   4.633
 1918SOL    HW2 6654   1.392   1.278   4.609
 1919SOL     OW 6655   1.552   1.189   1.824
 1919SOL    HW1 6656   1.634   1.156   1.869
 1919SOL    HW2 6657   1.488   1.114   1.810
 1920SOL     OW 6658   0.408   4.149   3.041
 1920SOL    HW1 6659   0.485   4.119   3.098
 1920SOL    HW2 6660   0.330   4.089   3.057
 1921SOL     OW 6661   1.508   3.548   6.756
 1921SOL    HW1 6662   1.455   3.477   6.710
 1921SOL    HW2 6663   1.601   3.517   6.771
 1922SOL     OW 6664   2.742   3.095   1.782
 1922SOL    HW1 6665   2.792   3.181   1.795
 1922SOL    HW2 6666   2.662   3.095   1.841
 1923SOL     OW 6667   4.024   1.249   6.107
 1923SOL    HW1 6668   3.965   1.237   6.187
 1923SOL    HW2 6669   4.028   1.164   6.055
 1924SOL     OW 6670   4.780   6.540   0.124
 1924SOL    HW1 6671   4.682   6.524   0.114
 1924SOL    HW2 6672   4.797   6.637   0.141
 1925SOL     OW 6673   1.938   5.025   0.626
 1925SOL    HW1 6674   1.910   5.087   0.553
 1925SOL    HW2 6675   1.909   5.062   0.714
 1926SOL     OW 6676   3.260   6.683   2.860
 1926SOL    HW1 6677   3.271   6.751   2.788
 1926SOL    HW2 6678   3.203   6.607   2.826
 1927SOL     OW 6679   2.602   4.679   0.077
 1927SOL    HW1 6680   2.615   4.777   0.088
 1927SOL    HW2 6681   2.513   4.662   0.033
 1928SOL     OW 6682   6.246   4.020   4.775
 1928SOL    HW1 6683   6.159   4.059   4.806
 1928SOL    HW2 6684   6.322   4.070   4.817
 1929SOL     OW 6685   2.442   0.334   1.273
 1929SOL    HW1 6686   2.345   0.340   1.253
 1929SOL    HW2 6687   2.466   0.400   1.345
 1930SOL     OW 6688   4.923   3.842   6.487
 1930SOL    HW1 6689   4.913   3.917   6.552
 1930SOL    HW2 6690   5.005   3.857   6.432
 1931SOL     OW 6691   0.809   2.522   1.480
 1931SOL    HW1 6692   0.820   2.439   1.425
 1931SOL    HW2 6693   0.788   2.599   1.420
 1932SOL     OW 6694   4.942   2.535   3.085
 1932SOL    HW1 6695   4.966   2.484   3.002
 1932SOL    HW2 6696   4.893   2.619   3.060
 1933SOL     OW 6697   1.285   3.174   0.664
 1933SOL    HW1 6698   1.345   3.124   0.602
 1933SOL    HW2 6699   1.227   3.236   0.612
 1934SOL     OW 6700   6.911   0.725   4.930
 1934SOL    HW1 6701   6.948   0.784   5.002
 1934SOL    HW2 6702   6.814   0.709   4.947
 1935SOL     OW 6703   4.537   4.821   3.460
 1935SOL    HW1 6704   4.451   4.770   3.467
 1935SOL    HW2 6705   4.583   4.819   3.549
 1936SOL     OW 6706   5.138   4.476   4.070
 1936SOL    HW1 6707   5.198   4.511   4.142
 1936SOL    HW2 6708   5.065   4.543   4.053
 1937SOL     OW 6709   3.924   5.867   7.011
 1937SOL    HW1 6710   3.888   5.904   0.072
 1937SOL    HW2 6711   4.023   5.858   7.017
 1938SOL     OW 6712   1.341   1.568   1.725
 1938SOL    HW1 6713   1.266   1.540   1.785
 1938SOL    HW2 6714   1.308   1.634   1.658
 1939SOL     OW 6715   6.644   6.493   4.470
 1939SOL    HW1 6716   6.695   6.578   4.485
 1939SOL    HW2 6717   6.676   6.423   4.534
 1940SOL     OW 6718   6.741   4.966   0.757
 1940SOL    HW1 6719   6.710   4.871   0.751
 1940SOL    HW2 6720   6.718   5.015   0.673
 1941SOL     OW 6721   1.638   2.671   4.333
 1941SOL    HW1 6722   1.628   2.579   4.370
 1941SOL    HW2 6723   1.728   2.680   4.291
 1942SOL     OW 6724   5.378   2.801   2.462
 1942SOL    HW1 6725   5.419   2.872   2.404
 1942SOL    HW2 6726   5.279   2.800   2.449
 1943SOL     OW 6727   1.915   6.474   3.354
 1943SOL    HW1 6728   1.873   6.469   3.263
 1943SOL    HW2 6729   1.845   6.502   3.420
 1944SOL     OW 6730   5.780   3.866   0.077
 1944SOL    HW1 6731   5.870   3.857   0.120
 1944SOL    HW2 6732   5.710   3.866   0.148
 1945SOL     OW 6733   3.724   5.219   7.022
 1945SOL    HW1 6734   3.672   5.140   0.029
 1945SOL    HW2 6735   3.667   5.301   0.001
 1946SOL     OW 6736   5.641   0.180   0.845
 1946SOL    HW1 6737   5.639   0.234   0.929
 1946SOL    HW2 6738   5.555   0.130   0.835
 1947SOL     OW 6739   5.116   6.169   4.955
 1947SOL    HW1 6740   5.205   6.136   4.924
 1947SOL    HW2 6741   5.129   6.224   5.038
 1948SOL     OW 6742   6.205   5.385   3.074
 1948SOL    HW1 6743   6.228   5.442   2.996
 1948SOL    HW2 6744   6.145   5.310   3.045
 1949SOL     OW 6745   3.686   3.412   6.882
 1949SOL    HW1 6746   3.657   3.464   6.801
 1949SOL    HW2 6747   3.650   3.456   6.964
 1950SOL     OW 6748   3.413   2.954   2.071
 1950SOL    HW1 6749   3.423   3.052   2.054
 1950SOL    HW2 6750   3.460   2.903   1.999
 1951SOL     OW 6751   6.802   4.546   6.503
 1951SOL    HW1 6752   6.786   4.457   6.459
 1951SOL    HW2 6753   6.894   4.547   6.543
 1952SOL     OW 6754   5.736   4.398   1.114
 1952SOL    HW1 6755   5.714   4.492   1.093
 1952SOL    HW2 6756   5.692   4.337   1.048
 1953SOL     OW 6757   6.598   1.885   5.737
 1953SOL    HW1 6758   6.682   1.831   5.735
 1953SOL    HW2 6759   6.537   1.849   5.808
 1954SOL     OW 6760   6.180   0.101   1.304
 1954SOL    HW1 6761   6.094   0.050   1.306
 1954SOL    HW2 6762   6.223   0.096   1.394
 1955SOL     OW 6763   0.599   0.537   2.561
 1955SOL    HW1 6764   0.558   0.495   2.642
 1955SOL    HW2 6765   0.557   0.626   2.544
 1956SOL     OW 6766   4.916   0.460   1.450
 1956SOL    HW1 6767   4.985   0.531   1.463
 1956SOL    HW2 6768   4.832   0.501   1.414
 1957SOL     OW 6769   5.038   4.727   4.025
 1957SOL    HW1 6770   5.101   4.800   4.053
 1957SOL    HW2 6771   5.016   4.737   3.928
 1958SOL     OW 6772   4.520   1.721   1.570
 1958SOL    HW1 6773   4.557   1.790   1.508
 1958SOL    HW2 6774   4.482   1.765   1.651
 1959SOL     OW 6775   0.549   6.755   3.818
 1959SOL    HW1 6776   0.530   6.816   3.741
 1959SOL    HW2 6777   0.620   6.795   3.875
 1960SOL     OW 6778   0.256   3.980   2.635
 1960SOL    HW1 6779   0.316   4.037   2.691
 1960SOL    HW2 6780   0.271   4.001   2.538
 1961SOL     OW 6781   6.181   4.401   4.475
 1961SOL    HW1 6782   6.218   4.430   4.563
 1961SOL    HW2 6783   6.256   4.368   4.417
 1962SOL     OW 6784   1.623   0.038   2.026
 1962SOL    HW1 6785   1.596   0.046   2.122
 1962SOL    HW2 6786   1.635   6.967   2.002
 1963SOL     OW 6787   1.211   1.265   1.704
 1963SOL    HW1 6788   1.117   1.241   1.678
 1963SOL    HW2 6789   1.225   1.242   1.800
 1964SOL     OW 6790   3.909   4.937   1.108
 1964SOL    HW1 6791   3.814   4.905   1.103
 1964SOL    HW2 6792   3.969   4.860   1.128
 1965SOL     OW 6793   1.895   2.029   4.323
 1965SOL    HW1 6794   1.947   1.998   4.244
 1965SOL    HW2 6795   1.898   2.129   4.328
 1966SOL     OW 6796   0.815   5.931   1.412
 1966SOL    HW1 6797   0.803   5.839   1.449
 1966SOL    HW2 6798   0.893   5.931   1.349
 1967SOL     OW 6799   6.213   2.855   4.401
 1967SOL    HW1 6800   6.142   2.867   4.331
 1967SOL    HW2 6801   6.189   2.778   4.460
 1968SOL     OW 6802   2.055   0.396   5.539
 1968SOL    HW1 6803   2.149   0.431   5.542
 1968SOL    HW2 6804   1.993   0.469   5.511
 1969SOL     OW 6805   2.882   1.285   1.379
 1969SOL    HW1 6806   2.924   1.210   1.431
 1969SOL    HW2 6807   2.952   1.352   1.356
 1970SOL     OW 6808   0.593   0.215   4.935
 1970SOL    HW1 6809   0.493   0.209   4.934
 1970SOL    HW2 6810   0.621   0.299   4.888
 1971SOL     OW 6811   0.404   1.360   5.958
 1971SOL    HW1 6812   0.457   1.276   5.965
 1971SOL    HW2 6813   0.307   1.339   5.972
 1972SOL     OW 6814   5.646   2.595   1.152
 1972SOL    HW1 6815   5.729   2.640   1.184
 1972SOL    HW2 6816   5.610   2.644   1.073
 1973SOL     OW 6817   2.716   4.289   1.676
 1973SOL    HW1 6818   2.801   4.321   1.718
 1973SOL    HW2 6819   2.638   4.336   1.718
 1974SOL     OW 6820   4.945   0.116   4.825
 1974SOL    HW1 6821   4.974   0.208   4.796
 1974SOL    HW2 6822   4.845   0.112   4.828
 1975SOL     OW 6823   2.083   1.969   4.122
 1975SOL    HW1 6824   2.089   1.951   4.024
 1975SOL    HW2 6825   2.157   2.030   4.150
 1976SOL     OW 6826   5.672   6.135   0.833
 1976SOL    HW1 6827   5.635   6.108   0.922
 1976SOL    HW2 6828   5.733   6.063   0.799
 1977SOL     OW 6829   1.745   3.208   4.977
 1977SOL    HW1 6830   1.787   3.270   4.911
 1977SOL    HW2 6831   1.813   3.141   5.007
 1978SOL     OW 6832   2.085   5.865   2.777
 1978SOL    HW1 6833   1.987   5.886   2.777
 1978SOL    HW2 6834   2.116   5.854   2.871
 1979SOL     OW 6835   5.360   5.192   0.155
 1979SOL    HW1 6836   5.268   5.196   0.195
 1979SOL    HW2 6837   5.428   5.181   0.228
 1980SOL     OW 6838   4.110   0.321   3.724
 1980SOL    HW1 6839   4.132   0.223   3.719
 1980SOL    HW2 6840   4.184   0.374   3.683
 1981SOL     OW 6841   5.617   3.096   2.644
 1981SOL    HW1 6842   5.643   3.088   2.547
 1981SOL    HW2 6843   5.680   3.042   2.700
 1982SOL     OW 6844   6.737   3.892   3.855
 1982SOL    HW1 6845   6.782   3.925   3.938
 1982SOL    HW2 6846   6.647   3.855   3.879
 1983SOL     OW 6847   2.228   0.728   1.570
 1983SOL    HW1 6848   2.195   0.678   1.650
 1983SOL    HW2 6849   2.256   0.820   1.598
 1984SOL     OW 6850   4.469   2.557   4.956
 1984SOL    HW1 6851   4.467   2.656   4.968
 1984SOL    HW2 6852   4.393   2.515   5.007
 1985SOL     OW 6853   0.157   6.221   1.885
 1985SOL    HW1 6854   0.058   6.221   1.900
 1985SOL    HW2 6855   0.175   6.228   1.786
 1986SOL     OW 6856   3.003   0.738   6.534
 1986SOL    HW1 6857   3.014   0.759   6.437
 1986SOL    HW2 6858   2.906   0.720   6.553
 1987SOL     OW 6859   2.645   1.339   3.722
 1987SOL    HW1 6860   2.692   1.349   3.809
 1987SOL    HW2 6861   2.581   1.262   3.727
 1988SOL     OW 6862   0.528   2.775   0.978
 1988SOL    HW1 6863   0.526   2.706   1.050
 1988SOL    HW2 6864   0.623   2.801   0.960
 1989SOL     OW 6865   2.205   5.772   4.921
 1989SOL    HW1 6866   2.171   5.684   4.953
 1989SOL    HW2 6867   2.303   5.778   4.937
 1990SOL     OW 6868   3.293   5.565   0.087
 1990SOL    HW1 6869   3.363   5.572   0.016
 1990SOL    HW2 6870   3.292   5.472   0.125
 1991SOL     OW 6871   1.535   5.871   0.443
 1991SOL    HW1 6872   1.620   5.910   0.408
 1991SOL    HW2 6873   1.459   5.932   0.422
 1992SOL     OW 6874   0.177   0.620   0.550
 1992SOL    HW1 6875   0.174   0.719   0.536
 1992SOL    HW2 6876   0.103   0.592   0.612
 1993SOL     OW 6877   3.338   1.565   5.452
 1993SOL    HW1 6878   3.280   1.520   5.385
 1993SOL    HW2 6879   3.301   1.655   5.474
 1994SOL     OW 6880   5.933   2.439   1.730
 1994SOL    HW1 6881   6.020   2.466   1.773
 1994SOL    HW2 6882   5.857   2.482   1.778
 1995SOL     OW 6883   5.693   3.330   3.915
 1995SOL    HW1 6884   5.712   3.406   3.977
 1995SOL    HW2 6885   5.736   3.347   3.827
 1996SOL     OW 6886   2.641   1.992   1.307
 1996SOL    HW1 6887   2.603   2.084   1.311
 1996SOL    HW2 6888   2.590   1.933   1.370
 1997SOL     OW 6889   3.741   1.583   3.896
 1997SOL    HW1 6890   3.841   1.590   3.904
 1997SOL    HW2 6891   3.713   1.614   3.805
 1998SOL     OW 6892   1.702   4.057   0.834
 1998SOL    HW1 6893   1.778   4.119   0.814
 1998SOL    HW2 6894   1.736   3.964   0.846
 1999SOL     OW 6895   1.002   0.359   5.710
 1999SOL    HW1 6896   0.918   0.396   5.672
 1999SOL    HW2 6897   1.075   0.427   5.704
 2000SOL     OW 6898   3.851   2.924   5.713
 2000SOL    HW1 6899   3.938   2.947   5.756
 2000SOL    HW2 6900   3.866   2.856   5.641
 2001SOL     OW 6901   2.306   1.386   1.134
 2001SOL    HW1 6902   2.281   1.315   1.069
 2001SOL    HW2 6903   2.312   1.474   1.087
 2002SOL     OW 6904   0.602   4.951   0.758
 2002SOL    HW1 6905   0.638   4.940   0.850
 2002SOL    HW2 6906   0.504   4.929   0.757
 2003SOL     OW 6907   6.672   5.018   2.225
 2003SOL    HW1 6908   6.671   5.118   2.218
 2003SOL    HW2 6909   6.715   4.979   2.144
 2004SOL     OW 6910   4.651   0.644   4.620
 2004SOL    HW1 6911   4.561   0.668   4.583
 2004SOL    HW2 6912   4.650   0.655   4.719
 2005SOL     OW 6913   0.113   4.671   0.285
 2005SOL    HW1 6914   0.185   4.689   0.218
 2005SOL    HW2 6915   0.135   4.589   0.337
 2006SOL     OW 6916   5.643   6.812   4.016
 2006SOL    HW1 6917   5.667   6.715   4.019
 2006SOL    HW2 6918   5.628   6.840   3.921
 2007SOL     OW 6919   5.353   4.452   0.937
 2007SOL    HW1 6920   5.318   4.517   1.005
 2007SOL    HW2 6921   5.353   4.496   0.847
 2008SOL     OW 6922   2.047   3.496   3.383
 2008SOL    HW1 6923   2.050   3.449   3.471
 2008SOL    HW2 6924   1.963   3.551   3.378
 2009SOL     OW 6925   4.855   6.254   2.386
 2009SOL    HW1 6926   4.890   6.339   2.424
 2009SOL    HW2 6927   4.790   6.274   2.313
 2010SOL     OW 6928   2.485   1.891   2.119
 2010SOL    HW1 6929   2.514   1.895   2.024
 2010SOL    HW2 6930   2.392   1.855   2.124
 2011SOL     OW 6931   0.555   0.928   4.911
 2011SOL    HW1 6932   0.650   0.953   4.891
 2011SOL    HW2 6933   0.499   1.011   4.915
 2012SOL     OW 6934   1.549   3.751   2.246
 2012SOL    HW1 6935   1.455   3.740   2.279
 2012SOL    HW2 6936   1.556   3.714   2.153
 2013SOL     OW 6937   6.225   3.229   4.003
 2013SOL    HW1 6938   6.163   3.159   3.967
 2013SOL    HW2 6939   6.319   3.196   4.000
 2014SOL     OW 6940   3.226   0.117   3.130
 2014SOL    HW1 6941   3.174   0.167   3.198
 2014SOL    HW2 6942   3.176   0.116   3.043
 2015SOL     OW 6943   2.671   6.607   0.725
 2015SOL    HW1 6944   2.759   6.591   0.769
 2015SOL    HW2 6945   2.671   6.565   0.634
 2016SOL     OW 6946   1.441   5.651   5.104
 2016SOL    HW1 6947   1.363   5.661   5.043
 2016SOL    HW2 6948   1.419   5.688   5.194
 2017SOL     OW 6949   4.491   0.287   3.284
 2017SOL    HW1 6950   4.496   0.199   3.237
 2017SOL    HW2 6951   4.434   0.279   3.365
 2018SOL     OW 6952   6.331   2.778   3.576
 2018SOL    HW1 6953   6.340   2.758   3.479
 2018SOL    HW2 6954   6.364   2.871   3.594
 2019SOL     OW 6955   6.040   4.401   6.154
 2019SOL    HW1 6956   6.104   4.423   6.227
 2019SOL    HW2 6957   5.959   4.459   6.162
 2020SOL     OW 6958   1.828   6.362   5.797
 2020SOL    HW1 6959   1.798   6.267   5.788
 2020SOL    HW2 6960   1.864   6.377   5.890
 2021SOL     OW 6961   6.424   6.641   4.426
 2021SOL    HW1 6962   6.508   6.587   4.423
 2021SOL    HW2 6963   6.448   6.738   4.421
 2022SOL     OW 6964   1.654   4.724   4.155
 2022SOL    HW1 6965   1.560   4.703   4.181
 2022SOL    HW2 6966   1.717   4.680   4.220
 2023SOL     OW 6967   0.807   0.561   0.171
 2023SOL    HW1 6968   0.884   0.526   0.117
 2023SOL    HW2 6969   0.790   0.657   0.146
 2024SOL     OW 6970   0.050   5.832   3.769
 2024SOL    HW1 6971   0.102   5.916   3.759
 2024SOL    HW2 6972   6.999   5.831   3.703
 2025SOL     OW 6973   3.663   0.848   4.306
 2025SOL    HW1 6974   3.649   0.831   4.404
 2025SOL    HW2 6975   3.703   0.939   4.293
 2026SOL     OW 6976   6.881   2.299   6.555
 2026SOL    HW1 6977   6.906   2.325   6.648
 2026SOL    HW2 6978   6.793   2.251   6.556
 2027SOL     OW 6979   0.856   6.977   1.576
 2027SOL    HW1 6980   0.760   6.952   1.563
 2027SOL    HW2 6981   0.908   6.955   1.493
 2028SOL     OW 6982   3.402   5.450   3.632
 2028SOL    HW1 6983   3.305   5.432   3.648
 2028SOL    HW2 6984   3.454   5.431   3.715
 2029SOL     OW 6985   6.533   2.353   6.891
 2029SOL    HW1 6986   6.581   2.331   6.977
 2029SOL    HW2 6987   6.465   2.424   6.908
 2030SOL     OW 6988   3.461   0.197   2.717
 2030SOL    HW1 6989   3.534   0.176   2.783
 2030SOL    HW2 6990   3.488   0.274   2.660
 2031SOL     OW 6991   0.130   6.646   2.454
 2031SOL    HW1 6992   0.150   6.673   2.548
 2031SOL    HW2 6993   0.138   6.547   2.445
 2032SOL     OW 6994   3.617   1.184   1.632
 2032SOL    HW1 6995   3.543   1.141   1.580
 2032SOL    HW2 6996   3.584   1.207   1.724
 2033SOL     OW 6997   2.260   1.173   0.937
 2033SOL    HW1 6998   2.194   1.098   0.936
 2033SOL    HW2 6999   2.350   1.140   0.965
 2034SOL     OW 7000   1.583   4.963   5.725
 2034SOL    HW1 7001   1.560   4.876   5.769
 2034SOL    HW2 7002   1.680   4.982   5.739
 2035SOL     OW 7003   6.432   6.449   2.604
 2035SOL    HW1 7004   6.456   6.421   2.697
 2035SOL    HW2 7005   6.485   6.530   2.580
 2036SOL     OW 7006   1.265   3.783   3.172
 2036SOL    HW1 7007   1.182   3.801   3.120
 2036SOL    HW2 7008   1.249   3.707   3.235
 2037SOL     OW 7009   6.081   2.776   6.438
 2037SOL    HW1 7010   6.075   2.778   6.338
 2037SOL    HW2 7011   6.176   2.760   6.466
 2038SOL     OW 7012   2.561   1.588   0.747
 2038SOL    HW1 7013   2.596   1.682   0.749
 2038SOL    HW2 7014   2.628   1.527   0.789
 2039SOL     OW 7015   0.215   6.727   3.090
 2039SOL    HW1 7016   0.142   6.660   3.094
 2039SOL    HW2 7017   0.261   6.721   3.002
 2040SOL     OW 7018   2.254   2.119   0.343
 2040SOL    HW1 7019   2.249   2.026   0.379
 2040SOL    HW2 7020   2.347   2.136   0.309
 2041SOL     OW 7021   1.400   0.458   5.552
 2041SOL    HW1 7022   1.376   0.379   5.608
 2041SOL    HW2 7023   1.362   0.448   5.461
 2042SOL     OW 7024   5.041   0.277   6.132
 2042SOL    HW1 7025   5.006   0.262   6.224
 2042SOL    HW2 7026   5.028   0.373   6.106
 2043SOL     OW 7027   6.290   2.873   2.884
 2043SOL    HW1 7028   6.302   2.788   2.833
 2043SOL    HW2 7029   6.208   2.921   2.851
 2044SOL     OW 7030   6.290   0.550   0.954
 2044SOL    HW1 7031   6.281   0.455   0.986
 2044SOL    HW2 7032   6.206   0.600   0.976
 2045SOL     OW 7033   1.051   5.260   4.435
 2045SOL    HW1 7034   1.005   5.348   4.427
 2045SOL    HW2 7035   1.067   5.238   4.531
 2046SOL     OW 7036   6.205   2.251   5.260
 2046SOL    HW1 7037   6.147   2.313   5.313
 2046SOL    HW2 7038   6.246   2.300   5.184
 2047SOL     OW 7039   6.427   2.738   1.020
 2047SOL    HW1 7040   6.411   2.836   1.003
 2047SOL    HW2 7041   6.397   2.686   0.940
 2048SOL     OW 7042   0.277   0.494   4.862
 2048SOL    HW1 7043   0.182   0.526   4.864
 2048SOL    HW2 7044   0.322   0.529   4.780
 2049SOL     OW 7045   5.314   1.458   4.104
 2049SOL    HW1 7046   5.358   1.368   4.099
 2049SOL    HW2 7047   5.324   1.495   4.196
 2050SOL     OW 7048   6.904   2.578   4.419
 2050SOL    HW1 7049   6.943   2.567   4.327
 2050SOL    HW2 7050   6.832   2.647   4.416
 2051SOL     OW 7051   1.744   6.180   6.999
 2051SOL    HW1 7052   1.763   6.174   0.072
 2051SOL    HW2 7053   1.681   6.107   6.973
 2052SOL     OW 7054   1.591   2.930   0.722
 2052SOL    HW1 7055   1.555   2.840   0.744
 2052SOL    HW2 7056   1.532   2.973   0.653
 2053SOL     OW 7057   1.100   5.428   5.046
 2053SOL    HW1 7058   1.029   5.358   5.035
 2053SOL    HW2 7059   1.057   5.518   5.058
 2054SOL     OW 7060   3.188   4.040   3.026
 2054SOL    HW1 7061   3.148   3.969   3.084
 2054SOL    HW2 7062   3.255   4.093   3.079
 2055SOL     OW 7063   6.351   2.980   5.021
 2055SOL    HW1 7064   6.319   3.051   4.959
 2055SOL    HW2 7065   6.450   2.971   5.013
 2056SOL     OW 7066   4.385   4.935   1.454
 2056SOL    HW1 7067   4.408   5.010   1.516
 2056SOL    HW2 7068   4.372   4.851   1.506
 2057SOL     OW 7069   4.847   3.425   5.308
 2057SOL    HW1 7070   4.897   3.492   5.363
 2057SOL    HW2 7071   4.784   3.473   5.246
 2058SOL     OW 7072   0.829   6.499   2.507
 2058SOL    HW1 7073   0.763   6.478   2.579
 2058SOL    HW2 7074   0.913   6.534   2.548
 2059SOL     OW 7075   2.511   6.846   5.791
 2059SOL    HW1 7076   2.452   6.927   5.789
 2059SOL    HW2 7077   2.458   6.768   5.824
 2060SOL     OW 7078   0.208   3.540   1.926
 2060SOL    HW1 7079   0.191   3.455   1.975
 2060SOL    HW2 7080   0.141   3.609   1.956
 2061SOL     OW 7081   1.929   2.081   2.489
 2061SOL    HW1 7082   1.865   2.006   2.508
 2061SOL    HW2 7083   1.879   2.160   2.455
 2062SOL     OW 7084   6.838   5.760   5.300
 2062SOL    HW1 7085   6.909   5.699   5.336
 2062SOL    HW2 7086   6.783   5.711   5.233
 2063SOL     OW 7087   1.233   6.735   4.984
 2063SOL    HW1 7088   1.143   6.760   5.020
 2063SOL    HW2 7089   1.257   6.643   5.016
 2064SOL     OW 7090   0.423   3.194   4.383
 2064SOL    HW1 7091   0.494   3.132   4.349
 2064SOL    HW2 7092   0.395   3.255   4.309
 2065SOL     OW 7093   5.567   3.267   5.790
 2065SOL    HW1 7094   5.490   3.310   5.743
 2065SOL    HW2 7095   5.620   3.336   5.839
 2066SOL     OW 7096   6.543   4.211   5.539
 2066SOL    HW1 7097   6.464   4.151   5.550
 2066SOL    HW2 7098   6.620   4.175   5.592
 2067SOL     OW 7099   6.608   5.149   0.955
 2067SOL    HW1 7100   6.684   5.088   0.933
 2067SOL    HW2 7101   6.522   5.106   0.926
 2068SOL     OW 7102   3.993   0.800   4.442
 2068SOL    HW1 7103   3.978   0.768   4.535
 2068SOL    HW2 7104   4.071   0.752   4.401
 2069SOL     OW 7105   0.268   2.428   3.800
 2069SOL    HW1 7106   0.367   2.414   3.788
 2069SOL    HW2 7107   0.223   2.340   3.809
 2070SOL     OW 7108   1.021   2.862   0.989
 2070SOL    HW1 7109   1.055   2.769   1.002
 2070SOL    HW2 7110   1.097   2.923   0.966
 2071SOL     OW 7111   5.894   1.696   6.346
 2071SOL    HW1 7112   5.798   1.699   6.373
 2071SOL    HW2 7113   5.918   1.778   6.295
 2072SOL     OW 7114   4.503   5.112   5.014
 2072SOL    HW1 7115   4.464   5.102   4.922
 2072SOL    HW2 7116   4.447   5.063   5.080
 2073SOL     OW 7117   3.527   6.169   5.504
 2073SOL    HW1 7118   3.518   6.143   5.408
 2073SOL    HW2 7119   3.624   6.181   5.526
 2074SOL     OW 7120   1.861   2.538   6.565
 2074SOL    HW1 7121   1.877   2.637   6.563
 2074SOL    HW2 7122   1.946   2.491   6.590
 2075SOL     OW 7123   6.439   2.317   3.132
 2075SOL    HW1 7124   6.531   2.317   3.092
 2075SOL    HW2 7125   6.373   2.350   3.064
 2076SOL     OW 7126   5.796   0.604   5.505
 2076SOL    HW1 7127   5.834   0.682   5.554
 2076SOL    HW2 7128   5.846   0.521   5.529
 2077SOL     OW 7129   6.399   1.975   2.083
 2077SOL    HW1 7130   6.372   1.945   2.175
 2077SOL    HW2 7131   6.499   1.977   2.076
 2078SOL     OW 7132   1.256   4.867   6.212
 2078SOL    HW1 7133   1.271   4.945   6.151
 2078SOL    HW2 7134   1.339   4.849   6.264
 2079SOL     OW 7135   6.035   0.922   2.704
 2079SOL    HW1 7136   6.005   0.944   2.611
 2079SOL    HW2 7137   6.122   0.874   2.701
 2080SOL     OW 7138   3.587   2.030   4.824
 2080SOL    HW1 7139   3.570   2.102   4.892
 2080SOL    HW2 7140   3.566   1.941   4.864
 2081SOL     OW 7141   0.893   6.573   3.840
 2081SOL    HW1 7142   0.858   6.483   3.816
 2081SOL    HW2 7143   0.873   6.592   3.936
 2082SOL     OW 7144   0.832   6.407   3.153
 2082SOL    HW1 7145   0.892   6.372   3.081
 2082SOL    HW2 7146   0.828   6.340   3.228
 2083SOL     OW 7147   1.127   6.027   4.636
 2083SOL    HW1 7148   1.133   6.069   4.546
 2083SOL    HW2 7149   1.087   6.092   4.701
 2084SOL     OW 7150   1.001   2.888   1.841
 2084SOL    HW1 7151   1.057   2.823   1.790
 2084SOL    HW2 7152   0.908   2.888   1.804
 2085SOL     OW 7153   5.129   6.438   0.880
 2085SOL    HW1 7154   5.180   6.457   0.796
 2085SOL    HW2 7155   5.121   6.339   0.893
 2086SOL     OW 7156   3.850   5.612   6.868
 2086SOL    HW1 7157   3.860   5.710   6.888
 2086SOL    HW2 7158   3.913   5.560   6.925
 2087SOL     OW 7159   4.576   1.897   0.275
 2087SOL    HW1 7160   4.634   1.890   0.194
 2087SOL    HW2 7161   4.593   1.818   0.335
 2088SOL     OW 7162   1.086   5.874   5.741
 2088SOL    HW1 7163   1.115   5.910   5.830
 2088SOL    HW2 7164   1.072   5.775   5.748
 2089SOL     OW 7165   4.162   2.129   5.228
 2089SOL    HW1 7166   4.216   2.068   5.171
 2089SOL    HW2 7167   4.085   2.079   5.267
 2090SOL     OW 7168   5.067   2.897   5.694
 2090SOL    HW1 7169   5.106   2.839   5.765
 2090SOL    HW2 7170   5.001   2.960   5.735
 2091SOL     OW 7171   6.715   6.019   0.878
 2091SOL    HW1 7172   6.751   6.112   0.872
 2091SOL    HW2 7173   6.622   6.022   0.916
 2092SOL     OW 7174   5.806   3.828   1.011
 2092SOL    HW1 7175   5.795   3.767   1.089
 2092SOL    HW2 7176   5.727   3.818   0.950
 2093SOL     OW 7177   3.549   1.974   2.457
 2093SOL    HW1 7178   3.460   1.960   2.414
 2093SOL    HW2 7179   3.589   1.886   2.481
 2094SOL     OW 7180   5.352   2.459   0.823
 2094SOL    HW1 7181   5.411   2.455   0.903
 2094SOL    HW2 7182   5.393   2.520   0.754
 2095SOL     OW 7183   6.232   6.237   3.550
 2095SOL    HW1 7184   6.224   6.266   3.645
 2095SOL    HW2 7185   6.324   6.201   3.534
 2096SOL     OW 7186   4.500   5.712   2.706
 2096SOL    HW1 7187   4.471   5.620   2.732
 2096SOL    HW2 7188   4.439   5.780   2.747
 2097SOL     OW 7189   2.531   3.525   6.920
 2097SOL    HW1 7190   2.521   3.550   7.016
 2097SOL    HW2 7191   2.451   3.556   6.869
 2098SOL     OW 7192   4.167   5.667   3.281
 2098SOL    HW1 7193   4.115   5.750   3.302
 2098SOL    HW2 7194   4.205   5.629   3.365
 2099SOL     OW 7195   4.224   1.584   6.644
 2099SOL    HW1 7196   4.169   1.565   6.725
 2099SOL    HW2 7197   4.164   1.601   6.566
 2100SOL     OW 7198   4.949   1.641   0.569
 2100SOL    HW1 7199   5.021   1.700   0.606
 2100SOL    HW2 7200   4.931   1.566   0.633
 2101SOL     OW 7201   6.811   6.303   1.182
 2101SOL    HW1 7202   6.869   6.233   1.142
 2101SOL    HW2 7203   6.796   6.377   1.116
 2102SOL     OW 7204   5.004   3.560   1.230
 2102SOL    HW1 7205   5.058   3.476   1.237
 2102SOL    HW2 7206   4.907   3.537   1.229
 2103SOL     OW 7207   3.017   3.680   0.596
 2103SOL    HW1 7208   3.096   3.680   0.658
 2103SOL    HW2 7209   2.936   3.713   0.644
 2104SOL     OW 7210   1.319   4.980   1.819
 2104SOL    HW1 7211   1.358   5.053   1.763
 2104SOL    HW2 7212   1.387   4.907   1.830
 2105SOL     OW 7213   3.927   4.811   6.749
 2105SOL    HW1 7214   3.941   4.717   6.778
 2105SOL    HW2 7215   4.014   4.849   6.714
 2106SOL     OW 7216   5.218   3.644   1.061
 2106SOL    HW1 7217   5.184   3.732   1.096
 2106SOL    HW2 7218   5.255   3.591   1.137
 2107SOL     OW 7219   6.149   2.962   5.862
 2107SOL    HW1 7220   6.242   2.966   5.825
 2107SOL    HW2 7221   6.141   3.028   5.937
 2108SOL     OW 7222   5.506   6.239   5.574
 2108SOL    HW1 7223   5.523   6.208   5.667
 2108SOL    HW2 7224   5.489   6.338   5.575
 2109SOL     OW 7225   3.079   5.880   1.980
 2109SOL    HW1 7226   3.148   5.851   1.913
 2109SOL    HW2 7227   3.037   5.799   2.022
 2110SOL     OW 7228   3.673   0.771   5.895
 2110SOL    HW1 7229   3.608   0.820   5.837
 2110SOL    HW2 7230   3.655   0.673   5.889
 2111SOL     OW 7231   1.257   2.027   5.204
 2111SOL    HW1 7232   1.354   2.037   5.186
 2111SOL    HW2 7233   1.219   2.115   5.233
 2112SOL     OW 7234   5.859   2.313   6.601
 2112SOL    HW1 7235   5.888   2.346   6.511
 2112SOL    HW2 7236   5.767   2.273   6.594
 2113SOL     OW 7237   2.004   0.315   4.813
 2113SOL    HW1 7238   2.044   0.226   4.790
 2113SOL    HW2 7239   1.992   0.368   4.729
 2114SOL     OW 7240   2.427   2.780   6.817
 2114SOL    HW1 7241   2.410   2.844   6.742
 2114SOL    HW2 7242   2.400   2.821   6.904
 2115SOL     OW 7243   1.181   4.603   1.560
 2115SOL    HW1 7244   1.281   4.594   1.556
 2115SOL    HW2 7245   1.157   4.677   1.623
 2116SOL     OW 7246   0.920   2.885   1.241
 2116SOL    HW1 7247   0.947   2.907   1.147
 2116SOL    HW2 7248   0.973   2.808   1.275
 2117SOL     OW 7249   5.254   3.037   1.929
 2117SOL    HW1 7250   5.195   3.069   2.003
 2117SOL    HW2 7251   5.344   3.013   1.967
 2118SOL     OW 7252   6.066   3.953   2.353
 2118SOL    HW1 7253   6.164   3.969   2.364
 2118SOL    HW2 7254   6.045   3.859   2.381
 2119SOL     OW 7255   1.465   1.660   0.359
 2119SOL    HW1 7256   1.380   1.608   0.371
 2119SOL    HW2 7257   1.531   1.632   0.429
 2120SOL     OW 7258   6.431   2.404   2.587
 2120SOL    HW1 7259   6.403   2.328   2.527
 2120SOL    HW2 7260   6.520   2.382   2.627
 2121SOL     OW 7261   2.010   2.356   6.282
 2121SOL    HW1 7262   2.026   2.291   6.356
 2121SOL    HW2 7263   1.945   2.426   6.313
 2122SOL     OW 7264   5.984   6.855   6.204
 2122SOL    HW1 7265   6.042   6.928   6.241
 2122SOL    HW2 7266   6.032   6.809   6.129
 2123SOL     OW 7267   6.584   6.076   2.252
 2123SOL    HW1 7268   6.486   6.059   2.247
 2123SOL    HW2 7269   6.603   6.142   2.325
 2124SOL     OW 7270   2.934   1.335   5.511
 2124SOL    HW1 7271   2.838   1.365   5.509
 2124SOL    HW2 7272   2.993   1.415   5.504
 2125SOL     OW 7273   1.553   5.870   2.438
 2125SOL    HW1 7274   1.551   5.951   2.496
 2125SOL    HW2 7275   1.646   5.854   2.405
 2126SOL     OW 7276   4.145   2.816   6.758
 2126SOL    HW1 7277   4.071   2.869   6.803
 2126SOL    HW2 7278   4.181   2.749   6.823
 2127SOL     OW 7279   0.590   1.886   5.575
 2127SOL    HW1 7280   0.631   1.795   5.569
 2127SOL    HW2 7281   0.583   1.926   5.484
 2128SOL     OW 7282   6.371   3.172   0.614
 2128SOL    HW1 7283   6.383   3.097   0.679
 2128SOL    HW2 7284   6.293   3.228   0.642
 2129SOL     OW 7285   5.383   4.537   4.209
 2129SOL    HW1 7286   5.361   4.453   4.258
 2129SOL    HW2 7287   5.443   4.516   4.131
 2130SOL     OW 7288   2.431   1.551   1.400
 2130SOL    HW1 7289   2.431   1.540   1.300
 2130SOL    HW2 7290   2.502   1.493   1.440
 2131SOL     OW 7291   5.109   2.147   0.647
 2131SOL    HW1 7292   5.025   2.092   0.659
 2131SOL    HW2 7293   5.188   2.090   0.668
 2132SOL     OW 7294   3.412   1.492   6.985
 2132SOL    HW1 7295   3.374   1.454   6.900
 2132SOL    HW2 7296   3.339   1.538   0.010
 2133SOL     OW 7297   2.502   2.226   1.314
 2133SOL    HW1 7298   2.475   2.243   1.408
 2133SOL    HW2 7299   2.420   2.219   1.256
 2134SOL     OW 7300   1.352   0.990   4.652
 2134SOL    HW1 7301   1.445   0.971   4.684
 2134SOL    HW2 7302   1.303   0.904   4.640
 2135SOL     OW 7303   0.455   2.176   4.155
 2135SOL    HW1 7304   0.416   2.124   4.079
 2135SOL    HW2 7305   0.544   2.213   4.128
 2136SOL     OW 7306   1.020   3.641   4.744
 2136SOL    HW1 7307   1.076   3.607   4.669
 2136SOL    HW2 7308   0.988   3.734   4.722
 2137SOL     OW 7309   0.783   6.975   4.935
 2137SOL    HW1 7310   0.794   0.040   4.978
 2137SOL    HW2 7311   0.708   6.926   4.979
 2138SOL     OW 7312   5.472   2.820   1.741
 2138SOL    HW1 7313   5.453   2.883   1.816
 2138SOL    HW2 7314   5.558   2.772   1.759
 2139SOL     OW 7315   4.094   0.891   3.638
 2139SOL    HW1 7316   4.066   0.853   3.726
 2139SOL    HW2 7317   4.053   0.982   3.626
 2140SOL     OW 7318   2.812   6.258   2.830
 2140SOL    HW1 7319   2.867   6.290   2.753
 2140SOL    HW2 7320   2.723   6.304   2.830
 2141SOL     OW 7321   6.581   3.000   1.630
 2141SOL    HW1 7322   6.609   3.096   1.638
 2141SOL    HW2 7323   6.621   2.961   1.547
 2142SOL     OW 7324   1.209   1.976   3.366
 2142SOL    HW1 7325   1.220   1.930   3.455
 2142SOL    HW2 7326   1.294   1.968   3.314
 2143SOL     OW 7327   3.550   6.061   0.690
 2143SOL    HW1 7328   3.537   6.159   0.701
 2143SOL    HW2 7329   3.574   6.041   0.595
 2144SOL     OW 7330   1.793   0.507   3.411
 2144SOL    HW1 7331   1.807   0.606   3.416
 2144SOL    HW2 7332   1.881   0.461   3.398
 2145SOL     OW 7333   3.586   5.708   4.006
 2145SOL    HW1 7334   3.654   5.697   3.933
 2145SOL    HW2 7335   3.510   5.645   3.991
 2146SOL     OW 7336   3.524   4.063   2.655
 2146SOL    HW1 7337   3.518   4.081   2.557
 2146SOL    HW2 7338   3.435   4.080   2.697
 2147SOL     OW 7339   0.178   1.121   6.849
 2147SOL    HW1 7340   0.113   1.196   6.860
 2147SOL    HW2 7341   0.266   1.158   6.819
 2148SOL     OW 7342   4.846   3.364   4.163
 2148SOL    HW1 7343   4.900   3.412   4.094
 2148SOL    HW2 7344   4.799   3.287   4.121
 2149SOL     OW 7345   3.966   0.673   1.873
 2149SOL    HW1 7346   3.954   0.618   1.791
 2149SOL    HW2 7347   3.929   0.624   1.952
 2150SOL     OW 7348   3.094   2.136   2.666
 2150SOL    HW1 7349   3.009   2.188   2.656
 2150SOL    HW2 7350   3.146   2.171   2.744
 2151SOL     OW 7351   3.002   1.872   5.196
 2151SOL    HW1 7352   2.907   1.840   5.187
 2151SOL    HW2 7353   3.006   1.970   5.177
 2152SOL     OW 7354   5.145   6.395   1.887
 2152SOL    HW1 7355   5.176   6.333   1.814
 2152SOL    HW2 7356   5.224   6.424   1.941
 2153SOL     OW 7357   4.264   0.972   4.255
 2153SOL    HW1 7358   4.336   0.911   4.222
 2153SOL    HW2 7359   4.299   1.024   4.333
 2154SOL     OW 7360   3.315   5.958   4.673
 2154SOL    HW1 7361   3.225   5.930   4.707
 2154SOL    HW2 7362   3.359   6.016   4.741
 2155SOL     OW 7363   1.713   5.032   0.009
 2155SOL    HW1 7364   1.727   5.081   6.948
 2155SOL    HW2 7365   1.797   4.982   0.033
 2156SOL     OW 7366   2.853   0.212   1.862
 2156SOL    HW1 7367   2.942   0.259   1.860
 2156SOL    HW2 7368   2.782   0.278   1.886
 2157SOL     OW 7369   6.350   0.941   4.398
 2157SOL    HW1 7370   6.338   0.956   4.300
 2157SOL    HW2 7371   6.318   0.849   4.421
 2158SOL     OW 7372   3.062   6.358   0.129
 2158SOL    HW1 7373   3.023   6.449   0.118
 2158SOL    HW2 7374   3.006   6.292   0.078
 2159SOL     OW 7375   1.156   6.167   5.110
 2159SOL    HW1 7376   1.153   6.089   5.046
 2159SOL    HW2 7377   1.067   6.212   5.110
 2160SOL     OW 7378   4.544   4.003   1.416
 2160SOL    HW1 7379   4.564   4.011   1.513
 2160SOL    HW2 7380   4.445   4.015   1.401
 2161SOL     OW 7381   4.911   3.718   3.795
 2161SOL    HW1 7382   5.011   3.725   3.785
 2161SOL    HW2 7383   4.877   3.644   3.737
 2162SOL     OW 7384   1.813   0.747   0.374
 2162SOL    HW1 7385   1.792   0.818   0.441
 2162SOL    HW2 7386   1.909   0.753   0.347
 2163SOL     OW 7387   0.629   6.380   6.691
 2163SOL    HW1 7388   0.571   6.304   6.721
 2163SOL    HW2 7389   0.667   6.426   6.771
 2164SOL     OW 7390   1.737   1.092   6.446
 2164SOL    HW1 7391   1.654   1.113   6.394
 2164SOL    HW2 7392   1.712   1.067   6.539
 2165SOL     OW 7393   1.949   1.220   2.280
 2165SOL    HW1 7394   1.929   1.290   2.212
 2165SOL    HW2 7395   2.013   1.256   2.347
 2166SOL     OW 7396   2.068   2.372   5.810
 2166SOL    HW1 7397   2.153   2.376   5.758
 2166SOL    HW2 7398   2.042   2.465   5.838
 2167SOL     OW 7399   2.910   0.220   2.308
 2167SOL    HW1 7400   2.926   0.205   2.405
 2167SOL    HW2 7401   2.816   0.196   2.285
 2168SOL     OW 7402   6.141   2.943   5.210
 2168SOL    HW1 7403   6.225   2.955   5.156
 2168SOL    HW2 7404   6.076   3.014   5.186
 2169SOL     OW 7405   5.265   2.566   5.643
 2169SOL    HW1 7406   5.229   2.473   5.636
 2169SOL    HW2 7407   5.309   2.592   5.557
 2170SOL     OW 7408   5.564   4.413   5.176
 2170SOL    HW1 7409   5.573   4.474   5.255
 2170SOL    HW2 7410   5.473   4.371   5.177
 2171SOL     OW 7411   6.681   2.326   0.088
 2171SOL    HW1 7412   6.764   2.373   0.119
 2171SOL    HW2 7413   6.643   2.272   0.164
 2172SOL     OW 7414   3.303   1.143   0.569
 2172SOL    HW1 7415   3.212   1.174   0.596
 2172SOL    HW2 7416   3.319   1.163   0.473
 2173SOL     OW 7417   3.929   0.202   5.678
 2173SOL    HW1 7418   4.013   0.165   5.720
 2173SOL    HW2 7419   3.871   0.126   5.649
 2174SOL     OW 7420   6.288   4.512   5.878
 2174SOL    HW1 7421   6.307   4.517   5.780
 2174SOL    HW2 7422   6.237   4.428   5.897
 2175SOL     OW 7423   3.326   1.215   3.013
 2175SOL    HW1 7424   3.249   1.276   2.999
 2175SOL    HW2 7425   3.321   1.175   3.105
 2176SOL     OW 7426   1.317   2.034   1.640
 2176SOL    HW1 7427   1.381   2.006   1.568
 2176SOL    HW2 7428   1.318   1.966   1.713
 2177SOL     OW 7429   6.576   0.691   2.121
 2177SOL    HW1 7430   6.550   0.659   2.212
 2177SOL    HW2 7431   6.635   0.623   2.077
 2178SOL     OW 7432   1.199   4.036   0.413
 2178SOL    HW1 7433   1.155   4.076   0.493
 2178SOL    HW2 7434   1.144   3.960   0.379
 2179SOL     OW 7435   2.008   5.658   4.026
 2179SOL    HW1 7436   2.006   5.626   4.120
 2179SOL    HW2 7437   2.094   5.630   3.983
 2180SOL     OW 7438   2.958   3.257   2.809
 2180SOL    HW1 7439   2.949   3.244   2.908
 2180SOL    HW2 7440   2.962   3.354   2.788
 2181SOL     OW 7441   4.547   4.425   5.857
 2181SOL    HW1 7442   4.581   4.333   5.840
 2181SOL    HW2 7443   4.584   4.459   5.944
 2182SOL     OW 7444   0.047   3.395   6.467
 2182SOL    HW1 7445   0.061   3.490   6.441
 2182SOL    HW2 7446   0.093   3.335   6.402
 2183SOL     OW 7447   3.553   2.722   0.757
 2183SOL    HW1 7448   3.590   2.810   0.784
 2183SOL    HW2 7449   3.626   2.654   0.752
 2184SOL     OW 7450   3.876   0.254   6.038
 2184SOL    HW1 7451   3.855   0.351   6.043
 2184SOL    HW2 7452   3.941   0.238   5.963
 2185SOL     OW 7453   1.763   1.857   0.663
 2185SOL    HW1 7454   1.710   1.929   0.618
 2185SOL    HW2 7455   1.754   1.865   0.762
 2186SOL     OW 7456   6.863   4.521   2.282
 2186SOL    HW1 7457   6.908   4.581   2.348
 2186SOL    HW2 7458   6.906   4.531   2.193
 2187SOL     OW 7459   0.544   1.292   1.608
 2187SOL    HW1 7460   0.475   1.354   1.571
 2187SOL    HW2 7461   0.511   1.198   1.605
 2188SOL     OW 7462   4.681   5.907   3.884
 2188SOL    HW1 7463   4.709   5.950   3.798
 2188SOL    HW2 7464   4.611   5.838   3.866
 2189SOL     OW 7465   1.162   6.894   5.726
 2189SOL    HW1 7466   1.249   6.931   5.695
 2189SOL    HW2 7467   1.155   6.903   5.825
 2190SOL     OW 7468   5.835   3.268   1.782
 2190SOL    HW1 7469   5.859   3.216   1.864
 2190SOL    HW2 7470   5.892   3.350   1.777
 2191SOL     OW 7471   3.326   1.959   5.990
 2191SOL    HW1 7472   3.256   1.924   5.928
 2191SOL    HW2 7473   3.301   1.939   6.084
 2192SOL     OW 7474   4.177   6.326   5.255
 2192SOL    HW1 7475   4.272   6.302   5.273
 2192SOL    HW2 7476   4.142   6.272   5.179
 2193SOL     OW 7477   0.235   5.222   5.830
 2193SOL    HW1 7478   0.208   5.127   5.813
 2193SOL    HW2 7479   0.249   5.235   5.928
 2194SOL     OW 7480   1.874   5.865   0.522
 2194SOL    HW1 7481   1.836   5.935   0.461
 2194SOL    HW2 7482   1.800   5.814   0.565
 2195SOL     OW 7483   0.235   6.665   1.971
 2195SOL    HW1 7484   0.288   6.750   1.967
 2195SOL    HW2 7485   0.296   6.588   1.950
 2196SOL     OW 7486   2.691   0.415   5.390
 2196SOL    HW1 7487   2.647   0.453   5.309
 2196SOL    HW2 7488   2.626   0.413   5.466
 2197SOL     OW 7489   4.874   3.977   1.779
 2197SOL    HW1 7490   4.839   3.889   1.811
 2197SOL    HW2 7491   4.893   3.971   1.681
 2198SOL     OW 7492   6.863   3.556   6.893
 2198SOL    HW1 7493   6.873   3.528   6.798
 2198SOL    HW2 7494   6.881   3.477   6.953
 2199SOL     OW 7495   5.389   0.068   0.897
 2199SOL    HW1 7496   5.316   0.097   0.959
 2199SOL    HW2 7497   5.370   0.101   0.805
 2200SOL     OW 7498   4.422   0.432   4.676
 2200SOL    HW1 7499   4.507   0.384   4.697
 2200SOL    HW2 7500   4.435   0.530   4.687
 2201SOL     OW 7501   5.746   3.740   2.183
 2201SOL    HW1 7502   5.769   3.694   2.097
 2201SOL    HW2 7503   5.657   3.786   2.173
 2202SOL     OW 7504   3.348   4.944   4.410
 2202SOL    HW1 7505   3.375   4.891   4.490
 2202SOL    HW2 7506   3.278   5.010   4.436
 2203SOL     OW 7507   3.345   2.120   3.179
 2203SOL    HW1 7508   3.403   2.121   3.260
 2203SOL    HW2 7509   3.400   2.142   3.099
 2204SOL     OW 7510   3.575   1.093   6.820
 2204SOL    HW1 7511   3.608   1.003   6.850
 2204SOL    HW2 7512   3.605   1.163   6.885
 2205SOL     OW 7513   1.917   0.892   6.797
 2205SOL    HW1 7514   1.883   0.966   6.855
 2205SOL    HW2 7515   2.001   0.855   6.837
 2206SOL     OW 7516   3.214   3.785   5.617
 2206SOL    HW1 7517   3.231   3.778   5.716
 2206SOL    HW2 7518   3.299   3.767   5.568
 2207SOL     OW 7519   0.824   4.123   6.358
 2207SOL    HW1 7520   0.774   4.203   6.324
 2207SOL    HW2 7521   0.922   4.141   6.355
 2208SOL     OW 7522   1.513   4.182   2.232
 2208SOL    HW1 7523   1.583   4.190   2.161
 2208SOL    HW2 7524   1.443   4.116   2.203
 2209SOL     OW 7525   1.744   5.765   6.252
 2209SOL    HW1 7526   1.812   5.731   6.317
 2209SOL    HW2 7527   1.784   5.837   6.196
 2210SOL     OW 7528   0.723   5.318   2.974
 2210SOL    HW1 7529   0.744   5.415   2.986
 2210SOL    HW2 7530   0.752   5.267   3.054
 2211SOL     OW 7531   6.053   1.866   5.450
 2211SOL    HW1 7532   6.047   1.939   5.519
 2211SOL    HW2 7533   6.100   1.901   5.370
 2212SOL     OW 7534   0.257   6.474   6.082
 2212SOL    HW1 7535   0.170   6.524   6.085
 2212SOL    HW2 7536   0.266   6.428   5.994
 2213SOL     OW 7537   4.305   2.386   4.215
 2213SOL    HW1 7538   4.347   2.314   4.271
 2213SOL    HW2 7539   4.210   2.362   4.197
 2214SOL     OW 7540   4.616   0.464   5.686
 2214SOL    HW1 7541   4.533   0.517   5.669
 2214SOL    HW2 7542   4.670   0.456   5.602
 2215SOL     OW 7543   0.008   1.438   5.808
 2215SOL    HW1 7544   0.058   1.522   5.786
 2215SOL    HW2 7545   6.938   1.448   5.782
 2216SOL     OW 7546   1.306   0.431   1.020
 2216SOL    HW1 7547   1.326   0.467   1.111
 2216SOL    HW2 7548   1.304   0.506   0.954
 2217SOL     OW 7549   4.086   0.180   0.654
 2217SOL    HW1 7550   4.120   0.225   0.737
 2217SOL    HW2 7551   4.107   0.236   0.574
 2218SOL     OW 7552   1.059   5.938   6.599
 2218SOL    HW1 7553   1.112   5.879   6.659
 2218SOL    HW2 7554   1.087   6.033   6.611
 2219SOL     OW 7555   1.558   3.721   2.817
 2219SOL    HW1 7556   1.497   3.781   2.869
 2219SOL    HW2 7557   1.620   3.777   2.762
 2220SOL     OW 7558   0.369   1.408   4.958
 2220SOL    HW1 7559   0.274   1.416   4.927
 2220SOL    HW2 7560   0.385   1.314   4.991
 2221SOL     OW 7561   6.685   2.045   1.033
 2221SOL    HW1 7562   6.678   2.127   1.090
 2221SOL    HW2 7563   6.634   1.970   1.076
 2222SOL     OW 7564   4.078   0.354   1.382
 2222SOL    HW1 7565   4.030   0.417   1.443
 2222SOL    HW2 7566   4.141   0.405   1.324
 2223SOL     OW 7567   6.213   5.442   3.546
 2223SOL    HW1 7568   6.142   5.373   3.560
 2223SOL    HW2 7569   6.172   5.533   3.546
 2224SOL     OW 7570   1.949   4.606   1.393
 2224SOL    HW1 7571   1.932   4.593   1.295
 2224SOL    HW2 7572   1.868   4.647   1.436
 2225SOL     OW 7573   6.056   4.951   2.200
 2225SOL    HW1 7574   6.111   4.891   2.141
 2225SOL    HW2 7575   5.994   4.896   2.255
 2226SOL     OW 7576   3.768   3.416   1.109
 2226SOL    HW1 7577   3.685   3.399   1.162
 2226SOL    HW2 7578   3.743   3.446   1.017
 2227SOL     OW 7579   6.378   4.143   5.880
 2227SOL    HW1 7580   6.301   4.107   5.826
 2227SOL    HW2 7581   6.355   4.234   5.913
 2228SOL     OW 7582   2.973   5.085   0.292
 2228SOL    HW1 7583   3.021   4.998   0.294
 2228SOL    HW2 7584   3.011   5.146   0.361
 2229SOL     OW 7585   4.695   1.529   4.276
 2229SOL    HW1 7586   4.693   1.430   4.288
 2229SOL    HW2 7587   4.667   1.552   4.183
 2230SOL     OW 7588   1.372   5.236   3.735
 2230SOL    HW1 7589   1.436   5.213   3.808
 2230SOL    HW2 7590   1.413   5.303   3.674
 2231SOL     OW 7591   1.834   1.783   2.534
 2231SOL    HW1 7592   1.920   1.770   2.584
 2231SOL    HW2 7593   1.766   1.822   2.596
 2232SOL     OW 7594   0.542   3.073   3.327
 2232SOL    HW1 7595   0.629   3.023   3.332
 2232SOL    HW2 7596   0.538   3.123   3.240
 2233SOL     OW 7597   3.872   5.156   6.815
 2233SOL    HW1 7598   3.794   5.107   6.775
 2233SOL    HW2 7599   3.848   5.191   6.905
 2234SOL     OW 7600   3.930   2.301   0.605
 2234SOL    HW1 7601   3.909   2.389   0.647
 2234SOL    HW2 7602   3.857   2.236   0.623
 2235SOL     OW 7603   1.248   0.081   6.809
 2235SOL    HW1 7604   1.249   0.145   6.732
 2235SOL    HW2 7605   1.322   0.014   6.799
 2236SOL     OW 7606   0.687   4.141   0.947
 2236SOL    HW1 7607   0.660   4.050   0.977
 2236SOL    HW2 7608   0.763   4.174   1.002
 2237SOL     OW 7609   6.808   3.534   4.286
 2237SOL    HW1 7610   6.781   3.603   4.353
 2237SOL    HW2 7611   6.744   3.458   4.287
 2238SOL     OW 7612   0.001   5.704   1.837
 2238SOL    HW1 7613   0.062   5.707   1.916
 2238SOL    HW2 7614   6.992   5.796   1.817
 2239SOL     OW 7615   4.229   4.757   3.699
 2239SOL    HW1 7616   4.136   4.761   3.735
 2239SOL    HW2 7617   4.282   4.689   3.750
 2240SOL     OW 7618   6.631   5.427   3.348
 2240SOL    HW1 7619   6.540   5.455   3.318
 2240SOL    HW2 7620   6.656   5.342   3.300
 2241SOL     OW 7621   0.502   6.702   2.480
 2241SOL    HW1 7622   0.439   6.774   2.508
 2241SOL    HW2 7623   0.500   6.693   2.380
 2242SOL     OW 7624   5.341   1.523   2.813
 2242SOL    HW1 7625   5.360   1.521   2.911
 2242SOL    HW2 7626   5.331   1.430   2.779
 2243SOL     OW 7627   2.759   6.054   5.133
 2243SOL    HW1 7628   2.723   5.993   5.203
 2243SOL    HW2 7629   2.715   6.144   5.142
 2244SOL     OW 7630   4.035   1.207   3.918
 2244SOL    HW1 7631   3.948   1.196   3.965
 2244SOL    HW2 7632   4.102   1.144   3.958
 2245SOL     OW 7633   6.668   1.996   2.024
 2245SOL    HW1 7634   6.666   2.079   1.969
 2245SOL    HW2 7635   6.701   1.920   1.968
 2246SOL     OW 7636   1.688   2.992   5.207
 2246SOL    HW1 7637   1.764   2.961   5.150
 2246SOL    HW2 7638   1.698   2.955   5.299
 2247SOL     OW 7639   2.874   2.089   5.448
 2247SOL    HW1 7640   2.926   2.133   5.375
 2247SOL    HW2 7641   2.868   2.151   5.527
 2248SOL     OW 7642   5.086   4.192   5.364
 2248SOL    HW1 7643   5.159   4.124   5.371
 2248SOL    HW2 7644   5.068   4.211   5.267
 2249SOL     OW 7645   5.304   6.246   2.917
 2249SOL    HW1 7646   5.340   6.244   2.824
 2249SOL    HW2 7647   5.204   6.238   2.914
 2250SOL     OW 7648   5.336   3.766   1.449
 2250SOL    HW1 7649   5.396   3.690   1.474
 2250SOL    HW2 7650   5.242   3.742   1.472
 2251SOL     OW 7651   6.212   1.669   0.413
 2251SOL    HW1 7652   6.270   1.618   0.477
 2251SOL    HW2 7653   6.269   1.711   0.342
 2252SOL     OW 7654   6.009   3.200   5.059
 2252SOL    HW1 7655   6.081   3.233   4.998
 2252SOL    HW2 7656   6.006   3.256   5.141
 2253SOL     OW 7657   1.882   3.171   6.468
 2253SOL    HW1 7658   1.905   3.162   6.371
 2253SOL    HW2 7659   1.798   3.121   6.487
 2254SOL     OW 7660   2.250   3.295   5.772
 2254SOL    HW1 7661   2.284   3.247   5.853
 2254SOL    HW2 7662   2.313   3.282   5.696
 2255SOL     OW 7663   6.075   2.799   2.036
 2255SOL    HW1 7664   6.068   2.726   1.968
 2255SOL    HW2 7665   6.061   2.887   1.991
 2256SOL     OW 7666   3.054   4.760   1.838
 2256SOL    HW1 7667   3.063   4.683   1.774
 2256SOL    HW2 7668   2.984   4.738   1.906
 2257SOL     OW 7669   1.684   3.313   4.579
 2257SOL    HW1 7670   1.736   3.348   4.501
 2257SOL    HW2 7671   1.745   3.299   4.656
 2258SOL     OW 7672   1.763   4.480   4.832
 2258SOL    HW1 7673   1.847   4.463   4.882
 2258SOL    HW2 7674   1.751   4.411   4.760
 2259SOL     OW 7675   5.810   4.544   6.370
 2259SOL    HW1 7676   5.796   4.504   6.461
 2259SOL    HW2 7677   5.907   4.539   6.347
 2260SOL     OW 7678   4.042   4.818   2.512
 2260SOL    HW1 7679   4.124   4.763   2.524
 2260SOL    HW2 7680   4.040   4.855   2.419
 2261SOL     OW 7681   5.045   6.776   1.012
 2261SOL    HW1 7682   5.026   6.696   1.069
 2261SOL    HW2 7683   5.106   6.749   0.937
 2262SOL     OW 7684   5.612   1.512   4.275
 2262SOL    HW1 7685   5.533   1.501   4.335
 2262SOL    HW2 7686   5.696   1.499   4.328
 2263SOL     OW 7687   2.241   5.553   6.175
 2263SOL    HW1 7688   2.323   5.496   6.182
 2263SOL    HW2 7689   2.263   5.637   6.126
 2264SOL     OW 7690   2.874   3.497   2.484
 2264SOL    HW1 7691   2.875   3.408   2.440
 2264SOL    HW2 7692   2.868   3.485   2.583
 2265SOL     OW 7693   0.158   1.433   2.741
 2265SOL    HW1 7694   0.191   1.516   2.698
 2265SOL    HW2 7695   0.228   1.362   2.734
 2266SOL     OW 7696   6.335   1.298   0.747
 2266SOL    HW1 7697   6.262   1.245   0.791
 2266SOL    HW2 7698   6.421   1.285   0.797
 2267SOL     OW 7699   5.887   2.641   4.484
 2267SOL    HW1 7700   5.926   2.705   4.551
 2267SOL    HW2 7701   5.884   2.550   4.524
 2268SOL     OW 7702   6.837   6.256   0.814
 2268SOL    HW1 7703   6.924   6.214   0.788
 2268SOL    HW2 7704   6.842   6.354   0.796
 2269SOL     OW 7705   6.090   5.698   5.515
 2269SOL    HW1 7706   6.105   5.743   5.427
 2269SOL    HW2 7707   5.991   5.688   5.531
 2270SOL     OW 7708   3.470   3.975   1.721
 2270SOL    HW1 7709   3.399   4.026   1.672
 2270SOL    HW2 7710   3.548   4.035   1.740
 2271SOL     OW 7711   6.012   4.178   1.689
 2271SOL    HW1 7712   6.105   4.152   1.662
 2271SOL    HW2 7713   5.978   4.250   1.629
 2272SOL     OW 7714   5.577   2.496   4.973
 2272SOL    HW1 7715   5.660   2.481   4.920
 2272SOL    HW2 7716   5.497   2.477   4.916
 2273SOL     OW 7717   1.010   1.001   3.271
 2273SOL    HW1 7718   0.987   0.991   3.368
 2273SOL    HW2 7719   1.035   1.096   3.252
 2274SOL     OW 7720   1.705   3.717   4.896
 2274SOL    HW1 7721   1.634   3.647   4.897
 2274SOL    HW2 7722   1.763   3.707   4.977
 2275SOL     OW 7723   4.719   6.439   4.747
 2275SOL    HW1 7724   4.758   6.356   4.788
 2275SOL    HW2 7725   4.654   6.413   4.676
 2276SOL     OW 7726   3.672   4.658   0.964
 2276SOL    HW1 7727   3.670   4.707   1.051
 2276SOL    HW2 7728   3.765   4.626   0.946
 2277SOL     OW 7729   3.349   3.275   5.073
 2277SOL    HW1 7730   3.340   3.226   5.160
 2277SOL    HW2 7731   3.441   3.262   5.038
 2278SOL     OW 7732   4.684   6.047   2.526
 2278SOL    HW1 7733   4.773   6.088   2.510
 2278SOL    HW2 7734   4.671   6.032   2.624
 2279SOL     OW 7735   5.178   3.993   4.437
 2279SOL    HW1 7736   5.149   4.085   4.412
 2279SOL    HW2 7737   5.102   3.946   4.482
 2280SOL     OW 7738   6.375   6.169   5.040
 2280SOL    HW1 7739   6.276   6.154   5.036
 2280SOL    HW2 7740   6.421   6.083   5.064
 2281SOL     OW 7741   3.509   2.009   1.850
 2281SOL    HW1 7742   3.536   2.106   1.855
 2281SOL    HW2 7743   3.446   1.988   1.924
 2282SOL     OW 7744   4.688   5.891   4.540
 2282SOL    HW1 7745   4.781   5.854   4.539
 2282SOL    HW2 7746   4.676   5.946   4.623
 2283SOL     OW 7747   6.525   3.640   3.021
 2283SOL    HW1 7748   6.619   3.642   3.054
 2283SOL    HW2 7749   6.516   3.702   2.943
 2284SOL     OW 7750   2.389   2.311   2.171
 2284SOL    HW1 7751   2.330   2.393   2.174
 2284SOL    HW2 7752   2.476   2.332   2.215
 2285SOL     OW 7753   1.490   3.868   0.758
 2285SOL    HW1 7754   1.541   3.783   0.753
 2285SOL    HW2 7755   1.550   3.945   0.736
 2286SOL     OW 7756   6.658   5.653   5.122
 2286SOL    HW1 7757   6.620   5.672   5.032
 2286SOL    HW2 7758   6.606   5.579   5.166
 2287SOL     OW 7759   2.148   3.217   1.493
 2287SOL    HW1 7760   2.081   3.201   1.421
 2287SOL    HW2 7761   2.233   3.169   1.471
 2288SOL     OW 7762   0.869   5.908   3.497
 2288SOL    HW1 7763   0.795   5.845   3.518
 2288SOL    HW2 7764   0.925   5.870   3.424
 2289SOL     OW 7765   5.664   2.205   1.956
 2289SOL    HW1 7766   5.728   2.179   2.028
 2289SOL    HW2 7767   5.570   2.201   1.992
 2290SOL     OW 7768   3.414   3.239   2.999
 2290SOL    HW1 7769   3.355   3.198   2.929
 2290SOL    HW2 7770   3.479   3.171   3.032
 2291SOL     OW 7771   2.168   2.048   1.432
 2291SOL    HW1 7772   2.202   2.029   1.340
 2291SOL    HW2 7773   2.244   2.053   1.496
 2292SOL     OW 7774   5.323   2.896   3.755
 2292SOL    HW1 7775   5.366   2.979   3.719
 2292SOL    HW2 7776   5.224   2.903   3.746
 2293SOL     OW 7777   5.349   1.511   0.786
 2293SOL    HW1 7778   5.357   1.561   0.700
 2293SOL    HW2 7779   5.296   1.428   0.772
 2294SOL     OW 7780   2.663   1.987   5.583
 2294SOL    HW1 7781   2.622   1.914   5.530
 2294SOL    HW2 7782   2.742   2.023   5.534
 2295SOL     OW 7783   6.869   0.699   1.459
 2295SOL    HW1 7784   6.803   0.636   1.417
 2295SOL    HW2 7785   6.918   0.652   1.532
 2296SOL     OW 7786   2.510   4.886   3.211
 2296SOL    HW1 7787   2.502   4.874   3.310
 2296SOL    HW2 7788   2.421   4.867   3.168
 2297SOL     OW 7789   5.397   4.597   5.887
 2297SOL    HW1 7790   5.394   4.673   5.953
 2297SOL    HW2 7791   5.413   4.511   5.936
 2298SOL     OW 7792   3.793   3.801   3.774
 2298SOL    HW1 7793   3.866   3.852   3.820
 2298SOL    HW2 7794   3.733   3.865   3.725
 2299SOL     OW 7795   4.972   3.652   4.809
 2299SOL    HW1 7796   4.977   3.565   4.760
 2299SOL    HW2 7797   4.920   3.640   4.894
 2300SOL     OW 7798   3.265   6.826   3.517
 2300SOL    HW1 7799   3.276   6.877   3.432
 2300SOL    HW2 7800   3.191   6.759   3.506
 2301SOL     OW 7801   3.333   2.892   4.556
 2301SOL    HW1 7802   3.332   2.873   4.654
 2301SOL    HW2 7803   3.421   2.934   4.532
 2302SOL     OW 7804   4.086   0.989   7.007
 2302SOL    HW1 7805   4.107   0.896   0.013
 2302SOL    HW2 7806   3.988   1.006   7.017
 2303SOL     OW 7807   2.374   2.510   1.302
 2303SOL    HW1 7808   2.409   2.543   1.215
 2303SOL    HW2 7809   2.275   2.500   1.296
 2304SOL     OW 7810   6.851   5.775   4.002
 2304SOL    HW1 7811   6.783   5.846   3.983
 2304SOL    HW2 7812   6.806   5.686   4.004
 2305SOL     OW 7813   1.409   0.957   3.840
 2305SOL    HW1 7814   1.436   1.051   3.817
 2305SOL    HW2 7815   1.469   0.893   3.792
 2306SOL     OW 7816   1.818   5.210   2.741
 2306SOL    HW1 7817   1.917   5.222   2.748
 2306SOL    HW2 7818   1.798   5.119   2.706
 2307SOL     OW 7819   1.136   2.748   5.362
 2307SOL    HW1 7820   1.072   2.681   5.400
 2307SOL    HW2 7821   1.218   2.701   5.330
 2308SOL     OW 7822   1.907   5.063   1.433
 2308SOL    HW1 7823   1.892   5.010   1.349
 2308SOL    HW2 7824   1.928   5.000   1.508
 2309SOL     OW 7825   1.525   0.368   4.358
 2309SOL    HW1 7826   1.585   0.346   4.434
 2309SOL    HW2 7827   1.508   0.286   4.303
 2310SOL     OW 7828   5.086   6.773   2.189
 2310SOL    HW1 7829   4.995   6.791   2.151
 2310SOL    HW2 7830   5.079   6.759   2.288
 2311SOL     OW 7831   2.221   6.092   0.596
 2311SOL    HW1 7832   2.191   6.004   0.561
 2311SOL    HW2 7833   2.297   6.078   0.661
 2312SOL     OW 7834   3.729   5.713   3.008
 2312SOL    HW1 7835   3.630   5.727   3.002
 2312SOL    HW2 7836   3.754   5.700   3.104
 2313SOL     OW 7837   5.053   5.130   2.497
 2313SOL    HW1 7838   5.053   5.223   2.462
 2313SOL    HW2 7839   4.966   5.111   2.543
 2314SOL     OW 7840   3.266   5.714   3.241
 2314SOL    HW1 7841   3.276   5.813   3.233
 2314SOL    HW2 7842   3.356   5.671   3.244
 2315SOL     OW 7843   4.814   2.758   6.234
 2315SOL    HW1 7844   4.812   2.762   6.134
 2315SOL    HW2 7845   4.833   2.849   6.271
 2316SOL     OW 7846   4.766   2.848   3.415
 2316SOL    HW1 7847   4.670   2.839   3.389
 2316SOL    HW2 7848   4.795   2.765   3.463
 2317SOL     OW 7849   1.007   4.712   2.388
 2317SOL    HW1 7850   1.075   4.745   2.454
 2317SOL    HW2 7851   0.920   4.758   2.404
 2318SOL     OW 7852   0.675   2.054   3.373
 2318SOL    HW1 7853   0.729   2.134   3.348
 2318SOL    HW2 7854   0.580   2.069   3.348
 2319SOL     OW 7855   2.272   4.093   4.459
 2319SOL    HW1 7856   2.356   4.058   4.417
 2319SOL    HW2 7857   2.193   4.054   4.414
 2320SOL     OW 7858   0.011   2.617   4.148
 2320SOL    HW1 7859   7.000   2.710   4.139
 2320SOL    HW2 7860   6.983   2.554   4.091
 2321SOL     OW 7861   2.877   0.216   4.622
 2321SOL    HW1 7862   2.958   0.157   4.623
 2321SOL    HW2 7863   2.906   0.312   4.633
 2322SOL     OW 7864   1.326   1.842   5.666
 2322SOL    HW1 7865   1.355   1.900   5.589
 2322SOL    HW2 7866   1.229   1.821   5.656
 2323SOL     OW 7867   4.430   5.803   3.413
 2323SOL    HW1 7868   4.481   5.734   3.361
 2323SOL    HW2 7869   4.375   5.858   3.350
 2324SOL     OW 7870   0.982   6.139   2.601
 2324SOL    HW1 7871   0.967   6.238   2.609
 2324SOL    HW2 7872   0.916   6.091   2.660
 2325SOL     OW 7873   1.016   3.760   1.703
 2325SOL    HW1 7874   0.937   3.817   1.728
 2325SOL    HW2 7875   0.993   3.664   1.717
 2326SOL     OW 7876   1.486   4.397   6.383
 2326SOL    HW1 7877   1.449   4.336   6.313
 2326SOL    HW2 7878   1.414   4.459   6.415
 2327SOL     OW 7879   4.829   2.891   4.501
 2327SOL    HW1 7880   4.922   2.873   4.471
 2327SOL    HW2 7881   4.764   2.849   4.437
 2328SOL     OW 7882   5.016   1.344   2.839
 2328SOL    HW1 7883   5.073   1.283   2.784
 2328SOL    HW2 7884   4.965   1.292   2.906
 2329SOL     OW 7885   1.315   5.306   4.061
 2329SOL    HW1 7886   1.345   5.299   4.156
 2329SOL    HW2 7887   1.232   5.252   4.049
 2330SOL     OW 7888   0.399   4.897   1.525
 2330SOL    HW1 7889   0.480   4.923   1.578
 2330SOL    HW2 7890   0.330   4.857   1.586
 2331SOL     OW 7891   0.324   4.054   5.414
 2331SOL    HW1 7892   0.304   3.969   5.364
 2331SOL    HW2 7893   0.393   4.107   5.364
 2332SOL     OW 7894   5.138   2.825   6.222
 2332SOL    HW1 7895   5.129   2.726   6.226
 2332SOL    HW2 7896   5.098   2.859   6.137
 2333SOL     OW 7897   0.785   5.039   2.923
 2333SOL    HW1 7898   0.813   5.008   2.833
 2333SOL    HW2 7899   0.752   5.134   2.918
 2334SOL     OW 7900   3.292   6.614   6.677
 2334SOL    HW1 7901   3.357   6.646   6.608
 2334SOL    HW2 7902   3.318   6.649   6.767
 2335SOL     OW 7903   5.751   0.440   3.180
 2335SOL    HW1 7904   5.660   0.430   3.139
 2335SOL    HW2 7905   5.753   0.521   3.238
 2336SOL     OW 7906   4.883   0.837   5.798
 2336SOL    HW1 7907   4.788   0.868   5.795
 2336SOL    HW2 7908   4.939   0.904   5.847
 2337SOL     OW 7909   5.469   0.311   3.147
 2337SOL    HW1 7910   5.461   0.264   3.059
 2337SOL    HW2 7911   5.532   0.260   3.206
 2338SOL     OW 7912   6.978   6.447   0.266
 2338SOL    HW1 7913   0.036   6.453   0.321
 2338SOL    HW2 7914   6.979   6.363   0.212
 2339SOL     OW 7915   3.442   4.543   6.238
 2339SOL    HW1 7916   3.412   4.637   6.225
 2339SOL    HW2 7917   3.542   4.541   6.248
 2340SOL     OW 7918   3.282   6.031   5.394
 2340SOL    HW1 7919   3.363   6.028   5.335
 2340SOL    HW2 7920   3.305   5.997   5.485
 2341SOL     OW 7921   5.990   4.711   0.782
 2341SOL    HW1 7922   6.027   4.694   0.691
 2341SOL    HW2 7923   6.047   4.666   0.850
 2342SOL     OW 7924   6.977   6.648   5.097
 2342SOL    HW1 7925   6.900   6.709   5.077
 2342SOL    HW2 7926   6.979   6.573   5.031
 2343SOL     OW 7927   1.216   6.392   0.961
 2343SOL    HW1 7928   1.185   6.317   0.904
 2343SOL    HW2 7929   1.316   6.387   0.972
 2344SOL     OW 7930   2.788   1.624   2.944
 2344SOL    HW1 7931   2.750   1.666   3.026
 2344SOL    HW2 7932   2.713   1.596   2.883
 2345SOL     OW 7933   1.363   0.598   4.925
 2345SOL    HW1 7934   1.333   0.510   4.960
 2345SOL    HW2 7935   1.419   0.644   4.994
 2346SOL     OW 7936   4.898   3.284   5.574
 2346SOL    HW1 7937   4.827   3.294   5.504
 2346SOL    HW2 7938   4.863   3.230   5.650
 2347SOL     OW 7939   1.545   3.755   1.969
 2347SOL    HW1 7940   1.589   3.844   1.954
 2347SOL    HW2 7941   1.492   3.731   1.888
 2348SOL     OW 7942   2.502   6.380   3.631
 2348SOL    HW1 7943   2.449   6.450   3.678
 2348SOL    HW2 7944   2.530   6.413   3.541
 2349SOL     OW 7945   6.744   6.898   6.299
 2349SOL    HW1 7946   6.809   6.843   6.246
 2349SOL    HW2 7947   6.721   6.849   6.383
 2350SOL     OW 7948   3.029   0.598   5.177
 2350SOL    HW1 7949   3.101   0.667   5.190
 2350SOL    HW2 7950   3.057   0.513   5.222
 2351SOL     OW 7951   2.737   5.080   3.492
 2351SOL    HW1 7952   2.798   5.006   3.465
 2351SOL    HW2 7953   2.690   5.116   3.410
 2352SOL     OW 7954   6.396   4.249   2.883
 2352SOL    HW1 7955   6.436   4.184   2.818
 2352SOL    HW2 7956   6.425   4.342   2.859
 2353SOL     OW 7957   2.635   4.092   5.855
 2353SOL    HW1 7958   2.540   4.091   5.885
 2353SOL    HW2 7959   2.645   4.158   5.780
 2354SOL     OW 7960   3.932   2.439   0.270
 2354SOL    HW1 7961   3.907   2.461   0.175
 2354SOL    HW2 7962   3.852   2.452   0.328
 2355SOL     OW 7963   0.542   6.791   1.094
 2355SOL    HW1 7964   0.577   6.883   1.111
 2355SOL    HW2 7965   0.605   6.724   1.133
 2356SOL     OW 7966   2.305   4.938   2.508
 2356SOL    HW1 7967   2.337   4.946   2.603
 2356SOL    HW2 7968   2.383   4.944   2.446
 2357SOL     OW 7969   4.995   4.669   2.966
 2357SOL    HW1 7970   4.924   4.625   2.912
 2357SOL    HW2 7971   5.003   4.624   3.055
 2358SOL     OW 7972   3.354   0.013   4.433
 2358SOL    HW1 7973   3.419   0.087   4.451
 2358SOL    HW2 7974   3.329   0.013   4.336
 2359SOL     OW 7975   2.726   1.427   5.860
 2359SOL    HW1 7976   2.789   1.495   5.896
 2359SOL    HW2 7977   2.650   1.473   5.814
 2360SOL     OW 7978   3.898   4.524   0.633
 2360SOL    HW1 7979   3.800   4.528   0.615
 2360SOL    HW2 7980   3.928   4.429   0.632
 2361SOL     OW 7981   3.168   6.670   3.118
 2361SOL    HW1 7982   3.187   6.698   3.023
 2361SOL    HW2 7983   3.227   6.722   3.180
 2362SOL     OW 7984   4.362   5.951   4.802
 2362SOL    HW1 7985   4.408   6.037   4.827
 2362SOL    HW2 7986   4.346   5.950   4.703
 2363SOL     OW 7987   3.896   2.278   6.652
 2363SOL    HW1 7988   3.957   2.202   6.676
 2363SOL    HW2 7989   3.803   2.258   6.682
 2364SOL     OW 7990   5.150   1.739   1.974
 2364SOL    HW1 7991   5.116   1.652   1.936
 2364SOL    HW2 7992   5.237   1.722   2.021
 2365SOL     OW 7993   5.136   3.549   4.521
 2365SOL    HW1 7994   5.060   3.488   4.497
 2365SOL    HW2 7995   5.165   3.599   4.440
 2366SOL     OW 7996   1.762   4.119   5.441
 2366SOL    HW1 7997   1.722   4.138   5.351
 2366SOL    HW2 7998   1.844   4.174   5.454
 2367SOL     OW 7999   1.105   3.598   5.813
 2367SOL    HW1 8000   1.064   3.639   5.894
 2367SOL    HW2 8001   1.188   3.548   5.838
 2368SOL     OW 8002   4.547   0.951   4.361
 2368SOL    HW1 8003   4.621   0.897   4.322
 2368SOL    HW2 8004   4.518   0.911   4.448
 2369SOL     OW 8005   3.677   1.490   3.274
 2369SOL    HW1 8006   3.759   1.525   3.320
 2369SOL    HW2 8007   3.632   1.564   3.225
 2370SOL     OW 8008   4.535   2.786   1.019
 2370SOL    HW1 8009   4.448   2.793   1.068
 2370SOL    HW2 8010   4.552   2.871   0.970
 2371SOL     OW 8011   0.773   6.798   2.639
 2371SOL    HW1 8012   0.720   6.755   2.712
 2371SOL    HW2 8013   0.711   6.838   2.571
 2372SOL     OW 8014   6.365   1.638   5.820
 2372SOL    HW1 8015   6.392   1.697   5.897
 2372SOL    HW2 8016   6.293   1.683   5.767
 2373SOL     OW 8017   6.207   1.120   6.266
 2373SOL    HW1 8018   6.275   1.070   6.319
 2373SOL    HW2 8019   6.175   1.199   6.319
 2374SOL     OW 8020   6.073   5.806   3.324
 2374SOL    HW1 8021   6.055   5.902   3.302
 2374SOL    HW2 8022   6.130   5.766   3.252
 2375SOL     OW 8023   0.793   0.427   3.997
 2375SOL    HW1 8024   0.720   0.401   4.061
 2375SOL    HW2 8025   0.798   0.360   3.923
 2376SOL     OW 8026   0.163   2.417   3.259
 2376SOL    HW1 8027   0.259   2.422   3.234
 2376SOL    HW2 8028   0.143   2.483   3.331
 2377SOL     OW 8029   3.106   4.640   6.276
 2377SOL    HW1 8030   3.091   4.541   6.275
 2377SOL    HW2 8031   3.204   4.659   6.276
 2378SOL     OW 8032   5.816   1.995   0.617
 2378SOL    HW1 8033   5.880   1.940   0.564
 2378SOL    HW2 8034   5.843   1.994   0.713
 2379SOL     OW 8035   6.958   4.848   0.568
 2379SOL    HW1 8036   6.877   4.838   0.626
 2379SOL    HW2 8037   6.992   4.942   0.574
 2380SOL     OW 8038   5.871   2.982   5.658
 2380SOL    HW1 8039   5.869   2.949   5.752
 2380SOL    HW2 8040   5.806   3.057   5.647
 2381SOL     OW 8041   2.034   4.634   5.287
 2381SOL    HW1 8042   1.989   4.548   5.263
 2381SOL    HW2 8043   2.118   4.615   5.337
 2382SOL     OW 8044   1.810   5.897   2.730
 2382SOL    HW1 8045   1.790   5.928   2.637
 2382SOL    HW2 8046   1.744   5.827   2.757
 2383SOL     OW 8047   5.624   5.809   5.728
 2383SOL    HW1 8048   5.555   5.785   5.797
 2383SOL    HW2 8049   5.692   5.869   5.770
 2384SOL     OW 8050   0.623   1.959   1.507
 2384SOL    HW1 8051   0.635   2.041   1.563
 2384SOL    HW2 8052   0.642   1.878   1.562
 2385SOL     OW 8053   0.884   1.962   0.171
 2385SOL    HW1 8054   0.850   1.869   0.183
 2385SOL    HW2 8055   0.962   1.977   0.231
 2386SOL     OW 8056   3.190   5.238   4.438
 2386SOL    HW1 8057   3.209   5.265   4.533
 2386SOL    HW2 8058   3.121   5.299   4.399
 2387SOL     OW 8059   0.206   2.957   4.197
 2387SOL    HW1 8060   0.216   3.051   4.229
 2387SOL    HW2 8061   0.296   2.919   4.177
 2388SOL     OW 8062   0.423   2.161   5.846
 2388SOL    HW1 8063   0.507   2.194   5.803
 2388SOL    HW2 8064   0.369   2.239   5.878
 2389SOL     OW 8065   5.247   4.995   4.415
 2389SOL    HW1 8066   5.224   4.993   4.513
 2389SOL    HW2 8067   5.223   4.907   4.374
 2390SOL     OW 8068   4.028   3.653   6.071
 2390SOL    HW1 8069   3.964   3.730   6.069
 2390SOL    HW2 8070   3.982   3.572   6.104
 2391SOL     OW 8071   3.346   2.945   6.602
 2391SOL    HW1 8072   3.430   2.916   6.647
 2391SOL    HW2 8073   3.332   3.043   6.618
 2392SOL     OW 8074   3.167   4.302   5.673
 2392SOL    HW1 8075   3.146   4.364   5.748
 2392SOL    HW2 8076   3.183   4.356   5.590
 2393SOL     OW 8077   4.115   5.360   1.591
 2393SOL    HW1 8078   4.144   5.333   1.499
 2393SOL    HW2 8079   4.190   5.404   1.639
 2394SOL     OW 8080   0.049   4.350   3.925
 2394SOL    HW1 8081   0.051   4.305   4.015
 2394SOL    HW2 8082   0.046   4.449   3.938
 2395SOL     OW 8083   0.830   2.900   6.407
 2395SOL    HW1 8084   0.763   2.969   6.383
 2395SOL    HW2 8085   0.787   2.829   6.463
 2396SOL     OW 8086   5.614   0.794   6.174
 2396SOL    HW1 8087   5.597   0.696   6.177
 2396SOL    HW2 8088   5.621   0.824   6.079
 2397SOL     OW 8089   0.444   4.660   6.070
 2397SOL    HW1 8090   0.444   4.582   6.133
 2397SOL    HW2 8091   0.537   4.697   6.065
 2398SOL     OW 8092   2.575   5.638   3.904
 2398SOL    HW1 8093   2.524   5.583   3.838
 2398SOL    HW2 8094   2.564   5.599   3.996
 2399SOL     OW 8095   3.291   2.180   3.966
 2399SOL    HW1 8096   3.288   2.269   4.011
 2399SOL    HW2 8097   3.200   2.137   3.970
 2400SOL     OW 8098   2.315   3.610   0.237
 2400SOL    HW1 8099   2.255   3.552   0.292
 2400SOL    HW2 8100   2.350   3.685   0.293
 2401SOL     OW 8101   3.841   6.972   4.131
 2401SOL    HW1 8102   3.815   6.970   4.228
 2401SOL    HW2 8103   3.921   6.914   4.117
 2402SOL     OW 8104   0.715   2.421   3.154
 2402SOL    HW1 8105   0.702   2.513   3.192
 2402SOL    HW2 8106   0.781   2.424   3.079
 2403SOL     OW 8107   3.963   3.435   1.305
 2403SOL    HW1 8108   3.893   3.423   1.235
 2403SOL    HW2 8109   4.013   3.349   1.318
 2404SOL     OW 8110   5.768   1.302   1.576
 2404SOL    HW1 8111   5.814   1.387   1.553
 2404SOL    HW2 8112   5.707   1.276   1.501
 2405SOL     OW 8113   2.836   4.945   5.722
 2405SOL    HW1 8114   2.871   4.974   5.633
 2405SOL    HW2 8115   2.775   4.866   5.709
 2406SOL     OW 8116   1.820   6.831   3.366
 2406SOL    HW1 8117   1.915   6.860   3.356
 2406SOL    HW2 8118   1.761   6.887   3.307
 2407SOL     OW 8119   4.637   2.102   3.114
 2407SOL    HW1 8120   4.662   2.085   3.019
 2407SOL    HW2 8121   4.561   2.167   3.118
 2408SOL     OW 8122   2.578   5.426   2.954
 2408SOL    HW1 8123   2.579   5.447   2.856
 2408SOL    HW2 8124   2.665   5.456   2.995
 2409SOL     OW 8125   2.820   2.780   0.868
 2409SOL    HW1 8126   2.772   2.705   0.823
 2409SOL    HW2 8127   2.836   2.854   0.803
 2410SOL     OW 8128   6.415   3.542   6.023
 2410SOL    HW1 8129   6.460   3.556   5.935
 2410SOL    HW2 8130   6.417   3.445   6.047
 2411SOL     OW 8131   2.817   4.001   6.025
 2411SOL    HW1 8132   2.780   4.026   6.114
 2411SOL    HW2 8133   2.748   4.014   5.955
 2412SOL     OW 8134   2.653   3.123   6.812
 2412SOL    HW1 8135   2.675   3.101   6.907
 2412SOL    HW2 8136   2.681   3.217   6.792
 2413SOL     OW 8137   6.253   3.548   6.636
 2413SOL    HW1 8138   6.256   3.601   6.551
 2413SOL    HW2 8139   6.299   3.460   6.623
 2414SOL     OW 8140   5.478   1.880   4.040
 2414SOL    HW1 8141   5.559   1.891   3.983
 2414SOL    HW2 8142   5.467   1.960   4.099
 2415SOL     OW 8143   2.262   6.907   0.127
 2415SOL    HW1 8144   2.197   6.863   0.065
 2415SOL    HW2 8145   2.305   6.838   0.186
 2416SOL     OW 8146   0.948   3.247   3.464
 2416SOL    HW1 8147   0.918   3.329   3.513
 2416SOL    HW2 8148   1.021   3.203   3.516
 2417SOL     OW 8149   4.741   2.563   6.801
 2417SOL    HW1 8150   4.707   2.471   6.814
 2417SOL    HW2 8151   4.678   2.629   6.842
 2418SOL     OW 8152   4.011   4.140   5.436
 2418SOL    HW1 8153   4.087   4.076   5.433
 2418SOL    HW2 8154   3.962   4.139   5.349
 2419SOL     OW 8155   2.125   6.983   4.419
 2419SOL    HW1 8156   2.125   7.021   4.511
 2419SOL    HW2 8157   2.040   6.931   4.404
 2420SOL     OW 8158   3.356   5.621   2.017
 2420SOL    HW1 8159   3.328   5.613   1.921
 2420SOL    HW2 8160   3.453   5.644   2.021
 2421SOL     OW 8161   3.896   6.663   3.857
 2421SOL    HW1 8162   3.919   6.737   3.793
 2421SOL    HW2 8163   3.798   6.664   3.875
 2422SOL     OW 8164   4.018   0.132   1.074
 2422SOL    HW1 8165   4.109   0.096   1.093
 2422SOL    HW2 8166   3.975   0.162   1.160
 2423SOL     OW 8167   1.843   5.972   1.500
 2423SOL    HW1 8168   1.933   5.929   1.494
 2423SOL    HW2 8169   1.837   6.025   1.585
 2424SOL     OW 8170   5.575   6.158   6.641
 2424SOL    HW1 8171   5.540   6.236   6.691
 2424SOL    HW2 8172   5.509   6.083   6.645
 2425SOL     OW 8173   4.657   5.414   5.844
 2425SOL    HW1 8174   4.683   5.403   5.939
 2425SOL    HW2 8175   4.739   5.428   5.788
 2426SOL     OW 8176   1.061   5.813   4.781
 2426SOL    HW1 8177   1.083   5.902   4.740
 2426SOL    HW2 8178   0.984   5.824   4.845
 2427SOL     OW 8179   4.981   6.340   6.672
 2427SOL    HW1 8180   4.932   6.253   6.677
 2427SOL    HW2 8181   4.953   6.390   6.590
 2428SOL     OW 8182   0.319   1.248   3.078
 2428SOL    HW1 8183   0.382   1.213   3.008
 2428SOL    HW2 8184   0.345   1.341   3.102
 2429SOL     OW 8185   5.033   4.865   2.348
 2429SOL    HW1 8186   5.050   4.948   2.402
 2429SOL    HW2 8187   5.019   4.788   2.409
 2430SOL     OW 8188   5.792   2.498   0.660
 2430SOL    HW1 8189   5.772   2.412   0.707
 2430SOL    HW2 8190   5.818   2.479   0.566
 2431SOL     OW 8191   5.798   1.633   2.159
 2431SOL    HW1 8192   5.836   1.640   2.251
 2431SOL    HW2 8193   5.752   1.719   2.135
 2432SOL     OW 8194   3.346   5.541   1.733
 2432SOL    HW1 8195   3.437   5.580   1.719
 2432SOL    HW2 8196   3.339   5.455   1.682
 2433SOL     OW 8197   0.400   5.810   0.281
 2433SOL    HW1 8198   0.445   5.741   0.338
 2433SOL    HW2 8199   0.438   5.807   0.188
 2434SOL     OW 8200   4.592   1.776   2.468
 2434SOL    HW1 8201   4.666   1.742   2.526
 2434SOL    HW2 8202   4.565   1.704   2.404
 2435SOL     OW 8203   5.736   5.726   0.314
 2435SOL    HW1 8204   5.734   5.628   0.292
 2435SOL    HW2 8205   5.703   5.778   0.235
 2436SOL     OW 8206   1.794   1.538   1.713
 2436SOL    HW1 8207   1.735   1.460   1.691
 2436SOL    HW2 8208   1.758   1.620   1.670
 2437SOL     OW 8209   5.742   6.011   2.117
 2437SOL    HW1 8210   5.806   6.012   2.194
 2437SOL    HW2 8211   5.777   5.950   2.046
 2438SOL     OW 8212   4.203   1.932   4.325
 2438SOL    HW1 8213   4.119   1.986   4.334
 2438SOL    HW2 8214   4.278   1.992   4.297
 2439SOL     OW 8215   0.422   5.230   6.768
 2439SOL    HW1 8216   0.400   5.223   6.866
 2439SOL    HW2 8217   0.390   5.318   6.733
 2440SOL     OW 8218   4.004   0.040   5.397
 2440SOL    HW1 8219   3.988   0.125   5.348
 2440SOL    HW2 8220   4.102   0.027   5.411
 2441SOL     OW 8221   5.720   1.425   0.099
 2441SOL    HW1 8222   5.807   1.380   0.118
 2441SOL    HW2 8223   5.646   1.376   0.144
 2442SOL     OW 8224   5.782   4.443   2.884
 2442SOL    HW1 8225   5.786   4.344   2.871
 2442SOL    HW2 8226   5.858   4.472   2.943
 2443SOL     OW 8227   2.317   0.853   6.083
 2443SOL    HW1 8228   2.355   0.823   5.996
 2443SOL    HW2 8229   2.226   0.891   6.069
 2444SOL     OW 8230   4.152   4.842   0.109
 2444SOL    HW1 8231   4.091   4.777   0.155
 2444SOL    HW2 8232   4.185   4.909   0.175
 2445SOL     OW 8233   6.442   1.272   2.190
 2445SOL    HW1 8234   6.343   1.272   2.176
 2445SOL    HW2 8235   6.464   1.222   2.273
 2446SOL     OW 8236   1.271   2.465   3.242
 2446SOL    HW1 8237   1.231   2.551   3.273
 2446SOL    HW2 8238   1.294   2.471   3.145
 2447SOL     OW 8239   2.089   1.047   1.206
 2447SOL    HW1 8240   2.015   1.067   1.270
 2447SOL    HW2 8241   2.173   1.093   1.237
 2448SOL     OW 8242   6.085   1.639   4.132
 2448SOL    HW1 8243   6.049   1.577   4.201
 2448SOL    HW2 8244   6.150   1.591   4.073
 2449SOL     OW 8245   1.367   3.377   2.042
 2449SOL    HW1 8246   1.357   3.279   2.059
 2449SOL    HW2 8247   1.413   3.420   2.120
 2450SOL     OW 8248   2.900   5.115   6.713
 2450SOL    HW1 8249   2.852   5.055   6.649
 2450SOL    HW2 8250   2.911   5.067   6.801
 2451SOL     OW 8251   0.893   0.042   3.787
 2451SOL    HW1 8252   0.927   7.001   3.721
 2451SOL    HW2 8253   0.962   0.056   3.858
 2452SOL     OW 8254   2.378   1.955   3.871
 2452SOL    HW1 8255   2.365   1.946   3.970
 2452SOL    HW2 8256   2.419   2.044   3.851
 2453SOL     OW 8257   6.929   2.885   0.691
 2453SOL    HW1 8258   6.944   2.806   0.750
 2453SOL    HW2 8259   6.921   2.854   0.596
 2454SOL     OW 8260   2.277   6.022   6.327
 2454SOL    HW1 8261   2.366   6.003   6.370
 2454SOL    HW2 8262   2.228   5.936   6.315
 2455SOL     OW 8263   4.453   1.115   0.667
 2455SOL    HW1 8264   4.357   1.116   0.640
 2455SOL    HW2 8265   4.507   1.071   0.596
 2456SOL     OW 8266   0.632   2.623   6.195
 2456SOL    HW1 8267   0.586   2.712   6.199
 2456SOL    HW2 8268   0.657   2.594   6.288
 2457SOL     OW 8269   6.377   1.059   5.335
 2457SOL    HW1 8270   6.301   1.019   5.386
 2457SOL    HW2 8271   6.464   1.026   5.373
 2458SOL     OW 8272   1.095   0.107   3.953
 2458SOL    HW1 8273   1.145   0.060   4.025
 2458SOL    HW2 8274   1.099   0.206   3.968
 2459SOL     OW 8275   2.881   5.880   6.097
 2459SOL    HW1 8276   2.806   5.945   6.100
 2459SOL    HW2 8277   2.876   5.818   6.175
 2460SOL     OW 8278   1.473   1.283   0.658
 2460SOL    HW1 8279   1.396   1.338   0.688
 2460SOL    HW2 8280   1.461   1.257   0.562
 2461SOL     OW 8281   5.154   0.704   4.006
 2461SOL    HW1 8282   5.231   0.687   4.068
 2461SOL    HW2 8283   5.151   0.801   3.983
 2462SOL     OW 8284   2.284   5.024   0.080
 2462SOL    HW1 8285   2.226   5.021   0.162
 2462SOL    HW2 8286   2.313   4.931   0.057
 2463SOL     OW 8287   6.540   1.903   0.309
 2463SOL    HW1 8288   6.449   1.873   0.282
 2463SOL    HW2 8289   6.590   1.827   0.349
 2464SOL     OW 8290   1.399   3.022   3.420
 2464SOL    HW1 8291   1.406   3.117   3.450
 2464SOL    HW2 8292   1.388   2.963   3.500
 2465SOL     OW 8293   7.019   6.197   6.220
 2465SOL    HW1 8294   0.033   6.130   6.284
 2465SOL    HW2 8295   7.017   6.158   6.128
 2466SOL     OW 8296   1.627   1.465   2.764
 2466SOL    HW1 8297   1.544   1.449   2.817
 2466SOL    HW2 8298   1.604   1.485   2.669
 2467SOL     OW 8299   4.643   1.872   5.766
 2467SOL    HW1 8300   4.643   1.778   5.732
 2467SOL    HW2 8301   4.732   1.913   5.751
 2468SOL     OW 8302   4.117   6.852   0.623
 2468SOL    HW1 8303   4.094   6.880   0.530
 2468SOL    HW2 8304   4.093   6.925   0.687
 2469SOL     OW 8305   3.850   3.311   5.149
 2469SOL    HW1 8306   3.778   3.369   5.186
 2469SOL    HW2 8307   3.868   3.336   5.054
 2470SOL     OW 8308   3.858   4.822   5.523
 2470SOL    HW1 8309   3.798   4.748   5.554
 2470SOL    HW2 8310   3.941   4.783   5.484
 2471SOL     OW 8311   3.027   6.615   0.463
 2471SOL    HW1 8312   3.043   6.517   0.475
 2471SOL    HW2 8313   2.938   6.630   0.422
 2472SOL     OW 8314   4.456   2.168   3.581
 2472SOL    HW1 8315   4.422   2.142   3.671
 2472SOL    HW2 8316   4.400   2.126   3.510
 2473SOL     OW 8317   1.160   3.996   5.590
 2473SOL    HW1 8318   1.083   4.024   5.532
 2473SOL    HW2 8319   1.235   4.062   5.580
 2474SOL     OW 8320   0.866   6.080   0.908
 2474SOL    HW1 8321   0.805   6.158   0.922
 2474SOL    HW2 8322   0.951   6.111   0.865
 2475SOL     OW 8323   4.316   0.755   2.448
 2475SOL    HW1 8324   4.319   0.854   2.454
 2475SOL    HW2 8325   4.409   0.719   2.440
 2476SOL     OW 8326   5.767   0.243   2.184
 2476SOL    HW1 8327   5.703   0.204   2.250
 2476SOL    HW2 8328   5.860   0.239   2.220
 2477SOL     OW 8329   4.348   1.053   3.448
 2477SOL    HW1 8330   4.385   1.011   3.365
 2477SOL    HW2 8331   4.255   1.085   3.431
 2478SOL     OW 8332   6.201   1.407   1.814
 2478SOL    HW1 8333   6.187   1.328   1.754
 2478SOL    HW2 8334   6.155   1.391   1.901
 2479SOL     OW 8335   0.929   3.317   2.409
 2479SOL    HW1 8336   0.952   3.239   2.467
 2479SOL    HW2 8337   0.971   3.305   2.319
 2480SOL     OW 8338   4.652   3.339   0.770
 2480SOL    HW1 8339   4.557   3.318   0.794
 2480SOL    HW2 8340   4.706   3.349   0.853
 2481SOL     OW 8341   3.735   6.787   0.979
 2481SOL    HW1 8342   3.723   6.766   0.882
 2481SOL    HW2 8343   3.697   6.714   1.035
 2482SOL     OW 8344   5.149   3.628   6.374
 2482SOL    HW1 8345   5.215   3.646   6.447
 2482SOL    HW2 8346   5.058   3.616   6.413
 2483SOL     OW 8347   1.980   2.121   6.969
 2483SOL    HW1 8348   2.048   2.145   0.012
 2483SOL    HW2 8349   1.896   2.173   6.985
 2484SOL     OW 8350   3.413   0.846   0.058
 2484SOL    HW1 8351   3.330   0.864   0.111
 2484SOL    HW2 8352   3.454   0.760   0.089
 2485SOL     OW 8353   5.905   3.245   1.066
 2485SOL    HW1 8354   5.972   3.317   1.082
 2485SOL    HW2 8355   5.820   3.285   1.031
 2486SOL     OW 8356   1.462   4.770   5.205
 2486SOL    HW1 8357   1.437   4.674   5.188
 2486SOL    HW2 8358   1.502   4.778   5.296
 2487SOL     OW 8359   4.243   6.593   0.433
 2487SOL    HW1 8360   4.249   6.693   0.427
 2487SOL    HW2 8361   4.250   6.565   0.529
 2488SOL     OW 8362   0.845   4.206   2.077
 2488SOL    HW1 8363   0.862   4.142   2.002
 2488SOL    HW2 8364   0.932   4.248   2.104
 2489SOL     OW 8365   0.770   6.292   4.116
 2489SOL    HW1 8366   0.834   6.223   4.150
 2489SOL    HW2 8367   0.768   6.289   4.016
 2490SOL     OW 8368   0.244   5.033   1.252
 2490SOL    HW1 8369   0.307   5.030   1.174
 2490SOL    HW2 8370   0.153   5.062   1.220
 2491SOL     OW 8371   3.307   4.298   0.233
 2491SOL    HW1 8372   3.292   4.208   0.273
 2491SOL    HW2 8373   3.245   4.364   0.277
 2492SOL     OW 8374   4.686   3.628   0.719
 2492SOL    HW1 8375   4.598   3.656   0.758
 2492SOL    HW2 8376   4.690   3.528   0.714
 2493SOL     OW 8377   6.352   0.022   2.051
 2493SOL    HW1 8378   6.442   0.009   2.093
 2493SOL    HW2 8379   6.291   6.973   2.079
 2494SOL     OW 8380   5.273   4.499   3.170
 2494SOL    HW1 8381   5.297   4.480   3.265
 2494SOL    HW2 8382   5.175   4.482   3.157
 2495SOL     OW 8383   5.113   6.175   3.822
 2495SOL    HW1 8384   5.078   6.099   3.878
 2495SOL    HW2 8385   5.036   6.223   3.781
 2496SOL     OW 8386   0.207   2.688   6.466
 2496SOL    HW1 8387   0.127   2.629   6.470
 2496SOL    HW2 8388   0.231   2.705   6.370
 2497SOL     OW 8389   0.213   0.031   0.448
 2497SOL    HW1 8390   0.119   0.063   0.463
 2497SOL    HW2 8391   0.261   0.025   0.535
 2498SOL     OW 8392   3.173   1.786   5.473
 2498SOL    HW1 8393   3.199   1.850   5.401
 2498SOL    HW2 8394   3.073   1.779   5.476
 2499SOL     OW 8395   6.092   3.014   2.774
 2499SOL    HW1 8396   6.104   3.110   2.751
 2499SOL    HW2 8397   6.019   2.975   2.717
 2500SOL     OW 8398   4.024   4.108   6.963
 2500SOL    HW1 8399   3.952   4.109   6.894
 2500SOL    HW2 8400   4.094   4.174   6.939
 2501SOL     OW 8401   5.382   5.400   0.844
 2501SOL    HW1 8402   5.376   5.413   0.943
 2501SOL    HW2 8403   5.290   5.390   0.806
 2502SOL     OW 8404   0.949   0.642   4.021
 2502SOL    HW1 8405   0.883   0.566   4.018
 2502SOL    HW2 8406   1.035   0.612   3.980
 2503SOL     OW 8407   2.589   6.674   4.829
 2503SOL    HW1 8408   2.562   6.769   4.845
 2503SOL    HW2 8409   2.622   6.634   4.915
 2504SOL     OW 8410   4.011   5.277   3.984
 2504SOL    HW1 8411   4.084   5.250   3.921
 2504SOL    HW2 8412   3.945   5.202   3.992
 2505SOL     OW 8413   0.119   6.974   3.200
 2505SOL    HW1 8414   0.150   6.885   3.168
 2505SOL    HW2 8415   0.195   0.014   3.198
 2506SOL     OW 8416   6.437   3.955   6.122
 2506SOL    HW1 8417   6.376   4.023   6.080
 2506SOL    HW2 8418   6.518   4.001   6.157
 2507SOL     OW 8419   6.548   2.918   0.129
 2507SOL    HW1 8420   6.645   2.898   0.120
 2507SOL    HW2 8421   6.530   2.951   0.221
 2508SOL     OW 8422   3.200   1.461   3.294
 2508SOL    HW1 8423   3.215   1.373   3.340
 2508SOL    HW2 8424   3.111   1.459   3.248
 2509SOL     OW 8425   0.045   3.870   0.963
 2509SOL    HW1 8426   0.031   3.961   1.001
 2509SOL    HW2 8427   0.070   3.807   1.037
 2510SOL     OW 8428   3.046   5.130   1.264
 2510SOL    HW1 8429   3.058   5.229   1.275
 2510SOL    HW2 8430   3.024   5.089   1.353
 2511SOL     OW 8431   3.991   1.880   4.011
 2511SOL    HW1 8432   4.072   1.921   3.969
 2511SOL    HW2 8433   4.002   1.878   4.111
 2512SOL     OW 8434   4.358   3.628   5.627
 2512SOL    HW1 8435   4.310   3.697   5.681
 2512SOL    HW2 8436   4.394   3.557   5.689
 2513SOL     OW 8437   1.793   3.912   5.060
 2513SOL    HW1 8438   1.747   3.884   4.975
 2513SOL    HW2 8439   1.820   3.831   5.112
 2514SOL     OW 8440   0.273   4.169   5.094
 2514SOL    HW1 8441   0.239   4.076   5.076
 2514SOL    HW2 8442   0.366   4.163   5.132
 2515SOL     OW 8443   1.276   6.907   0.834
 2515SOL    HW1 8444   1.317   6.817   0.853
 2515SOL    HW2 8445   1.235   6.943   0.918
 2516SOL     OW 8446   5.546   2.101   2.839
 2516SOL    HW1 8447   5.523   2.198   2.826
 2516SOL    HW2 8448   5.634   2.082   2.795
 2517SOL     OW 8449   0.486   6.907   6.279
 2517SOL    HW1 8450   0.550   6.860   6.218
 2517SOL    HW2 8451   0.462   6.996   6.241
 2518SOL     OW 8452   1.572   4.655   7.019
 2518SOL    HW1 8453   1.672   4.658   7.023
 2518SOL    HW2 8454   1.542   4.670   6.925
 2519SOL     OW 8455   3.871   6.117   2.069
 2519SOL    HW1 8456   3.854   6.036   2.125
 2519SOL    HW2 8457   3.825   6.196   2.111
 2520SOL     OW 8458   3.407   1.666   0.722
 2520SOL    HW1 8459   3.378   1.751   0.767
 2520SOL    HW2 8460   3.332   1.632   0.666
 2521SOL     OW 8461   2.848   0.637   5.411
 2521SOL    HW1 8462   2.839   0.685   5.324
 2521SOL    HW2 8463   2.830   0.540   5.398
 2522SOL     OW 8464   0.929   2.613   5.150
 2522SOL    HW1 8465   1.009   2.659   5.190
 2522SOL    HW2 8466   0.956   2.523   5.117
 2523SOL     OW 8467   0.132   3.247   1.210
 2523SOL    HW1 8468   0.171   3.202   1.291
 2523SOL    HW2 8469   0.163   3.199   1.128
 2524SOL     OW 8470   0.626   6.377   4.739
 2524SOL    HW1 8471   0.587   6.340   4.823
 2524SOL    HW2 8472   0.559   6.371   4.666
 2525SOL     OW 8473   1.240   2.517   5.597
 2525SOL    HW1 8474   1.207   2.442   5.653
 2525SOL    HW2 8475   1.338   2.506   5.580
 2526SOL     OW 8476   1.150   4.576   6.259
 2526SOL    HW1 8477   1.210   4.622   6.325
 2526SOL    HW2 8478   1.137   4.481   6.286
 2527SOL     OW 8479   5.236   6.218   5.589
 2527SOL    HW1 8480   5.236   6.284   5.515
 2527SOL    HW2 8481   5.315   6.157   5.580
 2528SOL     OW 8482   6.366   5.019   7.024
 2528SOL    HW1 8483   6.382   4.949   0.069
 2528SOL    HW2 8484   6.339   5.104   0.043
 2529SOL     OW 8485   6.674   5.754   6.397
 2529SOL    HW1 8486   6.638   5.722   6.485
 2529SOL    HW2 8487   6.618   5.717   6.323
 2530SOL     OW 8488   2.926   6.385   4.818
 2530SOL    HW1 8489   2.835   6.366   4.854
 2530SOL    HW2 8490   2.919   6.453   4.744
 2531SOL     OW 8491   5.412   5.863   4.958
 2531SOL    HW1 8492   5.484   5.821   4.904
 2531SOL    HW2 8493   5.416   5.963   4.948
 2532SOL     OW 8494   0.804   5.461   0.870
 2532SOL    HW1 8495   0.780   5.401   0.946
 2532SOL    HW2 8496   0.740   5.446   0.794
 2533SOL     OW 8497   3.215   6.433   4.212
 2533SOL    HW1 8498   3.239   6.505   4.146
 2533SOL    HW2 8499   3.294   6.412   4.268
 2534SOL     OW 8500   4.112   0.533   2.902
 2534SOL    HW1 8501   4.012   0.546   2.902
 2534SOL    HW2 8502   4.153   0.587   2.829
 2535SOL     OW 8503   3.500   2.666   5.447
 2535SOL    HW1 8504   3.576   2.727   5.424
 2535SOL    HW2 8505   3.413   2.710   5.422
 2536SOL     OW 8506   1.197   1.506   4.881
 2536SOL    HW1 8507   1.177   1.429   4.821
 2536SOL    HW2 8508   1.112   1.541   4.920
 2537SOL     OW 8509   3.665   0.179   6.230
 2537SOL    HW1 8510   3.725   0.224   6.164
 2537SOL    HW2 8511   3.715   0.105   6.276
 2538SOL     OW 8512   0.735   4.586   2.790
 2538SOL    HW1 8513   0.779   4.671   2.818
 2538SOL    HW2 8514   0.801   4.529   2.741
 2539SOL     OW 8515   6.187   1.115   4.731
 2539SOL    HW1 8516   6.164   1.021   4.707
 2539SOL    HW2 8517   6.127   1.146   4.805
 2540SOL     OW 8518   3.947   1.947   2.899
 2540SOL    HW1 8519   3.986   1.855   2.908
 2540SOL    HW2 8520   3.919   1.962   2.805
 2541SOL     OW 8521   2.809   0.220   5.021
 2541SOL    HW1 8522   2.896   0.213   5.069
 2541SOL    HW2 8523   2.824   0.203   4.923
 2542SOL     OW 8524   3.242   1.853   5.726
 2542SOL    HW1 8525   3.209   1.837   5.633
 2542SOL    HW2 8526   3.184   1.920   5.771
 2543SOL     OW 8527   1.414   1.005   3.257
 2543SOL    HW1 8528   1.379   0.971   3.345
 2543SOL    HW2 8529   1.337   1.015   3.193
 2544SOL     OW 8530   0.296   6.747   0.887
 2544SOL    HW1 8531   0.378   6.712   0.932
 2544SOL    HW2 8532   0.219   6.686   0.905
 2545SOL     OW 8533   1.366   0.180   2.231
 2545SOL    HW1 8534   1.315   0.139   2.156
 2545SOL    HW2 8535   1.303   0.208   2.303
 2546SOL     OW 8536   0.228   0.854   2.089
 2546SOL    HW1 8537   0.138   0.820   2.062
 2546SOL    HW2 8538   0.226   0.880   2.185
 2547SOL     OW 8539   6.741   5.044   0.443
 2547SOL    HW1 8540   6.796   5.127   0.437
 2547SOL    HW2 8541   6.648   5.067   0.471
 2548SOL     OW 8542   1.218   6.288   5.706
 2548SOL    HW1 8543   1.245   6.208   5.759
 2548SOL    HW2 8544   1.138   6.331   5.748
 2549SOL     OW 8545   2.078   0.284   0.938
 2549SOL    HW1 8546   2.018   0.235   0.876
 2549SOL    HW2 8547   2.108   0.369   0.895
 2550SOL     OW 8548   6.687   0.366   6.858
 2550SOL    HW1 8549   6.620   0.369   6.784
 2550SOL    HW2 8550   6.706   0.459   6.890
 2551SOL     OW 8551   3.046   5.273   0.498
 2551SOL    HW1 8552   3.003   5.322   0.574
 2551SOL    HW2 8553   3.139   5.247   0.523
 2552SOL     OW 8554   1.438   5.954   4.911
 2552SOL    HW1 8555   1.374   5.877   4.917
 2552SOL    HW2 8556   1.508   5.945   4.983
 2553SOL     OW 8557   4.811   3.555   5.868
 2553SOL    HW1 8558   4.735   3.549   5.933
 2553SOL    HW2 8559   4.786   3.617   5.794
 2554SOL     OW 8560   1.881   6.790   0.244
 2554SOL    HW1 8561   1.795   6.801   0.294
 2554SOL    HW2 8562   1.877   6.841   0.159
 2555SOL     OW 8563   5.727   0.058   5.210
 2555SOL    HW1 8564   5.745   0.138   5.152
 2555SOL    HW2 8565   5.745   0.081   5.305
 2556SOL     OW 8566   4.183   5.658   0.265
 2556SOL    HW1 8567   4.236   5.639   0.348
 2556SOL    HW2 8568   4.186   5.756   0.245
 2557SOL     OW 8569   2.246   4.399   6.737
 2557SOL    HW1 8570   2.295   4.358   6.814
 2557SOL    HW2 8571   2.176   4.336   6.705
 2558SOL     OW 8572   5.351   1.427   4.869
 2558SOL    HW1 8573   5.318   1.409   4.961
 2558SOL    HW2 8574   5.441   1.384   4.856
 2559SOL     OW 8575   0.356   3.544   4.302
 2559SOL    HW1 8576   0.281   3.604   4.274
 2559SOL    HW2 8577   0.346   3.523   4.399
 2560SOL     OW 8578   5.843   3.564   4.079
 2560SOL    HW1 8579   5.832   3.650   4.128
 2560SOL    HW2 8580   5.853   3.489   4.145
 2561SOL     OW 8581   3.069   6.143   5.304
 2561SOL    HW1 8582   3.059   6.127   5.206
 2561SOL    HW2 8583   3.156   6.104   5.336
 2562SOL     OW 8584   2.338   5.578   1.544
 2562SOL    HW1 8585   2.279   5.579   1.464
 2562SOL    HW2 8586   2.326   5.493   1.595
 2563SOL     OW 8587   3.602   2.229   0.413
 2563SOL    HW1 8588   3.503   2.243   0.404
 2563SOL    HW2 8589   3.648   2.318   0.411
 2564SOL     OW 8590   2.084   5.632   5.948
 2564SOL    HW1 8591   2.118   5.633   5.854
 2564SOL    HW2 8592   2.142   5.574   6.005
 2565SOL     OW 8593   1.352   0.569   0.227
 2565SOL    HW1 8594   1.271   0.628   0.236
 2565SOL    HW2 8595   1.381   0.538   0.317
 2566SOL     OW 8596   2.613   6.905   1.087
 2566SOL    HW1 8597   2.673   6.825   1.082
 2566SOL    HW2 8598   2.633   6.966   1.010
 2567SOL     OW 8599   0.644   1.174   0.903
 2567SOL    HW1 8600   0.600   1.108   0.843
 2567SOL    HW2 8601   0.697   1.239   0.848
 2568SOL     OW 8602   4.225   0.185   6.432
 2568SOL    HW1 8603   4.151   0.156   6.492
 2568SOL    HW2 8604   4.195   0.176   6.337
 2569SOL     OW 8605   2.983   1.464   1.956
 2569SOL    HW1 8606   3.004   1.547   2.007
 2569SOL    HW2 8607   2.911   1.483   1.890
 2570SOL     OW 8608   5.482   0.430   6.451
 2570SOL    HW1 8609   5.422   0.509   6.443
 2570SOL    HW2 8610   5.537   0.438   6.535
 2571SOL     OW 8611   2.408   4.613   5.663
 2571SOL    HW1 8612   2.345   4.690   5.653
 2571SOL    HW2 8613   2.500   4.641   5.638
 2572SOL     OW 8614   2.473   5.417   1.116
 2572SOL    HW1 8615   2.568   5.388   1.128
 2572SOL    HW2 8616   2.442   5.463   1.199
 2573SOL     OW 8617   6.877   2.158   1.770
 2573SOL    HW1 8618   6.940   2.155   1.848
 2573SOL    HW2 8619   6.923   2.122   1.689
 2574SOL     OW 8620   5.985   3.941   0.538
 2574SOL    HW1 8621   5.956   3.907   0.627
 2574SOL    HW2 8622   6.084   3.951   0.536
 2575SOL     OW 8623   5.208   5.293   1.090
 2575SOL    HW1 8624   5.256   5.368   1.135
 2575SOL    HW2 8625   5.109   5.305   1.101
 2576SOL     OW 8626   4.299   6.588   4.675
 2576SOL    HW1 8627   4.289   6.500   4.723
 2576SOL    HW2 8628   4.352   6.574   4.591
 2577SOL     OW 8629   4.415   6.503   2.141
 2577SOL    HW1 8630   4.340   6.569   2.148
 2577SOL    HW2 8631   4.487   6.527   2.205
 2578SOL     OW 8632   4.923   1.905   5.284
 2578SOL    HW1 8633   4.913   1.826   5.224
 2578SOL    HW2 8634   4.944   1.875   5.377
 2579SOL     OW 8635   1.600   6.556   2.859
 2579SOL    HW1 8636   1.572   6.480   2.918
 2579SOL    HW2 8637   1.677   6.527   2.801
 2580SOL     OW 8638   3.070   3.830   6.078
 2580SOL    HW1 8639   3.134   3.884   6.132
 2580SOL    HW2 8640   2.981   3.877   6.073
 2581SOL     OW 8641   1.594   5.082   1.606
 2581SOL    HW1 8642   1.549   5.025   1.538
 2581SOL    HW2 8643   1.680   5.117   1.569
 2582SOL     OW 8644   0.543   4.030   1.563
 2582SOL    HW1 8645   0.540   3.959   1.634
 2582SOL    HW2 8646   0.628   4.021   1.511
 2583SOL     OW 8647   1.396   1.422   6.792
 2583SOL    HW1 8648   1.485   1.441   6.834
 2583SOL    HW2 8649   1.403   1.436   6.693
 2584SOL     OW 8650   4.305   5.096   6.075
 2584SOL    HW1 8651   4.252   5.011   6.073
 2584SOL    HW2 8652   4.315   5.130   5.981
 2585SOL     OW 8653   4.511   3.399   0.414
 2585SOL    HW1 8654   4.587   3.357   0.464
 2585SOL    HW2 8655   4.442   3.330   0.394
 2586SOL     OW 8656   4.022   1.135   3.633
 2586SOL    HW1 8657   3.957   1.210   3.618
 2586SOL    HW2 8658   4.068   1.149   3.721
 2587SOL     OW 8659   0.009   0.621   3.223
 2587SOL    HW1 8660   6.944   0.622   3.179
 2587SOL    HW2 8661   0.035   0.715   3.245
 2588SOL     OW 8662   4.895   1.463   6.560
 2588SOL    HW1 8663   4.915   1.502   6.470
 2588SOL    HW2 8664   4.864   1.368   6.549
 2589SOL     OW 8665   0.818   6.472   5.445
 2589SOL    HW1 8666   0.870   6.500   5.364
 2589SOL    HW2 8667   0.827   6.373   5.458
 2590SOL     OW 8668   3.394   4.838   7.003
 2590SOL    HW1 8669   3.441   4.908   0.032
 2590SOL    HW2 8670   3.304   4.821   0.017
 2591SOL     OW 8671   0.195   4.855   3.051
 2591SOL    HW1 8672   0.185   4.941   3.000
 2591SOL    HW2 8673   0.235   4.874   3.140
 2592SOL     OW 8674   3.063   5.701   0.126
 2592SOL    HW1 8675   3.148   5.653   0.103
 2592SOL    HW2 8676   2.985   5.647   0.094
 2593SOL     OW 8677   4.302   5.397   0.162
 2593SOL    HW1 8678   4.253   5.463   0.219
 2593SOL    HW2 8679   4.400   5.415   0.167
 2594SOL     OW 8680   1.861   4.375   5.708
 2594SOL    HW1 8681   1.829   4.464   5.677
 2594SOL    HW2 8682   1.960   4.368   5.695
 2595SOL     OW 8683   7.007   0.399   3.998
 2595SOL    HW1 8684   6.981   0.310   4.033
 2595SOL    HW2 8685   0.033   0.388   3.912
 2596SOL     OW 8686   3.005   2.156   1.808
 2596SOL    HW1 8687   3.020   2.149   1.709
 2596SOL    HW2 8688   2.990   2.252   1.833
 2597SOL     OW 8689   0.412   4.713   5.759
 2597SOL    HW1 8690   0.394   4.769   5.840
 2597SOL    HW2 8691   0.338   4.646   5.747
 2598SOL     OW 8692   6.292   1.717   3.109
 2598SOL    HW1 8693   6.197   1.741   3.125
 2598SOL    HW2 8694   6.347   1.741   3.189
 2599SOL     OW 8695   1.397   5.881   1.027
 2599SOL    HW1 8696   1.483   5.923   1.058
 2599SOL    HW2 8697   1.322   5.946   1.040
 2600SOL     OW 8698   5.862   3.233   4.589
 2600SOL    HW1 8699   5.829   3.173   4.516
 2600SOL    HW2 8700   5.928   3.298   4.551
 2601SOL     OW 8701   1.771   1.637   2.212
 2601SOL    HW1 8702   1.804   1.644   2.306
 2601SOL    HW2 8703   1.796   1.720   2.162
 2602SOL     OW 8704   1.001   5.027   4.865
 2602SOL    HW1 8705   0.940   4.960   4.824
 2602SOL    HW2 8706   0.991   5.024   4.965
 2603SOL     OW 8707   3.223   0.597   3.662
 2603SOL    HW1 8708   3.276   0.657   3.602
 2603SOL    HW2 8709   3.196   0.647   3.744
 2604SOL     OW 8710   4.792   2.302   2.647
 2604SOL    HW1 8711   4.818   2.381   2.703
 2604SOL    HW2 8712   4.817   2.319   2.552
 2605SOL     OW 8713   1.676   2.885   3.332
 2605SOL    HW1 8714   1.774   2.889   3.316
 2605SOL    HW2 8715   1.654   2.936   3.415
 2606SOL     OW 8716   5.575   4.551   1.483
 2606SOL    HW1 8717   5.552   4.460   1.450
 2606SOL    HW2 8718   5.672   4.568   1.470
 2607SOL     OW 8719   1.264   1.673   2.241
 2607SOL    HW1 8720   1.353   1.629   2.245
 2607SOL    HW2 8721   1.208   1.630   2.170
 2608SOL     OW 8722   3.847   5.183   0.552
 2608SOL    HW1 8723   3.893   5.108   0.506
 2608SOL    HW2 8724   3.891   5.270   0.527
 2609SOL     OW 8725   6.598   1.159   2.377
 2609SOL    HW1 8726   6.577   1.155   2.474
 2609SOL    HW2 8727   6.637   1.071   2.348
 2610SOL     OW 8728   0.900   3.766   4.448
 2610SOL    HW1 8729   0.894   3.822   4.531
 2610SOL    HW2 8730   0.808   3.748   4.414
 2611SOL     OW 8731   4.327   6.165   0.883
 2611SOL    HW1 8732   4.412   6.119   0.908
 2611SOL    HW2 8733   4.299   6.226   0.957
 2612SOL     OW 8734   6.325   6.531   4.662
 2612SOL    HW1 8735   6.371   6.494   4.742
 2612SOL    HW2 8736   6.386   6.524   4.583
 2613SOL     OW 8737   1.990   5.353   6.290
 2613SOL    HW1 8738   2.032   5.355   6.199
 2613SOL    HW2 8739   1.892   5.336   6.282
 2614SOL     OW 8740   6.685   2.143   0.339
 2614SOL    HW1 8741   6.628   2.066   0.311
 2614SOL    HW2 8742   6.756   2.111   0.402
 2615SOL     OW 8743   0.591   3.107   2.585
 2615SOL    HW1 8744   0.518   3.115   2.517
 2615SOL    HW2 8745   0.573   3.171   2.660
 2616SOL     OW 8746   2.557   2.766   5.969
 2616SOL    HW1 8747   2.493   2.733   6.038
 2616SOL    HW2 8748   2.627   2.822   6.013
 2617SOL     OW 8749   4.349   0.600   0.355
 2617SOL    HW1 8750   4.370   0.687   0.311
 2617SOL    HW2 8751   4.429   0.567   0.404
 2618SOL     OW 8752   6.654   0.252   4.135
 2618SOL    HW1 8753   6.715   0.202   4.195
 2618SOL    HW2 8754   6.645   0.204   4.048
 2619SOL     OW 8755   5.159   2.081   1.736
 2619SOL    HW1 8756   5.071   2.105   1.695
 2619SOL    HW2 8757   5.219   2.042   1.667
 2620SOL     OW 8758   6.960   6.843   3.623
 2620SOL    HW1 8759   6.929   6.895   3.543
 2620SOL    HW2 8760   0.025   6.876   3.651
 2621SOL     OW 8761   0.782   5.283   2.244
 2621SOL    HW1 8762   0.813   5.337   2.322
 2621SOL    HW2 8763   0.682   5.290   2.237
 2622SOL     OW 8764   2.066   3.844   6.198
 2622SOL    HW1 8765   2.139   3.835   6.266
 2622SOL    HW2 8766   2.088   3.787   6.119
 2623SOL     OW 8767   0.753   0.485   5.684
 2623SOL    HW1 8768   0.663   0.519   5.658
 2623SOL    HW2 8769   0.785   0.533   5.766
 2624SOL     OW 8770   0.446   1.833   5.003
 2624SOL    HW1 8771   0.402   1.761   5.057
 2624SOL    HW2 8772   0.426   1.818   4.906
 2625SOL     OW 8773   2.562   3.673   5.791
 2625SOL    HW1 8774   2.606   3.744   5.737
 2625SOL    HW2 8775   2.603   3.584   5.769
 2626SOL     OW 8776   6.776   0.379   6.408
 2626SOL    HW1 8777   6.713   0.373   6.486
 2626SOL    HW2 8778   6.812   0.288   6.388
 2627SOL     OW 8779   1.520   0.865   6.145
 2627SOL    HW1 8780   1.519   0.830   6.238
 2627SOL    HW2 8781   1.578   0.807   6.088
 2628SOL     OW 8782   2.267   4.015   5.737
 2628SOL    HW1 8783   2.244   4.031   5.641
 2628SOL    HW2 8784   2.200   3.953   5.777
 2629SOL     OW 8785   3.652   3.397   2.013
 2629SOL    HW1 8786   3.615   3.486   1.988
 2629SOL    HW2 8787   3.674   3.345   1.930
 2630SOL     OW 8788   3.418   1.303   2.597
 2630SOL    HW1 8789   3.465   1.290   2.685
 2630SOL    HW2 8790   3.476   1.268   2.523
 2631SOL     OW 8791   5.193   0.912   6.691
 2631SOL    HW1 8792   5.259   0.945   6.759
 2631SOL    HW2 8793   5.203   0.964   6.606
 2632SOL     OW 8794   5.639   3.121   0.767
 2632SOL    HW1 8795   5.723   3.081   0.730
 2632SOL    HW2 8796   5.658   3.213   0.800
 2633SOL     OW 8797   0.069   1.694   4.833
 2633SOL    HW1 8798   0.023   1.689   4.744
 2633SOL    HW2 8799   0.059   1.606   4.880
 2634SOL     OW 8800   0.912   5.379   3.612
 2634SOL    HW1 8801   0.993   5.319   3.607
 2634SOL    HW2 8802   0.937   5.471   3.583
 2635SOL     OW 8803   6.851   5.981   4.632
 2635SOL    HW1 8804   6.770   5.958   4.577
 2635SOL    HW2 8805   6.933   5.946   4.586
 2636SOL     OW 8806   3.893   0.319   6.539
 2636SOL    HW1 8807   3.910   0.413   6.569
 2636SOL    HW2 8808   3.942   0.255   6.600
 2637SOL     OW 8809   5.949   1.776   3.936
 2637SOL    HW1 8810   6.013   1.823   3.875
 2637SOL    HW2 8811   5.996   1.750   4.020
 2638SOL     OW 8812   6.880   6.854   4.725
 2638SOL    HW1 8813   6.973   6.832   4.756
 2638SOL    HW2 8814   6.821   6.871   4.804
 2639SOL     OW 8815   6.780   6.219   0.389
 2639SOL    HW1 8816   6.796   6.317   0.400
 2639SOL    HW2 8817   6.725   6.185   0.465
 2640SOL     OW 8818   6.843   6.574   5.352
 2640SOL    HW1 8819   6.886   6.601   5.266
 2640SOL    HW2 8820   6.752   6.614   5.358
 2641SOL     OW 8821   5.349   2.510   1.915
 2641SOL    HW1 8822   5.271   2.507   1.852
 2641SOL    HW2 8823   5.365   2.419   1.953
 2642SOL     OW 8824   6.181   0.411   3.687
 2642SOL    HW1 8825   6.088   0.374   3.688
 2642SOL    HW2 8826   6.240   0.354   3.745
 2643SOL     OW 8827   1.232   3.544   3.678
 2643SOL    HW1 8828   1.267   3.626   3.723
 2643SOL    HW2 8829   1.134   3.533   3.700
 2644SOL     OW 8830   4.763   4.987   4.864
 2644SOL    HW1 8831   4.723   5.076   4.888
 2644SOL    HW2 8832   4.691   4.926   4.832
 2645SOL     OW 8833   4.566   5.464   3.505
 2645SOL    HW1 8834   4.589   5.368   3.520
 2645SOL    HW2 8835   4.474   5.469   3.466
 2646SOL     OW 8836   6.892   2.106   0.501
 2646SOL    HW1 8837   6.826   2.094   0.575
 2646SOL    HW2 8838   6.953   2.026   0.498
 2647SOL     OW 8839   6.351   6.568   1.714
 2647SOL    HW1 8840   6.293   6.633   1.665
 2647SOL    HW2 8841   6.446   6.600   1.712
 2648SOL     OW 8842   6.815   6.170   4.290
 2648SOL    HW1 8843   6.865   6.086   4.311
 2648SOL    HW2 8844   6.718   6.148   4.278
 2649SOL     OW 8845   6.326   3.223   1.213
 2649SOL    HW1 8846   6.423   3.247   1.221
 2649SOL    HW2 8847   6.279   3.291   1.158
 2650SOL     OW 8848   1.865   4.907   4.083
 2650SOL    HW1 8849   1.779   4.857   4.093
 2650SOL    HW2 8850   1.852   4.983   4.020
 2651SOL     OW 8851   2.973   1.514   1.325
 2651SOL    HW1 8852   3.032   1.528   1.245
 2651SOL    HW2 8853   2.891   1.570   1.315
 2652SOL     OW 8854   4.454   3.451   5.819
 2652SOL    HW1 8855   4.504   3.462   5.905
 2652SOL    HW2 8856   4.371   3.398   5.836
 2653SOL     OW 8857   4.652   6.030   5.882
 2653SOL    HW1 8858   4.587   6.106   5.874
 2653SOL    HW2 8859   4.602   5.945   5.897
 2654SOL     OW 8860   4.719   6.630   1.015
 2654SOL    HW1 8861   4.792   6.627   1.082
 2654SOL    HW2 8862   4.742   6.697   0.944
 2655SOL     OW 8863   4.761   5.630   3.575
 2655SOL    HW1 8864   4.684   5.572   3.547
 2655SOL    HW2 8865   4.754   5.649   3.673
 2656SOL     OW 8866   3.661   5.633   4.498
 2656SOL    HW1 8867   3.687   5.663   4.406
 2656SOL    HW2 8868   3.575   5.678   4.524
 2657SOL     OW 8869   1.610   3.664   0.507
 2657SOL    HW1 8870   1.597   3.740   0.444
 2657SOL    HW2 8871   1.540   3.594   0.492
 2658SOL     OW 8872   4.856   4.639   0.031
 2658SOL    HW1 8873   4.880   4.556   7.006
 2658SOL    HW2 8874   4.757   4.652   0.030
 2659SOL     OW 8875   4.602   3.159   5.389
 2659SOL    HW1 8876   4.571   3.254   5.381
 2659SOL    HW2 8877   4.560   3.117   5.470
 2660SOL     OW 8878   0.685   0.603   1.800
 2660SOL    HW1 8879   0.599   0.635   1.762
 2660SOL    HW2 8880   0.761   0.642   1.749
 2661SOL     OW 8881   2.068   6.669   1.640
 2661SOL    HW1 8882   2.059   6.627   1.550
 2661SOL    HW2 8883   2.133   6.745   1.636
 2662SOL     OW 8884   3.018   0.132   4.101
 2662SOL    HW1 8885   3.087   0.073   4.059
 2662SOL    HW2 8886   2.977   0.190   4.032
 2663SOL     OW 8887   4.458   4.627   6.480
 2663SOL    HW1 8888   4.426   4.559   6.414
 2663SOL    HW2 8889   4.513   4.696   6.433
 2664SOL     OW 8890   4.310   3.278   5.436
 2664SOL    HW1 8891   4.251   3.280   5.517
 2664SOL    HW2 8892   4.387   3.340   5.449
 2665SOL     OW 8893   2.331   3.538   5.313
 2665SOL    HW1 8894   2.424   3.570   5.329
 2665SOL    HW2 8895   2.270   3.616   5.304
 2666SOL     OW 8896   1.470   4.575   1.547
 2666SOL    HW1 8897   1.457   4.508   1.473
 2666SOL    HW2 8898   1.524   4.533   1.620
 2667SOL     OW 8899   1.330   5.797   4.027
 2667SOL    HW1 8900   1.331   5.809   3.928
 2667SOL    HW2 8901   1.417   5.759   4.058
 2668SOL     OW 8902   6.349   2.775   4.845
 2668SOL    HW1 8903   6.344   2.837   4.924
 2668SOL    HW2 8904   6.371   2.683   4.876
 2669SOL     OW 8905   3.152   5.249   6.350
 2669SOL    HW1 8906   3.200   5.326   6.392
 2669SOL    HW2 8907   3.119   5.277   6.259
 2670SOL     OW 8908   5.737   3.055   4.772
 2670SOL    HW1 8909   5.789   3.126   4.725
 2670SOL    HW2 8910   5.761   3.056   4.870
 2671SOL     OW 8911   5.000   5.140   6.430
 2671SOL    HW1 8912   4.928   5.161   6.496
 2671SOL    HW2 8913   5.059   5.221   6.418
 2672SOL     OW 8914   3.062   6.428   1.415
 2672SOL    HW1 8915   3.049   6.517   1.458
 2672SOL    HW2 8916   3.047   6.355   1.482
 2673SOL     OW 8917   6.277   2.212   2.017
 2673SOL    HW1 8918   6.311   2.122   2.045
 2673SOL    HW2 8919   6.178   2.207   2.003
 2674SOL     OW 8920   0.861   4.537   4.012
 2674SOL    HW1 8921   0.918   4.618   4.027
 2674SOL    HW2 8922   0.764   4.563   4.017
 2675SOL     OW 8923   6.738   6.468   4.102
 2675SOL    HW1 8924   6.644   6.499   4.115
 2675SOL    HW2 8925   6.740   6.368   4.101
 2676SOL     OW 8926   3.248   3.280   1.820
 2676SOL    HW1 8927   3.239   3.190   1.777
 2676SOL    HW2 8928   3.189   3.345   1.773
 2677SOL     OW 8929   2.427   4.490   1.414
 2677SOL    HW1 8930   2.490   4.545   1.469
 2677SOL    HW2 8931   2.338   4.485   1.460
 2678SOL     OW 8932   0.112   2.379   2.122
 2678SOL    HW1 8933   0.198   2.331   2.136
 2678SOL    HW2 8934   0.081   2.420   2.208
 2679SOL     OW 8935   1.863   4.511   2.436
 2679SOL    HW1 8936   1.876   4.423   2.391
 2679SOL    HW2 8937   1.766   4.533   2.438
 2680SOL     OW 8938   0.999   2.449   0.453
 2680SOL    HW1 8939   0.974   2.358   0.486
 2680SOL    HW2 8940   0.954   2.466   0.365
 2681SOL     OW 8941   1.099   2.535   4.759
 2681SOL    HW1 8942   1.118   2.539   4.661
 2681SOL    HW2 8943   1.074   2.625   4.792
 2682SOL     OW 8944   4.859   4.298   3.471
 2682SOL    HW1 8945   4.830   4.239   3.546
 2682SOL    HW2 8946   4.843   4.251   3.384
 2683SOL     OW 8947   2.393   4.981   2.151
 2683SOL    HW1 8948   2.445   4.951   2.071
 2683SOL    HW2 8949   2.450   4.975   2.233
 2684SOL     OW 8950   4.573   6.750   1.960
 2684SOL    HW1 8951   4.495   6.713   1.909
 2684SOL    HW2 8952   4.656   6.736   1.907
 2685SOL     OW 8953   6.038   5.242   5.780
 2685SOL    HW1 8954   6.004   5.272   5.869
 2685SOL    HW2 8955   6.005   5.303   5.709
 2686SOL     OW 8956   1.095   1.732   5.555
 2686SOL    HW1 8957   1.017   1.755   5.614
 2686SOL    HW2 8958   1.105   1.632   5.550
 2687SOL     OW 8959   3.832   5.806   0.435
 2687SOL    HW1 8960   3.817   5.712   0.405
 2687SOL    HW2 8961   3.745   5.855   0.440
 2688SOL     OW 8962   2.503   2.361   0.520
 2688SOL    HW1 8963   2.462   2.284   0.569
 2688SOL    HW2 8964   2.580   2.396   0.572
 2689SOL     OW 8965   6.862   4.033   2.363
 2689SOL    HW1 8966   6.916   4.048   2.280
 2689SOL    HW2 8967   6.815   4.118   2.387
 2690SOL     OW 8968   3.127   3.336   6.515
 2690SOL    HW1 8969   3.068   3.404   6.560
 2690SOL    HW2 8970   3.177   3.380   6.441
 2691SOL     OW 8971   0.045   4.638   3.886
 2691SOL    HW1 8972   0.067   4.711   3.950
 2691SOL    HW2 8973   0.046   4.674   3.793
 2692SOL     OW 8974   2.428   6.749   3.162
 2692SOL    HW1 8975   2.351   6.715   3.109
 2692SOL    HW2 8976   2.394   6.789   3.248
 2693SOL     OW 8977   2.396   5.050   4.073
 2693SOL    HW1 8978   2.348   5.108   4.138
 2693SOL    HW2 8979   2.396   4.955   4.106
 2694SOL     OW 8980   3.584   6.504   3.627
 2694SOL    HW1 8981   3.624   6.578   3.681
 2694SOL    HW2 8982   3.612   6.514   3.531
 2695SOL     OW 8983   5.701   0.316   2.823
 2695SOL    HW1 8984   5.789   0.281   2.792
 2695SOL    HW2 8985   5.697   0.415   2.807
 2696SOL     OW 8986   4.419   4.020   5.583
 2696SOL    HW1 8987   4.424   3.958   5.661
 2696SOL    HW2 8988   4.414   4.115   5.615
 2697SOL     OW 8989   3.825   1.799   2.641
 2697SOL    HW1 8990   3.766   1.826   2.717
 2697SOL    HW2 8991   3.810   1.702   2.621
 2698SOL     OW 8992   1.616   4.859   6.765
 2698SOL    HW1 8993   1.538   4.921   6.763
 2698SOL    HW2 8994   1.700   4.911   6.750
 2699SOL     OW 8995   3.010   6.063   0.769
 2699SOL    HW1 8996   3.033   5.990   0.834
 2699SOL    HW2 8997   3.005   6.025   0.676
 2700SOL     OW 8998   2.719   1.654   1.194
 2700SOL    HW1 8999   2.642   1.597   1.165
 2700SOL    HW2 9000   2.690   1.750   1.197
 2701SOL     OW 9001   5.426   2.166   5.504
 2701SOL    HW1 9002   5.366   2.099   5.547
 2701SOL    HW2 9003   5.370   2.234   5.456
 2702SOL     OW 9004   0.961   2.304   3.037
 2702SOL    HW1 9005   0.973   2.398   3.005
 2702SOL    HW2 9006   0.991   2.298   3.133
 2703SOL     OW 9007   1.188   5.808   1.504
 2703SOL    HW1 9008   1.280   5.782   1.533
 2703SOL    HW2 9009   1.148   5.869   1.574
 2704SOL     OW 9010   6.414   6.104   1.645
 2704SOL    HW1 9011   6.393   6.067   1.736
 2704SOL    HW2 9012   6.451   6.031   1.587
 2705SOL     OW 9013   6.690   0.648   5.117
 2705SOL    HW1 9014   6.775   0.624   5.164
 2705SOL    HW2 9015   6.630   0.699   5.180
 2706SOL     OW 9016   6.698   4.639   3.466
 2706SOL    HW1 9017   6.725   4.576   3.394
 2706SOL    HW2 9018   6.622   4.696   3.434
 2707SOL     OW 9019   4.188   0.386   4.337
 2707SOL    HW1 9020   4.208   0.318   4.408
 2707SOL    HW2 9021   4.176   0.340   4.249
 2708SOL     OW 9022   6.325   2.785   1.368
 2708SOL    HW1 9023   6.275   2.832   1.295
 2708SOL    HW2 9024   6.340   2.689   1.342
 2709SOL     OW 9025   5.071   0.165   6.695
 2709SOL    HW1 9026   5.130   0.216   6.632
 2709SOL    HW2 9027   4.976   0.184   6.673
 2710SOL     OW 9028   1.661   2.519   4.024
 2710SOL    HW1 9029   1.668   2.618   4.038
 2710SOL    HW2 9030   1.753   2.480   4.020
 2711SOL     OW 9031   3.309   0.464   3.403
 2711SOL    HW1 9032   3.270   0.488   3.492
 2711SOL    HW2 9033   3.407   0.444   3.413
 2712SOL     OW 9034   2.059   6.009   2.090
 2712SOL    HW1 9035   2.129   5.990   2.159
 2712SOL    HW2 9036   2.043   5.927   2.035
 2713SOL     OW 9037   3.506   3.888   6.552
 2713SOL    HW1 9038   3.469   3.961   6.609
 2713SOL    HW2 9039   3.438   3.816   6.541
 2714SOL     OW 9040   3.585   3.509   6.646
 2714SOL    HW1 9041   3.511   3.558   6.693
 2714SOL    HW2 9042   3.547   3.432   6.595
 2715SOL     OW 9043   5.764   2.247   0.773
 2715SOL    HW1 9044   5.697   2.199   0.717
 2715SOL    HW2 9045   5.724   2.269   0.862
 2716SOL     OW 9046   5.126   3.275   3.830
 2716SOL    HW1 9047   5.147   3.368   3.799
 2716SOL    HW2 9048   5.208   3.219   3.826
 2717SOL     OW 9049   0.642   0.049   1.815
 2717SOL    HW1 9050   0.739   0.031   1.834
 2717SOL    HW2 9051   0.603   6.997   1.765
 2718SOL     OW 9052   0.380   0.806   5.253
 2718SOL    HW1 9053   0.475   0.788   5.229
 2718SOL    HW2 9054   0.325   0.814   5.170
 2719SOL     OW 9055   0.969   4.463   1.439
 2719SOL    HW1 9056   0.898   4.529   1.460
 2719SOL    HW2 9057   1.051   4.483   1.494
 2720SOL     OW 9058   1.444   0.310   3.131
 2720SOL    HW1 9059   1.485   0.398   3.157
 2720SOL    HW2 9060   1.359   0.297   3.181
 2721SOL     OW 9061   3.393   6.568   3.288
 2721SOL    HW1 9062   3.306   6.585   3.242
 2721SOL    HW2 9063   3.377   6.557   3.386
 2722SOL     OW 9064   5.096   5.368   6.643
 2722SOL    HW1 9065   5.143   5.303   6.703
 2722SOL    HW2 9066   5.000   5.342   6.633
 2723SOL     OW 9067   2.104   6.002   6.732
 2723SOL    HW1 9068   2.081   6.081   6.789
 2723SOL    HW2 9069   2.103   5.919   6.787
 2724SOL     OW 9070   1.473   6.213   6.741
 2724SOL    HW1 9071   1.483   6.291   6.803
 2724SOL    HW2 9072   1.433   6.244   6.654
 2725SOL     OW 9073   5.581   4.181   4.897
 2725SOL    HW1 9074   5.501   4.241   4.903
 2725SOL    HW2 9075   5.652   4.224   4.842
 2726SOL     OW 9076   0.422   2.341   1.893
 2726SOL    HW1 9077   0.357   2.318   1.820
 2726SOL    HW2 9078   0.464   2.257   1.928
 2727SOL     OW 9079   1.341   3.474   4.259
 2727SOL    HW1 9080   1.282   3.555   4.269
 2727SOL    HW2 9081   1.430   3.502   4.225
 2728SOL     OW 9082   5.097   5.946   6.187
 2728SOL    HW1 9083   5.179   5.945   6.245
 2728SOL    HW2 9084   5.112   6.006   6.108
 2729SOL     OW 9085   6.696   6.483   0.089
 2729SOL    HW1 9086   6.627   6.414   0.067
 2729SOL    HW2 9087   6.746   6.456   0.171
 2730SOL     OW 9088   0.991   6.355   2.105
 2730SOL    HW1 9089   1.088   6.337   2.091
 2730SOL    HW2 9090   0.961   6.312   2.190
 2731SOL     OW 9091   3.128   3.699   3.025
 2731SOL    HW1 9092   3.144   3.603   3.001
 2731SOL    HW2 9093   3.216   3.743   3.042
 2732SOL     OW 9094   5.839   1.928   0.913
 2732SOL    HW1 9095   5.855   2.004   0.977
 2732SOL    HW2 9096   5.741   1.919   0.896
 2733SOL     OW 9097   6.761   1.557   4.817
 2733SOL    HW1 9098   6.746   1.459   4.805
 2733SOL    HW2 9099   6.780   1.598   4.728
 2734SOL     OW 9100   3.432   5.821   1.396
 2734SOL    HW1 9101   3.513   5.764   1.411
 2734SOL    HW2 9102   3.392   5.800   1.308
 2735SOL     OW 9103   1.169   2.209   1.934
 2735SOL    HW1 9104   1.210   2.172   1.851
 2735SOL    HW2 9105   1.241   2.250   1.991
 2736SOL     OW 9106   5.965   6.413   4.668
 2736SOL    HW1 9107   6.062   6.403   4.648
 2736SOL    HW2 9108   5.951   6.491   4.729
 2737SOL     OW 9109   3.006   3.602   5.550
 2737SOL    HW1 9110   3.031   3.557   5.464
 2737SOL    HW2 9111   3.083   3.659   5.581
 2738SOL     OW 9112   5.815   6.137   2.379
 2738SOL    HW1 9113   5.896   6.174   2.425
 2738SOL    HW2 9114   5.809   6.039   2.397
 2739SOL     OW 9115   1.101   4.634   0.732
 2739SOL    HW1 9116   1.185   4.608   0.780
 2739SOL    HW2 9117   1.022   4.610   0.789
 2740SOL     OW 9118   6.946   5.377   2.149
 2740SOL    HW1 9119   7.012   5.303   2.134
 2740SOL    HW2 9120   6.911   5.408   2.061
 2741SOL     OW 9121   0.079   1.510   5.205
 2741SOL    HW1 9122   7.021   1.552   5.167
 2741SOL    HW2 9123   0.064   1.488   5.301
 2742SOL     OW 9124   1.835   5.429   0.584
 2742SOL    HW1 9125   1.863   5.454   0.676
 2742SOL    HW2 9126   1.736   5.417   0.581
 2743SOL     OW 9127   0.135   4.846   2.241
 2743SOL    HW1 9128   0.051   4.846   2.296
 2743SOL    HW2 9129   0.130   4.774   2.172
 2744SOL     OW 9130   4.342   3.243   1.213
 2744SOL    HW1 9131   4.356   3.182   1.136
 2744SOL    HW2 9132   4.255   3.220   1.258
 2745SOL     OW 9133   6.513   1.374   4.985
 2745SOL    HW1 9134   6.599   1.421   4.965
 2745SOL    HW2 9135   6.521   1.325   5.072
 2746SOL     OW 9136   1.101   2.282   4.225
 2746SOL    HW1 9137   1.081   2.192   4.263
 2746SOL    HW2 9138   1.105   2.349   4.298
 2747SOL     OW 9139   4.903   5.740   0.096
 2747SOL    HW1 9140   4.944   5.669   0.039
 2747SOL    HW2 9141   4.856   5.807   0.037
 2748SOL     OW 9142   4.552   0.913   2.065
 2748SOL    HW1 9143   4.538   1.005   2.103
 2748SOL    HW2 9144   4.609   0.919   1.983
 2749SOL     OW 9145   6.691   4.363   1.081
 2749SOL    HW1 9146   6.780   4.407   1.095
 2749SOL    HW2 9147   6.627   4.429   1.043
 2750SOL     OW 9148   2.128   4.225   2.147
 2750SOL    HW1 9149   2.045   4.195   2.193
 2750SOL    HW2 9150   2.173   4.146   2.104
 2751SOL     OW 9151   0.967   2.404   1.719
 2751SOL    HW1 9152   0.920   2.431   1.635
 2751SOL    HW2 9153   0.910   2.340   1.770
 2752SOL     OW 9154   3.086   4.434   5.915
 2752SOL    HW1 9155   3.038   4.510   5.957
 2752SOL    HW2 9156   3.051   4.348   5.951
 2753SOL     OW 9157   6.966   6.381   5.012
 2753SOL    HW1 9158   7.002   6.288   5.021
 2753SOL    HW2 9159   6.908   6.402   5.091
 2754SOL     OW 9160   0.292   0.190   0.259
 2754SOL    HW1 9161   0.255   0.107   0.301
 2754SOL    HW2 9162   0.298   0.263   0.327
 2755SOL     OW 9163   3.988   6.810   2.896
 2755SOL    HW1 9164   4.014   6.754   2.817
 2755SOL    HW2 9165   4.068   6.859   2.930
 2756SOL     OW 9166   4.229   5.892   0.020
 2756SOL    HW1 9167   4.246   5.819   6.979
 2756SOL    HW2 9168   4.246   5.981   7.002
 2757SOL     OW 9169   2.302   6.489   0.442
 2757SOL    HW1 9170   2.322   6.510   0.538
 2757SOL    HW2 9171   2.203   6.485   0.430
 2758SOL     OW 9172   4.620   0.263   4.259
 2758SOL    HW1 9173   4.537   0.300   4.217
 2758SOL    HW2 9174   4.698   0.278   4.197
 2759SOL     OW 9175   5.852   6.648   5.571
 2759SOL    HW1 9176   5.926   6.699   5.526
 2759SOL    HW2 9177   5.767   6.700   5.563
 2760SOL     OW 9178   0.701   5.705   1.521
 2760SOL    HW1 9179   0.646   5.622   1.524
 2760SOL    HW2 9180   0.670   5.768   1.592
 2761SOL     OW 9181   2.007   4.434   3.900
 2761SOL    HW1 9182   2.003   4.532   3.921
 2761SOL    HW2 9183   2.099   4.411   3.868
 2762SOL     OW 9184   1.230   1.047   5.308
 2762SOL    HW1 9185   1.248   1.140   5.275
 2762SOL    HW2 9186   1.271   0.981   5.245
 2763SOL     OW 9187   5.141   1.385   3.899
 2763SOL    HW1 9188   5.201   1.335   3.837
 2763SOL    HW2 9189   5.194   1.420   3.976
 2764SOL     OW 9190   6.365   0.947   0.948
 2764SOL    HW1 9191   6.287   0.902   0.992
 2764SOL    HW2 9192   6.338   1.039   0.919
 2765SOL     OW 9193   5.581   0.007   0.477
 2765SOL    HW1 9194   5.656   0.033   0.539
 2765SOL    HW2 9195   5.620   6.995   0.393
 2766SOL     OW 9196   4.759   2.630   0.367
 2766SOL    HW1 9197   4.664   2.659   0.379
 2766SOL    HW2 9198   4.805   2.631   0.456
 2767SOL     OW 9199   6.567   5.222   0.138
 2767SOL    HW1 9200   6.650   5.210   0.083
 2767SOL    HW2 9201   6.538   5.132   0.173
 2768SOL     OW 9202   5.132   0.720   0.276
 2768SOL    HW1 9203   5.067   0.718   0.352
 2768SOL    HW2 9204   5.103   0.789   0.210
 2769SOL     OW 9205   0.432   4.205   3.632
 2769SOL    HW1 9206   0.357   4.140   3.631
 2769SOL    HW2 9207   0.398   4.295   3.659
 2770SOL     OW 9208   2.624   5.554   6.025
 2770SOL    HW1 9209   2.613   5.485   5.953
 2770SOL    HW2 9210   2.643   5.508   6.111
 2771SOL     OW 9211   6.436   0.885   2.405
 2771SOL    HW1 9212   6.505   0.933   2.351
 2771SOL    HW2 9213   6.457   0.787   2.407
 2772SOL     OW 9214   4.520   1.101   0.927
 2772SOL    HW1 9215   4.466   1.161   0.985
 2772SOL    HW2 9216   4.504   1.124   0.831
 2773SOL     OW 9217   5.669   2.715   5.349
 2773SOL    HW1 9218   5.671   2.791   5.285
 2773SOL    HW2 9219   5.605   2.735   5.423
 2774SOL     OW 9220   6.320   3.841   3.248
 2774SOL    HW1 9221   6.240   3.782   3.254
 2774SOL    HW2 9222   6.402   3.790   3.275
 2775SOL     OW 9223   0.135   5.353   6.500
 2775SOL    HW1 9224   0.103   5.271   6.548
 2775SOL    HW2 9225   0.227   5.376   6.532
 2776SOL     OW 9226   5.375   5.086   5.730
 2776SOL    HW1 9227   5.458   5.065   5.678
 2776SOL    HW2 9228   5.400   5.135   5.814
 2777SOL     OW 9229   2.697   1.080   2.269
 2777SOL    HW1 9230   2.677   1.170   2.307
 2777SOL    HW2 9231   2.629   1.014   2.301
 2778SOL     OW 9232   1.241   0.399   5.303
 2778SOL    HW1 9233   1.217   0.304   5.283
 2778SOL    HW2 9234   1.159   0.449   5.329
 2779SOL     OW 9235   5.068   6.754   0.714
 2779SOL    HW1 9236   4.973   6.780   0.732
 2779SOL    HW2 9237   5.080   6.741   0.615
 2780SOL     OW 9238   6.611   6.078   6.608
 2780SOL    HW1 9239   6.685   6.031   6.655
 2780SOL    HW2 9240   6.649   6.135   6.535
 2781SOL     OW 9241   6.057   5.784   1.579
 2781SOL    HW1 9242   5.974   5.839   1.567
 2781SOL    HW2 9243   6.101   5.772   1.490
 2782SOL     OW 9244   3.490   1.825   5.538
 2782SOL    HW1 9245   3.470   1.756   5.608
 2782SOL    HW2 9246   3.460   1.914   5.571
 2783SOL     OW 9247   5.665   3.584   4.659
 2783SOL    HW1 9248   5.736   3.637   4.707
 2783SOL    HW2 9249   5.657   3.617   4.565
 2784SOL     OW 9250   3.103   2.209   1.163
 2784SOL    HW1 9251   3.189   2.169   1.131
 2784SOL    HW2 9252   3.033   2.137   1.169
 2785SOL     OW 9253   5.569   1.965   0.902
 2785SOL    HW1 9254   5.547   1.927   0.812
 2785SOL    HW2 9255   5.518   2.050   0.916
 2786SOL     OW 9256   4.245   5.570   2.014
 2786SOL    HW1 9257   4.241   5.471   2.032
 2786SOL    HW2 9258   4.157   5.611   2.035
 2787SOL     OW 9259   3.103   2.113   6.932
 2787SOL    HW1 9260   3.090   2.024   6.977
 2787SOL    HW2 9261   3.200   2.138   6.936
 2788SOL     OW 9262   2.205   5.062   6.159
 2788SOL    HW1 9263   2.238   4.969   6.175
 2788SOL    HW2 9264   2.205   5.113   6.245
 2789SOL     OW 9265   1.956   2.522   3.684
 2789SOL    HW1 9266   1.906   2.465   3.620
 2789SOL    HW2 9267   2.045   2.480   3.705
 2790SOL     OW 9268   2.669   5.561   2.261
 2790SOL    HW1 9269   2.661   5.482   2.323
 2790SOL    HW2 9270   2.578   5.588   2.229
 2791SOL     OW 9271   1.216   4.258   4.049
 2791SOL    HW1 9272   1.192   4.327   3.981
 2791SOL    HW2 9273   1.315   4.241   4.045
 2792SOL     OW 9274   0.884   0.010   4.655
 2792SOL    HW1 9275   0.952   6.963   4.642
 2792SOL    HW2 9276   0.871   0.027   4.752
 2793SOL     OW 9277   5.007   3.537   3.370
 2793SOL    HW1 9278   5.078   3.468   3.382
 2793SOL    HW2 9279   5.049   3.628   3.363
 2794SOL     OW 9280   0.109   2.556   1.047
 2794SOL    HW1 9281   0.187   2.539   1.108
 2794SOL    HW2 9282   0.024   2.531   1.094
 2795SOL     OW 9283   1.812   2.771   0.871
 2795SOL    HW1 9284   1.764   2.683   0.880
 2795SOL    HW2 9285   1.753   2.836   0.823
 2796SOL     OW 9286   6.209   4.967   2.629
 2796SOL    HW1 9287   6.242   4.981   2.722
 2796SOL    HW2 9288   6.272   4.908   2.579
 2797SOL     OW 9289   4.765   5.162   4.259
 2797SOL    HW1 9290   4.835   5.225   4.226
 2797SOL    HW2 9291   4.684   5.214   4.287
 2798SOL     OW 9292   1.042   4.778   1.356
 2798SOL    HW1 9293   1.068   4.776   1.260
 2798SOL    HW2 9294   1.115   4.735   1.411
 2799SOL     OW 9295   6.925   6.856   0.450
 2799SOL    HW1 9296   6.933   6.905   0.537
 2799SOL    HW2 9297   6.955   6.916   0.375
 2800SOL     OW 9298   4.477   4.733   0.219
 2800SOL    HW1 9299   4.496   4.659   0.154
 2800SOL    HW2 9300   4.411   4.796   0.178
 2801SOL     OW 9301   5.140   5.438   5.048
 2801SOL    HW1 9302   5.130   5.480   5.137
 2801SOL    HW2 9303   5.183   5.503   4.985
 2802SOL     OW 9304   4.864   2.355   6.202
 2802SOL    HW1 9305   4.932   2.418   6.240
 2802SOL    HW2 9306   4.886   2.336   6.106
 2803SOL     OW 9307   3.292   5.756   6.412
 2803SOL    HW1 9308   3.382   5.723   6.384
 2803SOL    HW2 9309   3.270   5.841   6.363
 2804SOL     OW 9310   6.671   4.688   5.185
 2804SOL    HW1 9311   6.685   4.669   5.282
 2804SOL    HW2 9312   6.746   4.646   5.132
 2805SOL     OW 9313   5.112   2.901   2.232
 2805SOL    HW1 9314   5.014   2.918   2.226
 2805SOL    HW2 9315   5.156   2.975   2.283
 2806SOL     OW 9316   6.916   5.216   4.430
 2806SOL    HW1 9317   6.882   5.187   4.519
 2806SOL    HW2 9318   6.944   5.135   4.378
 2807SOL     OW 9319   5.274   5.272   3.545
 2807SOL    HW1 9320   5.230   5.362   3.541
 2807SOL    HW2 9321   5.210   5.203   3.512
 2808SOL     OW 9322   5.260   3.137   2.667
 2808SOL    HW1 9323   5.328   3.084   2.718
 2808SOL    HW2 9324   5.295   3.229   2.649
 2809SOL     OW 9325   5.765   2.927   1.848
 2809SOL    HW1 9326   5.781   2.972   1.937
 2809SOL    HW2 9327   5.707   2.986   1.792
 2810SOL     OW 9328   2.987   5.756   3.705
 2810SOL    HW1 9329   3.076   5.777   3.745
 2810SOL    HW2 9330   2.986   5.660   3.675
 2811SOL     OW 9331   1.086   1.276   3.201
 2811SOL    HW1 9332   1.120   1.288   3.294
 2811SOL    HW2 9333   1.093   1.362   3.151
 2812SOL     OW 9334   5.323   3.364   0.293
 2812SOL    HW1 9335   5.348   3.417   0.212
 2812SOL    HW2 9336   5.292   3.273   0.265
 2813SOL     OW 9337   6.351   0.492   6.049
 2813SOL    HW1 9338   6.318   0.462   6.139
 2813SOL    HW2 9339   6.443   0.530   6.058
 2814SOL     OW 9340   4.990   3.105   6.742
 2814SOL    HW1 9341   4.911   3.101   6.681
 2814SOL    HW2 9342   5.074   3.109   6.686
 2815SOL     OW 9343   6.261   1.349   5.440
 2815SOL    HW1 9344   6.249   1.389   5.349
 2815SOL    HW2 9345   6.350   1.376   5.477
 2816SOL     OW 9346   6.576   5.765   3.485
 2816SOL    HW1 9347   6.570   5.679   3.535
 2816SOL    HW2 9348   6.518   5.761   3.403
 2817SOL     OW 9349   2.642   0.138   1.235
 2817SOL    HW1 9350   2.613   0.046   1.207
 2817SOL    HW2 9351   2.564   0.201   1.227
 2818SOL     OW 9352   0.311   0.532   0.160
 2818SOL    HW1 9353   0.256   0.544   0.077
 2818SOL    HW2 9354   0.252   0.501   0.235
 2819SOL     OW 9355   0.562   0.993   1.291
 2819SOL    HW1 9356   0.639   1.026   1.236
 2819SOL    HW2 9357   0.536   0.902   1.260
 2820SOL     OW 9358   1.417   1.927   3.221
 2820SOL    HW1 9359   1.429   1.983   3.139
 2820SOL    HW2 9360   1.354   1.852   3.202
 2821SOL     OW 9361   4.200   3.245   0.093
 2821SOL    HW1 9362   4.210   3.317   0.025
 2821SOL    HW2 9363   4.264   3.171   0.074
 2822SOL     OW 9364   4.636   2.286   6.745
 2822SOL    HW1 9365   4.582   2.292   6.829
 2822SOL    HW2 9366   4.687   2.200   6.744
 2823SOL     OW 9367   3.594   5.979   0.446
 2823SOL    HW1 9368   3.553   5.905   0.392
 2823SOL    HW2 9369   3.615   6.056   0.386
 2824SOL     OW 9370   3.006   1.146   3.972
 2824SOL    HW1 9371   3.013   1.186   4.064
 2824SOL    HW2 9372   3.093   1.105   3.946
 2825SOL     OW 9373   6.349   0.647   6.597
 2825SOL    HW1 9374   6.331   0.575   6.664
 2825SOL    HW2 9375   6.265   0.669   6.549
 2826SOL     OW 9376   4.746   1.869   0.058
 2826SOL    HW1 9377   4.730   1.938   7.012
 2826SOL    HW2 9378   4.731   1.778   0.019
 2827SOL     OW 9379   6.660   0.686   5.541
 2827SOL    HW1 9380   6.647   0.701   5.639
 2827SOL    HW2 9381   6.740   0.629   5.527
 2828SOL     OW 9382   2.922   1.190   0.430
 2828SOL    HW1 9383   2.837   1.212   0.383
 2828SOL    HW2 9384   2.963   1.109   0.389
 2829SOL     OW 9385   3.552   3.527   5.791
 2829SOL    HW1 9386   3.636   3.491   5.750
 2829SOL    HW2 9387   3.498   3.574   5.721
 2830SOL     OW 9388   1.019   3.160   6.180
 2830SOL    HW1 9389   1.068   3.082   6.217
 2830SOL    HW2 9390   1.064   3.191   6.097
 2831SOL     OW 9391   0.672   5.744   3.572
 2831SOL    HW1 9392   0.634   5.652   3.565
 2831SOL    HW2 9393   0.604   5.806   3.613
 2832SOL     OW 9394   1.208   0.511   2.495
 2832SOL    HW1 9395   1.189   0.603   2.460
 2832SOL    HW2 9396   1.302   0.486   2.473
 2833SOL     OW 9397   4.497   2.523   2.398
 2833SOL    HW1 9398   4.433   2.469   2.343
 2833SOL    HW2 9399   4.517   2.474   2.483
 2834SOL     OW 9400   2.328   6.089   5.479
 2834SOL    HW1 9401   2.232   6.104   5.503
 2834SOL    HW2 9402   2.375   6.177   5.473
 2835SOL     OW 9403   6.765   0.449   2.114
 2835SOL    HW1 9404   6.801   0.439   2.021
 2835SOL    HW2 9405   6.841   0.462   2.177
 2836SOL     OW 9406   6.157   0.238   2.506
 2836SOL    HW1 9407   6.127   0.278   2.420
 2836SOL    HW2 9408   6.225   0.167   2.488
 2837SOL     OW 9409   5.285   4.074   3.432
 2837SOL    HW1 9410   5.348   4.145   3.403
 2837SOL    HW2 9411   5.201   4.116   3.467
 2838SOL     OW 9412   2.198   4.964   0.562
 2838SOL    HW1 9413   2.203   5.021   0.480
 2838SOL    HW2 9414   2.105   4.964   0.597
 2839SOL     OW 9415   6.412   1.584   1.791
 2839SOL    HW1 9416   6.483   1.551   1.730
 2839SOL    HW2 9417   6.323   1.551   1.759
 2840SOL     OW 9418   1.864   0.764   3.489
 2840SOL    HW1 9419   1.898   0.791   3.399
 2840SOL    HW2 9420   1.790   0.825   3.516
 2841SOL     OW 9421   0.632   0.754   6.357
 2841SOL    HW1 9422   0.585   0.840   6.378
 2841SOL    HW2 9423   0.721   0.752   6.403
 2842SOL     OW 9424   0.153   3.709   4.524
 2842SOL    HW1 9425   0.139   3.807   4.533
 2842SOL    HW2 9426   0.108   3.662   4.600
 2843SOL     OW 9427   2.840   1.124   2.881
 2843SOL    HW1 9428   2.780   1.089   2.953
 2843SOL    HW2 9429   2.934   1.093   2.898
 2844SOL     OW 9430   0.189   5.653   0.699
 2844SOL    HW1 9431   0.150   5.682   0.786
 2844SOL    HW2 9432   0.215   5.556   0.705
 2845SOL     OW 9433   7.019   2.897   1.698
 2845SOL    HW1 9434   0.080   2.926   1.739
 2845SOL    HW2 9435   0.011   2.824   1.632
 2846SOL     OW 9436   4.321   1.295   6.765
 2846SOL    HW1 9437   4.331   1.329   6.859
 2846SOL    HW2 9438   4.317   1.372   6.702
 2847SOL     OW 9439   5.124   4.026   3.712
 2847SOL    HW1 9440   5.074   4.001   3.795
 2847SOL    HW2 9441   5.092   3.972   3.635
 2848SOL     OW 9442   1.538   3.337   5.839
 2848SOL    HW1 9443   1.581   3.368   5.754
 2848SOL    HW2 9444   1.599   3.355   5.916
 2849SOL     OW 9445   3.397   0.044   0.678
 2849SOL    HW1 9446   3.334   7.025   0.742
 2849SOL    HW2 9447   3.451   0.112   0.727
 2850SOL     OW 9448   3.135   0.287   2.155
 2850SOL    HW1 9449   3.129   0.270   2.056
 2850SOL    HW2 9450   3.043   0.288   2.194
 2851SOL     OW 9451   0.125   2.031   5.524
 2851SOL    HW1 9452   0.203   2.000   5.579
 2851SOL    HW2 9453   0.115   1.971   5.444
 2852SOL     OW 9454   5.860   4.669   0.068
 2852SOL    HW1 9455   5.829   4.744   0.127
 2852SOL    HW2 9456   5.918   4.705   7.020
 2853SOL     OW 9457   2.098   2.977   6.885
 2853SOL    HW1 9458   2.095   2.885   6.924
 2853SOL    HW2 9459   2.020   3.031   6.918
 2854SOL     OW 9460   3.924   0.920   5.172
 2854SOL    HW1 9461   3.968   0.907   5.261
 2854SOL    HW2 9462   3.878   1.009   5.171
 2855SOL     OW 9463   2.872   1.006   6.693
 2855SOL    HW1 9464   2.893   1.093   6.650
 2855SOL    HW2 9465   2.951   0.975   6.746
 2856SOL     OW 9466   1.853   2.703   5.929
 2856SOL    HW1 9467   1.940   2.678   5.972
 2856SOL    HW2 9468   1.870   2.760   5.849
 2857SOL     OW 9469   3.155   1.589   2.188
 2857SOL    HW1 9470   3.091   1.636   2.249
 2857SOL    HW2 9471   3.165   1.493   2.217
 2858SOL     OW 9472   5.170   4.393   2.797
 2858SOL    HW1 9473   5.253   4.400   2.741
 2858SOL    HW2 9474   5.090   4.413   2.740
 2859SOL     OW 9475   5.052   1.833   6.984
 2859SOL    HW1 9476   4.973   1.846   0.020
 2859SOL    HW2 9477   5.041   1.748   6.932
 2860SOL     OW 9478   3.558   1.931   0.874
 2860SOL    HW1 9479   3.465   1.919   0.839
 2860SOL    HW2 9480   3.586   1.848   0.922
 2861SOL     OW 9481   4.093   4.094   6.080
 2861SOL    HW1 9482   4.149   4.052   6.152
 2861SOL    HW2 9483   4.019   4.031   6.054
 2862SOL     OW 9484   5.339   1.883   3.660
 2862SOL    HW1 9485   5.426   1.878   3.710
 2862SOL    HW2 9486   5.349   1.944   3.582
 2863SOL     OW 9487   4.757   1.612   6.996
 2863SOL    HW1 9488   4.711   1.534   6.954
 2863SOL    HW2 9489   4.808   1.581   0.051
 2864SOL     OW 9490   4.232   1.296   1.323
 2864SOL    HW1 9491   4.290   1.313   1.402
 2864SOL    HW2 9492   4.174   1.375   1.306
 2865SOL     OW 9493   5.223   4.215   6.139
 2865SOL    HW1 9494   5.266   4.154   6.206
 2865SOL    HW2 9495   5.145   4.168   6.097
 2866SOL     OW 9496   6.287   6.136   6.798
 2866SOL    HW1 9497   6.328   6.061   6.746
 2866SOL    HW2 9498   6.333   6.221   6.777
 2867SOL     OW 9499   5.544   3.841   2.660
 2867SOL    HW1 9500   5.493   3.887   2.588
 2867SOL    HW2 9501   5.505   3.865   2.749
 2868SOL     OW 9502   0.092   2.296   5.402
 2868SOL    HW1 9503   0.145   2.316   5.485
 2868SOL    HW2 9504   0.036   2.215   5.418
 2869SOL     OW 9505   6.677   0.915   3.657
 2869SOL    HW1 9506   6.740   0.839   3.679
 2869SOL    HW2 9507   6.684   0.985   3.728
 2870SOL     OW 9508   0.344   1.210   4.489
 2870SOL    HW1 9509   0.274   1.281   4.501
 2870SOL    HW2 9510   0.317   1.128   4.540
 2871SOL     OW 9511   0.624   2.123   0.008
 2871SOL    HW1 9512   0.708   2.116   0.063
 2871SOL    HW2 9513   0.568   2.042   0.023
 2872SOL     OW 9514   3.107   1.073   2.867
 2872SOL    HW1 9515   3.103   1.106   2.772
 2872SOL    HW2 9516   3.201   1.053   2.891
 2873SOL     OW 9517   6.498   4.847   2.715
 2873SOL    HW1 9518   6.540   4.790   2.785
 2873SOL    HW2 9519   6.441   4.917   2.759
 2874SOL     OW 9520   3.379   6.321   3.659
 2874SOL    HW1 9521   3.433   6.406   3.664
 2874SOL    HW2 9522   3.318   6.315   3.738
 2875SOL     OW 9523   4.976   0.013   0.846
 2875SOL    HW1 9524   4.983   6.949   0.891
 2875SOL    HW2 9525   4.880   0.035   0.829
 2876SOL     OW 9526   1.020   0.042   1.750
 2876SOL    HW1 9527   0.950   0.022   1.682
 2876SOL    HW2 9528   0.976   0.081   1.831
 2877SOL     OW 9529   3.657   2.888   5.387
 2877SOL    HW1 9530   3.616   2.892   5.297
 2877SOL    HW2 9531   3.706   2.974   5.405
 2878SOL     OW 9532   4.324   5.387   4.466
 2878SOL    HW1 9533   4.359   5.424   4.552
 2878SOL    HW2 9534   4.243   5.332   4.485
 2879SOL     OW 9535   5.003   4.660   0.662
 2879SOL    HW1 9536   5.071   4.592   0.632
 2879SOL    HW2 9537   4.914   4.637   0.623
 2880SOL     OW 9538   5.890   6.648   1.560
 2880SOL    HW1 9539   5.879   6.694   1.472
 2880SOL    HW2 9540   5.959   6.696   1.614
 2881SOL     OW 9541   5.355   6.232   6.895
 2881SOL    HW1 9542   5.436   6.290   6.886
 2881SOL    HW2 9543   5.287   6.260   6.827
 2882SOL     OW 9544   0.477   4.508   2.348
 2882SOL    HW1 9545   0.418   4.428   2.359
 2882SOL    HW2 9546   0.555   4.485   2.291
 2883SOL     OW 9547   6.075   6.475   3.487
 2883SOL    HW1 9548   6.120   6.536   3.422
 2883SOL    HW2 9549   6.136   6.400   3.511
 2884SOL     OW 9550   0.820   5.574   3.005
 2884SOL    HW1 9551   0.919   5.585   2.993
 2884SOL    HW2 9552   0.793   5.610   3.095
 2885SOL     OW 9553   0.675   3.291   2.311
 2885SOL    HW1 9554   0.762   3.298   2.360
 2885SOL    HW2 9555   0.618   3.221   2.355
 2886SOL     OW 9556   2.717   3.872   5.641
 2886SOL    HW1 9557   2.738   3.952   5.698
 2886SOL    HW2 9558   2.762   3.881   5.552
 2887SOL     OW 9559   1.195   0.191   4.545
 2887SOL    HW1 9560   1.251   0.274   4.546
 2887SOL    HW2 9561   1.103   0.213   4.578
 2888SOL     OW 9562   0.741   4.290   0.306
 2888SOL    HW1 9563   0.779   4.201   0.333
 2888SOL    HW2 9564   0.817   4.354   0.288
 2889SOL     OW 9565   2.319   6.640   1.942
 2889SOL    HW1 9566   2.417   6.635   1.964
 2889SOL    HW2 9567   2.293   6.735   1.927
 2890SOL     OW 9568   2.420   6.725   0.782
 2890SOL    HW1 9569   2.351   6.658   0.808
 2890SOL    HW2 9570   2.508   6.679   0.769
 2891SOL     OW 9571   1.666   4.070   3.157
 2891SOL    HW1 9572   1.658   4.167   3.137
 2891SOL    HW2 9573   1.662   4.056   3.256
 2892SOL     OW 9574   5.321   3.293   6.969
 2892SOL    HW1 9575   5.398   3.317   0.003
 2892SOL    HW2 9576   5.281   3.376   6.930
 2893SOL     OW 9577   0.092   6.747   4.794
 2893SOL    HW1 9578   0.147   6.705   4.722
 2893SOL    HW2 9579   0.152   6.777   4.869
 2894SOL     OW 9580   2.874   3.205   0.495
 2894SOL    HW1 9581   2.900   3.299   0.470
 2894SOL    HW2 9582   2.944   3.142   0.462
 2895SOL     OW 9583   4.243   2.878   5.994
 2895SOL    HW1 9584   4.151   2.839   5.986
 2895SOL    HW2 9585   4.302   2.814   6.045
 2896SOL     OW 9586   4.020   5.281   6.622
 2896SOL    HW1 9587   4.045   5.207   6.559
 2896SOL    HW2 9588   3.981   5.242   6.705
 2897SOL     OW 9589   3.413   4.896   3.232
 2897SOL    HW1 9590   3.418   4.949   3.148
 2897SOL    HW2 9591   3.492   4.834   3.238
 2898SOL     OW 9592   3.989   6.035   4.144
 2898SOL    HW1 9593   3.948   6.053   4.054
 2898SOL    HW2 9594   3.994   5.936   4.158
 2899SOL     OW 9595   0.758   1.816   0.602
 2899SOL    HW1 9596   0.661   1.831   0.623
 2899SOL    HW2 9597   0.804   1.784   0.685
 2900SOL     OW 9598   2.144   4.913   5.628
 2900SOL    HW1 9599   2.081   4.971   5.578
 2900SOL    HW2 9600   2.143   4.937   5.725
 2901SOL     OW 9601   2.036   6.631   3.750
 2901SOL    HW1 9602   2.027   6.608   3.847
 2901SOL    HW2 9603   2.065   6.550   3.699
 2902SOL     OW 9604   4.803   6.597   1.328
 2902SOL    HW1 9605   4.707   6.627   1.325
 2902SOL    HW2 9606   4.807   6.499   1.311
 2903SOL     OW 9607   2.959   0.572   0.522
 2903SOL    HW1 9608   2.916   0.596   0.435
 2903SOL    HW2 9609   2.893   0.581   0.596
 2904SOL     OW 9610   2.207   3.776   5.293
 2904SOL    HW1 9611   2.119   3.823   5.298
 2904SOL    HW2 9612   2.277   3.840   5.262
 2905SOL     OW 9613   1.327   2.254   3.628
 2905SOL    HW1 9614   1.418   2.236   3.592
 2905SOL    HW2 9615   1.303   2.183   3.694
 2906SOL     OW 9616   4.654   5.672   2.466
 2906SOL    HW1 9617   4.585   5.661   2.538
 2906SOL    HW2 9618   4.617   5.728   2.392
 2907SOL     OW 9619   0.393   1.517   4.293
 2907SOL    HW1 9620   0.346   1.438   4.253
 2907SOL    HW2 9621   0.355   1.602   4.255
 2908SOL     OW 9622   4.665   6.688   4.262
 2908SOL    HW1 9623   4.643   6.762   4.197
 2908SOL    HW2 9624   4.745   6.639   4.230
 2909SOL     OW 9625   0.230   6.439   3.786
 2909SOL    HW1 9626   0.182   6.495   3.718
 2909SOL    HW2 9627   0.328   6.458   3.781
 2910SOL     OW 9628   4.966   6.549   4.796
 2910SOL    HW1 9629   4.866   6.548   4.793
 2910SOL    HW2 9630   5.002   6.569   4.705
 2911SOL     OW 9631   1.952   5.492   3.374
 2911SOL    HW1 9632   1.999   5.566   3.327
 2911SOL    HW2 9633   2.007   5.464   3.453
 2912SOL     OW 9634   4.445   6.811   6.551
 2912SOL    HW1 9635   4.428   6.867   6.471
 2912SOL    HW2 9636   4.358   6.785   6.593
 2913SOL     OW 9637   2.207   4.555   2.924
 2913SOL    HW1 9638   2.168   4.476   2.877
 2913SOL    HW2 9639   2.252   4.614   2.857
 2914SOL     OW 9640   5.772   6.645   5.940
 2914SOL    HW1 9641   5.685   6.613   5.902
 2914SOL    HW2 9642   5.837   6.569   5.941
 2915SOL     OW 9643   5.471   1.626   5.205
 2915SOL    HW1 9644   5.502   1.593   5.294
 2915SOL    HW2 9645   5.550   1.656   5.151
 2916SOL     OW 9646   6.746   6.022   6.342
 2916SOL    HW1 9647   6.699   5.942   6.379
 2916SOL    HW2 9648   6.741   6.021   6.242
 2917SOL     OW 9649   4.042   6.401   2.161
 2917SOL    HW1 9650   4.105   6.329   2.191
 2917SOL    HW2 9651   4.073   6.489   2.196
 2918SOL     OW 9652   6.915   3.997   4.034
 2918SOL    HW1 9653   6.931   4.067   3.964
 2918SOL    HW2 9654   6.894   4.042   4.121
 2919SOL     OW 9655   6.949   0.887   1.111
 2919SOL    HW1 9656   6.933   0.909   1.207
 2919SOL    HW2 9657   6.978   0.970   1.062
 2920SOL     OW 9658   2.803   1.996   2.191
 2920SOL    HW1 9659   2.883   2.048   2.223
 2920SOL    HW2 9660   2.775   2.030   2.102
 2921SOL     OW 9661   1.245   0.645   3.053
 2921SOL    HW1 9662   1.343   0.628   3.063
 2921SOL    HW2 9663   1.208   0.675   3.141
 2922SOL     OW 9664   4.968   6.976   0.388
 2922SOL    HW1 9665   5.025   6.897   0.409
 2922SOL    HW2 9666   5.013   0.007   0.318
 2923SOL     OW 9667   6.770   4.874   2.011
 2923SOL    HW1 9668   6.726   4.797   2.057
 2923SOL    HW2 9669   6.739   4.878   1.916
 2924SOL     OW 9670   0.727   1.811   6.708
 2924SOL    HW1 9671   0.821   1.823   6.740
 2924SOL    HW2 9672   0.685   1.900   6.694
 2925SOL     OW 9673   4.647   1.032   3.250
 2925SOL    HW1 9674   4.559   1.050   3.205
 2925SOL    HW2 9675   4.682   1.117   3.289
 2926SOL     OW 9676   7.002   1.008   4.750
 2926SOL    HW1 9677   6.935   0.987   4.678
 2926SOL    HW2 9678   0.030   0.927   4.770
 2927SOL     OW 9679   1.239   1.680   3.233
 2927SOL    HW1 9680   1.149   1.718   3.255
 2927SOL    HW2 9681   1.269   1.621   3.308
 2928SOL     OW 9682   0.111   2.353   5.735
 2928SOL    HW1 9683   0.052   2.419   5.689
 2928SOL    HW2 9684   0.201   2.352   5.691
 2929SOL     OW 9685   0.667   1.152   6.296
 2929SOL    HW1 9686   0.587   1.098   6.322
 2929SOL    HW2 9687   0.645   1.249   6.302
 2930SOL     OW 9688   4.079   6.171   5.031
 2930SOL    HW1 9689   4.104   6.078   5.004
 2930SOL    HW2 9690   4.112   6.236   4.962
 2931SOL     OW 9691   5.655   5.242   0.743
 2931SOL    HW1 9692   5.698   5.167   0.792
 2931SOL    HW2 9693   5.630   5.315   0.807
 2932SOL     OW 9694   1.193   5.618   1.314
 2932SOL    HW1 9695   1.279   5.621   1.263
 2932SOL    HW2 9696   1.190   5.694   1.379
 2933SOL     OW 9697   6.026   4.245   2.996
 2933SOL    HW1 9698   6.061   4.306   2.925
 2933SOL    HW2 9699   6.085   4.165   3.004
 2934SOL     OW 9700   4.476   1.401   0.261
 2934SOL    HW1 9701   4.435   1.449   0.339
 2934SOL    HW2 9702   4.448   1.446   0.176
 2935SOL     OW 9703   6.312   3.477   1.433
 2935SOL    HW1 9704   6.371   3.477   1.514
 2935SOL    HW2 9705   6.341   3.550   1.371
 2936SOL     OW 9706   4.213   5.060   2.055
 2936SOL    HW1 9707   4.203   4.961   2.043
 2936SOL    HW2 9708   4.217   5.104   1.965
 2937SOL     OW 9709   3.939   4.989   0.347
 2937SOL    HW1 9710   3.962   4.908   0.401
 2937SOL    HW2 9711   4.009   5.003   0.277
 2938SOL     OW 9712   5.181   4.940   5.867
 2938SOL    HW1 9713   5.142   4.999   5.938
 2938SOL    HW2 9714   5.245   4.993   5.811
 2939SOL     OW 9715   0.393   0.360   4.003
 2939SOL    HW1 9716   0.375   0.429   4.073
 2939SOL    HW2 9717   0.308   0.313   3.979
 2940SOL     OW 9718   6.184   6.391   6.539
 2940SOL    HW1 9719   6.239   6.313   6.509
 2940SOL    HW2 9720   6.226   6.476   6.508
 2941SOL     OW 9721   2.524   2.556   4.210
 2941SOL    HW1 9722   2.528   2.605   4.123
 2941SOL    HW2 9723   2.468   2.607   4.276
 2942SOL     OW 9724   3.146   2.217   1.492
 2942SOL    HW1 9725   3.199   2.148   1.542
 2942SOL    HW2 9726   3.179   2.222   1.398
 2943SOL     OW 9727   5.641   4.548   2.690
 2943SOL    HW1 9728   5.639   4.648   2.700
 2943SOL    HW2 9729   5.693   4.508   2.766
 2944SOL     OW 9730   2.363   5.592   5.157
 2944SOL    HW1 9731   2.450   5.556   5.122
 2944SOL    HW2 9732   2.381   5.665   5.222
 2945SOL     OW 9733   3.638   4.082   3.650
 2945SOL    HW1 9734   3.653   4.114   3.743
 2945SOL    HW2 9735   3.725   4.082   3.600
 2946SOL     OW 9736   0.995   5.505   6.974
 2946SOL    HW1 9737   1.023   5.533   0.041
 2946SOL    HW2 9738   1.052   5.428   6.944
 2947SOL     OW 9739   0.601   3.544   6.525
 2947SOL    HW1 9740   0.649   3.463   6.557
 2947SOL    HW2 9741   0.574   3.531   6.430
 2948SOL     OW 9742   6.646   4.581   5.701
 2948SOL    HW1 9743   6.650   4.676   5.732
 2948SOL    HW2 9744   6.551   4.550   5.700
 2949SOL     OW 9745   2.927   5.743   1.366
 2949SOL    HW1 9746   2.992   5.701   1.429
 2949SOL    HW2 9747   2.933   5.842   1.373
 2950SOL     OW 9748   4.800   3.988   4.504
 2950SOL    HW1 9749   4.821   4.065   4.444
 2950SOL    HW2 9750   4.711   4.003   4.547
 2951SOL     OW 9751   5.959   2.401   1.158
 2951SOL    HW1 9752   6.001   2.475   1.210
 2951SOL    HW2 9753   5.927   2.436   1.070
 2952SOL     OW 9754   0.716   5.861   5.493
 2952SOL    HW1 9755   0.747   5.785   5.435
 2952SOL    HW2 9756   0.754   5.947   5.458
 2953SOL     OW 9757   4.909   3.505   3.628
 2953SOL    HW1 9758   4.968   3.501   3.547
 2953SOL    HW2 9759   4.876   3.413   3.649
 2954SOL     OW 9760   0.511   5.435   1.814
 2954SOL    HW1 9761   0.520   5.481   1.726
 2954SOL    HW2 9762   0.445   5.484   1.871
 2955SOL     OW 9763   1.085   4.171   1.544
 2955SOL    HW1 9764   0.993   4.208   1.555
 2955SOL    HW2 9765   1.080   4.079   1.505
 2956SOL     OW 9766   5.963   6.367   3.227
 2956SOL    HW1 9767   6.024   6.431   3.272
 2956SOL    HW2 9768   5.879   6.358   3.280
 2957SOL     OW 9769   6.225   3.251   1.765
 2957SOL    HW1 9770   6.208   3.205   1.678
 2957SOL    HW2 9771   6.283   3.331   1.749
 2958SOL     OW 9772   2.355   4.583   4.600
 2958SOL    HW1 9773   2.396   4.520   4.665
 2958SOL    HW2 9774   2.425   4.647   4.567
 2959SOL     OW 9775   4.744   4.578   0.555
 2959SOL    HW1 9776   4.660   4.628   0.533
 2959SOL    HW2 9777   4.789   4.549   0.470
 2960SOL     OW 9778   4.095   6.892   6.134
 2960SOL    HW1 9779   4.193   6.870   6.125
 2960SOL    HW2 9780   4.046   6.810   6.164
 2961SOL     OW 9781   4.910   2.117   4.474
 2961SOL    HW1 9782   4.947   2.057   4.544
 2961SOL    HW2 9783   4.944   2.088   4.384
 2962SOL     OW 9784   4.284   0.669   3.809
 2962SOL    HW1 9785   4.242   0.688   3.897
 2962SOL    HW2 9786   4.319   0.754   3.769
 2963SOL     OW 9787   2.129   1.350   5.949
 2963SOL    HW1 9788   2.218   1.306   5.957
 2963SOL    HW2 9789   2.099   1.380   6.040
 2964SOL     OW 9790   6.635   0.516   2.633
 2964SOL    HW1 9791   6.666   0.434   2.681
 2964SOL    HW2 9792   6.585   0.574   2.697
 2965SOL     OW 9793   0.105   0.771   4.772
 2965SOL    HW1 9794   0.096   0.721   4.686
 2965SOL    HW2 9795   0.029   0.748   4.832
 2966SOL     OW 9796   5.705   5.479   4.458
 2966SOL    HW1 9797   5.791   5.498   4.505
 2966SOL    HW2 9798   5.689   5.548   4.388
 2967SOL     OW 9799   6.053   2.076   4.605
 2967SOL    HW1 9800   6.099   2.108   4.523
 2967SOL    HW2 9801   6.108   2.006   4.650
 2968SOL     OW 9802   1.033   3.483   6.507
 2968SOL    HW1 9803   0.994   3.481   6.599
 2968SOL    HW2 9804   1.132   3.473   6.512
 2969SOL     OW 9805   5.988   1.203   4.928
 2969SOL    HW1 9806   5.975   1.105   4.946
 2969SOL    HW2 9807   6.011   1.249   5.014
 2970SOL     OW 9808   0.787   3.702   6.268
 2970SOL    HW1 9809   0.802   3.604   6.259
 2970SOL    HW2 9810   0.863   3.742   6.319
 2971SOL     OW 9811   5.816   3.792   6.125
 2971SOL    HW1 9812   5.891   3.739   6.165
 2971SOL    HW2 9813   5.837   3.890   6.131
 2972SOL     OW 9814   6.737   4.809   6.422
 2972SOL    HW1 9815   6.637   4.803   6.425
 2972SOL    HW2 9816   6.777   4.720   6.444
 2973SOL     OW 9817   5.224   1.044   4.103
 2973SOL    HW1 9818   5.255   0.997   4.186
 2973SOL    HW2 9819   5.297   1.103   4.069
 2974SOL     OW 9820   0.678   4.103   2.569
 2974SOL    HW1 9821   0.713   4.194   2.547
 2974SOL    HW2 9822   0.601   4.112   2.633
 2975SOL     OW 9823   0.173   2.343   4.746
 2975SOL    HW1 9824   0.204   2.275   4.680
 2975SOL    HW2 9825   0.173   2.303   4.838
 2976SOL     OW 9826   4.227   1.948   3.025
 2976SOL    HW1 9827   4.186   1.861   2.998
 2976SOL    HW2 9828   4.307   1.931   3.082
 2977SOL     OW 9829   1.868   6.428   4.233
 2977SOL    HW1 9830   1.836   6.333   4.227
 2977SOL    HW2 9831   1.799   6.488   4.193
 2978SOL     OW 9832   4.369   4.784   6.680
 2978SOL    HW1 9833   4.392   4.744   6.591
 2978SOL    HW2 9834   4.452   4.822   6.721
 2979SOL     OW 9835   5.060   6.810   4.111
 2979SOL    HW1 9836   5.144   6.759   4.129
 2979SOL    HW2 9837   5.080   6.908   4.104
 2980SOL     OW 9838   1.246   6.339   3.636
 2980SOL    HW1 9839   1.323   6.331   3.573
 2980SOL    HW2 9840   1.211   6.248   3.658
 2981SOL     OW 9841   1.739   1.394   6.032
 2981SOL    HW1 9842   1.739   1.457   6.110
 2981SOL    HW2 9843   1.644   1.368   6.011
 2982SOL     OW 9844   4.309   5.772   2.907
 2982SOL    HW1 9845   4.327   5.681   2.944
 2982SOL    HW2 9846   4.286   5.835   2.981
 2983SOL     OW 9847   0.670   1.433   3.767
 2983SOL    HW1 9848   0.580   1.413   3.805
 2983SOL    HW2 9849   0.735   1.449   3.842
 2984SOL     OW 9850   5.239   5.400   1.822
 2984SOL    HW1 9851   5.209   5.364   1.733
 2984SOL    HW2 9852   5.161   5.403   1.884
 2985SOL     OW 9853   1.485   2.429   5.514
 2985SOL    HW1 9854   1.524   2.440   5.606
 2985SOL    HW2 9855   1.558   2.403   5.451
 2986SOL     OW 9856   2.502   4.415   6.387
 2986SOL    HW1 9857   2.518   4.318   6.402
 2986SOL    HW2 9858   2.583   4.457   6.345
 2987SOL     OW 9859   5.625   0.847   3.640
 2987SOL    HW1 9860   5.616   0.884   3.548
 2987SOL    HW2 9861   5.553   0.780   3.658
 2988SOL     OW 9862   0.634   6.612   2.786
 2988SOL    HW1 9863   0.600   6.618   2.881
 2988SOL    HW2 9864   0.693   6.532   2.777
 2989SOL     OW 9865   6.529   6.614   0.430
 2989SOL    HW1 9866   6.628   6.614   0.420
 2989SOL    HW2 9867   6.488   6.671   0.358
 2990SOL     OW 9868   4.448   1.702   4.291
 2990SOL    HW1 9869   4.520   1.633   4.295
 2990SOL    HW2 9870   4.397   1.692   4.205
 2991SOL     OW 9871   6.878   3.975   6.211
 2991SOL    HW1 9872   6.808   4.040   6.181
 2991SOL    HW2 9873   6.926   4.012   6.291
 2992SOL     OW 9874   1.847   5.063   5.726
 2992SOL    HW1 9875   1.833   5.156   5.759
 2992SOL    HW2 9876   1.903   5.012   5.791
 2993SOL     OW 9877   0.933   5.371   1.450
 2993SOL    HW1 9878   0.952   5.318   1.533
 2993SOL    HW2 9879   0.958   5.466   1.465
 2994SOL     OW 9880   3.443   6.745   0.268
 2994SOL    HW1 9881   3.514   6.808   0.300
 2994SOL    HW2 9882   3.390   6.790   0.195
 2995SOL     OW 9883   2.017   3.829   6.660
 2995SOL    HW1 9884   2.039   3.739   6.622
 2995SOL    HW2 9885   1.918   3.837   6.673
 2996SOL     OW 9886   2.242   6.750   4.094
 2996SOL    HW1 9887   2.286   6.771   4.182
 2996SOL    HW2 9888   2.309   6.758   4.021
 2997SOL     OW 9889   5.426   0.436   2.325
 2997SOL    HW1 9890   5.478   0.424   2.240
 2997SOL    HW2 9891   5.452   0.523   2.367
 2998SOL     OW 9892   5.273   6.867   4.535
 2998SOL    HW1 9893   5.253   6.880   4.632
 2998SOL    HW2 9894   5.268   6.770   4.512
 2999SOL     OW 9895   3.459   4.936   4.172
 2999SOL    HW1 9896   3.416   4.941   4.262
 2999SOL    HW2 9897   3.507   4.849   4.163
 3000SOL     OW 9898   2.007   4.263   6.723
 3000SOL    HW1 9899   2.024   4.171   6.756
 3000SOL    HW2 9900   1.949   4.259   6.641
 3001SOL     OW 9901   5.676   5.850   6.833
 3001SOL    HW1 9902   5.769   5.833   6.864
 3001SOL    HW2 9903   5.633   5.919   6.893
 3002SOL     OW 9904   3.861   7.004   6.011
 3002SOL    HW1 9905   3.842   0.073   6.039
 3002SOL    HW2 9906   3.943   6.971   6.057
 3003SOL     OW 9907   2.064   0.097   6.699
 3003SOL    HW1 9908   2.128   0.173   6.713
 3003SOL    HW2 9909   2.054   0.079   6.601
 3004SOL     OW 9910   1.250   4.991   3.840
 3004SOL    HW1 9911   1.238   4.926   3.765
 3004SOL    HW2 9912   1.239   5.085   3.805
 3005SOL     OW 9913   2.944   2.297   0.363
 3005SOL    HW1 9914   2.955   2.386   0.319
 3005SOL    HW2 9915   2.907   2.231   0.297
 3006SOL     OW 9916   5.083   2.315   6.743
 3006SOL    HW1 9917   5.135   2.273   6.818
 3006SOL    HW2 9918   5.073   2.413   6.761
 3007SOL     OW 9919   5.633   5.142   1.662
 3007SOL    HW1 9920   5.563   5.133   1.732
 3007SOL    HW2 9921   5.600   5.101   1.576
 3008SOL     OW 9922   3.469   0.545   6.445
 3008SOL    HW1 9923   3.447   0.479   6.373
 3008SOL    HW2 9924   3.421   0.631   6.428
 3009SOL     OW 9925   0.521   6.966   3.166
 3009SOL    HW1 9926   0.607   6.981   3.216
 3009SOL    HW2 9927   0.464   0.023   3.174
 3010SOL     OW 9928   3.239   6.595   4.012
 3010SOL    HW1 9929   3.231   6.671   3.947
 3010SOL    HW2 9930   3.179   6.520   3.983
 3011SOL     OW 9931   5.427   1.403   1.189
 3011SOL    HW1 9932   5.335   1.436   1.212
 3011SOL    HW2 9933   5.457   1.445   1.103
 3012SOL     OW 9934   0.817   3.486   4.879
 3012SOL    HW1 9935   0.830   3.495   4.977
 3012SOL    HW2 9936   0.866   3.560   4.831
 3013SOL     OW 9937   5.169   5.676   4.891
 3013SOL    HW1 9938   5.082   5.651   4.933
 3013SOL    HW2 9939   5.209   5.753   4.940
 3014SOL     OW 9940   4.899   3.421   4.674
 3014SOL    HW1 9941   4.828   3.478   4.633
 3014SOL    HW2 9942   4.879   3.325   4.657
 3015SOL     OW 9943   2.507   2.200   0.266
 3015SOL    HW1 9944   2.561   2.248   0.336
 3015SOL    HW2 9945   2.547   2.111   0.248
 3016SOL     OW 9946   2.845   5.501   3.853
 3016SOL    HW1 9947   2.756   5.546   3.864
 3016SOL    HW2 9948   2.886   5.485   3.942
 3017SOL     OW 9949   1.244   5.224   1.981
 3017SOL    HW1 9950   1.265   5.170   1.900
 3017SOL    HW2 9951   1.315   5.294   1.993
 3018SOL     OW 9952   2.163   6.802   5.432
 3018SOL    HW1 9953   2.093   6.867   5.401
 3018SOL    HW2 9954   2.149   6.714   5.387
 3019SOL     OW 9955   1.865   6.928   7.015
 3019SOL    HW1 9956   1.849   0.001   7.012
 3019SOL    HW2 9957   1.947   6.905   6.963
 3020SOL     OW 9958   4.000   3.828   1.790
 3020SOL    HW1 9959   4.013   3.830   1.889
 3020SOL    HW2 9960   4.049   3.750   1.751
 3021SOL     OW 9961   3.468   0.123   6.848
 3021SOL    HW1 9962   3.537   0.080   6.790
 3021SOL    HW2 9963   3.468   0.078   6.937
 3022SOL     OW 9964   3.965   5.485   4.178
 3022SOL    HW1 9965   3.967   5.427   4.260
 3022SOL    HW2 9966   3.978   5.428   4.097
 3023SOL     OW 9967   4.773   0.236   2.561
 3023SOL    HW1 9968   4.859   0.185   2.552
 3023SOL    HW2 9969   4.701   0.188   2.510
 3024SOL     OW 9970   4.065   6.427   5.892
 3024SOL    HW1 9971   4.069   6.333   5.856
 3024SOL    HW2 9972   4.127   6.485   5.838
 3025SOL     OW 9973   4.049   1.365   0.531
 3025SOL    HW1 9974   4.034   1.298   0.459
 3025SOL    HW2 9975   3.971   1.367   0.593
 3026SOL     OW 9976   1.986   2.032   0.821
 3026SOL    HW1 9977   1.958   2.047   0.726
 3026SOL    HW2 9978   2.071   1.979   0.822
 3027SOL     OW 9979   4.304   0.436   2.201
 3027SOL    HW1 9980   4.332   0.347   2.162
 3027SOL    HW2 9981   4.364   0.507   2.165
 3028SOL     OW 9982   2.028   3.835   5.783
 3028SOL    HW1 9983   2.002   3.907   5.718
 3028SOL    HW2 9984   2.010   3.746   5.741
 3029SOL     OW 9985   0.354   4.044   4.700
 3029SOL    HW1 9986   0.318   4.133   4.728
 3029SOL    HW2 9987   0.446   4.032   4.737
 3030SOL     OW 9988   0.957   2.526   5.842
 3030SOL    HW1 9989   0.957   2.498   5.938
 3030SOL    HW2 9990   0.965   2.445   5.784
 3031SOL     OW 9991   0.289   3.015   0.433
 3031SOL    HW1 9992   0.219   3.071   0.477
 3031SOL    HW2 9993   0.365   3.074   0.404
 3032SOL     OW 9994   4.512   6.488   1.677
 3032SOL    HW1 9995   4.469   6.575   1.700
 3032SOL    HW2 9996   4.449   6.433   1.621
 3033SOL     OW 9997   0.332   2.054   1.636
 3033SOL    HW1 9998   0.379   2.012   1.713
 3033SOL    HW2 9999   0.385   2.131   1.602
 3034SOL     OW10000   2.020   5.788   3.535
 3034SOL    HW110001   2.091   5.760   3.600
 3034SOL    HW210002   1.930   5.764   3.571
 3035SOL     OW10003   6.809   2.878   0.078
 3035SOL    HW110004   6.823   2.786   0.042
 3035SOL    HW210005   6.854   2.944   0.019
 3036SOL     OW10006   1.647   2.859   6.426
 3036SOL    HW110007   1.661   2.849   6.328
 3036SOL    HW210008   1.618   2.953   6.446
 3037SOL     OW10009   0.836   6.007   4.040
 3037SOL    HW110010   0.911   6.014   3.973
 3037SOL    HW210011   0.792   5.917   4.030
 3038SOL     OW10012   5.626   5.822   6.550
 3038SOL    HW110013   5.640   5.799   6.647
 3038SOL    HW210014   5.687   5.898   6.525
 3039SOL     OW10015   0.124   4.096   1.545
 3039SOL    HW110016   0.177   4.111   1.461
 3039SOL    HW210017   0.127   4.000   1.570
 3040SOL     OW10018   4.547   3.656   6.256
 3040SOL    HW110019   4.449   3.673   6.273
 3040SOL    HW210020   4.600   3.737   6.281
 3041SOL     OW10021   2.325   2.848   4.771
 3041SOL    HW110022   2.375   2.888   4.847
 3041SOL    HW210023   2.376   2.771   4.734
 3042SOL     OW10024   5.404   6.642   1.638
 3042SOL    HW110025   5.314   6.683   1.621
 3042SOL    HW210026   5.392   6.548   1.671
 3043SOL     OW10027   1.012   5.719   1.095
 3043SOL    HW110028   1.018   5.804   1.147
 3043SOL    HW210029   1.079   5.654   1.130
 3044SOL     OW10030   3.354   4.477   5.960
 3044SOL    HW110031   3.374   4.476   6.058
 3044SOL    HW210032   3.257   4.455   5.945
 3045SOL     OW10033   4.831   1.237   3.018
 3045SOL    HW110034   4.822   1.139   3.000
 3045SOL    HW210035   4.828   1.253   3.116
 3046SOL     OW10036   2.499   2.028   6.535
 3046SOL    HW110037   2.416   2.068   6.574
 3046SOL    HW210038   2.498   2.041   6.436
 3047SOL     OW10039   5.598   0.109   2.330
 3047SOL    HW110040   5.590   0.019   2.374
 3047SOL    HW210041   5.548   0.177   2.385
 3048SOL     OW10042   3.862   2.335   1.740
 3048SOL    HW110043   3.885   2.432   1.743
 3048SOL    HW210044   3.772   2.321   1.780
 3049SOL     OW10045   1.232   6.549   1.806
 3049SOL    HW110046   1.154   6.526   1.748
 3049SOL    HW210047   1.284   6.624   1.764
 3050SOL     OW10048   3.490   0.910   2.497
 3050SOL    HW110049   3.446   0.853   2.428
 3050SOL    HW210050   3.430   0.921   2.576
 3051SOL     OW10051   2.207   4.049   6.582
 3051SOL    HW110052   2.302   4.048   6.551
 3051SOL    HW210053   2.171   3.956   6.584
 3052SOL     OW10054   4.782   0.071   2.055
 3052SOL    HW110055   4.750   0.124   1.977
 3052SOL    HW210056   4.869   0.109   2.088
 3053SOL     OW10057   0.228   1.626   6.796
 3053SOL    HW110058   0.210   1.623   6.894
 3053SOL    HW210059   0.177   1.554   6.750
 3054SOL     OW10060   6.766   2.315   1.509
 3054SOL    HW110061   6.866   2.319   1.516
 3054SOL    HW210062   6.726   2.395   1.554
 3055SOL     OW10063   5.153   0.018   3.831
 3055SOL    HW110064   5.170   0.036   3.928
 3055SOL    HW210065   5.240   0.007   3.783
 3056SOL     OW10066   6.200   1.982   5.251
 3056SOL    HW110067   6.193   2.081   5.266
 3056SOL    HW210068   6.278   1.963   5.192
 3057SOL     OW10069   4.126   5.945   3.342
 3057SOL    HW110070   4.059   6.003   3.294
 3057SOL    HW210071   4.111   5.953   3.441
 3058SOL     OW10072   0.033   5.353   0.941
 3058SOL    HW110073   6.983   5.330   1.003
 3058SOL    HW210074   0.035   5.287   0.866
 3059SOL     OW10075   2.186   2.199   4.555
 3059SOL    HW110076   2.138   2.220   4.640
 3059SOL    HW210077   2.284   2.194   4.573
 3060SOL     OW10078   0.706   5.820   0.344
 3060SOL    HW110079   0.704   5.739   0.402
 3060SOL    HW210080   0.741   5.898   0.396
 3061SOL     OW10081   5.582   0.641   5.769
 3061SOL    HW110082   5.635   0.674   5.691
 3061SOL    HW210083   5.577   0.712   5.839
 3062SOL     OW10084   1.224   6.427   0.006
 3062SOL    HW110085   1.129   6.458   7.020
 3062SOL    HW210086   1.284   6.507   0.019
 3063SOL     OW10087   2.789   5.381   1.810
 3063SOL    HW110088   2.717   5.323   1.773
 3063SOL    HW210089   2.856   5.324   1.858
 3064SOL     OW10090   5.564   3.634   3.943
 3064SOL    HW110091   5.561   3.561   4.012
 3064SOL    HW210092   5.515   3.714   3.978
 3065SOL     OW10093   2.260   0.518   6.922
 3065SOL    HW110094   2.321   0.532   6.843
 3065SOL    HW210095   2.304   0.553   7.004
 3066SOL     OW10096   5.369   5.103   0.717
 3066SOL    HW110097   5.443   5.158   0.758
 3066SOL    HW210098   5.324   5.050   0.789
 3067SOL     OW10099   3.858   1.947   4.778
 3067SOL    HW110100   3.781   2.010   4.768
 3067SOL    HW210101   3.934   1.995   4.822
 3068SOL     OW10102   5.494   6.590   0.852
 3068SOL    HW110103   5.484   6.508   0.907
 3068SOL    HW210104   5.589   6.620   0.854
 3069SOL     OW10105   7.005   6.496   1.959
 3069SOL    HW110106   0.075   6.525   1.969
 3069SOL    HW210107   6.958   6.558   1.896
 3070SOL     OW10108   1.059   1.011   2.224
 3070SOL    HW110109   1.099   1.080   2.284
 3070SOL    HW210110   0.960   1.008   2.239
 3071SOL     OW10111   5.955   6.098   3.374
 3071SOL    HW110112   5.886   6.143   3.430
 3071SOL    HW210113   6.030   6.161   3.355
 3072SOL     OW10114   1.305   6.637   0.401
 3072SOL    HW110115   1.320   6.728   0.439
 3072SOL    HW210116   1.383   6.613   0.343
 3073SOL     OW10117   7.001   3.559   5.056
 3073SOL    HW110118   6.918   3.613   5.044
 3073SOL    HW210119   7.023   3.512   4.970
 3074SOL     OW10120   5.356   3.198   0.909
 3074SOL    HW110121   5.408   3.160   0.832
 3074SOL    HW210122   5.278   3.249   0.873
 3075SOL     OW10123   2.021   5.882   1.795
 3075SOL    HW110124   2.068   5.800   1.765
 3075SOL    HW210125   2.074   5.963   1.768
 3076SOL     OW10126   0.130   0.781   4.164
 3076SOL    HW110127   0.113   0.783   4.262
 3076SOL    HW210128   0.211   0.836   4.143
 3077SOL     OW10129   4.946   5.138   2.781
 3077SOL    HW110130   5.020   5.073   2.799
 3077SOL    HW210131   4.858   5.096   2.805
 3078SOL     OW10132   0.967   3.414   1.543
 3078SOL    HW110133   0.911   3.343   1.584
 3078SOL    HW210134   0.910   3.494   1.523
 3079SOL     OW10135   2.608   1.870   4.905
 3079SOL    HW110136   2.512   1.844   4.904
 3079SOL    HW210137   2.628   1.927   4.825
 3080SOL     OW10138   4.718   4.121   3.656
 3080SOL    HW110139   4.716   4.161   3.748
 3080SOL    HW210140   4.627   4.129   3.614
 3081SOL     OW10141   0.332   2.734   5.950
 3081SOL    HW110142   0.367   2.685   5.870
 3081SOL    HW210143   0.261   2.798   5.920
 3082SOL     OW10144   3.201   6.969   4.027
 3082SOL    HW110145   3.296   6.994   4.005
 3082SOL    HW210146   3.199   6.923   4.116
 3083SOL     OW10147   4.399   6.213   3.417
 3083SOL    HW110148   4.357   6.207   3.327
 3083SOL    HW210149   4.373   6.300   3.460
 3084SOL     OW10150   5.079   4.258   4.729
 3084SOL    HW110151   5.074   4.159   4.718
 3084SOL    HW210152   4.987   4.296   4.730
 3085SOL     OW10153   0.314   4.786   1.779
 3085SOL    HW110154   0.348   4.694   1.799
 3085SOL    HW210155   0.215   4.788   1.790
 3086SOL     OW10156   3.968   1.927   2.238
 3086SOL    HW110157   3.955   2.002   2.303
 3086SOL    HW210158   3.887   1.920   2.179
 3087SOL     OW10159   1.492   4.959   3.998
 3087SOL    HW110160   1.551   4.880   3.983
 3087SOL    HW210161   1.410   4.950   3.941
 3088SOL     OW10162   2.369   5.170   5.903
 3088SOL    HW110163   2.427   5.103   5.856
 3088SOL    HW210164   2.310   5.122   5.969
 3089SOL     OW10165   1.295   3.136   0.132
 3089SOL    HW110166   1.215   3.077   0.140
 3089SOL    HW210167   1.289   3.210   0.198
 3090SOL     OW10168   2.031   2.157   2.083
 3090SOL    HW110169   1.973   2.207   2.147
 3090SOL    HW210170   1.984   2.147   1.995
 3091SOL     OW10171   1.437   7.001   0.645
 3091SOL    HW110172   1.528   7.010   0.686
 3091SOL    HW210173   1.371   6.974   0.715
 3092SOL     OW10174   4.841   6.460   0.420
 3092SOL    HW110175   4.844   6.466   0.320
 3092SOL    HW210176   4.893   6.381   0.450
 3093SOL     OW10177   5.445   6.053   6.059
 3093SOL    HW110178   5.513   5.991   6.099
 3093SOL    HW210179   5.445   6.139   6.110
 3094SOL     OW10180   2.290   6.358   4.338
 3094SOL    HW110181   2.219   6.304   4.383
 3094SOL    HW210182   2.280   6.352   4.239
 3095SOL     OW10183   1.997   5.651   4.298
 3095SOL    HW110184   2.000   5.574   4.361
 3095SOL    HW210185   2.058   5.723   4.331
 3096SOL     OW10186   1.063   0.310   4.880
 3096SOL    HW110187   0.979   0.286   4.927
 3096SOL    HW210188   1.042   0.343   4.788
 3097SOL     OW10189   0.509   2.264   1.049
 3097SOL    HW110190   0.466   2.192   0.995
 3097SOL    HW210191   0.564   2.322   0.990
 3098SOL     OW10192   2.882   3.490   0.408
 3098SOL    HW110193   2.938   3.550   0.466
 3098SOL    HW210194   2.786   3.502   0.430
 3099SOL     OW10195   0.503   6.279   3.875
 3099SOL    HW110196   0.494   6.365   3.826
 3099SOL    HW210197   0.466   6.289   3.968
 3100SOL     OW10198   6.520   0.124   5.019
 3100SOL    HW110199   6.497   0.153   5.112
 3100SOL    HW210200   6.471   0.040   4.998
 3101SOL     OW10201   5.197   6.138   5.967
 3101SOL    HW110202   5.232   6.225   5.931
 3101SOL    HW210203   5.269   6.069   5.963
 3102SOL     OW10204   0.331   5.132   3.161
 3102SOL    HW110205   0.268   5.066   3.200
 3102SOL    HW210206   0.326   5.128   3.061
 3103SOL     OW10207   3.477   0.763   1.790
 3103SOL    HW110208   3.497   0.844   1.846
 3103SOL    HW210209   3.379   0.758   1.774
 3104SOL     OW10210   5.270   6.824   5.200
 3104SOL    HW110211   5.259   6.870   5.289
 3104SOL    HW210212   5.181   6.791   5.169
 3105SOL     OW10213   6.195   4.485   1.775
 3105SOL    HW110214   6.249   4.448   1.700
 3105SOL    HW210215   6.185   4.415   1.846
 3106SOL     OW10216   5.836   1.635   2.665
 3106SOL    HW110217   5.897   1.604   2.738
 3106SOL    HW210218   5.833   1.735   2.665
 3107SOL     OW10219   3.995   0.948   4.184
 3107SOL    HW110220   3.966   0.908   4.271
 3107SOL    HW210221   4.095   0.957   4.183
 3108SOL     OW10222   1.297   0.448   4.507
 3108SOL    HW110223   1.359   0.413   4.437
 3108SOL    HW210224   1.260   0.536   4.478
 3109SOL     OW10225   5.699   6.361   1.942
 3109SOL    HW110226   5.755   6.301   1.884
 3109SOL    HW210227   5.707   6.332   2.038
 3110SOL     OW10228   1.662   1.952   3.657
 3110SOL    HW110229   1.742   1.945   3.597
 3110SOL    HW210230   1.683   1.911   3.746
 3111SOL     OW10231   6.021   6.028   3.987
 3111SOL    HW110232   5.941   5.985   4.029
 3111SOL    HW210233   5.994   6.117   3.950
 3112SOL     OW10234   5.272   2.720   5.913
 3112SOL    HW110235   5.275   2.689   5.818
 3112SOL    HW210236   5.290   2.818   5.917
 3113SOL     OW10237   1.523   6.164   3.946
 3113SOL    HW110238   1.578   6.080   3.947
 3113SOL    HW210239   1.490   6.183   4.038
 3114SOL     OW10240   4.066   1.899   6.838
 3114SOL    HW110241   4.125   1.841   6.895
 3114SOL    HW210242   3.970   1.881   6.859
 3115SOL     OW10243   4.352   3.349   6.722
 3115SOL    HW110244   4.318   3.338   6.816
 3115SOL    HW210245   4.355   3.446   6.698
 3116SOL     OW10246   0.144   3.371   6.806
 3116SOL    HW110247   0.091   3.369   6.722
 3116SOL    HW210248   0.189   3.283   6.820
 3117SOL     OW10249   4.386   3.751   5.367
 3117SOL    HW110250   4.477   3.781   5.339
 3117SOL    HW210251   4.390   3.716   5.461
 3118SOL     OW10252   0.349   4.436   0.670
 3118SOL    HW110253   0.285   4.433   0.594
 3118SOL    HW210254   0.418   4.507   0.653
 3119SOL     OW10255   2.068   3.303   5.393
 3119SOL    HW110256   2.033   3.396   5.389
 3119SOL    HW210257   2.147   3.294   5.332
 3120SOL     OW10258   2.944   6.723   4.037
 3120SOL    HW110259   3.015   6.779   4.079
 3120SOL    HW210260   2.983   6.637   4.006
 3121SOL     OW10261   0.261   1.670   2.688
 3121SOL    HW110262   0.218   1.753   2.724
 3121SOL    HW210263   0.360   1.683   2.681
 3122SOL     OW10264   2.811   5.921   5.681
 3122SOL    HW110265   2.861   5.974   5.749
 3122SOL    HW210266   2.789   5.831   5.718
 3123SOL     OW10267   3.461   0.757   4.108
 3123SOL    HW110268   3.544   0.782   4.159
 3123SOL    HW210269   3.388   0.736   4.173
 3124SOL     OW10270   4.100   6.347   4.832
 3124SOL    HW110271   4.008   6.385   4.821
 3124SOL    HW210272   4.127   6.302   4.747
 3125SOL     OW10273   6.431   2.018   5.110
 3125SOL    HW110274   6.479   1.942   5.065
 3125SOL    HW210275   6.497   2.074   5.159
 3126SOL     OW10276   4.559   4.871   6.327
 3126SOL    HW110277   4.643   4.910   6.364
 3126SOL    HW210278   4.580   4.822   6.243
 3127SOL     OW10279   0.889   2.364   3.658
 3127SOL    HW110280   0.969   2.364   3.598
 3127SOL    HW210281   0.885   2.277   3.707
 3128SOL     OW10282   1.860   0.183   0.006
 3128SOL    HW110283   1.943   0.235   7.008
 3128SOL    HW210284   1.780   0.241   7.019
 3129SOL     OW10285   0.523   4.437   6.577
 3129SOL    HW110286   0.511   4.349   6.531
 3129SOL    HW210287   0.507   4.426   6.675
 3130SOL     OW10288   1.594   4.485   1.792
 3130SOL    HW110289   1.576   4.494   1.890
 3130SOL    HW210290   1.576   4.392   1.763
 3131SOL     OW10291   0.145   2.329   1.788
 3131SOL    HW110292   0.138   2.402   1.856
 3131SOL    HW210293   0.116   2.243   1.830
 3132SOL     OW10294   4.463   4.692   5.775
 3132SOL    HW110295   4.366   4.698   5.752
 3132SOL    HW210296   4.492   4.597   5.775
 3133SOL     OW10297   2.770   2.224   3.319
 3133SOL    HW110298   2.848   2.212   3.381
 3133SOL    HW210299   2.789   2.179   3.232
 3134SOL     OW10300   4.682   4.676   1.138
 3134SOL    HW110301   4.687   4.577   1.153
 3134SOL    HW210302   4.587   4.706   1.149
 3135SOL     OW10303   4.853   0.655   5.395
 3135SOL    HW110304   4.925   0.633   5.461
 3135SOL    HW210305   4.887   0.723   5.330
 3136SOL     OW10306   5.379   0.995   6.872
 3136SOL    HW110307   5.434   0.934   6.929
 3136SOL    HW210308   5.383   1.088   6.909
 3137SOL     OW10309   6.452   0.824   3.518
 3137SOL    HW110310   6.472   0.788   3.428
 3137SOL    HW210311   6.529   0.879   3.550
 3138SOL     OW10312   6.665   2.347   3.746
 3138SOL    HW110313   6.732   2.419   3.726
 3138SOL    HW210314   6.595   2.347   3.675
 3139SOL     OW10315   4.523   6.988   0.559
 3139SOL    HW110316   4.553   6.901   0.599
 3139SOL    HW210317   4.457   6.969   0.485
 3140SOL     OW10318   5.454   0.103   6.983
 3140SOL    HW110319   5.365   0.110   6.938
 3140SOL    HW210320   5.520   0.160   6.935
 3141SOL     OW10321   0.179   5.908   6.270
 3141SOL    HW110322   0.214   5.956   6.189
 3141SOL    HW210323   0.129   5.826   6.241
 3142SOL     OW10324   4.789   6.333   1.800
 3142SOL    HW110325   4.848   6.410   1.824
 3142SOL    HW210326   4.693   6.362   1.802
 3143SOL     OW10327   0.045   2.554   0.012
 3143SOL    HW110328   6.976   2.558   0.046
 3143SOL    HW210329   0.063   2.463   7.000
 3144SOL     OW10330   3.234   3.677   0.773
 3144SOL    HW110331   3.223   3.706   0.868
 3144SOL    HW210332   3.253   3.579   0.771
 3145SOL     OW10333   1.813   5.023   2.406
 3145SOL    HW110334   1.908   5.016   2.375
 3145SOL    HW210335   1.800   4.965   2.486
 3146SOL     OW10336   1.591   0.161   3.291
 3146SOL    HW110337   1.541   0.219   3.226
 3146SOL    HW210338   1.551   0.069   3.291
 3147SOL     OW10339   3.247   5.198   6.745
 3147SOL    HW110340   3.220   5.101   6.743
 3147SOL    HW210341   3.186   5.248   6.806
 3148SOL     OW10342   4.864   6.232   4.888
 3148SOL    HW110343   4.810   6.200   4.966
 3148SOL    HW210344   4.960   6.211   4.903
 3149SOL     OW10345   3.169   0.422   5.382
 3149SOL    HW110346   3.151   0.324   5.392
 3149SOL    HW210347   3.148   0.468   5.468
 3150SOL     OW10348   6.558   5.694   4.069
 3150SOL    HW110349   6.609   5.609   4.066
 3150SOL    HW210350   6.497   5.700   3.989
 3151SOL     OW10351   3.816   0.858   6.504
 3151SOL    HW110352   3.789   0.777   6.453
 3151SOL    HW210353   3.816   0.837   6.602
 3152SOL     OW10354   1.408   5.313   0.792
 3152SOL    HW110355   1.343   5.248   0.753
 3152SOL    HW210356   1.410   5.303   0.892
 3153SOL     OW10357   6.399   4.637   1.906
 3153SOL    HW110358   6.436   4.614   1.996
 3153SOL    HW210359   6.319   4.581   1.887
 3154SOL     OW10360   6.228   1.563   0.817
 3154SOL    HW110361   6.153   1.619   0.782
 3154SOL    HW210362   6.223   1.472   0.776
 3155SOL     OW10363   6.850   5.277   1.325
 3155SOL    HW110364   6.773   5.237   1.375
 3155SOL    HW210365   6.892   5.349   1.381
 3156SOL     OW10366   2.928   3.282   3.391
 3156SOL    HW110367   2.852   3.253   3.450
 3156SOL    HW210368   3.015   3.260   3.435
 3157SOL     OW10369   2.100   2.698   4.839
 3157SOL    HW110370   2.162   2.760   4.792
 3157SOL    HW210371   2.115   2.704   4.938
 3158SOL     OW10372   4.435   0.285   1.941
 3158SOL    HW110373   4.454   0.189   1.922
 3158SOL    HW210374   4.339   0.304   1.919
 3159SOL     OW10375   5.574   1.395   0.554
 3159SOL    HW110376   5.556   1.490   0.582
 3159SOL    HW210377   5.667   1.370   0.580
 3160SOL     OW10378   6.721   6.197   5.337
 3160SOL    HW110379   6.648   6.249   5.292
 3160SOL    HW210380   6.770   6.142   5.270
 3161SOL     OW10381   1.252   1.123   3.051
 3161SOL    HW110382   1.269   1.195   3.119
 3161SOL    HW210383   1.166   1.141   3.004
 3162SOL     OW10384   1.121   6.197   0.794
 3162SOL    HW110385   1.210   6.152   0.790
 3162SOL    HW210386   1.103   6.244   0.708
 3163SOL     OW10387   3.788   2.267   6.980
 3163SOL    HW110388   3.873   2.215   6.968
 3163SOL    HW210389   3.724   2.242   6.907
 3164SOL     OW10390   4.293   4.715   1.621
 3164SOL    HW110391   4.360   4.650   1.583
 3164SOL    HW210392   4.204   4.670   1.627
 3165SOL     OW10393   1.489   6.059   1.733
 3165SOL    HW110394   1.442   6.122   1.796
 3165SOL    HW210395   1.573   6.101   1.701
 3166SOL     OW10396   4.850   1.178   6.545
 3166SOL    HW110397   4.774   1.213   6.490
 3166SOL    HW210398   4.898   1.107   6.494
 3167SOL     OW10399   7.011   4.340   1.610
 3167SOL    HW110400   6.912   4.330   1.599
 3167SOL    HW210401   0.030   4.251   1.599
 3168SOL     OW10402   5.663   2.854   0.210
 3168SOL    HW110403   5.582   2.840   0.153
 3168SOL    HW210404   5.708   2.939   0.183
 3169SOL     OW10405   1.155   2.973   5.189
 3169SOL    HW110406   1.136   2.907   5.261
 3169SOL    HW210407   1.245   2.955   5.150
 3170SOL     OW10408   4.253   0.786   0.656
 3170SOL    HW110409   4.231   0.856   0.724
 3170SOL    HW210410   4.253   0.696   0.700
 3171SOL     OW10411   0.151   6.307   1.079
 3171SOL    HW110412   0.098   6.252   1.015
 3171SOL    HW210413   0.158   6.258   1.166
 3172SOL     OW10414   0.650   5.176   5.766
 3172SOL    HW110415   0.720   5.114   5.730
 3172SOL    HW210416   0.611   5.229   5.691
 3173SOL     OW10417   3.061   1.894   1.445
 3173SOL    HW110418   3.159   1.882   1.437
 3173SOL    HW210419   3.029   1.855   1.532
 3174SOL     OW10420   2.792   2.856   6.774
 3174SOL    HW110421   2.860   2.879   6.844
 3174SOL    HW210422   2.723   2.928   6.771
 3175SOL     OW10423   0.086   6.497   0.583
 3175SOL    HW110424   0.143   6.416   0.570
 3175SOL    HW210425   0.137   6.579   0.557
 3176SOL     OW10426   2.095   4.693   4.863
 3176SOL    HW110427   2.108   4.711   4.765
 3176SOL    HW210428   1.997   4.693   4.884
 3177SOL     OW10429   4.973   5.102   5.299
 3177SOL    HW110430   4.891   5.047   5.287
 3177SOL    HW210431   5.053   5.051   5.267
 3178SOL     OW10432   6.838   2.725   1.250
 3178SOL    HW110433   6.805   2.772   1.332
 3178SOL    HW210434   6.930   2.756   1.228
 3179SOL     OW10435   2.069   2.814   1.966
 3179SOL    HW110436   2.164   2.819   1.936
 3179SOL    HW210437   2.056   2.731   2.020
 3180SOL     OW10438   4.600   0.394   6.728
 3180SOL    HW110439   4.653   0.429   6.651
 3180SOL    HW210440   4.511   0.362   6.696
 3181SOL     OW10441   0.916   0.915   3.026
 3181SOL    HW110442   0.932   0.945   3.120
 3181SOL    HW210443   0.970   0.971   2.963
 3182SOL     OW10444   1.715   1.094   5.397
 3182SOL    HW110445   1.632   1.144   5.373
 3182SOL    HW210446   1.763   1.143   5.470
 3183SOL     OW10447   5.102   3.666   1.483
 3183SOL    HW110448   5.110   3.591   1.550
 3183SOL    HW210449   5.070   3.629   1.396
 3184SOL     OW10450   2.258   2.484   2.987
 3184SOL    HW110451   2.351   2.502   2.954
 3184SOL    HW210452   2.196   2.552   2.949
 3185SOL     OW10453   6.024   1.129   6.619
 3185SOL    HW110454   6.029   1.171   6.529
 3185SOL    HW210455   5.950   1.061   6.620
 3186SOL     OW10456   3.595   1.127   2.780
 3186SOL    HW110457   3.517   1.073   2.748
 3186SOL    HW210458   3.629   1.088   2.865
 3187SOL     OW10459   4.913   4.176   6.912
 3187SOL    HW110460   4.822   4.151   6.944
 3187SOL    HW210461   4.928   4.140   6.820
 3188SOL     OW10462   3.271   5.837   3.844
 3188SOL    HW110463   3.239   5.762   3.901
 3188SOL    HW210464   3.335   5.803   3.776
 3189SOL     OW10465   2.465   0.789   2.712
 3189SOL    HW110466   2.503   0.881   2.721
 3189SOL    HW210467   2.388   0.792   2.648
 3190SOL     OW10468   1.050   6.584   1.572
 3190SOL    HW110469   1.092   6.621   1.489
 3190SOL    HW210470   0.951   6.586   1.561
 3191SOL     OW10471   3.797   6.764   0.715
 3191SOL    HW110472   3.803   6.848   0.660
 3191SOL    HW210473   3.883   6.751   0.764
 3192SOL     OW10474   0.601   2.302   1.311
 3192SOL    HW110475   0.544   2.268   1.385
 3192SOL    HW210476   0.563   2.272   1.223
 3193SOL     OW10477   4.325   1.895   5.965
 3193SOL    HW110478   4.396   1.963   5.981
 3193SOL    HW210479   4.257   1.899   6.038
 3194SOL     OW10480   0.979   2.789   5.814
 3194SOL    HW110481   0.994   2.831   5.904
 3194SOL    HW210482   1.003   2.692   5.819
 3195SOL     OW10483   1.753   2.555   2.447
 3195SOL    HW110484   1.786   2.461   2.431
 3195SOL    HW210485   1.668   2.552   2.499
 3196SOL     OW10486   6.890   0.588   4.684
 3196SOL    HW110487   6.805   0.622   4.646
 3196SOL    HW210488   6.901   0.624   4.777
 3197SOL     OW10489   1.585   5.691   3.974
 3197SOL    HW110490   1.573   5.605   4.023
 3197SOL    HW210491   1.661   5.743   4.015
 3198SOL     OW10492   6.622   2.263   6.643
 3198SOL    HW110493   6.600   2.295   6.735
 3198SOL    HW210494   6.572   2.179   6.624
 3199SOL     OW10495   4.501   2.635   1.784
 3199SOL    HW110496   4.416   2.591   1.754
 3199SOL    HW210497   4.500   2.644   1.884
 3200SOL     OW10498   0.071   1.522   1.685
 3200SOL    HW110499   0.160   1.566   1.682
 3200SOL    HW210500   0.042   1.498   1.592
 3201SOL     OW10501   5.247   4.692   4.390
 3201SOL    HW110502   5.308   4.668   4.315
 3201SOL    HW210503   5.260   4.627   4.465
 3202SOL     OW10504   1.231   4.598   1.936
 3202SOL    HW110505   1.139   4.637   1.946
 3202SOL    HW210506   1.271   4.584   2.027
 3203SOL     OW10507   5.702   1.131   1.069
 3203SOL    HW110508   5.619   1.084   1.038
 3203SOL    HW210509   5.682   1.184   1.151
 3204SOL     OW10510   5.037   6.052   1.475
 3204SOL    HW110511   5.006   6.131   1.528
 3204SOL    HW210512   5.050   5.974   1.537
 3205SOL     OW10513   0.137   3.889   6.730
 3205SOL    HW110514   0.055   3.942   6.747
 3205SOL    HW210515   0.130   3.800   6.776
 3206SOL     OW10516   6.589   0.054   6.182
 3206SOL    HW110517   6.628   0.082   6.094
 3206SOL    HW210518   6.660   0.010   6.238
 3207SOL     OW10519   0.410   1.202   6.737
 3207SOL    HW110520   0.393   1.301   6.739
 3207SOL    HW210521   0.505   1.184   6.763
 3208SOL     OW10522   4.925   6.202   5.978
 3208SOL    HW110523   4.878   6.181   5.893
 3208SOL    HW210524   5.024   6.194   5.964
 3209SOL     OW10525   2.787   5.752   3.513
 3209SOL    HW110526   2.870   5.775   3.564
 3209SOL    HW210527   2.707   5.781   3.566
 3210SOL     OW10528   0.597   3.272   1.865
 3210SOL    HW110529   0.524   3.204   1.855
 3210SOL    HW210530   0.606   3.324   1.780
 3211SOL     OW10531   2.510   4.174   0.530
 3211SOL    HW110532   2.425   4.140   0.489
 3211SOL    HW210533   2.573   4.097   0.543
 3212SOL     OW10534   3.678   1.232   6.554
 3212SOL    HW110535   3.712   1.308   6.610
 3212SOL    HW210536   3.631   1.165   6.612
 3213SOL     OW10537   5.967   4.902   3.101
 3213SOL    HW110538   5.924   4.880   3.014
 3213SOL    HW210539   5.933   4.839   3.172
 3214SOL     OW10540   4.611   6.283   0.526
 3214SOL    HW110541   4.543   6.316   0.591
 3214SOL    HW210542   4.642   6.359   0.469
 3215SOL     OW10543   6.820   3.416   0.899
 3215SOL    HW110544   6.830   3.496   0.839
 3215SOL    HW210545   6.909   3.394   0.940
 3216SOL     OW10546   5.135   5.753   2.146
 3216SOL    HW110547   5.112   5.848   2.164
 3216SOL    HW210548   5.112   5.730   2.051
 3217SOL     OW10549   1.193   4.827   2.549
 3217SOL    HW110550   1.141   4.897   2.599
 3217SOL    HW210551   1.232   4.761   2.614
 3218SOL     OW10552   4.283   6.251   3.178
 3218SOL    HW110553   4.314   6.302   3.098
 3218SOL    HW210554   4.186   6.227   3.167
 3219SOL     OW10555   0.443   0.487   3.373
 3219SOL    HW110556   0.395   0.418   3.427
 3219SOL    HW210557   0.385   0.567   3.360
 3220SOL     OW10558   6.496   5.200   6.079
 3220SOL    HW110559   6.532   5.268   6.143
 3220SOL    HW210560   6.405   5.171   6.108
 3221SOL     OW10561   3.253   6.066   2.167
 3221SOL    HW110562   3.197   6.026   2.095
 3221SOL    HW210563   3.340   6.017   2.173
 3222SOL     OW10564   4.774   2.015   3.439
 3222SOL    HW110565   4.695   2.036   3.497
 3222SOL    HW210566   4.743   1.995   3.346
 3223SOL     OW10567   1.904   5.294   6.816
 3223SOL    HW110568   1.979   5.276   6.879
 3223SOL    HW210569   1.894   5.392   6.802
 3224SOL     OW10570   4.430   4.713   6.105
 3224SOL    HW110571   4.444   4.696   6.007
 3224SOL    HW210572   4.353   4.775   6.117
 3225SOL     OW10573   4.230   2.218   5.916
 3225SOL    HW110574   4.266   2.173   5.835
 3225SOL    HW210575   4.260   2.169   5.998
 3226SOL     OW10576   2.399   1.472   4.920
 3226SOL    HW110577   2.325   1.408   4.943
 3226SOL    HW210578   2.477   1.456   4.982
 3227SOL     OW10579   3.001   2.062   6.687
 3227SOL    HW110580   2.903   2.063   6.667
 3227SOL    HW210581   3.015   2.082   6.784
 3228SOL     OW10582   5.275   3.314   4.295
 3228SOL    HW110583   5.300   3.253   4.219
 3228SOL    HW210584   5.180   3.297   4.321
 3229SOL     OW10585   3.024   1.205   5.869
 3229SOL    HW110586   2.963   1.143   5.821
 3229SOL    HW210587   3.104   1.223   5.812
 3230SOL     OW10588   0.555   2.598   3.915
 3230SOL    HW110589   0.477   2.658   3.927
 3230SOL    HW210590   0.544   2.545   3.831
 3231SOL     OW10591   3.953   5.699   2.012
 3231SOL    HW110592   3.924   5.626   1.951
 3231SOL    HW210593   4.000   5.770   1.959
 3232SOL     OW10594   4.580   5.373   4.343
 3232SOL    HW110595   4.645   5.370   4.419
 3232SOL    HW210596   4.487   5.362   4.378
 3233SOL     OW10597   1.627   3.887   1.166
 3233SOL    HW110598   1.550   3.865   1.225
 3233SOL    HW210599   1.609   3.973   1.119
 3234SOL     OW10600   6.982   2.170   1.148
 3234SOL    HW110601   6.972   2.262   1.186
 3234SOL    HW210602   7.022   2.177   1.057
 3235SOL     OW10603   5.471   5.986   2.089
 3235SOL    HW110604   5.438   6.080   2.098
 3235SOL    HW210605   5.570   5.985   2.102
 3236SOL     OW10606   1.571   3.347   1.854
 3236SOL    HW110607   1.509   3.369   1.929
 3236SOL    HW210608   1.616   3.430   1.822
 3237SOL     OW10609   5.234   0.570   3.502
 3237SOL    HW110610   5.285   0.521   3.431
 3237SOL    HW210611   5.281   0.655   3.525
 3238SOL     OW10612   0.327   5.463   6.665
 3238SOL    HW110613   0.380   5.533   6.616
 3238SOL    HW210614   0.235   5.498   6.684
 3239SOL     OW10615   5.904   1.497   0.819
 3239SOL    HW110616   5.947   1.580   0.784
 3239SOL    HW210617   5.887   1.507   0.917
 3240SOL     OW10618   0.974   6.796   5.080
 3240SOL    HW110619   0.945   6.816   5.173
 3240SOL    HW210620   0.905   6.828   5.016
 3241SOL     OW10621   5.352   1.539   4.375
 3241SOL    HW110622   5.385   1.613   4.433
 3241SOL    HW210623   5.274   1.493   4.419
 3242SOL     OW10624   3.483   4.717   0.552
 3242SOL    HW110625   3.545   4.789   0.580
 3242SOL    HW210626   3.525   4.628   0.569
 3243SOL     OW10627   5.547   5.170   0.359
 3243SOL    HW110628   5.644   5.144   0.362
 3243SOL    HW210629   5.530   5.244   0.424
 3244SOL     OW10630   5.198   5.576   6.486
 3244SOL    HW110631   5.228   5.647   6.550
 3244SOL    HW210632   5.145   5.507   6.536
 3245SOL     OW10633   4.525   2.812   5.851
 3245SOL    HW110634   4.528   2.907   5.821
 3245SOL    HW210635   4.522   2.752   5.771
 3246SOL     OW10636   6.338   0.677   3.040
 3246SOL    HW110637   6.261   0.741   3.045
 3246SOL    HW210638   6.307   0.586   3.068
 3247SOL     OW10639   6.941   5.276   2.647
 3247SOL    HW110640   6.903   5.282   2.555
 3247SOL    HW210641   6.868   5.253   2.712
 3248SOL     OW10642   5.773   3.507   1.996
 3248SOL    HW110643   5.867   3.473   2.007
 3248SOL    HW210644   5.719   3.482   2.076
 3249SOL     OW10645   4.087   4.214   5.686
 3249SOL    HW110646   4.004   4.240   5.736
 3249SOL    HW210647   4.062   4.179   5.596
 3250SOL     OW10648   5.597   0.122   3.282
 3250SOL    HW110649   5.529   0.071   3.230
 3250SOL    HW210650   5.623   0.071   3.364
 3251SOL     OW10651   4.045   1.137   2.608
 3251SOL    HW110652   4.050   1.037   2.606
 3251SOL    HW210653   3.988   1.169   2.533
 3252SOL     OW10654   3.561   1.213   2.148
 3252SOL    HW110655   3.518   1.182   2.063
 3252SOL    HW210656   3.534   1.308   2.166
 3253SOL     OW10657   4.837   2.970   2.663
 3253SOL    HW110658   4.776   2.892   2.651
 3253SOL    HW210659   4.817   3.014   2.751
 3254SOL     OW10660   3.684   4.988   4.687
 3254SOL    HW110661   3.661   5.012   4.593
 3254SOL    HW210662   3.721   5.068   4.734
 3255SOL     OW10663   4.503   5.297   0.832
 3255SOL    HW110664   4.463   5.355   0.904
 3255SOL    HW210665   4.487   5.201   0.854
 3256SOL     OW10666   5.530   0.530   6.114
 3256SOL    HW110667   5.593   0.477   6.058
 3256SOL    HW210668   5.478   0.468   6.173
 3257SOL     OW10669   1.089   2.281   1.111
 3257SOL    HW110670   1.073   2.248   1.204
 3257SOL    HW210671   1.002   2.283   1.061
 3258SOL     OW10672   4.295   6.194   1.830
 3258SOL    HW110673   4.285   6.131   1.908
 3258SOL    HW210674   4.380   6.245   1.839
 3259SOL     OW10675   4.288   5.950   4.423
 3259SOL    HW110676   4.249   5.926   4.335
 3259SOL    HW210677   4.386   5.969   4.413
 3260SOL     OW10678   1.950   2.455   1.103
 3260SOL    HW110679   2.003   2.388   1.154
 3260SOL    HW210680   1.992   2.545   1.114
 3261SOL     OW10681   4.017   6.227   0.497
 3261SOL    HW110682   4.024   6.268   0.406
 3261SOL    HW210683   4.105   6.187   0.523
 3262SOL     OW10684   3.545   1.551   2.872
 3262SOL    HW110685   3.517   1.631   2.819
 3262SOL    HW210686   3.465   1.511   2.917
 3263SOL     OW10687   4.848   0.097   3.397
 3263SOL    HW110688   4.944   0.092   3.423
 3263SOL    HW210689   4.816   0.007   3.368
 3264SOL     OW10690   0.600   5.026   6.815
 3264SOL    HW110691   0.572   5.012   6.720
 3264SOL    HW210692   0.543   5.098   6.856
 3265SOL     OW10693   4.131   2.002   6.218
 3265SOL    HW110694   4.044   2.046   6.198
 3265SOL    HW210695   4.120   1.937   6.294
 3266SOL     OW10696   0.224   2.465   0.536
 3266SOL    HW110697   0.195   2.551   0.493
 3266SOL    HW210698   0.201   2.468   0.633
 3267SOL     OW10699   3.665   2.227   1.218
 3267SOL    HW110700   3.700   2.205   1.310
 3267SOL    HW210701   3.565   2.228   1.220
 3268SOL     OW10702   1.227   3.920   6.489
 3268SOL    HW110703   1.282   3.879   6.561
 3268SOL    HW210704   1.277   3.918   6.402
 3269SOL     OW10705   4.584   5.160   1.768
 3269SOL    HW110706   4.540   5.150   1.858
 3269SOL    HW210707   4.601   5.070   1.730
 3270SOL     OW10708   0.971   5.777   4.492
 3270SOL    HW110709   1.018   5.840   4.554
 3270SOL    HW210710   0.914   5.830   4.429
 3271SOL     OW10711   5.355   2.396   3.005
 3271SOL    HW110712   5.279   2.451   2.970
 3271SOL    HW210713   5.437   2.414   2.952
 3272SOL     OW10714   3.708   5.544   0.609
 3272SOL    HW110715   3.787   5.496   0.647
 3272SOL    HW210716   3.640   5.558   0.680
 3273SOL     OW10717   0.784   6.588   1.547
 3273SOL    HW110718   0.724   6.514   1.577
 3273SOL    HW210719   0.731   6.654   1.494
 3274SOL     OW10720   4.049   2.195   6.956
 3274SOL    HW110721   4.056   2.294   6.970
 3274SOL    HW210722   4.138   2.159   6.928
 3275SOL     OW10723   1.389   0.285   7.014
 3275SOL    HW110724   1.378   0.374   6.969
 3275SOL    HW210725   1.356   0.213   6.954
 3276SOL     OW10726   3.527   4.722   6.536
 3276SOL    HW110727   3.506   4.655   6.607
 3276SOL    HW210728   3.444   4.769   6.508
 3277SOL     OW10729   5.749   0.244   6.543
 3277SOL    HW110730   5.760   0.318   6.477
 3277SOL    HW210731   5.699   0.278   6.623
 3278SOL     OW10732   6.597   1.242   5.221
 3278SOL    HW110733   6.658   1.260   5.297
 3278SOL    HW210734   6.533   1.169   5.246
 3279SOL     OW10735   0.449   0.392   1.146
 3279SOL    HW110736   0.524   0.435   1.096
 3279SOL    HW210737   0.363   0.412   1.101
 3280SOL     OW10738   2.417   5.335   6.179
 3280SOL    HW110739   2.472   5.323   6.096
 3280SOL    HW210740   2.395   5.246   6.217
 3281SOL     OW10741   2.025   5.356   1.025
 3281SOL    HW110742   1.952   5.424   1.015
 3281SOL    HW210743   2.049   5.347   1.122
 3282SOL     OW10744   2.682   5.296   4.118
 3282SOL    HW110745   2.653   5.387   4.148
 3282SOL    HW210746   2.666   5.230   4.191
 3283SOL     OW10747   3.005   1.756   2.328
 3283SOL    HW110748   3.019   1.803   2.415
 3283SOL    HW210749   2.912   1.720   2.324
 3284SOL     OW10750   6.434   0.003   6.774
 3284SOL    HW110751   6.366   0.066   6.809
 3284SOL    HW210752   6.503   7.010   6.844
 3285SOL     OW10753   6.954   2.735   3.288
 3285SOL    HW110754   6.887   2.662   3.276
 3285SOL    HW210755   0.004   2.723   3.224
 3286SOL     OW10756   3.931   3.138   3.673
 3286SOL    HW110757   3.934   3.043   3.643
 3286SOL    HW210758   3.941   3.142   3.772
 3287SOL     OW10759   0.891   6.010   0.449
 3287SOL    HW110760   0.920   6.034   0.356
 3287SOL    HW210761   0.948   5.936   0.484
 3288SOL     OW10762   0.490   5.804   0.011
 3288SOL    HW110763   0.455   5.871   6.970
 3288SOL    HW210764   0.478   5.712   6.999
 3289SOL     OW10765   1.351   6.526   5.607
 3289SOL    HW110766   1.442   6.527   5.648
 3289SOL    HW210767   1.303   6.442   5.632
 3290SOL     OW10768   0.598   6.818   1.714
 3290SOL    HW110769   0.502   6.790   1.703
 3290SOL    HW210770   0.641   6.763   1.785
 3291SOL     OW10771   1.181   6.479   6.703
 3291SOL    HW110772   1.096   6.528   6.719
 3291SOL    HW210773   1.257   6.528   6.746
 3292SOL     OW10774   0.657   1.391   6.941
 3292SOL    HW110775   0.731   1.443   6.897
 3292SOL    HW210776   0.585   1.454   6.969
 3293SOL     OW10777   6.713   2.285   3.082
 3293SOL    HW110778   6.740   2.248   2.993
 3293SOL    HW210779   6.719   2.213   3.151
 3294SOL     OW10780   0.004   0.527   6.489
 3294SOL    HW110781   6.988   0.582   6.562
 3294SOL    HW210782   6.959   0.470   6.447
 3295SOL     OW10783   2.429   1.918   1.003
 3295SOL    HW110784   2.431   1.923   1.103
 3295SOL    HW210785   2.483   1.992   0.964
 3296SOL     OW10786   2.347   6.633   1.082
 3296SOL    HW110787   2.326   6.667   0.990
 3296SOL    HW210788   2.271   6.576   1.114
 3297SOL     OW10789   3.105   1.587   4.670
 3297SOL    HW110790   3.009   1.594   4.698
 3297SOL    HW210791   3.119   1.500   4.623
 3298SOL     OW10792   6.179   3.430   2.814
 3298SOL    HW110793   6.159   3.394   2.723
 3298SOL    HW210794   6.214   3.523   2.807
 3299SOL     OW10795   2.061   6.890   3.653
 3299SOL    HW110796   1.984   6.926   3.705
 3299SOL    HW210797   2.063   6.790   3.662
 3300SOL     OW10798   6.616   0.387   6.090
 3300SOL    HW110799   6.706   0.414   6.057
 3300SOL    HW210800   6.619   0.374   6.189
 3301SOL     OW10801   1.467   3.886   3.613
 3301SOL    HW110802   1.404   3.839   3.675
 3301SOL    HW210803   1.558   3.844   3.619
 3302SOL     OW10804   1.230   5.072   4.373
 3302SOL    HW110805   1.173   5.154   4.369
 3302SOL    HW210806   1.236   5.041   4.468
 3303SOL     OW10807   3.096   2.808   1.827
 3303SOL    HW110808   3.126   2.777   1.917
 3303SOL    HW210809   3.161   2.775   1.758
 3304SOL     OW10810   1.261   4.831   3.613
 3304SOL    HW110811   1.326   4.798   3.544
 3304SOL    HW210812   1.185   4.767   3.620
 3305SOL     OW10813   2.625   1.755   2.538
 3305SOL    HW110814   2.601   1.662   2.566
 3305SOL    HW210815   2.624   1.761   2.438
 3306SOL     OW10816   1.986   4.235   3.211
 3306SOL    HW110817   1.942   4.266   3.294
 3306SOL    HW210818   2.020   4.313   3.159
 3307SOL     OW10819   6.840   5.942   6.662
 3307SOL    HW110820   6.861   5.845   6.670
 3307SOL    HW210821   6.897   5.982   6.590
 3308SOL     OW10822   4.525   5.719   0.056
 3308SOL    HW110823   4.438   5.711   0.007
 3308SOL    HW210824   4.547   5.633   0.101
 3309SOL     OW10825   0.522   5.343   2.787
 3309SOL    HW110826   0.507   5.437   2.755
 3309SOL    HW210827   0.601   5.341   2.849
 3310SOL     OW10828   0.013   3.897   2.923
 3310SOL    HW110829   6.982   3.917   3.003
 3310SOL    HW210830   0.022   3.979   2.867
 3311SOL     OW10831   2.583   5.157   0.744
 3311SOL    HW110832   2.622   5.079   0.696
 3311SOL    HW210833   2.610   5.242   0.697
 3312SOL     OW10834   2.731   4.136   6.262
 3312SOL    HW110835   2.818   4.169   6.298
 3312SOL    HW210836   2.677   4.095   6.336
 3313SOL     OW10837   0.804   5.197   3.215
 3313SOL    HW110838   0.904   5.194   3.218
 3313SOL    HW210839   0.768   5.104   3.219
 3314SOL     OW10840   1.698   2.446   4.792
 3314SOL    HW110841   1.729   2.540   4.807
 3314SOL    HW210842   1.776   2.384   4.789
 3315SOL     OW10843   6.947   2.899   4.223
 3315SOL    HW110844   0.021   2.895   4.212
 3315SOL    HW210845   6.925   2.930   4.316
 3316SOL     OW10846   3.719   1.568   5.845
 3316SOL    HW110847   3.647   1.634   5.824
 3316SOL    HW210848   3.688   1.508   5.919
 3317SOL     OW10849   4.659   2.829   1.726
 3317SOL    HW110850   4.645   2.907   1.787
 3317SOL    HW210851   4.600   2.753   1.754
 3318SOL     OW10852   2.507   6.909   6.435
 3318SOL    HW110853   2.487   7.001   6.468
 3318SOL    HW210854   2.557   6.858   6.506
 3319SOL     OW10855   6.815   6.650   3.693
 3319SOL    HW110856   6.744   6.655   3.623
 3319SOL    HW210857   6.884   6.719   3.675
 3320SOL     OW10858   5.558   1.355   5.753
 3320SOL    HW110859   5.641   1.405   5.727
 3320SOL    HW210860   5.571   1.316   5.844
 3321SOL     OW10861   3.147   2.986   2.172
 3321SOL    HW110862   3.088   3.014   2.096
 3321SOL    HW210863   3.238   2.963   2.137
 3322SOL     OW10864   4.370   2.157   1.653
 3322SOL    HW110865   4.368   2.062   1.683
 3322SOL    HW210866   4.461   2.178   1.615
 3323SOL     OW10867   2.353   4.044   0.039
 3323SOL    HW110868   2.292   3.969   0.015
 3323SOL    HW210869   2.387   4.031   0.132
 3324SOL     OW10870   1.382   4.335   0.055
 3324SOL    HW110871   1.482   4.329   0.066
 3324SOL    HW210872   1.340   4.358   0.143
 3325SOL     OW10873   2.459   3.240   0.175
 3325SOL    HW110874   2.440   3.143   0.193
 3325SOL    HW210875   2.536   3.248   0.112
 3326SOL     OW10876   5.358   2.050   1.519
 3326SOL    HW110877   5.438   1.990   1.516
 3326SOL    HW210878   5.387   2.145   1.527
 3327SOL     OW10879   2.191   6.375   1.069
 3327SOL    HW110880   2.233   6.348   1.156
 3327SOL    HW210881   2.092   6.379   1.080
 3328SOL     OW10882   4.691   1.727   1.989
 3328SOL    HW110883   4.721   1.792   2.059
 3328SOL    HW210884   4.591   1.726   1.985
 3329SOL     OW10885   4.634   0.276   5.091
 3329SOL    HW110886   4.597   0.205   5.151
 3329SOL    HW210887   4.565   0.347   5.076
 3330SOL     OW10888   5.965   6.977   2.216
 3330SOL    HW110889   5.979   6.890   2.264
 3330SOL    HW210890   5.871   6.982   2.182
 3331SOL     OW10891   1.291   3.501   3.024
 3331SOL    HW110892   1.274   3.500   3.122
 3331SOL    HW210893   1.386   3.474   3.006
 3332SOL     OW10894   5.988   4.210   0.393
 3332SOL    HW110895   6.040   4.205   0.308
 3332SOL    HW210896   5.994   4.122   0.441
 3333SOL     OW10897   3.056   3.660   6.648
 3333SOL    HW110898   3.066   3.735   6.714
 3333SOL    HW210899   2.964   3.663   6.609
 3334SOL     OW10900   1.629   2.967   1.789
 3334SOL    HW110901   1.706   2.962   1.852
 3334SOL    HW210902   1.634   2.892   1.723
 3335SOL     OW10903   4.185   5.325   5.401
 3335SOL    HW110904   4.238   5.400   5.361
 3335SOL    HW210905   4.193   5.329   5.501
 3336SOL     OW10906   2.157   0.124   4.205
 3336SOL    HW110907   2.192   0.067   4.279
 3336SOL    HW210908   2.234   0.164   4.155
 3337SOL     OW10909   3.475   3.215   2.147
 3337SOL    HW110910   3.535   3.255   2.077
 3337SOL    HW210911   3.531   3.167   2.215
 3338SOL     OW10912   0.641   2.383   1.746
 3338SOL    HW110913   0.657   2.471   1.701
 3338SOL    HW210914   0.589   2.399   1.831
 3339SOL     OW10915   2.078   0.005   5.852
 3339SOL    HW110916   2.051   0.100   5.835
 3339SOL    HW210917   2.012   6.988   5.914
 3340SOL     OW10918   4.857   0.562   4.242
 3340SOL    HW110919   4.940   0.507   4.255
 3340SOL    HW210920   4.778   0.511   4.276
 3341SOL     OW10921   2.541   4.522   3.217
 3341SOL    HW110922   2.564   4.425   3.210
 3341SOL    HW210923   2.602   4.575   3.158
 3342SOL     OW10924   6.853   0.660   2.994
 3342SOL    HW110925   6.896   0.585   2.944
 3342SOL    HW210926   6.826   0.732   2.930
 3343SOL     OW10927   5.140   5.360   6.311
 3343SOL    HW110928   5.177   5.443   6.352
 3343SOL    HW210929   5.100   5.383   6.222
 3344SOL     OW10930   6.351   3.270   2.946
 3344SOL    HW110931   6.390   3.197   2.889
 3344SOL    HW210932   6.310   3.339   2.887
 3345SOL     OW10933   0.668   3.729   6.740
 3345SOL    HW110934   0.707   3.713   6.831
 3345SOL    HW210935   0.601   3.657   6.720
 3346SOL     OW10936   2.153   0.802   6.895
 3346SOL    HW110937   2.186   0.888   6.935
 3346SOL    HW210938   2.135   0.737   6.969
 3347SOL     OW10939   1.402   2.255   5.923
 3347SOL    HW110940   1.499   2.258   5.948
 3347SOL    HW210941   1.364   2.347   5.926
 3348SOL     OW10942   3.923   3.988   5.801
 3348SOL    HW110943   3.953   4.075   5.841
 3348SOL    HW210944   3.893   4.004   5.706
 3349SOL     OW10945   1.923   4.334   3.518
 3349SOL    HW110946   2.020   4.345   3.538
 3349SOL    HW210947   1.899   4.236   3.519
 3350SOL     OW10948   1.050   3.901   5.814
 3350SOL    HW110949   1.108   3.944   5.745
 3350SOL    HW210950   0.961   3.879   5.773
 3351SOL     OW10951   5.736   0.894   1.577
 3351SOL    HW110952   5.717   0.897   1.479
 3351SOL    HW210953   5.831   0.920   1.593
 3352SOL     OW10954   5.226   2.940   0.615
 3352SOL    HW110955   5.215   2.846   0.586
 3352SOL    HW210956   5.228   2.944   0.715
 3353SOL     OW10957   1.964   0.125   0.755
 3353SOL    HW110958   1.997   0.144   0.663
 3353SOL    HW210959   1.990   0.032   0.782
 3354SOL     OW10960   4.114   3.255   5.029
 3354SOL    HW110961   4.063   3.187   4.976
 3354SOL    HW210962   4.105   3.235   5.126
 3355SOL     OW10963   2.470   1.620   5.818
 3355SOL    HW110964   2.401   1.629   5.747
 3355SOL    HW210965   2.436   1.560   5.890
 3356SOL     OW10966   0.801   6.741   6.603
 3356SOL    HW110967   0.860   6.661   6.620
 3356SOL    HW210968   0.858   6.819   6.577
 3357SOL     OW10969   3.366   3.938   1.279
 3357SOL    HW110970   3.434   4.011   1.293
 3357SOL    HW210971   3.412   3.850   1.281
 3358SOL     OW10972   5.724   1.134   3.381
 3358SOL    HW110973   5.686   1.221   3.349
 3358SOL    HW210974   5.755   1.144   3.476
 3359SOL     OW10975   0.270   4.962   3.777
 3359SOL    HW110976   0.343   5.023   3.807
 3359SOL    HW210977   0.286   4.935   3.682
 3360SOL     OW10978   0.895   2.218   6.502
 3360SOL    HW110979   0.921   2.192   6.596
 3360SOL    HW210980   0.977   2.221   6.445
 3361SOL     OW10981   0.745   0.237   4.578
 3361SOL    HW110982   0.801   0.159   4.604
 3361SOL    HW210983   0.790   0.321   4.607
 3362SOL     OW10984   4.308   1.456   3.619
 3362SOL    HW110985   4.346   1.389   3.555
 3362SOL    HW210986   4.244   1.410   3.681
 3363SOL     OW10987   0.013   3.254   1.974
 3363SOL    HW110988   6.957   3.243   1.916
 3363SOL    HW210989   7.018   3.319   2.047
 3364SOL     OW10990   1.235   4.590   2.204
 3364SOL    HW110991   1.143   4.601   2.241
 3364SOL    HW210992   1.299   4.646   2.257
 3365SOL     OW10993   1.930   2.710   4.369
 3365SOL    HW110994   1.942   2.629   4.312
 3365SOL    HW210995   2.006   2.772   4.354
 3366SOL     OW10996   6.401   3.996   3.688
 3366SOL    HW110997   6.463   4.062   3.645
 3366SOL    HW210998   6.450   3.944   3.758
 3367SOL     OW10999   3.230   3.549   3.838
 3367SOL    HW111000   3.140   3.512   3.816
 3367SOL    HW211001   3.301   3.497   3.791
 3368SOL     OW11002   0.804   5.888   6.493
 3368SOL    HW111003   0.900   5.900   6.517
 3368SOL    HW211004   0.774   5.797   6.520
 3369SOL     OW11005   4.543   1.975   1.439
 3369SOL    HW111006   4.587   1.976   1.528
 3369SOL    HW211007   4.606   2.013   1.370
 3370SOL     OW11008   6.070   6.755   1.894
 3370SOL    HW111009   6.105   6.789   1.981
 3370SOL    HW211010   6.145   6.743   1.830
 3371SOL     OW11011   2.136   3.754   1.933
 3371SOL    HW111012   2.061   3.699   1.896
 3371SOL    HW211013   2.208   3.694   1.968
 3372SOL     OW11014   6.649   2.325   0.548
 3372SOL    HW111015   6.712   2.391   0.590
 3372SOL    HW211016   6.697   2.277   0.475
 3373SOL     OW11017   0.683   2.011   2.348
 3373SOL    HW111018   0.605   2.029   2.408
 3373SOL    HW211019   0.714   2.097   2.308
 3374SOL     OW11020   0.749   0.285   3.750
 3374SOL    HW111021   0.768   0.317   3.658
 3374SOL    HW211022   0.793   0.196   3.764
 3375SOL     OW11023   6.913   4.532   0.525
 3375SOL    HW111024   6.953   4.441   0.536
 3375SOL    HW211025   6.832   4.540   0.583
 3376SOL     OW11026   2.918   3.621   5.181
 3376SOL    HW111027   2.893   3.578   5.094
 3376SOL    HW211028   2.865   3.580   5.255
 3377SOL     OW11029   6.769   5.398   4.304
 3377SOL    HW111030   6.766   5.489   4.344
 3377SOL    HW211031   6.835   5.342   4.353
 3378SOL     OW11032   0.392   0.037   6.964
 3378SOL    HW111033   0.324   6.995   6.992
 3378SOL    HW211034   0.417   0.021   6.868
 3379SOL     OW11035   0.774   2.879   4.728
 3379SOL    HW111036   0.709   2.803   4.720
 3379SOL    HW211037   0.725   2.962   4.752
 3380SOL     OW11038   4.188   5.018   5.552
 3380SOL    HW111039   4.144   4.937   5.513
 3380SOL    HW211040   4.271   5.039   5.500
 3381SOL     OW11041   0.449   2.782   1.673
 3381SOL    HW111042   0.537   2.737   1.658
 3381SOL    HW211043   0.383   2.747   1.607
 3382SOL     OW11044   0.245   3.041   1.009
 3382SOL    HW111045   0.323   3.085   0.964
 3382SOL    HW211046   0.165   3.047   0.951
 3383SOL     OW11047   3.409   5.142   0.053
 3383SOL    HW111048   3.420   5.235   0.016
 3383SOL    HW211049   3.472   5.130   0.130
 3384SOL     OW11050   2.854   4.582   1.131
 3384SOL    HW111051   2.830   4.492   1.165
 3384SOL    HW211052   2.844   4.649   1.204
 3385SOL     OW11053   6.677   3.114   3.736
 3385SOL    HW111054   6.739   3.055   3.789
 3385SOL    HW211055   6.660   3.198   3.788
 3386SOL     OW11056   6.427   4.842   0.211
 3386SOL    HW111057   6.441   4.743   0.202
 3386SOL    HW211058   6.346   4.859   0.266
 3387SOL     OW11059   5.027   0.854   3.106
 3387SOL    HW111060   4.933   0.882   3.085
 3387SOL    HW211061   5.060   0.905   3.186
 3388SOL     OW11062   5.110   4.594   1.359
 3388SOL    HW111063   5.124   4.519   1.294
 3388SOL    HW211064   5.152   4.570   1.447
 3389SOL     OW11065   6.488   5.576   6.874
 3389SOL    HW111066   6.484   5.665   6.919
 3389SOL    HW211067   6.395   5.545   6.854
 3390SOL     OW11068   4.155   6.482   6.290
 3390SOL    HW111069   4.125   6.395   6.252
 3390SOL    HW211070   4.084   6.551   6.274
 3391SOL     OW11071   5.411   2.085   3.479
 3391SOL    HW111072   5.374   2.176   3.458
 3391SOL    HW211073   5.507   2.082   3.451
 3392SOL     OW11074   3.166   6.801   4.251
 3392SOL    HW111075   3.123   6.827   4.338
 3392SOL    HW211076   3.159   6.702   4.239
 3393SOL     OW11077   5.144   6.859   0.047
 3393SOL    HW111078   5.192   6.896   0.127
 3393SOL    HW211079   5.202   6.791   0.004
 3394SOL     OW11080   3.753   5.141   0.791
 3394SOL    HW111081   3.756   5.219   0.853
 3394SOL    HW211082   3.780   5.171   0.699
 3395SOL     OW11083   4.688   1.678   3.409
 3395SOL    HW111084   4.653   1.750   3.349
 3395SOL    HW211085   4.768   1.636   3.366
 3396SOL     OW11086   5.360   0.790   3.562
 3396SOL    HW111087   5.337   0.866   3.622
 3396SOL    HW211088   5.384   0.824   3.471
 3397SOL     OW11089   2.334   5.972   5.938
 3397SOL    HW111090   2.346   6.046   6.004
 3397SOL    HW211091   2.374   5.888   5.974
 3398SOL     OW11092   0.484   0.810   5.679
 3398SOL    HW111093   0.522   0.818   5.771
 3398SOL    HW211094   0.399   0.863   5.673
 3399SOL     OW11095   6.682   5.151   3.272
 3399SOL    HW111096   6.674   5.083   3.345
 3399SOL    HW211097   6.749   5.120   3.205
 3400SOL     OW11098   6.260   3.695   6.416
 3400SOL    HW111099   6.333   3.694   6.347
 3400SOL    HW211100   6.216   3.784   6.418
 3401SOL     OW11101   6.432   3.716   6.215
 3401SOL    HW111102   6.435   3.806   6.171
 3401SOL    HW211103   6.423   3.645   6.146
 3402SOL     OW11104   6.797   5.587   0.848
 3402SOL    HW111105   6.842   5.510   0.802
 3402SOL    HW211106   6.706   5.558   0.879
 3403SOL     OW11107   4.822   5.536   6.385
 3403SOL    HW111108   4.829   5.486   6.472
 3403SOL    HW211109   4.729   5.529   6.349
 3404SOL     OW11110   5.189   2.990   6.429
 3404SOL    HW111111   5.198   3.084   6.397
 3404SOL    HW211112   5.173   2.929   6.351
 3405SOL     OW11113   5.877   5.378   5.953
 3405SOL    HW111114   5.900   5.451   5.888
 3405SOL    HW211115   5.796   5.404   6.004
 3406SOL     OW11116   2.142   3.757   2.642
 3406SOL    HW111117   2.173   3.787   2.551
 3406SOL    HW211118   2.128   3.837   2.700
 3407SOL     OW11119   2.543   4.525   0.769
 3407SOL    HW111120   2.552   4.533   0.868
 3407SOL    HW211121   2.448   4.506   0.745
 3408SOL     OW11122   4.680   2.769   4.281
 3408SOL    HW111123   4.593   2.720   4.287
 3408SOL    HW211124   4.752   2.706   4.251
 3409SOL     OW11125   3.340   6.450   0.497
 3409SOL    HW111126   3.421   6.434   0.442
 3409SOL    HW211127   3.268   6.490   0.441
 3410SOL     OW11128   5.712   6.394   2.857
 3410SOL    HW111129   5.711   6.381   2.757
 3410SOL    HW211130   5.804   6.378   2.892
 3411SOL     OW11131   0.308   2.725   0.364
 3411SOL    HW111132   0.287   2.811   0.318
 3411SOL    HW211133   0.292   2.649   0.301
 3412SOL     OW11134   5.274   3.930   1.237
 3412SOL    HW111135   5.295   3.860   1.306
 3412SOL    HW211136   5.181   3.915   1.203
 3413SOL     OW11137   6.403   2.009   6.686
 3413SOL    HW111138   6.400   2.025   6.785
 3413SOL    HW211139   6.330   2.061   6.642
 3414SOL     OW11140   3.527   2.148   6.017
 3414SOL    HW111141   3.605   2.104   6.062
 3414SOL    HW211142   3.449   2.086   6.017
 3415SOL     OW11143   1.826   1.820   4.105
 3415SOL    HW111144   1.912   1.870   4.098
 3415SOL    HW211145   1.760   1.874   4.157
 3416SOL     OW11146   6.329   0.218   6.943
 3416SOL    HW111147   6.252   0.184   6.997
 3416SOL    HW211148   6.400   0.254   7.004
 3417SOL     OW11149   0.464   6.982   2.385
 3417SOL    HW111150   0.560   6.954   2.381
 3417SOL    HW211151   0.448   0.009   2.469
 3418SOL     OW11152   3.767   5.654   3.274
 3418SOL    HW111153   3.743   5.741   3.317
 3418SOL    HW211154   3.843   5.612   3.323
 3419SOL     OW11155   4.180   5.731   6.122
 3419SOL    HW111156   4.086   5.735   6.158
 3419SOL    HW211157   4.216   5.639   6.133
 3420SOL     OW11158   4.806   2.960   3.834
 3420SOL    HW111159   4.892   2.924   3.799
 3420SOL    HW211160   4.770   2.899   3.905
 3421SOL     OW11161   5.331   1.477   3.228
 3421SOL    HW111162   5.300   1.546   3.292
 3421SOL    HW211163   5.397   1.518   3.164
 3422SOL     OW11164   2.325   0.339   0.236
 3422SOL    HW111165   2.304   0.278   0.159
 3422SOL    HW211166   2.348   0.430   0.201
 3423SOL     OW11167   0.856   4.215   6.073
 3423SOL    HW111168   0.863   4.115   6.072
 3423SOL    HW211169   0.783   4.243   6.135
 3424SOL     OW11170   4.101   0.074   1.530
 3424SOL    HW111171   4.116   0.135   1.453
 3424SOL    HW211172   4.007   0.039   1.527
 3425SOL     OW11173   4.690   4.977   1.593
 3425SOL    HW111174   4.672   4.958   1.496
 3425SOL    HW211175   4.682   4.893   1.646
 3426SOL     OW11176   5.023   3.337   0.831
 3426SOL    HW111177   5.063   3.425   0.807
 3426SOL    HW211178   5.005   3.284   0.748
 3427SOL     OW11179   0.766   2.240   2.220
 3427SOL    HW111180   0.803   2.316   2.273
 3427SOL    HW211181   0.799   2.246   2.126
 3428SOL     OW11182   4.957   4.702   5.890
 3428SOL    HW111183   4.966   4.799   5.866
 3428SOL    HW211184   4.995   4.646   5.817
 3429SOL     OW11185   0.771   1.082   1.128
 3429SOL    HW111186   0.832   1.009   1.099
 3429SOL    HW211187   0.727   1.123   1.048
 3430SOL     OW11188   1.789   4.907   6.147
 3430SOL    HW111189   1.768   4.982   6.085
 3430SOL    HW211190   1.862   4.851   6.108
 3431SOL     OW11191   1.975   6.923   2.147
 3431SOL    HW111192   1.885   6.904   2.108
 3431SOL    HW211193   2.031   6.840   2.142
 3432SOL     OW11194   2.315   4.834   6.251
 3432SOL    HW111195   2.296   4.750   6.302
 3432SOL    HW211196   2.373   4.813   6.172
 3433SOL     OW11197   2.090   0.799   6.424
 3433SOL    HW111198   2.150   0.879   6.432
 3433SOL    HW211199   2.000   0.821   6.460
 3434SOL     OW11200   2.778   2.158   1.948
 3434SOL    HW111201   2.860   2.140   1.893
 3434SOL    HW211202   2.785   2.249   1.987
 3435SOL     OW11203   2.473   1.292   0.384
 3435SOL    HW111204   2.485   1.195   0.408
 3435SOL    HW211205   2.421   1.337   0.457
 3436SOL     OW11206   4.355   5.208   7.016
 3436SOL    HW111207   4.274   5.160   6.982
 3436SOL    HW211208   4.329   5.273   0.062
 3437SOL     OW11209   1.561   6.841   5.817
 3437SOL    HW111210   1.615   6.826   5.734
 3437SOL    HW211211   1.523   6.753   5.848
 3438SOL     OW11212   0.496   3.699   1.503
 3438SOL    HW111213   0.451   3.635   1.564
 3438SOL    HW211214   0.582   3.731   1.544
 3439SOL     OW11215   2.600   5.725   3.284
 3439SOL    HW111216   2.668   5.692   3.350
 3439SOL    HW211217   2.586   5.823   3.297
 3440SOL     OW11218   4.068   3.768   4.138
 3440SOL    HW111219   4.039   3.672   4.132
 3440SOL    HW211220   4.125   3.781   4.219
 3441SOL     OW11221   7.010   6.450   6.283
 3441SOL    HW111222   6.986   6.356   6.262
 3441SOL    HW211223   0.084   6.462   6.274
 3442SOL     OW11224   3.255   3.409   0.749
 3442SOL    HW111225   3.201   3.338   0.793
 3442SOL    HW211226   3.276   3.382   0.655
 3443SOL     OW11227   3.284   5.459   2.732
 3443SOL    HW111228   3.235   5.541   2.703
 3443SOL    HW211229   3.382   5.479   2.742
 3444SOL     OW11230   5.525   4.714   1.265
 3444SOL    HW111231   5.530   4.644   1.335
 3444SOL    HW211232   5.582   4.688   1.187
 3445SOL     OW11233   0.120   5.227   4.166
 3445SOL    HW111234   0.211   5.216   4.127
 3445SOL    HW211235   0.119   5.192   4.260
 3446SOL     OW11236   5.534   0.315   1.587
 3446SOL    HW111237   5.578   0.383   1.645
 3446SOL    HW211238   5.551   0.224   1.624
 3447SOL     OW11239   5.517   1.289   0.200
 3447SOL    HW111240   5.531   1.194   0.171
 3447SOL    HW211241   5.421   1.302   0.223
 3448SOL     OW11242   2.012   6.445   5.994
 3448SOL    HW111243   2.096   6.434   5.941
 3448SOL    HW211244   1.996   6.542   6.012
 3449SOL     OW11245   5.334   5.118   5.413
 3449SOL    HW111246   5.318   5.189   5.482
 3449SOL    HW211247   5.428   5.125   5.379
 3450SOL     OW11248   1.603   0.680   6.671
 3450SOL    HW111249   1.658   0.650   6.750
 3450SOL    HW211250   1.607   0.780   6.665
 3451SOL     OW11251   1.654   5.727   0.651
 3451SOL    HW111252   1.571   5.778   0.628
 3451SOL    HW211253   1.634   5.629   0.655
 3452SOL     OW11254   6.001   0.837   6.093
 3452SOL    HW111255   6.080   0.784   6.062
 3452SOL    HW211256   5.997   0.834   6.193
 3453SOL     OW11257   5.441   6.510   6.441
 3453SOL    HW111258   5.377   6.532   6.367
 3453SOL    HW211259   5.514   6.452   6.406
 3454SOL     OW11260   1.384   3.000   3.976
 3454SOL    HW111261   1.388   3.099   3.991
 3454SOL    HW211262   1.361   2.954   4.062
 3455SOL     OW11263   2.319   1.916   4.604
 3455SOL    HW111264   2.275   1.881   4.521
 3455SOL    HW211265   2.402   1.966   4.580
 3456SOL     OW11266   4.672   4.551   1.949
 3456SOL    HW111267   4.633   4.464   1.980
 3456SOL    HW211268   4.716   4.597   2.027
 3457SOL     OW11269   3.967   5.102   5.003
 3457SOL    HW111270   3.960   5.085   5.101
 3457SOL    HW211271   3.903   5.174   4.977
 3458SOL     OW11272   4.606   2.163   2.289
 3458SOL    HW111273   4.565   2.164   2.380
 3458SOL    HW211274   4.698   2.202   2.294
 3459SOL     OW11275   5.234   1.650   3.745
 3459SOL    HW111276   5.263   1.732   3.696
 3459SOL    HW211277   5.299   1.630   3.818
 3460SOL     OW11278   3.364   1.922   5.278
 3460SOL    HW111279   3.327   2.015   5.284
 3460SOL    HW211280   3.409   1.898   5.364
 3461SOL     OW11281   5.508   5.095   6.923
 3461SOL    HW111282   5.546   5.146   6.847
 3461SOL    HW211283   5.445   5.152   6.974
 3462SOL     OW11284   1.347   3.739   5.954
 3462SOL    HW111285   1.369   3.820   5.901
 3462SOL    HW211286   1.322   3.664   5.893
 3463SOL     OW11287   0.626   3.883   0.939
 3463SOL    HW111288   0.613   3.791   0.975
 3463SOL    HW211289   0.575   3.894   0.854
 3464SOL     OW11290   0.423   4.581   6.816
 3464SOL    HW111291   0.494   4.617   6.756
 3464SOL    HW211292   0.466   4.527   6.889
 3465SOL     OW11293   1.993   1.785   1.759
 3465SOL    HW111294   2.024   1.695   1.791
 3465SOL    HW211295   2.004   1.791   1.660
 3466SOL     OW11296   6.761   5.262   5.876
 3466SOL    HW111297   6.808   5.336   5.829
 3466SOL    HW211298   6.814   5.234   5.956
 3467SOL     OW11299   2.101   1.900   6.692
 3467SOL    HW111300   2.156   1.830   6.737
 3467SOL    HW211301   2.154   1.985   6.686
 3468SOL     OW11302   2.922   5.258   2.990
 3468SOL    HW111303   2.906   5.241   2.892
 3468SOL    HW211304   3.009   5.305   3.002
 3469SOL     OW11305   6.186   2.308   4.151
 3469SOL    HW111306   6.218   2.291   4.058
 3469SOL    HW211307   6.122   2.386   4.151
 3470SOL     OW11308   0.765   5.288   1.094
 3470SOL    HW111309   0.710   5.210   1.064
 3470SOL    HW211310   0.836   5.256   1.158
 3471SOL     OW11311   4.330   5.398   5.060
 3471SOL    HW111312   4.346   5.418   5.157
 3471SOL    HW211313   4.410   5.350   5.023
 3472SOL     OW11314   2.276   1.255   3.983
 3472SOL    HW111315   2.324   1.198   3.917
 3472SOL    HW211316   2.242   1.199   4.058
 3473SOL     OW11317   5.409   1.959   5.968
 3473SOL    HW111318   5.425   2.046   5.923
 3473SOL    HW211319   5.464   1.953   6.051
 3474SOL     OW11320   3.081   4.752   1.487
 3474SOL    HW111321   3.018   4.824   1.519
 3474SOL    HW211322   3.082   4.677   1.552
 3475SOL     OW11323   1.010   6.800   3.749
 3475SOL    HW111324   1.106   6.793   3.777
 3475SOL    HW211325   0.959   6.722   3.785
 3476SOL     OW11326   3.757   0.391   4.868
 3476SOL    HW111327   3.684   0.346   4.816
 3476SOL    HW211328   3.790   0.329   4.939
 3477SOL     OW11329   3.118   5.433   0.958
 3477SOL    HW111330   3.208   5.473   0.971
 3477SOL    HW211331   3.127   5.341   0.922
 3478SOL     OW11332   2.073   6.150   5.590
 3478SOL    HW111333   2.021   6.235   5.581
 3478SOL    HW211334   2.023   6.087   5.649
 3479SOL     OW11335   0.381   6.984   2.772
 3479SOL    HW111336   0.459   6.953   2.827
 3479SOL    HW211337   0.410   0.036   2.714
 3480SOL     OW11338   6.997   1.279   4.328
 3480SOL    HW111339   6.936   1.262   4.250
 3480SOL    HW211340   6.949   1.259   4.413
 3481SOL     OW11341   4.307   6.936   5.879
 3481SOL    HW111342   4.360   6.902   5.802
 3481SOL    HW211343   4.349   6.907   5.965
 3482SOL     OW11344   5.547   1.636   1.344
 3482SOL    HW111345   5.611   1.705   1.378
 3482SOL    HW211346   5.581   1.545   1.366
 3483SOL     OW11347   2.530   0.690   1.053
 3483SOL    HW111348   2.499   0.610   1.000
 3483SOL    HW211349   2.451   0.747   1.076
 3484SOL     OW11350   3.111   3.027   2.814
 3484SOL    HW111351   3.167   2.996   2.738
 3484SOL    HW211352   3.063   3.111   2.789
 3485SOL     OW11353   2.187   1.318   4.971
 3485SOL    HW111354   2.234   1.231   4.982
 3485SOL    HW211355   2.111   1.323   5.036
 3486SOL     OW11356   3.639   1.615   2.383
 3486SOL    HW111357   3.578   1.673   2.437
 3486SOL    HW211358   3.710   1.577   2.442
 3487SOL     OW11359   5.839   1.989   6.822
 3487SOL    HW111360   5.752   1.963   6.864
 3487SOL    HW211361   5.856   1.931   6.743
 3488SOL     OW11362   6.470   3.150   4.034
 3488SOL    HW111363   6.456   3.100   4.120
 3488SOL    HW211364   6.564   3.184   4.030
 3489SOL     OW11365   2.922   6.987   0.713
 3489SOL    HW111366   2.979   0.029   0.760
 3489SOL    HW211367   2.891   0.000   0.626
 3490SOL     OW11368   4.974   4.117   0.386
 3490SOL    HW111369   5.012   4.044   0.443
 3490SOL    HW211370   4.895   4.158   0.433
 3491SOL     OW11371   6.905   3.014   5.523
 3491SOL    HW111372   6.892   2.916   5.513
 3491SOL    HW211373   6.854   3.062   5.452
 3492SOL     OW11374   0.753   5.487   0.103
 3492SOL    HW111375   0.829   5.496   0.039
 3492SOL    HW211376   0.726   5.577   0.137
 3493SOL     OW11377   6.148   4.814   0.542
 3493SOL    HW111378   6.073   4.873   0.572
 3493SOL    HW211379   6.227   4.826   0.603
 3494SOL     OW11380   3.896   6.665   0.343
 3494SOL    HW111381   3.953   6.746   0.328
 3494SOL    HW211382   3.917   6.625   0.432
 3495SOL     OW11383   4.414   4.683   1.908
 3495SOL    HW111384   4.379   4.666   1.816
 3495SOL    HW211385   4.478   4.611   1.933
 3496SOL     OW11386   1.266   3.297   1.637
 3496SOL    HW111387   1.304   3.320   1.727
 3496SOL    HW211388   1.217   3.376   1.600
 3497SOL     OW11389   3.999   0.338   3.221
 3497SOL    HW111390   4.001   0.305   3.126
 3497SOL    HW211391   4.003   0.261   3.284
 3498SOL     OW11392   2.913   2.026   1.278
 3498SOL    HW111393   2.968   1.971   1.341
 3498SOL    HW211394   2.816   2.004   1.292
 3499SOL     OW11395   6.898   3.468   4.592
 3499SOL    HW111396   6.860   3.556   4.561
 3499SOL    HW211397   6.956   3.483   4.672
 3500SOL     OW11398   6.829   4.410   6.121
 3500SOL    HW111399   6.745   4.452   6.087
 3500SOL    HW211400   6.896   4.481   6.143
 3501SOL     OW11401   0.435   4.772   4.930
 3501SOL    HW111402   0.520   4.774   4.878
 3501SOL    HW211403   0.406   4.865   4.950
 3502SOL     OW11404   0.410   1.922   1.857
 3502SOL    HW111405   0.427   1.950   1.951
 3502SOL    HW211406   0.385   1.825   1.855
 3503SOL     OW11407   4.780   6.074   5.116
 3503SOL    HW111408   4.698   6.016   5.114
 3503SOL    HW211409   4.837   6.049   5.195
 3504SOL     OW11410   2.559   3.495   1.217
 3504SOL    HW111411   2.566   3.404   1.175
 3504SOL    HW211412   2.650   3.533   1.230
 3505SOL     OW11413   5.166   5.890   5.101
 3505SOL    HW111414   5.130   5.982   5.091
 3505SOL    HW211415   5.262   5.888   5.071
 3506SOL     OW11416   4.103   5.850   4.583
 3506SOL    HW111417   4.140   5.914   4.515
 3506SOL    HW211418   4.127   5.757   4.556
 3507SOL     OW11419   1.357   0.768   6.514
 3507SOL    HW111420   1.340   0.859   6.478
 3507SOL    HW211421   1.328   0.764   6.610
 3508SOL     OW11422   5.025   2.399   0.016
 3508SOL    HW111423   4.959   2.415   0.089
 3508SOL    HW211424   5.039   2.301   0.005
 3509SOL     OW11425   6.273   6.191   0.051
 3509SOL    HW111426   6.356   6.152   0.090
 3509SOL    HW211427   6.270   6.173   6.978
 3510SOL     OW11428   1.750   2.271   2.040
 3510SOL    HW111429   1.693   2.349   2.019
 3510SOL    HW211430   1.795   2.239   1.956
 3511SOL     OW11431   1.401   3.599   0.037
 3511SOL    HW111432   1.350   3.682   0.059
 3511SOL    HW211433   1.456   3.614   6.980
 3512SOL     OW11434   0.972   3.821   0.367
 3512SOL    HW111435   0.962   3.761   0.287
 3512SOL    HW211436   0.907   3.793   0.438
 3513SOL     OW11437   6.674   4.470   0.677
 3513SOL    HW111438   6.602   4.436   0.617
 3513SOL    HW211439   6.716   4.393   0.726
 3514SOL     OW11440   0.373   6.582   1.320
 3514SOL    HW111441   0.332   6.635   1.245
 3514SOL    HW211442   0.459   6.541   1.288
 3515SOL     OW11443   3.562   5.707   2.649
 3515SOL    HW111444   3.486   5.772   2.645
 3515SOL    HW211445   3.648   5.757   2.661
 3516SOL     OW11446   3.200   0.505   0.661
 3516SOL    HW111447   3.118   0.531   0.611
 3516SOL    HW211448   3.182   0.422   0.714
 3517SOL     OW11449   0.648   1.578   0.486
 3517SOL    HW111450   0.668   1.536   0.398
 3517SOL    HW211451   0.716   1.648   0.506
 3518SOL     OW11452   5.035   3.984   6.031
 3518SOL    HW111453   4.938   3.962   6.021
 3518SOL    HW211454   5.090   3.902   6.015
 3519SOL     OW11455   0.935   6.171   6.938
 3519SOL    HW111456   0.836   6.178   6.926
 3519SOL    HW211457   0.960   6.076   6.956
 3520SOL     OW11458   4.125   4.320   1.295
 3520SOL    HW111459   4.143   4.230   1.257
 3520SOL    HW211460   4.028   4.341   1.287
 3521SOL     OW11461   5.567   2.980   1.510
 3521SOL    HW111462   5.543   2.898   1.560
 3521SOL    HW211463   5.551   3.061   1.567
 3522SOL     OW11464   3.015   5.272   1.949
 3522SOL    HW111465   3.082   5.197   1.951
 3522SOL    HW211466   3.055   5.353   1.991
 3523SOL     OW11467   3.054   4.824   5.169
 3523SOL    HW111468   3.003   4.750   5.126
 3523SOL    HW211469   3.112   4.869   5.100
 3524SOL     OW11470   2.721   0.603   0.705
 3524SOL    HW111471   2.633   0.647   0.691
 3524SOL    HW211472   2.730   0.576   0.801
 3525SOL     OW11473   0.257   3.087   1.978
 3525SOL    HW111474   0.279   3.014   2.042
 3525SOL    HW211475   0.173   3.133   2.008
 3526SOL     OW11476   1.163   0.496   3.415
 3526SOL    HW111477   1.170   0.561   3.340
 3526SOL    HW211478   1.149   0.545   3.501
 3527SOL     OW11479   5.302   2.491   6.398
 3527SOL    HW111480   5.219   2.531   6.436
 3527SOL    HW211481   5.285   2.466   6.302
 3528SOL     OW11482   1.266   6.136   2.997
 3528SOL    HW111483   1.243   6.079   3.076
 3528SOL    HW211484   1.249   6.085   2.913
 3529SOL     OW11485   4.247   6.552   5.743
 3529SOL    HW111486   4.197   6.631   5.706
 3529SOL    HW211487   4.272   6.490   5.669
 3530SOL     OW11488   2.886   5.808   2.531
 3530SOL    HW111489   2.858   5.873   2.601
 3530SOL    HW211490   2.835   5.826   2.446
 3531SOL     OW11491   5.286   4.081   0.222
 3531SOL    HW111492   5.351   4.073   0.146
 3531SOL    HW211493   5.194   4.063   0.189
 3532SOL     OW11494   2.381   0.611   0.179
 3532SOL    HW111495   2.390   0.682   0.249
 3532SOL    HW211496   2.468   0.599   0.131
 3533SOL     OW11497   0.883   1.924   3.484
 3533SOL    HW111498   0.909   1.853   3.419
 3533SOL    HW211499   0.806   1.977   3.447
 3534SOL     OW11500   6.082   1.657   5.067
 3534SOL    HW111501   6.095   1.754   5.045
 3534SOL    HW211502   6.016   1.649   5.142
 3535SOL     OW11503   6.708   5.416   6.908
 3535SOL    HW111504   6.709   5.335   6.849
 3535SOL    HW211505   6.618   5.460   6.903
 3536SOL     OW11506   1.669   2.998   3.614
 3536SOL    HW111507   1.650   3.096   3.612
 3536SOL    HW211508   1.753   2.981   3.667
 3537SOL     OW11509   2.857   5.254   0.894
 3537SOL    HW111510   2.802   5.292   0.820
 3537SOL    HW211511   2.823   5.287   0.982
 3538SOL     OW11512   3.187   0.050   3.622
 3538SOL    HW111513   3.128   0.027   3.699
 3538SOL    HW211514   3.224   6.990   3.583
 3539SOL     OW11515   5.890   4.028   5.496
 3539SOL    HW111516   5.863   4.125   5.497
 3539SOL    HW211517   5.881   3.993   5.403
 3540SOL     OW11518   1.854   3.062   0.012
 3540SOL    HW111519   1.822   3.155   7.022
 3540SOL    HW211520   1.886   3.051   0.106
 3541SOL     OW11521   2.574   3.128   0.470
 3541SOL    HW111522   2.516   3.206   0.444
 3541SOL    HW211523   2.670   3.151   0.453
 3542SOL     OW11524   5.793   2.955   6.879
 3542SOL    HW111525   5.888   2.926   6.865
 3542SOL    HW211526   5.731   2.878   6.863
 3543SOL     OW11527   1.326   3.293   3.537
 3543SOL    HW111528   1.309   3.376   3.590
 3543SOL    HW211529   1.255   3.226   3.557
 3544SOL     OW11530   3.265   4.164   6.467
 3544SOL    HW111531   3.268   4.261   6.444
 3544SOL    HW211532   3.196   4.148   6.537
 3545SOL     OW11533   3.348   5.231   0.400
 3545SOL    HW111534   3.302   5.259   0.316
 3545SOL    HW211535   3.350   5.132   0.406
 3546SOL     OW11536   6.745   4.436   3.275
 3546SOL    HW111537   6.836   4.399   3.255
 3546SOL    HW211538   6.677   4.364   3.263
 3547SOL     OW11539   6.726   3.320   4.764
 3547SOL    HW111540   6.744   3.222   4.756
 3547SOL    HW211541   6.782   3.369   4.697
 3548SOL     OW11542   4.885   1.568   6.276
 3548SOL    HW111543   4.822   1.510   6.225
 3548SOL    HW211544   4.907   1.649   6.221
 3549SOL     OW11545   1.960   5.703   6.383
 3549SOL    HW111546   1.958   5.604   6.367
 3549SOL    HW211547   1.954   5.721   6.481
 3550SOL     OW11548   4.706   2.058   5.209
 3550SOL    HW111549   4.734   2.099   5.123
 3550SOL    HW211550   4.778   1.996   5.242
 3551SOL     OW11551   3.676   1.671   5.388
 3551SOL    HW111552   3.601   1.720   5.432
 3551SOL    HW211553   3.715   1.728   5.316
 3552SOL     OW11554   6.613   5.493   1.437
 3552SOL    HW111555   6.704   5.475   1.398
 3552SOL    HW211556   6.618   5.573   1.497
 3553SOL     OW11557   3.171   5.927   6.211
 3553SOL    HW111558   3.171   6.018   6.255
 3553SOL    HW211559   3.078   5.903   6.184
 3554SOL     OW11560   3.865   3.969   1.123
 3554SOL    HW111561   3.770   3.962   1.092
 3554SOL    HW211562   3.869   3.948   1.221
 3555SOL     OW11563   1.567   2.110   4.590
 3555SOL    HW111564   1.512   2.115   4.506
 3555SOL    HW211565   1.543   2.028   4.641
 3556SOL     OW11566   3.901   1.392   5.047
 3556SOL    HW111567   3.984   1.376   4.995
 3556SOL    HW211568   3.875   1.309   5.097
 3557SOL     OW11569   0.506   0.361   2.760
 3557SOL    HW111570   0.415   0.352   2.802
 3557SOL    HW211571   0.572   0.386   2.830
 3558SOL     OW11572   1.997   6.216   0.673
 3558SOL    HW111573   1.948   6.139   0.715
 3558SOL    HW211574   2.090   6.187   0.650
 3559SOL     OW11575   3.162   6.650   4.543
 3559SOL    HW111576   3.185   6.606   4.630
 3559SOL    HW211577   3.063   6.643   4.528
 3560SOL     OW11578   1.670   4.745   4.682
 3560SOL    HW111579   1.579   4.780   4.705
 3560SOL    HW211580   1.687   4.660   4.731
 3561SOL     OW11581   5.996   4.121   4.859
 3561SOL    HW111582   6.000   4.121   4.959
 3561SOL    HW211583   5.988   4.215   4.826
 3562SOL     OW11584   2.902   1.205   4.608
 3562SOL    HW111585   2.870   1.266   4.535
 3562SOL    HW211586   2.831   1.137   4.628
 3563SOL     OW11587   6.446   2.170   6.067
 3563SOL    HW111588   6.524   2.158   6.006
 3563SOL    HW211589   6.363   2.135   6.023
 3564SOL     OW11590   0.526   4.843   2.733
 3564SOL    HW111591   0.541   4.760   2.679
 3564SOL    HW211592   0.580   4.838   2.817
 3565SOL     OW11593   3.523   4.919   2.962
 3565SOL    HW111594   3.489   4.826   2.950
 3565SOL    HW211595   3.542   4.959   2.872
 3566SOL     OW11596   6.968   1.137   5.173
 3566SOL    HW111597   6.923   1.181   5.095
 3566SOL    HW211598   6.907   1.143   5.253
 3567SOL     OW11599   0.597   3.436   6.238
 3567SOL    HW111600   0.685   3.401   6.270
 3567SOL    HW211601   0.523   3.385   6.282
 3568SOL     OW11602   6.736   4.096   5.715
 3568SOL    HW111603   6.747   4.193   5.736
 3568SOL    HW211604   6.728   4.044   5.801
 3569SOL     OW11605   2.503   1.864   5.948
 3569SOL    HW111606   2.498   1.793   5.878
 3569SOL    HW211607   2.431   1.849   6.016
 3570SOL     OW11608   5.457   0.562   5.392
 3570SOL    HW111609   5.432   0.579   5.296
 3570SOL    HW211610   5.510   0.478   5.398
 3571SOL     OW11611   0.147   5.857   0.036
 3571SOL    HW111612   0.102   5.866   6.971
 3571SOL    HW211613   0.235   5.811   0.024
 3572SOL     OW11614   5.363   3.786   4.399
 3572SOL    HW111615   5.288   3.851   4.411
 3572SOL    HW211616   5.339   3.719   4.330
 3573SOL     OW11617   0.917   3.721   4.141
 3573SOL    HW111618   0.887   3.766   4.057
 3573SOL    HW211619   0.851   3.740   4.214
 3574SOL     OW11620   0.598   5.024   0.345
 3574SOL    HW111621   0.615   5.119   0.369
 3574SOL    HW211622   0.647   4.964   0.407
 3575SOL     OW11623   6.340   5.146   3.225
 3575SOL    HW111624   6.279   5.216   3.188
 3575SOL    HW211625   6.301   5.055   3.208
 3576SOL     OW11626   1.504   1.410   5.569
 3576SOL    HW111627   1.560   1.404   5.486
 3576SOL    HW211628   1.479   1.318   5.598
 3577SOL     OW11629   1.173   2.556   6.359
 3577SOL    HW111630   1.121   2.624   6.307
 3577SOL    HW211631   1.269   2.582   6.362
 3578SOL     OW11632   3.981   3.663   6.598
 3578SOL    HW111633   3.976   3.575   6.550
 3578SOL    HW211634   3.917   3.727   6.557
 3579SOL     OW11635   6.598   3.959   4.873
 3579SOL    HW111636   6.643   3.926   4.790
 3579SOL    HW211637   6.565   3.882   4.927
 3580SOL     OW11638   5.854   1.749   1.352
 3580SOL    HW111639   5.823   1.826   1.407
 3580SOL    HW211640   5.914   1.782   1.279
 3581SOL     OW11641   6.947   0.265   3.475
 3581SOL    HW111642   6.984   0.297   3.562
 3581SOL    HW211643   6.878   0.331   3.442
 3582SOL     OW11644   0.509   2.263   6.240
 3582SOL    HW111645   0.503   2.336   6.172
 3582SOL    HW211646   0.498   2.175   6.195
 3583SOL     OW11647   0.501   4.190   6.893
 3583SOL    HW111648   0.513   4.157   6.987
 3583SOL    HW211649   0.583   4.167   6.840
 3584SOL     OW11650   6.366   6.224   6.301
 3584SOL    HW111651   6.401   6.317   6.306
 3584SOL    HW211652   6.435   6.165   6.259
 3585SOL     OW11653   3.127   5.087   5.345
 3585SOL    HW111654   3.088   5.029   5.274
 3585SOL    HW211655   3.060   5.157   5.372
 3586SOL     OW11656   6.294   3.000   5.476
 3586SOL    HW111657   6.332   3.043   5.394
 3586SOL    HW211658   6.214   3.052   5.507
 3587SOL     OW11659   2.864   5.781   0.688
 3587SOL    HW111660   2.915   5.846   0.631
 3587SOL    HW211661   2.839   5.825   0.775
 3588SOL     OW11662   1.286   2.503   5.929
 3588SOL    HW111663   1.346   2.580   5.908
 3588SOL    HW211664   1.202   2.511   5.874
 3589SOL     OW11665   3.392   0.758   4.562
 3589SOL    HW111666   3.345   0.841   4.533
 3589SOL    HW211667   3.490   0.773   4.564
 3590SOL     OW11668   0.145   4.271   6.577
 3590SOL    HW111669   0.196   4.190   6.607
 3590SOL    HW211670   0.192   4.312   6.498
 3591SOL     OW11671   5.219   3.287   6.624
 3591SOL    HW111672   5.204   3.343   6.705
 3591SOL    HW211673   5.317   3.273   6.611
 3592SOL     OW11674   5.315   3.815   3.503
 3592SOL    HW111675   5.344   3.777   3.415
 3592SOL    HW211676   5.323   3.914   3.501
 3593SOL     OW11677   2.298   6.177   4.639
 3593SOL    HW111678   2.295   6.274   4.666
 3593SOL    HW211679   2.213   6.152   4.594
 3594SOL     OW11680   3.946   1.055   2.861
 3594SOL    HW111681   3.993   1.097   2.784
 3594SOL    HW211682   4.011   1.037   2.935
 3595SOL     OW11683   2.116   5.734   5.562
 3595SOL    HW111684   2.183   5.659   5.558
 3595SOL    HW211685   2.150   5.806   5.622
 3596SOL     OW11686   6.552   1.390   2.836
 3596SOL    HW111687   6.519   1.341   2.755
 3596SOL    HW211688   6.479   1.449   2.871
 3597SOL     OW11689   2.850   6.019   4.747
 3597SOL    HW111690   2.872   6.109   4.785
 3597SOL    HW211691   2.751   6.005   4.752
 3598SOL     OW11692   0.751   0.586   5.961
 3598SOL    HW111693   0.787   0.622   6.047
 3598SOL    HW211694   0.685   0.650   5.923
 3599SOL     OW11695   1.070   2.300   5.698
 3599SOL    HW111696   1.020   2.253   5.625
 3599SOL    HW211697   1.110   2.232   5.759
 3600SOL     OW11698   0.159   3.372   0.057
 3600SOL    HW111699   0.162   3.369   6.982
 3600SOL    HW211700   0.064   3.362   0.087
 3601SOL     OW11701   6.857   4.031   0.522
 3601SOL    HW111702   6.917   3.974   0.577
 3601SOL    HW211703   6.881   4.022   0.426
 3602SOL     OW11704   2.050   1.369   1.208
 3602SOL    HW111705   2.150   1.366   1.214
 3602SOL    HW211706   2.011   1.292   1.257
 3603SOL     OW11707   3.444   6.039   3.837
 3603SOL    HW111708   3.370   5.972   3.844
 3603SOL    HW211709   3.420   6.107   3.767
 3604SOL     OW11710   6.474   3.846   3.947
 3604SOL    HW111711   6.434   3.933   3.978
 3604SOL    HW211712   6.434   3.771   3.999
 3605SOL     OW11713   6.064   4.664   5.899
 3605SOL    HW111714   6.061   4.760   5.871
 3605SOL    HW211715   6.154   4.625   5.877
 3606SOL     OW11716   6.519   4.986   5.923
 3606SOL    HW111717   6.460   4.998   5.842
 3606SOL    HW211718   6.511   5.067   5.981
 3607SOL     OW11719   5.320   6.514   0.673
 3607SOL    HW111720   5.383   6.528   0.749
 3607SOL    HW211721   5.293   6.603   0.635
 3608SOL     OW11722   6.579   1.680   2.377
 3608SOL    HW111723   6.597   1.719   2.467
 3608SOL    HW211724   6.499   1.620   2.381
 3609SOL     OW11725   0.044   0.820   4.416
 3609SOL    HW111726   0.064   0.733   4.462
 3609SOL    HW211727   6.983   0.856   4.450
 3610SOL     OW11728   0.996   0.729   5.555
 3610SOL    HW111729   1.071   0.676   5.595
 3610SOL    HW211730   0.947   0.778   5.627
 3611SOL     OW11731   3.555   4.606   5.391
 3611SOL    HW111732   3.472   4.659   5.372
 3611SOL    HW211733   3.597   4.639   5.475
 3612SOL     OW11734   6.518   6.988   5.546
 3612SOL    HW111735   6.454   0.023   5.595
 3612SOL    HW211736   6.611   7.008   5.575
 3613SOL     OW11737   5.412   4.971   1.289
 3613SOL    HW111738   5.438   4.875   1.279
 3613SOL    HW211739   5.383   5.007   1.200
 3614SOL     OW11740   3.671   3.328   3.639
 3614SOL    HW111741   3.614   3.298   3.563
 3614SOL    HW211742   3.690   3.251   3.699
 3615SOL     OW11743   5.944   6.378   6.407
 3615SOL    HW111744   6.021   6.394   6.469
 3615SOL    HW211745   5.859   6.404   6.452
 3616SOL     OW11746   6.729   1.754   6.099
 3616SOL    HW111747   6.775   1.791   6.018
 3616SOL    HW211748   6.754   1.809   6.179
 3617SOL     OW11749   5.253   1.360   6.377
 3617SOL    HW111750   5.287   1.398   6.463
 3617SOL    HW211751   5.233   1.435   6.314
 3618SOL     OW11752   1.446   2.036   5.482
 3618SOL    HW111753   1.429   2.133   5.466
 3618SOL    HW211754   1.537   2.012   5.449
 3619SOL     OW11755   6.376   1.773   3.720
 3619SOL    HW111756   6.310   1.729   3.658
 3619SOL    HW211757   6.467   1.772   3.679
 3620SOL     OW11758   6.102   6.535   5.982
 3620SOL    HW111759   6.126   6.632   5.987
 3620SOL    HW211760   6.073   6.513   5.889
 3621SOL     OW11761   2.435   2.406   5.973
 3621SOL    HW111762   2.533   2.402   5.954
 3621SOL    HW211763   2.387   2.444   5.894
 3622SOL     OW11764   2.168   2.257   3.133
 3622SOL    HW111765   2.181   2.355   3.115
 3622SOL    HW211766   2.095   2.222   3.075
 3623SOL     OW11767   6.056   5.704   3.905
 3623SOL    HW111768   6.087   5.756   3.825
 3623SOL    HW211769   6.126   5.706   3.976
 3624SOL     OW11770   2.476   6.308   2.336
 3624SOL    HW111771   2.502   6.286   2.429
 3624SOL    HW211772   2.557   6.310   2.277
 3625SOL     OW11773   6.283   3.201   6.915
 3625SOL    HW111774   6.202   3.255   6.892
 3625SOL    HW211775   6.357   3.263   6.943
 3626SOL     OW11776   1.464   4.014   5.450
 3626SOL    HW111777   1.382   4.014   5.394
 3626SOL    HW211778   1.541   3.978   5.398
 3627SOL     OW11779   3.890   2.992   3.200
 3627SOL    HW111780   3.962   3.061   3.191
 3627SOL    HW211781   3.914   2.911   3.147
 3628SOL     OW11782   2.502   6.927   1.737
 3628SOL    HW111783   2.587   6.928   1.791
 3628SOL    HW211784   2.520   6.886   1.648
 3629SOL     OW11785   6.238   2.327   4.586
 3629SOL    HW111786   6.227   2.287   4.495
 3629SOL    HW211787   6.335   2.343   4.604
 3630SOL     OW11788   5.667   3.055   3.789
 3630SOL    HW111789   5.692   3.136   3.843
 3630SOL    HW211790   5.658   3.081   3.693
 3631SOL     OW11791   1.715   0.242   3.900
 3631SOL    HW111792   1.744   0.299   3.823
 3631SOL    HW211793   1.616   0.228   3.896
 3632SOL     OW11794   5.096   0.373   0.434
 3632SOL    HW111795   5.193   0.381   0.456
 3632SOL    HW211796   5.084   0.313   0.355
 3633SOL     OW11797   2.860   1.917   5.951
 3633SOL    HW111798   2.924   1.987   5.982
 3633SOL    HW211799   2.800   1.954   5.881
 3634SOL     OW11800   0.823   5.686   5.325
 3634SOL    HW111801   0.916   5.680   5.363
 3634SOL    HW211802   0.793   5.596   5.297
 3635SOL     OW11803   2.439   0.083   5.574
 3635SOL    HW111804   2.532   0.066   5.607
 3635SOL    HW211805   2.440   0.158   5.508
 3636SOL     OW11806   1.105   5.995   6.002
 3636SOL    HW111807   1.111   6.073   6.064
 3636SOL    HW211808   1.010   5.983   5.972
 3637SOL     OW11809   6.759   1.594   1.345
 3637SOL    HW111810   6.802   1.669   1.394
 3637SOL    HW211811   6.750   1.618   1.248
 3638SOL     OW11812   6.848   4.709   4.747
 3638SOL    HW111813   6.873   4.782   4.685
 3638SOL    HW211814   6.924   4.644   4.755
 3639SOL     OW11815   4.346   3.921   0.997
 3639SOL    HW111816   4.389   3.831   0.989
 3639SOL    HW211817   4.413   3.991   0.974
 3640SOL     OW11818   3.665   0.000   6.747
 3640SOL    HW111819   3.757   0.027   6.717
 3640SOL    HW211820   3.672   6.945   6.806
 3641SOL     OW11821   4.737   2.455   4.403
 3641SOL    HW111822   4.764   2.480   4.495
 3641SOL    HW211823   4.785   2.513   4.337
 3642SOL     OW11824   4.595   0.717   6.619
 3642SOL    HW111825   4.678   0.671   6.589
 3642SOL    HW211826   4.618   0.804   6.661
 3643SOL     OW11827   2.471   5.664   4.819
 3643SOL    HW111828   2.427   5.574   4.826
 3643SOL    HW211829   2.425   5.718   4.749
 3644SOL     OW11830   0.240   0.803   1.525
 3644SOL    HW111831   0.188   0.758   1.598
 3644SOL    HW211832   0.287   0.733   1.471
 3645SOL     OW11833   5.816   1.145   3.618
 3645SOL    HW111834   5.853   1.237   3.625
 3645SOL    HW211835   5.814   1.103   3.709
 3646SOL     OW11836   6.915   4.960   6.556
 3646SOL    HW111837   6.861   4.991   6.634
 3646SOL    HW211838   6.855   4.913   6.490
 3647SOL     OW11839   2.405   3.342   0.419
 3647SOL    HW111840   2.424   3.315   0.325
 3647SOL    HW211841   2.306   3.342   0.435
 3648SOL     OW11842   3.145   5.409   2.962
 3648SOL    HW111843   3.198   5.444   2.885
 3648SOL    HW211844   3.107   5.485   3.015
 3649SOL     OW11845   4.659   3.129   1.605
 3649SOL    HW111846   4.601   3.085   1.673
 3649SOL    HW211847   4.682   3.064   1.533
 3650SOL     OW11848   0.209   5.550   0.263
 3650SOL    HW111849   0.140   5.605   0.218
 3650SOL    HW211850   0.273   5.514   0.195
 3651SOL     OW11851   0.378   6.033   3.273
 3651SOL    HW111852   0.323   5.999   3.197
 3651SOL    HW211853   0.361   5.977   3.354
 3652SOL     OW11854   5.771   6.136   3.103
 3652SOL    HW111855   5.787   6.134   3.202
 3652SOL    HW211856   5.673   6.125   3.085
 3653SOL     OW11857   6.709   0.565   3.199
 3653SOL    HW111858   6.762   0.604   3.123
 3653SOL    HW211859   6.640   0.631   3.228
 3654SOL     OW11860   1.769   6.873   0.491
 3654SOL    HW111861   1.707   6.921   0.554
 3654SOL    HW211862   1.861   6.872   0.530
 3655SOL     OW11863   1.178   0.053   3.613
 3655SOL    HW111864   1.104   7.020   3.579
 3655SOL    HW211865   1.246   7.021   3.658
 3656SOL     OW11866   1.595   3.470   2.221
 3656SOL    HW111867   1.576   3.556   2.268
 3656SOL    HW211868   1.693   3.463   2.201
 3657SOL     OW11869   4.970   5.496   6.139
 3657SOL    HW111870   4.959   5.588   6.100
 3657SOL    HW211871   4.939   5.496   6.234
 3658SOL     OW11872   1.230   6.023   3.491
 3658SOL    HW111873   1.159   6.002   3.558
 3658SOL    HW211874   1.214   6.113   3.452
 3659SOL     OW11875   3.084   3.121   5.435
 3659SOL    HW111876   3.119   3.093   5.524
 3659SOL    HW211877   3.001   3.070   5.414
 3660SOL     OW11878   4.818   6.865   2.522
 3660SOL    HW111879   4.746   6.921   2.481
 3660SOL    HW211880   4.807   6.865   2.621
 3661SOL     OW11881   4.654   1.715   6.307
 3661SOL    HW111882   4.721   1.644   6.327
 3661SOL    HW211883   4.583   1.679   6.246
 3662SOL     OW11884   4.710   0.891   3.628
 3662SOL    HW111885   4.749   0.811   3.673
 3662SOL    HW211886   4.635   0.927   3.684
 3663SOL     OW11887   2.041   1.697   0.723
 3663SOL    HW111888   1.981   1.777   0.719
 3663SOL    HW211889   1.986   1.616   0.746
 3664SOL     OW11890   4.799   2.292   1.398
 3664SOL    HW111891   4.732   2.269   1.468
 3664SOL    HW211892   4.783   2.385   1.364
 3665SOL     OW11893   0.527   5.775   5.669
 3665SOL    HW111894   0.607   5.804   5.617
 3665SOL    HW211895   0.506   5.844   5.738
 3666SOL     OW11896   1.978   4.228   2.538
 3666SOL    HW111897   1.892   4.277   2.548
 3666SOL    HW211898   1.992   4.204   2.442
 3667SOL     OW11899   6.481   0.501   0.583
 3667SOL    HW111900   6.526   0.591   0.587
 3667SOL    HW211901   6.537   0.433   0.631
 3668SOL     OW11902   1.602   0.581   2.232
 3668SOL    HW111903   1.682   0.631   2.263
 3668SOL    HW211904   1.528   0.645   2.213
 3669SOL     OW11905   5.989   0.948   4.304
 3669SOL    HW111906   6.031   1.016   4.365
 3669SOL    HW211907   6.010   0.856   4.338
 3670SOL     OW11908   2.509   4.193   0.799
 3670SOL    HW111909   2.510   4.209   0.700
 3670SOL    HW211910   2.475   4.100   0.817
 3671SOL     OW11911   6.363   0.282   4.237
 3671SOL    HW111912   6.454   0.292   4.196
 3671SOL    HW211913   6.372   0.241   4.328
 3672SOL     OW11914   5.305   1.713   1.244
 3672SOL    HW111915   5.254   1.644   1.193
 3672SOL    HW211916   5.380   1.669   1.294
 3673SOL     OW11917   3.677   6.883   5.638
 3673SOL    HW111918   3.612   6.905   5.711
 3673SOL    HW211919   3.699   6.967   5.587
 3674SOL     OW11920   0.239   0.033   5.151
 3674SOL    HW111921   0.219   0.122   5.109
 3674SOL    HW211922   0.175   0.016   5.226
 3675SOL     OW11923   2.157   3.143   4.888
 3675SOL    HW111924   2.221   3.074   4.921
 3675SOL    HW211925   2.113   3.188   4.966
 3676SOL     OW11926   4.503   4.846   4.775
 3676SOL    HW111927   4.507   4.862   4.676
 3676SOL    HW211928   4.408   4.836   4.803
 3677SOL     OW11929   1.290   6.657   3.295
 3677SOL    HW111930   1.223   6.656   3.221
 3677SOL    HW211931   1.351   6.578   3.286
 3678SOL     OW11932   0.850   3.816   3.879
 3678SOL    HW111933   0.918   3.834   3.808
 3678SOL    HW211934   0.782   3.751   3.844
 3679SOL     OW11935   1.649   0.937   3.510
 3679SOL    HW111936   1.631   1.027   3.471
 3679SOL    HW211937   1.563   0.896   3.540
 3680SOL     OW11938   5.430   2.175   3.808
 3680SOL    HW111939   5.479   2.117   3.744
 3680SOL    HW211940   5.335   2.186   3.777
 3681SOL     OW11941   0.671   0.647   4.997
 3681SOL    HW111942   0.634   0.731   4.958
 3681SOL    HW211943   0.696   0.663   5.093
 3682SOL     OW11944   5.854   2.550   6.739
 3682SOL    HW111945   5.850   2.450   6.737
 3682SOL    HW211946   5.848   2.586   6.646
 3683SOL     OW11947   6.908   6.654   4.211
 3683SOL    HW111948   6.992   6.666   4.157
 3683SOL    HW211949   6.857   6.576   4.176
 3684SOL     OW11950   1.753   3.559   0.158
 3684SOL    HW111951   1.805   3.566   0.243
 3684SOL    HW211952   1.710   3.647   0.139
 3685SOL     OW11953   6.676   6.483   6.361
 3685SOL    HW111954   6.741   6.411   6.384
 3685SOL    HW211955   6.701   6.567   6.407
 3686SOL     OW11956   6.179   5.708   3.561
 3686SOL    HW111957   6.163   5.753   3.474
 3686SOL    HW211958   6.174   5.774   3.636
 3687SOL     OW11959   3.795   6.144   5.533
 3687SOL    HW111960   3.783   6.132   5.631
 3687SOL    HW211961   3.889   6.174   5.515
 3688SOL     OW11962   0.986   3.740   6.448
 3688SOL    HW111963   1.055   3.812   6.444
 3688SOL    HW211964   1.030   3.653   6.470
 3689SOL     OW11965   1.516   0.417   6.674
 3689SOL    HW111966   1.607   0.397   6.636
 3689SOL    HW211967   1.507   0.516   6.688
 3690SOL     OW11968   4.165   0.138   6.164
 3690SOL    HW111969   4.263   0.157   6.151
 3690SOL    HW211970   4.145   0.046   6.133
 3691SOL     OW11971   2.465   2.403   0.077
 3691SOL    HW111972   2.455   2.332   0.147
 3691SOL    HW211973   2.392   2.470   0.087
 3692SOL     OW11974   0.854   5.987   4.975
 3692SOL    HW111975   0.810   5.987   4.885
 3692SOL    HW211976   0.797   5.938   5.041
 3693SOL     OW11977   2.192   2.760   2.307
 3693SOL    HW111978   2.251   2.779   2.386
 3693SOL    HW211979   2.241   2.706   2.239
 3694SOL     OW11980   1.077   5.536   3.265
 3694SOL    HW111981   1.141   5.522   3.189
 3694SOL    HW211982   1.100   5.621   3.312
 3695SOL     OW11983   6.191   2.913   2.488
 3695SOL    HW111984   6.249   2.948   2.414
 3695SOL    HW211985   6.232   2.936   2.576
 3696SOL     OW11986   3.281   5.807   5.168
 3696SOL    HW111987   3.315   5.876   5.105
 3696SOL    HW211988   3.275   5.847   5.260
 3697SOL     OW11989   0.087   5.959   3.372
 3697SOL    HW111990   0.162   5.923   3.427
 3697SOL    HW211991   0.054   5.887   3.309
 3698SOL     OW11992   3.044   6.545   5.007
 3698SOL    HW111993   3.009   6.637   4.990
 3698SOL    HW211994   3.001   6.480   4.945
 3699SOL     OW11995   6.676   3.451   3.279
 3699SOL    HW111996   6.733   3.371   3.296
 3699SOL    HW211997   6.645   3.451   3.184
 3700SOL     OW11998   6.976   0.306   4.638
 3700SOL    HW111999   6.906   0.372   4.613
 3700SOL    HW212000   6.999   0.249   4.559
 3701SOL     OW12001   0.647   0.600   3.751
 3701SOL    HW112002   0.689   0.518   3.791
 3701SOL    HW212003   0.548   0.594   3.759
 3702SOL     OW12004   4.492   0.039   1.858
 3702SOL    HW112005   4.503   6.981   1.914
 3702SOL    HW212006   4.528   0.023   1.767
 3703SOL     OW12007   4.669   2.648   6.422
 3703SOL    HW112008   4.732   2.628   6.498
 3703SOL    HW212009   4.721   2.687   6.346
 3704SOL     OW12010   2.622   0.519   1.431
 3704SOL    HW112011   2.651   0.586   1.500
 3704SOL    HW212012   2.670   0.433   1.446
 3705SOL     OW12013   5.386   6.155   3.714
 3705SOL    HW112014   5.425   6.063   3.711
 3705SOL    HW212015   5.304   6.155   3.771
 3706SOL     OW12016   1.089   3.127   4.535
 3706SOL    HW112017   1.105   3.188   4.613
 3706SOL    HW212018   0.993   3.099   4.535
 3707SOL     OW12019   6.278   3.552   5.139
 3707SOL    HW112020   6.291   3.544   5.238
 3707SOL    HW212021   6.182   3.535   5.117
 3708SOL     OW12022   6.534   1.266   6.201
 3708SOL    HW112023   6.563   1.313   6.284
 3708SOL    HW212024   6.544   1.167   6.214
 3709SOL     OW12025   4.090   0.709   0.062
 3709SOL    HW112026   4.130   0.629   0.017
 3709SOL    HW212027   4.015   0.680   0.121
 3710SOL     OW12028   6.807   6.619   0.370
 3710SOL    HW112029   6.863   6.559   0.313
 3710SOL    HW212030   6.865   6.683   0.419
 3711SOL     OW12031   0.048   6.731   2.175
 3711SOL    HW112032   0.118   6.716   2.106
 3711SOL    HW212033   0.085   6.711   2.266
 3712SOL     OW12034   6.635   6.207   0.002
 3712SOL    HW112035   6.621   6.149   0.082
 3712SOL    HW212036   6.722   6.183   6.983
 3713SOL     OW12037   1.333   6.360   4.455
 3713SOL    HW112038   1.273   6.396   4.526
 3713SOL    HW212039   1.412   6.420   4.444
 3714SOL     OW12040   4.764   5.315   4.921
 3714SOL    HW112041   4.780   5.410   4.897
 3714SOL    HW212042   4.721   5.310   5.012
 3715SOL     OW12043   6.223   4.192   3.852
 3715SOL    HW112044   6.141   4.138   3.834
 3715SOL    HW212045   6.256   4.173   3.944
 3716SOL     OW12046   6.023   6.699   5.362
 3716SOL    HW112047   6.122   6.685   5.366
 3716SOL    HW212048   5.995   6.708   5.266
 3717SOL     OW12049   5.707   5.479   6.175
 3717SOL    HW112050   5.799   5.499   6.210
 3717SOL    HW212051   5.647   5.557   6.195
 3718SOL     OW12052   2.236   0.293   6.007
 3718SOL    HW112053   2.174   0.292   5.928
 3718SOL    HW212054   2.305   0.222   5.995
 3719SOL     OW12055   5.698   4.671   1.066
 3719SOL    HW112056   5.784   4.710   1.098
 3719SOL    HW212057   5.635   4.744   1.042
 3720SOL     OW12058   6.094   2.362   5.727
 3720SOL    HW112059   6.130   2.454   5.710
 3720SOL    HW212060   5.994   2.363   5.726
 3721SOL     OW12061   5.135   4.858   0.830
 3721SOL    HW112062   5.135   4.770   0.782
 3721SOL    HW212063   5.058   4.862   0.893
 3722SOL     OW12064   6.530   6.897   2.466
 3722SOL    HW112065   6.559   6.932   2.377
 3722SOL    HW212066   6.514   6.974   2.528
 3723SOL     OW12067   5.939   6.189   1.423
 3723SOL    HW112068   5.907   6.283   1.435
 3723SOL    HW212069   6.036   6.183   1.445
 3724SOL     OW12070   2.004   5.435   6.558
 3724SOL    HW112071   1.949   5.385   6.625
 3724SOL    HW212072   1.969   5.416   6.466
 3725SOL     OW12073   5.474   5.730   0.489
 3725SOL    HW112074   5.498   5.692   0.578
 3725SOL    HW212075   5.554   5.723   0.428
 3726SOL     OW12076   6.478   5.127   0.488
 3726SOL    HW112077   6.469   5.222   0.518
 3726SOL    HW212078   6.437   5.066   0.556
 3727SOL     OW12079   6.976   2.662   6.158
 3727SOL    HW112080   7.003   2.566   6.162
 3727SOL    HW212081   6.891   2.675   6.209
 3728SOL     OW12082   1.471   3.936   0.404
 3728SOL    HW112083   1.499   4.027   0.433
 3728SOL    HW212084   1.379   3.940   0.365
 3729SOL     OW12085   1.790   2.301   3.444
 3729SOL    HW112086   1.836   2.220   3.409
 3729SOL    HW212087   1.707   2.274   3.493
 3730SOL     OW12088   2.686   5.145   6.207
 3730SOL    HW112089   2.730   5.227   6.245
 3730SOL    HW212090   2.739   5.111   6.130
 3731SOL     OW12091   4.468   0.233   0.681
 3731SOL    HW112092   4.545   0.210   0.740
 3731SOL    HW212093   4.450   0.157   0.619
 3732SOL     OW12094   1.417   2.360   6.770
 3732SOL    HW112095   1.486   2.373   6.700
 3732SOL    HW212096   1.440   2.279   6.824
 3733SOL     OW12097   1.378   3.684   1.781
 3733SOL    HW112098   1.331   3.766   1.748
 3733SOL    HW212099   1.312   3.624   1.826
 3734SOL     OW12100   4.160   1.471   1.937
 3734SOL    HW112101   4.112   1.485   2.023
 3734SOL    HW212102   4.096   1.433   1.870
 3735SOL     OW12103   1.701   1.197   3.659
 3735SOL    HW112104   1.720   1.289   3.625
 3735SOL    HW212105   1.778   1.137   3.636
 3736SOL     OW12106   6.597   2.872   1.309
 3736SOL    HW112107   6.511   2.821   1.317
 3736SOL    HW212108   6.619   2.885   1.213
 3737SOL     OW12109   5.264   0.199   2.984
 3737SOL    HW112110   5.203   0.220   3.060
 3737SOL    HW212111   5.279   0.281   2.929
 3738SOL     OW12112   6.877   6.188   2.291
 3738SOL    HW112113   6.931   6.246   2.231
 3738SOL    HW212114   6.888   6.092   2.264
 3739SOL     OW12115   1.950   4.892   1.680
 3739SOL    HW112116   1.882   4.928   1.744
 3739SOL    HW212117   1.933   4.794   1.665
 3740SOL     OW12118   4.448   0.276   0.232
 3740SOL    HW112119   4.512   0.201   0.217
 3740SOL    HW212120   4.498   0.356   0.266
 3741SOL     OW12121   4.460   3.299   1.606
 3741SOL    HW112122   4.552   3.268   1.582
 3741SOL    HW212123   4.406   3.223   1.641
 3742SOL     OW12124   2.337   2.132   6.088
 3742SOL    HW112125   2.436   2.122   6.099
 3742SOL    HW212126   2.317   2.217   6.039
 3743SOL     OW12127   5.780   4.260   0.723
 3743SOL    HW112128   5.696   4.280   0.773
 3743SOL    HW212129   5.805   4.338   0.666
 3744SOL     OW12130   0.699   5.909   2.801
 3744SOL    HW112131   0.646   5.904   2.885
 3744SOL    HW212132   0.792   5.876   2.818
 3745SOL     OW12133   3.591   5.162   1.980
 3745SOL    HW112134   3.511   5.103   1.972
 3745SOL    HW212135   3.666   5.112   2.023
 3746SOL     OW12136   4.916   1.848   2.564
 3746SOL    HW112137   4.841   1.910   2.539
 3746SOL    HW212138   4.930   1.852   2.663
 3747SOL     OW12139   3.393   6.694   5.681
 3747SOL    HW112140   3.444   6.608   5.686
 3747SOL    HW212141   3.428   6.758   5.749
 3748SOL     OW12142   5.042   0.736   1.507
 3748SOL    HW112143   5.052   0.764   1.412
 3748SOL    HW212144   5.132   0.735   1.551
 3749SOL     OW12145   1.670   6.605   4.122
 3749SOL    HW112146   1.694   6.702   4.126
 3749SOL    HW212147   1.642   6.582   4.028
 3750SOL     OW12148   1.915   4.283   0.267
 3750SOL    HW112149   1.976   4.360   0.245
 3750SOL    HW212150   1.899   4.228   0.185
 3751SOL     OW12151   6.407   3.349   2.204
 3751SOL    HW112152   6.494   3.398   2.196
 3751SOL    HW212153   6.396   3.288   2.126
 3752SOL     OW12154   4.870   0.476   5.792
 3752SOL    HW112155   4.874   0.527   5.877
 3752SOL    HW212156   4.775   0.470   5.761
 3753SOL     OW12157   6.228   0.783   5.259
 3753SOL    HW112158   6.164   0.860   5.253
 3753SOL    HW212159   6.196   0.708   5.202
 3754SOL     OW12160   2.781   0.554   2.208
 3754SOL    HW112161   2.760   0.524   2.301
 3754SOL    HW212162   2.876   0.587   2.205
 3755SOL     OW12163   3.917   5.571   5.012
 3755SOL    HW112164   3.826   5.574   5.052
 3755SOL    HW212165   3.971   5.498   5.055
 3756SOL     OW12166   3.171   5.520   6.415
 3756SOL    HW112167   3.079   5.543   6.383
 3756SOL    HW212168   3.227   5.602   6.418
 3757SOL     OW12169   6.403   5.368   1.812
 3757SOL    HW112170   6.472   5.423   1.858
 3757SOL    HW212171   6.367   5.418   1.733
 3758SOL     OW12172   1.549   1.282   4.503
 3758SOL    HW112173   1.558   1.379   4.526
 3758SOL    HW212174   1.636   1.235   4.520
 3759SOL     OW12175   4.487   0.528   5.376
 3759SOL    HW112176   4.557   0.479   5.427
 3759SOL    HW212177   4.454   0.606   5.430
 3760SOL     OW12178   0.805   1.272   3.351
 3760SOL    HW112179   0.728   1.246   3.293
 3760SOL    HW212180   0.890   1.261   3.300
 3761SOL     OW12181   6.649   0.739   4.613
 3761SOL    HW112182   6.605   0.786   4.689
 3761SOL    HW212183   6.591   0.663   4.582
 3762SOL     OW12184   1.600   4.217   1.763
 3762SOL    HW112185   1.650   4.175   1.687
 3762SOL    HW212186   1.501   4.213   1.744
 3763SOL     OW12187   6.409   4.112   0.629
 3763SOL    HW112188   6.501   4.085   0.659
 3763SOL    HW212189   6.341   4.080   0.694
 3764SOL     OW12190   1.875   6.708   2.888
 3764SOL    HW112191   1.931   6.782   2.848
 3764SOL    HW212192   1.865   6.723   2.986
 3765SOL     OW12193   6.198   1.517   1.285
 3765SOL    HW112194   6.103   1.488   1.274
 3765SOL    HW212195   6.212   1.550   1.379
 3766SOL     OW12196   1.937   1.796   4.455
 3766SOL    HW112197   1.955   1.735   4.378
 3766SOL    HW212198   1.909   1.885   4.421
 3767SOL     OW12199   3.229   4.047   6.161
 3767SOL    HW112200   3.249   4.037   6.258
 3767SOL    HW212201   3.311   4.081   6.114
 3768SOL     OW12202   1.083   0.716   4.912
 3768SOL    HW112203   1.086   0.814   4.932
 3768SOL    HW212204   1.175   0.685   4.886
 3769SOL     OW12205   5.938   5.533   5.215
 3769SOL    HW112206   5.856   5.546   5.160
 3769SOL    HW212207   5.912   5.515   5.310
 3770SOL     OW12208   1.111   0.990   6.916
 3770SOL    HW112209   1.043   0.937   6.968
 3770SOL    HW212210   1.073   1.015   6.827
 3771SOL     OW12211   5.743   4.404   6.617
 3771SOL    HW112212   5.732   4.324   6.677
 3771SOL    HW212213   5.836   4.440   6.627
 3772SOL     OW12214   0.788   0.094   0.521
 3772SOL    HW112215   0.735   0.106   0.436
 3772SOL    HW212216   0.839   0.008   0.516
 3773SOL     OW12217   5.685   3.164   5.571
 3773SOL    HW112218   5.638   3.212   5.644
 3773SOL    HW212219   5.631   3.169   5.487
 3774SOL     OW12220   5.538   5.379   1.822
 3774SOL    HW112221   5.438   5.388   1.813
 3774SOL    HW212222   5.559   5.324   1.903
 3775SOL     OW12223   4.003   4.837   3.882
 3775SOL    HW112224   3.952   4.910   3.837
 3775SOL    HW212225   4.060   4.876   3.955
 3776SOL     OW12226   3.620   2.659   6.500
 3776SOL    HW112227   3.716   2.638   6.518
 3776SOL    HW212228   3.568   2.655   6.585
 3777SOL     OW12229   2.621   6.027   4.033
 3777SOL    HW112230   2.678   6.096   4.078
 3777SOL    HW212231   2.679   5.970   3.975
 3778SOL     OW12232   2.563   5.831   3.699
 3778SOL    HW112233   2.465   5.841   3.681
 3778SOL    HW212234   2.576   5.782   3.785
 3779SOL     OW12235   0.628   4.958   1.020
 3779SOL    HW112236   0.529   4.958   1.037
 3779SOL    HW212237   0.676   4.993   1.100
 3780SOL     OW12238   0.416   3.609   4.036
 3780SOL    HW112239   0.340   3.563   3.989
 3780SOL    HW212240   0.412   3.587   4.134
 3781SOL     OW12241   0.644   6.830   4.421
 3781SOL    HW112242   0.616   6.829   4.517
 3781SOL    HW212243   0.743   6.844   4.415
 3782SOL     OW12244   3.532   6.404   2.439
 3782SOL    HW112245   3.518   6.496   2.475
 3782SOL    HW212246   3.553   6.409   2.341
 3783SOL     OW12247   6.425   5.380   4.136
 3783SOL    HW112248   6.370   5.422   4.208
 3783SOL    HW212249   6.452   5.288   4.164
 3784SOL     OW12250   5.251   2.408   2.463
 3784SOL    HW112251   5.221   2.330   2.519
 3784SOL    HW212252   5.229   2.493   2.510
 3785SOL     OW12253   1.155   3.190   4.985
 3785SOL    HW112254   1.140   3.119   5.054
 3785SOL    HW212255   1.154   3.280   5.028
 3786SOL     OW12256   2.088   3.693   3.211
 3786SOL    HW112257   2.007   3.683   3.153
 3786SOL    HW212258   2.087   3.621   3.281
 3787SOL     OW12259   5.640   0.602   2.778
 3787SOL    HW112260   5.618   0.656   2.859
 3787SOL    HW212261   5.575   0.622   2.705
 3788SOL     OW12262   6.209   4.807   5.096
 3788SOL    HW112263   6.131   4.744   5.092
 3788SOL    HW212264   6.249   4.815   5.005
 3789SOL     OW12265   6.801   3.663   3.074
 3789SOL    HW112266   6.828   3.613   2.992
 3789SOL    HW212267   6.858   3.635   3.151
 3790SOL     OW12268   0.962   4.824   6.479
 3790SOL    HW112269   0.999   4.911   6.447
 3790SOL    HW212270   0.912   4.779   6.404
 3791SOL     OW12271   5.253   1.931   6.695
 3791SOL    HW112272   5.192   2.004   6.664
 3791SOL    HW212273   5.201   1.865   6.748
 3792SOL     OW12274   0.913   1.549   4.480
 3792SOL    HW112275   0.900   1.550   4.381
 3792SOL    HW212276   0.930   1.642   4.512
 3793SOL     OW12277   5.447   6.664   1.361
 3793SOL    HW112278   5.439   6.654   1.461
 3793SOL    HW212279   5.419   6.757   1.336
 3794SOL     OW12280   2.007   3.088   1.693
 3794SOL    HW112281   2.033   3.139   1.775
 3794SOL    HW212282   2.076   3.103   1.621
 3795SOL     OW12283   3.228   5.170   1.083
 3795SOL    HW112284   3.307   5.200   1.136
 3795SOL    HW212285   3.152   5.150   1.145
 3796SOL     OW12286   3.773   1.751   0.960
 3796SOL    HW112287   3.781   1.825   1.026
 3796SOL    HW212288   3.861   1.739   0.913
 3797SOL     OW12289   0.651   3.918   3.247
 3797SOL    HW112290   0.672   3.895   3.152
 3797SOL    HW212291   0.695   4.004   3.272
 3798SOL     OW12292   3.294   6.304   2.289
 3798SOL    HW112293   3.374   6.287   2.347
 3798SOL    HW212294   3.268   6.219   2.244
 3799SOL     OW12295   0.025   2.894   3.517
 3799SOL    HW112296   6.987   2.971   3.506
 3799SOL    HW212297   7.007   2.811   3.484
 3800SOL     OW12298   5.460   2.127   4.126
 3800SOL    HW112299   5.392   2.182   4.175
 3800SOL    HW212300   5.446   2.138   4.027
 3801SOL     OW12301   5.578   6.788   1.798
 3801SOL    HW112302   5.545   6.742   1.716
 3801SOL    HW212303   5.662   6.839   1.776
 3802SOL     OW12304   6.919   1.453   2.635
 3802SOL    HW112305   6.898   1.420   2.543
 3802SOL    HW212306   7.017   1.448   2.651
 3803SOL     OW12307   4.113   3.580   3.625
 3803SOL    HW112308   4.057   3.601   3.705
 3803SOL    HW212309   4.103   3.483   3.601
 3804SOL     OW12310   4.026   1.452   4.149
 3804SOL    HW112311   3.972   1.371   4.173
 3804SOL    HW212312   3.998   1.529   4.207
 3805SOL     OW12313   1.567   2.483   2.008
 3805SOL    HW112314   1.589   2.554   2.074
 3805SOL    HW212315   1.546   2.525   1.919
 3806SOL     OW12316   3.269   3.452   5.862
 3806SOL    HW112317   3.260   3.420   5.768
 3806SOL    HW212318   3.364   3.477   5.880
 3807SOL     OW12319   2.290   4.841   3.402
 3807SOL    HW112320   2.294   4.839   3.502
 3807SOL    HW212321   2.257   4.930   3.371
 3808SOL     OW12322   4.332   0.420   6.540
 3808SOL    HW112323   4.275   0.445   6.619
 3808SOL    HW212324   4.287   0.349   6.487
 3809SOL     OW12325   5.615   2.534   1.858
 3809SOL    HW112326   5.599   2.449   1.807
 3809SOL    HW212327   5.530   2.562   1.902
 3810SOL     OW12328   6.364   2.526   3.322
 3810SOL    HW112329   6.308   2.609   3.314
 3810SOL    HW212330   6.357   2.474   3.237
 3811SOL     OW12331   0.305   6.237   4.362
 3811SOL    HW112332   0.220   6.286   4.342
 3811SOL    HW212333   0.285   6.140   4.376
 3812SOL     OW12334   3.413   4.742   5.851
 3812SOL    HW112335   3.410   4.664   5.914
 3812SOL    HW212336   3.354   4.723   5.772
 3813SOL     OW12337   5.798   3.468   0.716
 3813SOL    HW112338   5.716   3.437   0.764
 3813SOL    HW212339   5.842   3.390   0.672
 3814SOL     OW12340   6.795   0.176   4.363
 3814SOL    HW112341   6.871   0.112   4.369
 3814SOL    HW212342   6.732   0.160   4.439
 3815SOL     OW12343   4.056   2.672   1.292
 3815SOL    HW112344   3.976   2.623   1.260
 3815SOL    HW212345   4.127   2.607   1.320
 3816SOL     OW12346   1.003   5.589   5.975
 3816SOL    HW112347   1.097   5.557   5.985
 3816SOL    HW212348   0.950   5.523   5.922
 3817SOL     OW12349   4.934   3.615   2.206
 3817SOL    HW112350   4.965   3.567   2.123
 3817SOL    HW212351   4.861   3.679   2.182
 3818SOL     OW12352   0.060   0.668   1.040
 3818SOL    HW112353   0.030   0.763   1.054
 3818SOL    HW212354   0.158   0.661   1.056
 3819SOL     OW12355   5.908   4.550   2.318
 3819SOL    HW112356   5.827   4.519   2.368
 3819SOL    HW212357   5.989   4.538   2.375
 3820SOL     OW12358   6.736   6.284   3.510
 3820SOL    HW112359   6.733   6.329   3.599
 3820SOL    HW212360   6.790   6.200   3.518
 3821SOL     OW12361   1.183   1.140   1.968
 3821SOL    HW112362   1.221   1.056   2.008
 3821SOL    HW212363   1.106   1.172   2.022
 3822SOL     OW12364   2.237   6.914   6.343
 3822SOL    HW112365   2.321   6.880   6.385
 3822SOL    HW212366   2.204   6.849   6.275
 3823SOL     OW12367   4.142   3.899   6.428
 3823SOL    HW112368   4.065   3.885   6.366
 3823SOL    HW212369   4.146   3.823   6.493
 3824SOL     OW12370   1.005   2.666   0.617
 3824SOL    HW112371   0.998   2.642   0.714
 3824SOL    HW212372   0.972   2.591   0.561
 3825SOL     OW12373   1.253   4.313   0.307
 3825SOL    HW112374   1.236   4.218   0.335
 3825SOL    HW212375   1.166   4.358   0.287
 3826SOL     OW12376   7.007   3.338   1.530
 3826SOL    HW112377   6.988   3.255   1.583
 3826SOL    HW212378   6.930   3.356   1.468
 3827SOL     OW12379   1.084   0.934   1.219
 3827SOL    HW112380   1.111   0.959   1.312
 3827SOL    HW212381   1.040   0.844   1.220
 3828SOL     OW12382   3.600   3.831   4.204
 3828SOL    HW112383   3.589   3.928   4.184
 3828SOL    HW212384   3.659   3.821   4.284
 3829SOL     OW12385   0.488   5.091   2.051
 3829SOL    HW112386   0.497   5.016   2.117
 3829SOL    HW212387   0.409   5.074   1.992
 3830SOL     OW12388   0.536   1.496   5.684
 3830SOL    HW112389   0.569   1.404   5.661
 3830SOL    HW212390   0.487   1.493   5.770
 3831SOL     OW12391   4.474   2.456   2.653
 3831SOL    HW112392   4.413   2.535   2.641
 3831SOL    HW212393   4.463   2.421   2.746
 3832SOL     OW12394   0.037   0.687   2.315
 3832SOL    HW112395   0.050   0.769   2.371
 3832SOL    HW212396   0.006   0.714   2.224
 3833SOL     OW12397   0.636   6.007   6.334
 3833SOL    HW112398   0.720   5.970   6.374
 3833SOL    HW212399   0.637   6.107   6.338
 3834SOL     OW12400   3.916   4.248   1.005
 3834SOL    HW112401   3.840   4.193   0.971
 3834SOL    HW212402   3.990   4.189   1.038
 3835SOL     OW12403   4.201   6.069   5.570
 3835SOL    HW112404   4.143   6.147   5.548
 3835SOL    HW212405   4.191   5.999   5.499
 3836SOL     OW12406   6.909   4.967   5.703
 3836SOL    HW112407   6.950   4.994   5.790
 3836SOL    HW212408   6.973   4.988   5.629
 3837SOL     OW12409   4.375   4.954   5.214
 3837SOL    HW112410   4.314   4.876   5.230
 3837SOL    HW212411   4.375   5.014   5.294
 3838SOL     OW12412   1.260   2.778   3.595
 3838SOL    HW112413   1.341   2.830   3.622
 3838SOL    HW212414   1.230   2.721   3.672
 3839SOL     OW12415   5.174   1.773   2.855
 3839SOL    HW112416   5.147   1.705   2.923
 3839SOL    HW212417   5.234   1.730   2.788
 3840SOL     OW12418   2.941   1.521   6.674
 3840SOL    HW112419   2.943   1.487   6.580
 3840SOL    HW212420   2.977   1.451   6.736
 3841SOL     OW12421   0.982   3.390   4.422
 3841SOL    HW112422   1.066   3.445   4.415
 3841SOL    HW212423   1.006   3.298   4.455
 3842SOL     OW12424   2.344   2.792   3.400
 3842SOL    HW112425   2.338   2.805   3.498
 3842SOL    HW212426   2.329   2.880   3.354
 3843SOL     OW12427   5.147   3.519   2.419
 3843SOL    HW112428   5.135   3.608   2.463
 3843SOL    HW212429   5.063   3.466   2.425
 3844SOL     OW12430   1.461   3.179   6.225
 3844SOL    HW112431   1.523   3.208   6.153
 3844SOL    HW212432   1.393   3.251   6.242
 3845SOL     OW12433   2.866   5.112   5.953
 3845SOL    HW112434   2.872   5.052   5.874
 3845SOL    HW212435   2.820   5.197   5.927
 3846SOL     OW12436   0.869   4.218   3.685
 3846SOL    HW112437   0.950   4.207   3.628
 3846SOL    HW212438   0.894   4.209   3.781
 3847SOL     OW12439   5.380   2.936   4.463
 3847SOL    HW112440   5.347   3.019   4.508
 3847SOL    HW212441   5.423   2.877   4.532
 3848SOL     OW12442   4.927   4.240   2.980
 3848SOL    HW112443   4.945   4.150   2.942
 3848SOL    HW212444   4.965   4.310   2.919
 3849SOL     OW12445   1.513   1.107   6.284
 3849SOL    HW112446   1.544   1.044   6.213
 3849SOL    HW212447   1.414   1.120   6.276
 3850SOL     OW12448   2.937   2.766   1.621
 3850SOL    HW112449   2.904   2.671   1.619
 3850SOL    HW212450   2.991   2.780   1.704
 3851SOL     OW12451   0.279   4.437   3.728
 3851SOL    HW112452   0.234   4.459   3.641
 3851SOL    HW212453   0.211   4.434   3.801
 3852SOL     OW12454   3.672   5.995   3.615
 3852SOL    HW112455   3.611   5.983   3.694
 3852SOL    HW212456   3.697   6.091   3.607
 3853SOL     OW12457   1.086   3.618   3.329
 3853SOL    HW112458   1.036   3.695   3.289
 3853SOL    HW212459   1.022   3.559   3.379
 3854SOL     OW12460   1.294   2.357   2.710
 3854SOL    HW112461   1.267   2.285   2.774
 3854SOL    HW212462   1.381   2.332   2.667
 3855SOL     OW12463   4.389   6.142   6.556
 3855SOL    HW112464   4.355   6.234   6.540
 3855SOL    HW212465   4.449   6.115   6.481
 3856SOL     OW12466   0.268   0.364   5.947
 3856SOL    HW112467   0.284   0.379   6.044
 3856SOL    HW212468   0.355   0.354   5.899
 3857SOL     OW12469   0.619   6.318   6.415
 3857SOL    HW112470   0.660   6.350   6.501
 3857SOL    HW212471   0.525   6.350   6.409
 3858SOL     OW12472   2.998   0.911   5.994
 3858SOL    HW112473   2.948   0.912   5.908
 3858SOL    HW212474   2.955   0.973   6.059
 3859SOL     OW12475   6.544   1.183   1.685
 3859SOL    HW112476   6.493   1.216   1.764
 3859SOL    HW212477   6.480   1.163   1.610
 3860SOL     OW12478   1.493   1.520   4.166
 3860SOL    HW112479   1.478   1.611   4.205
 3860SOL    HW212480   1.406   1.470   4.167
 3861SOL     OW12481   4.303   5.265   4.173
 3861SOL    HW112482   4.215   5.314   4.176
 3861SOL    HW212483   4.308   5.202   4.250
 3862SOL     OW12484   0.507   0.854   4.526
 3862SOL    HW112485   0.526   0.778   4.464
 3862SOL    HW212486   0.507   0.940   4.475
 3863SOL     OW12487   6.059   2.411   0.031
 3863SOL    HW112488   6.091   2.380   0.121
 3863SOL    HW212489   5.966   2.379   0.016
 3864SOL     OW12490   1.701   0.650   6.030
 3864SOL    HW112491   1.799   0.655   6.053
 3864SOL    HW212492   1.664   0.563   6.063
 3865SOL     OW12493   3.786   0.698   1.333
 3865SOL    HW112494   3.823   0.772   1.277
 3865SOL    HW212495   3.757   0.734   1.421
 3866SOL     OW12496   3.925   0.221   0.377
 3866SOL    HW112497   4.019   0.248   0.399
 3866SOL    HW212498   3.861   0.285   0.420
 3867SOL     OW12499   0.418   5.743   3.701
 3867SOL    HW112500   0.446   5.809   3.770
 3867SOL    HW212501   0.345   5.685   3.737
 3868SOL     OW12502   3.341   0.581   0.303
 3868SOL    HW112503   3.267   0.525   0.265
 3868SOL    HW212504   3.400   0.524   0.360
 3869SOL     OW12505   6.311   3.403   4.626
 3869SOL    HW112506   6.275   3.479   4.573
 3869SOL    HW212507   6.289   3.317   4.579
 3870SOL     OW12508   6.615   6.976   0.601
 3870SOL    HW112509   6.652   0.043   0.586
 3870SOL    HW212510   6.545   6.980   0.673
 3871SOL     OW12511   4.031   0.874   3.245
 3871SOL    HW112512   3.933   0.862   3.232
 3871SOL    HW212513   4.060   0.826   3.328
 3872SOL     OW12514   3.146   3.061   3.711
 3872SOL    HW112515   3.122   3.092   3.803
 3872SOL    HW212516   3.199   2.976   3.717
 3873SOL     OW12517   6.304   3.943   1.132
 3873SOL    HW112518   6.209   3.967   1.150
 3873SOL    HW212519   6.308   3.883   1.051
 3874SOL     OW12520   4.702   5.923   0.744
 3874SOL    HW112521   4.754   5.957   0.823
 3874SOL    HW212522   4.638   5.852   0.774
 3875SOL     OW12523   1.962   3.375   2.499
 3875SOL    HW112524   2.035   3.436   2.468
 3875SOL    HW212525   1.885   3.429   2.533
 3876SOL     OW12526   3.454   5.509   0.952
 3876SOL    HW112527   3.551   5.484   0.950
 3876SOL    HW212528   3.421   5.522   0.858
 3877SOL     OW12529   6.090   2.618   1.265
 3877SOL    HW112530   6.187   2.597   1.255
 3877SOL    HW212531   6.061   2.676   1.188
 3878SOL     OW12532   3.865   6.534   4.758
 3878SOL    HW112533   3.778   6.551   4.806
 3878SOL    HW212534   3.847   6.480   4.676
 3879SOL     OW12535   6.053   4.905   1.028
 3879SOL    HW112536   6.022   4.892   0.934
 3879SOL    HW212537   6.120   4.979   1.031
 3880SOL     OW12538   5.517   4.877   4.158
 3880SOL    HW112539   5.488   4.970   4.181
 3880SOL    HW212540   5.571   4.838   4.233
 3881SOL     OW12541   1.330   3.108   2.042
 3881SOL    HW112542   1.329   3.029   2.103
 3881SOL    HW212543   1.333   3.076   1.947
 3882SOL     OW12544   1.021   1.416   6.111
 3882SOL    HW112545   1.037   1.509   6.143
 3882SOL    HW212546   0.964   1.367   6.178
 3883SOL     OW12547   4.813   0.858   2.210
 3883SOL    HW112548   4.716   0.874   2.193
 3883SOL    HW212549   4.840   0.770   2.170
 3884SOL     OW12550   1.182   5.724   2.409
 3884SOL    HW112551   1.107   5.769   2.359
 3884SOL    HW212552   1.260   5.713   2.348
 3885SOL     OW12553   5.537   6.046   2.549
 3885SOL    HW112554   5.506   5.997   2.467
 3885SOL    HW212555   5.524   5.987   2.629
 3886SOL     OW12556   5.719   5.149   5.208
 3886SOL    HW112557   5.798   5.112   5.159
 3886SOL    HW212558   5.685   5.081   5.273
 3887SOL     OW12559   1.030   0.464   0.056
 3887SOL    HW112560   1.108   0.523   0.036
 3887SOL    HW212561   1.024   0.393   7.011
 3888SOL     OW12562   6.704   0.346   4.650
 3888SOL    HW112563   6.660   0.418   4.597
 3888SOL    HW212564   6.725   0.380   4.742
 3889SOL     OW12565   0.176   3.863   0.440
 3889SOL    HW112566   0.193   3.961   0.445
 3889SOL    HW212567   0.102   3.845   0.375
 3890SOL     OW12568   5.941   5.248   3.700
 3890SOL    HW112569   5.883   5.300   3.636
 3890SOL    HW212570   5.989   5.311   3.760
 3891SOL     OW12571   5.512   4.316   4.513
 3891SOL    HW112572   5.597   4.311   4.565
 3891SOL    HW212573   5.532   4.307   4.415
 3892SOL     OW12574   0.081   1.960   1.651
 3892SOL    HW112575   0.083   1.900   1.731
 3892SOL    HW212576   0.174   1.988   1.628
 3893SOL     OW12577   4.825   4.298   0.484
 3893SOL    HW112578   4.859   4.341   0.400
 3893SOL    HW212579   4.791   4.369   0.546
 3894SOL     OW12580   4.454   0.894   1.108
 3894SOL    HW112581   4.458   0.957   1.030
 3894SOL    HW212582   4.383   0.826   1.093
 3895SOL     OW12583   1.760   0.963   5.164
 3895SOL    HW112584   1.853   0.926   5.166
 3895SOL    HW212585   1.732   0.989   5.256
 3896SOL     OW12586   0.305   1.049   5.805
 3896SOL    HW112587   0.251   1.113   5.859
 3896SOL    HW212588   0.305   1.079   5.709
 3897SOL     OW12589   3.569   5.436   2.707
 3897SOL    HW112590   3.576   5.527   2.668
 3897SOL    HW212591   3.595   5.439   2.804
 3898SOL     OW12592   2.719   3.577   5.424
 3898SOL    HW112593   2.775   3.625   5.492
 3898SOL    HW212594   2.657   3.641   5.380
 3899SOL     OW12595   5.431   6.938   4.829
 3899SOL    HW112596   5.355   6.880   4.798
 3899SOL    HW212597   5.416   6.964   4.925
 3900SOL     OW12598   5.283   3.126   4.092
 3900SOL    HW112599   5.236   3.039   4.107
 3900SOL    HW212600   5.310   3.132   3.996
 3901SOL     OW12601   2.693   0.077   5.663
 3901SOL    HW112602   2.743   0.035   5.587
 3901SOL    HW212603   2.726   0.040   5.750
 3902SOL     OW12604   5.402   3.499   1.838
 3902SOL    HW112605   5.366   3.419   1.790
 3902SOL    HW212606   5.499   3.510   1.817
 3903SOL     OW12607   3.623   6.061   6.228
 3903SOL    HW112608   3.577   6.107   6.151
 3903SOL    HW212609   3.681   6.127   6.275
 3904SOL     OW12610   2.636   1.433   5.506
 3904SOL    HW112611   2.623   1.347   5.554
 3904SOL    HW212612   2.552   1.457   5.457
 3905SOL     OW12613   0.116   0.328   6.779
 3905SOL    HW112614   0.136   0.345   6.876
 3905SOL    HW212615   0.173   0.389   6.723
 3906SOL     OW12616   4.898   4.961   6.204
 3906SOL    HW112617   4.941   4.871   6.209
 3906SOL    HW212618   4.917   5.012   6.288
 3907SOL     OW12619   5.991   0.267   4.557
 3907SOL    HW112620   5.893   0.272   4.575
 3907SOL    HW212621   6.040   0.259   4.644
 3908SOL     OW12622   1.424   2.508   0.541
 3908SOL    HW112623   1.365   2.588   0.543
 3908SOL    HW212624   1.375   2.430   0.580
 3909SOL     OW12625   0.402   5.265   5.631
 3909SOL    HW112626   0.364   5.237   5.719
 3909SOL    HW212627   0.330   5.308   5.576
 3910SOL     OW12628   3.533   3.329   1.692
 3910SOL    HW112629   3.462   3.360   1.755
 3910SOL    HW212630   3.617   3.380   1.708
 3911SOL     OW12631   4.583   0.972   7.018
 3911SOL    HW112632   4.627   1.022   0.067
 3911SOL    HW212633   4.495   0.936   0.024
 3912SOL     OW12634   4.723   0.048   5.819
 3912SOL    HW112635   4.658   0.083   5.751
 3912SOL    HW212636   4.690   6.986   5.854
 3913SOL     OW12637   1.862   6.939   5.988
 3913SOL    HW112638   1.815   6.935   6.076
 3913SOL    HW212639   1.800   6.911   5.915
 3914SOL     OW12640   4.130   1.057   1.217
 3914SOL    HW112641   4.144   1.147   1.258
 3914SOL    HW212642   4.193   0.992   1.259
 3915SOL     OW12643   3.794   5.030   2.087
 3915SOL    HW112644   3.848   5.069   2.012
 3915SOL    HW212645   3.842   4.951   2.125
 3916SOL     OW12646   1.642   6.209   3.647
 3916SOL    HW112647   1.733   6.220   3.606
 3916SOL    HW212648   1.646   6.234   3.744
 3917SOL     OW12649   0.311   5.400   0.676
 3917SOL    HW112650   0.276   5.371   0.586
 3917SOL    HW212651   0.296   5.327   0.743
 3918SOL     OW12652   4.833   6.816   2.106
 3918SOL    HW112653   4.810   6.909   2.077
 3918SOL    HW212654   4.765   6.752   2.070
 3919SOL     OW12655   2.073   5.831   6.173
 3919SOL    HW112656   2.037   5.778   6.250
 3919SOL    HW212657   2.077   5.772   6.092
 3920SOL     OW12658   2.708   2.851   0.391
 3920SOL    HW112659   2.804   2.873   0.406
 3920SOL    HW212660   2.693   2.833   0.293
 3921SOL     OW12661   6.898   3.058   1.246
 3921SOL    HW112662   6.952   3.141   1.230
 3921SOL    HW212663   6.825   3.053   1.178
 3922SOL     OW12664   5.703   4.243   2.090
 3922SOL    HW112665   5.772   4.311   2.063
 3922SOL    HW212666   5.749   4.160   2.121
 3923SOL     OW12667   0.241   2.031   6.297
 3923SOL    HW112668   0.264   2.111   6.353
 3923SOL    HW212669   0.286   1.950   6.333
 3924SOL     OW12670   0.676   5.370   3.460
 3924SOL    HW112671   0.678   5.362   3.361
 3924SOL    HW212672   0.768   5.352   3.497
 3925SOL     OW12673   3.335   4.952   0.392
 3925SOL    HW112674   3.279   4.878   0.428
 3925SOL    HW212675   3.423   4.953   0.439
 3926SOL     OW12676   6.738   5.756   3.268
 3926SOL    HW112677   6.715   5.683   3.203
 3926SOL    HW212678   6.681   5.747   3.350
 3927SOL     OW12679   6.472   3.537   3.554
 3927SOL    HW112680   6.392   3.551   3.611
 3927SOL    HW212681   6.500   3.624   3.513
 3928SOL     OW12682   2.811   6.308   5.803
 3928SOL    HW112683   2.766   6.397   5.807
 3928SOL    HW212684   2.856   6.298   5.714
 3929SOL     OW12685   0.056   1.146   5.677
 3929SOL    HW112686   7.010   1.114   5.614
 3929SOL    HW212687   0.067   1.245   5.669
 3930SOL     OW12688   2.060   1.648   3.969
 3930SOL    HW112689   2.010   1.585   3.910
 3930SOL    HW212690   2.027   1.741   3.954
 3931SOL     OW12691   1.534   1.914   2.497
 3931SOL    HW112692   1.454   1.971   2.514
 3931SOL    HW212693   1.600   1.928   2.571
 3932SOL     OW12694   1.271   4.431   2.752
 3932SOL    HW112695   1.294   4.379   2.834
 3932SOL    HW212696   1.267   4.369   2.673
 3933SOL     OW12697   1.593   6.498   0.198
 3933SOL    HW112698   1.526   6.571   0.184
 3933SOL    HW212699   1.660   6.527   0.266
 3934SOL     OW12700   0.331   0.691   1.105
 3934SOL    HW112701   0.341   0.744   1.021
 3934SOL    HW212702   0.408   0.709   1.166
 3935SOL     OW12703   2.303   0.139   0.032
 3935SOL    HW112704   2.357   0.122   6.974
 3935SOL    HW212705   2.296   0.055   0.085
 3936SOL     OW12706   6.716   4.954   5.442
 3936SOL    HW112707   6.755   5.010   5.515
 3936SOL    HW212708   6.789   4.913   5.389
 3937SOL     OW12709   6.972   0.809   2.606
 3937SOL    HW112710   6.917   0.810   2.689
 3937SOL    HW212711   7.003   0.715   2.588
 3938SOL     OW12712   6.875   1.611   3.982
 3938SOL    HW112713   6.947   1.555   3.943
 3938SOL    HW212714   6.905   1.707   3.984
 3939SOL     OW12715   2.589   2.129   2.360
 3939SOL    HW112716   2.644   2.057   2.316
 3939SOL    HW212717   2.584   2.208   2.299
 3940SOL     OW12718   4.493   5.119   2.035
 3940SOL    HW112719   4.394   5.116   2.042
 3940SOL    HW212720   4.529   5.189   2.098
 3941SOL     OW12721   4.960   1.756   6.648
 3941SOL    HW112722   4.956   1.761   6.548
 3941SOL    HW212723   4.869   1.737   6.684
 3942SOL     OW12724   0.371   0.452   6.612
 3942SOL    HW112725   0.389   0.412   6.521
 3942SOL    HW212726   0.379   0.381   6.681
 3943SOL     OW12727   0.847   4.247   2.888
 3943SOL    HW112728   0.748   4.246   2.905
 3943SOL    HW212729   0.867   4.310   2.813
 3944SOL     OW12730   5.435   3.385   5.210
 3944SOL    HW112731   5.345   3.415   5.240
 3944SOL    HW212732   5.443   3.398   5.111
 3945SOL     OW12733   0.886   2.262   1.963
 3945SOL    HW112734   0.842   2.173   1.956
 3945SOL    HW212735   0.985   2.251   1.962
 3946SOL     OW12736   5.662   5.867   6.047
 3946SOL    HW112737   5.759   5.868   6.022
 3946SOL    HW212738   5.649   5.808   6.127
 3947SOL     OW12739   6.145   5.164   1.073
 3947SOL    HW112740   6.142   5.258   1.036
 3947SOL    HW212741   6.111   5.164   1.167
 3948SOL     OW12742   0.661   5.843   1.740
 3948SOL    HW112743   0.576   5.812   1.784
 3948SOL    HW212744   0.737   5.828   1.803
 3949SOL     OW12745   6.013   0.400   2.999
 3949SOL    HW112746   5.981   0.305   3.002
 3949SOL    HW212747   5.934   0.461   2.997
 3950SOL     OW12748   2.387   3.801   1.597
 3950SOL    HW112749   2.352   3.885   1.639
 3950SOL    HW212750   2.312   3.754   1.551
 3951SOL     OW12751   6.063   6.879   1.008
 3951SOL    HW112752   5.971   6.887   0.971
 3951SOL    HW212753   6.125   6.846   0.937
 3952SOL     OW12754   6.303   3.663   2.481
 3952SOL    HW112755   6.397   3.675   2.449
 3952SOL    HW212756   6.269   3.751   2.515
 3953SOL     OW12757   4.113   4.074   1.140
 3953SOL    HW112758   4.030   4.021   1.122
 3953SOL    HW212759   4.189   4.034   1.090
 3954SOL     OW12760   5.637   5.571   5.175
 3954SOL    HW112761   5.580   5.654   5.180
 3954SOL    HW212762   5.577   5.491   5.172
 3955SOL     OW12763   3.010   5.328   6.134
 3955SOL    HW112764   2.978   5.239   6.100
 3955SOL    HW212765   3.063   5.374   6.062
 3956SOL     OW12766   0.313   0.896   2.990
 3956SOL    HW112767   0.304   0.804   2.952
 3956SOL    HW212768   0.227   0.924   3.032
 3957SOL     OW12769   4.641   6.434   3.716
 3957SOL    HW112770   4.685   6.468   3.799
 3957SOL    HW212771   4.570   6.368   3.741
 3958SOL     OW12772   5.805   0.508   5.980
 3958SOL    HW112773   5.774   0.595   5.942
 3958SOL    HW212774   5.898   0.519   6.017
 3959SOL     OW12775   4.008   6.248   0.839
 3959SOL    HW112776   3.988   6.154   0.812
 3959SOL    HW212777   3.926   6.304   0.826
 3960SOL     OW12778   4.466   1.461   6.594
 3960SOL    HW112779   4.380   1.502   6.622
 3960SOL    HW212780   4.476   1.469   6.495
 3961SOL     OW12781   5.521   2.382   2.449
 3961SOL    HW112782   5.423   2.391   2.431
 3961SOL    HW212783   5.569   2.459   2.408
 3962SOL     OW12784   2.623   4.824   6.748
 3962SOL    HW112785   2.655   4.887   6.677
 3962SOL    HW212786   2.649   4.860   6.838
 3963SOL     OW12787   4.746   4.629   4.077
 3963SOL    HW112788   4.808   4.701   4.108
 3963SOL    HW212789   4.795   4.564   4.019
 3964SOL     OW12790   3.867   5.032   3.741
 3964SOL    HW112791   3.898   5.106   3.681
 3964SOL    HW212792   3.779   4.998   3.709
 3965SOL     OW12793   4.716   3.280   6.208
 3965SOL    HW112794   4.705   3.354   6.275
 3965SOL    HW212795   4.637   3.219   6.212
 3966SOL     OW12796   5.332   5.949   0.845
 3966SOL    HW112797   5.411   5.986   0.796
 3966SOL    HW212798   5.273   5.901   0.780
 3967SOL     OW12799   1.375   4.013   2.054
 3967SOL    HW112800   1.294   3.975   2.010
 3967SOL    HW212801   1.453   4.007   1.992
 3968SOL     OW12802   4.828   0.306   0.989
 3968SOL    HW112803   4.730   0.323   0.986
 3968SOL    HW212804   4.856   0.286   1.083
 3969SOL     OW12805   1.633   3.978   2.402
 3969SOL    HW112806   1.597   3.919   2.330
 3969SOL    HW212807   1.613   4.074   2.379
 3970SOL     OW12808   5.656   5.857   3.948
 3970SOL    HW112809   5.600   5.783   3.984
 3970SOL    HW212810   5.741   5.863   4.000
 3971SOL     OW12811   2.372   4.859   1.723
 3971SOL    HW112812   2.299   4.925   1.707
 3971SOL    HW212813   2.419   4.881   1.809
 3972SOL     OW12814   1.025   5.253   0.708
 3972SOL    HW112815   1.099   5.191   0.684
 3972SOL    HW212816   1.051   5.304   0.791
 3973SOL     OW12817   1.164   4.792   5.698
 3973SOL    HW112818   1.211   4.824   5.615
 3973SOL    HW212819   1.079   4.746   5.672
 3974SOL     OW12820   1.416   0.856   4.367
 3974SOL    HW112821   1.432   0.905   4.452
 3974SOL    HW212822   1.495   0.796   4.348
 3975SOL     OW12823   6.093   1.006   5.541
 3975SOL    HW112824   6.128   1.041   5.628
 3975SOL    HW212825   6.059   0.913   5.554
 3976SOL     OW12826   1.579   6.463   1.674
 3976SOL    HW112827   1.567   6.393   1.604
 3976SOL    HW212828   1.517   6.539   1.656
 3977SOL     OW12829   2.962   4.086   5.683
 3977SOL    HW112830   2.952   4.090   5.782
 3977SOL    HW212831   3.050   4.124   5.657
 3978SOL     OW12832   5.227   6.388   5.119
 3978SOL    HW112833   5.326   6.382   5.119
 3978SOL    HW212834   5.198   6.454   5.049
 3979SOL     OW12835   3.074   5.963   0.052
 3979SOL    HW112836   3.169   5.996   0.053
 3979SOL    HW212837   3.072   5.866   0.078
 3980SOL     OW12838   0.468   5.578   0.411
 3980SOL    HW112839   0.469   5.612   0.505
 3980SOL    HW212840   0.374   5.559   0.383
 3981SOL     OW12841   1.888   1.208   0.442
 3981SOL    HW112842   1.851   1.300   0.427
 3981SOL    HW212843   1.934   1.176   0.359
 3982SOL     OW12844   1.867   0.117   4.353
 3982SOL    HW112845   1.875   0.159   4.263
 3982SOL    HW212846   1.779   0.070   4.360
 3983SOL     OW12847   5.363   5.515   4.755
 3983SOL    HW112848   5.315   5.427   4.746
 3983SOL    HW212849   5.299   5.583   4.791
 3984SOL     OW12850   6.979   1.182   2.833
 3984SOL    HW112851   0.005   1.267   2.821
 3984SOL    HW212852   7.011   1.114   2.768
 3985SOL     OW12853   3.913   4.556   6.466
 3985SOL    HW112854   3.919   4.572   6.564
 3985SOL    HW212855   3.836   4.608   6.428
 3986SOL     OW12856   6.456   1.799   3.307
 3986SOL    HW112857   6.412   1.860   3.374
 3986SOL    HW212858   6.519   1.852   3.251
 3987SOL     OW12859   3.076   5.171   3.650
 3987SOL    HW112860   3.080   5.222   3.564
 3987SOL    HW212861   2.981   5.163   3.679
 3988SOL     OW12862   4.297   4.082   6.895
 3988SOL    HW112863   4.367   4.016   6.870
 3988SOL    HW212864   4.207   4.046   6.870
 3989SOL     OW12865   6.779   2.464   6.806
 3989SOL    HW112866   6.683   2.439   6.818
 3989SOL    HW212867   6.786   2.540   6.741
 3990SOL     OW12868   5.274   2.350   3.269
 3990SOL    HW112869   5.297   2.349   3.172
 3990SOL    HW212870   5.346   2.396   3.320
 3991SOL     OW12871   5.759   0.800   2.406
 3991SOL    HW112872   5.833   0.854   2.446
 3991SOL    HW212873   5.687   0.861   2.373
 3992SOL     OW12874   3.800   1.903   6.841
 3992SOL    HW112875   3.738   1.840   6.889
 3992SOL    HW212876   3.759   1.994   6.837
 3993SOL     OW12877   1.125   1.489   3.059
 3993SOL    HW112878   1.118   1.522   2.965
 3993SOL    HW212879   1.169   1.559   3.115
 3994SOL     OW12880   0.920   0.852   6.334
 3994SOL    HW112881   0.994   0.918   6.319
 3994SOL    HW212882   0.954   0.759   6.320
 3995SOL     OW12883   1.949   3.808   5.470
 3995SOL    HW112884   1.946   3.708   5.477
 3995SOL    HW212885   1.865   3.846   5.509
 3996SOL     OW12886   1.019   1.246   4.158
 3996SOL    HW112887   1.029   1.204   4.068
 3996SOL    HW212888   0.999   1.176   4.226
 3997SOL     OW12889   5.089   1.297   3.552
 3997SOL    HW112890   5.022   1.222   3.559
 3997SOL    HW212891   5.046   1.382   3.583
 3998SOL     OW12892   4.395   0.899   3.708
 3998SOL    HW112893   4.359   0.955   3.634
 3998SOL    HW212894   4.370   0.939   3.796
 3999SOL     OW12895   6.026   3.316   3.766
 3999SOL    HW112896   6.057   3.232   3.811
 3999SOL    HW212897   6.059   3.317   3.671
 4000SOL     OW12898   3.048   5.643   3.028
 4000SOL    HW112899   2.950   5.658   3.044
 4000SOL    HW212900   3.092   5.731   3.010
 4001SOL     OW12901   2.564   2.181   4.244
 4001SOL    HW112902   2.607   2.170   4.154
 4001SOL    HW212903   2.608   2.257   4.292
 4002SOL     OW12904   2.951   3.268   0.942
 4002SOL    HW112905   3.049   3.279   0.959
 4002SOL    HW212906   2.910   3.359   0.932
 4003SOL     OW12907   3.105   6.076   3.912
 4003SOL    HW112908   3.037   6.067   3.985
 4003SOL    HW212909   3.158   5.991   3.905
 4004SOL     OW12910   5.409   2.138   4.674
 4004SOL    HW112911   5.448   2.227   4.700
 4004SOL    HW212912   5.433   2.117   4.579
 4005SOL     OW12913   4.334   5.665   0.491
 4005SOL    HW112914   4.362   5.596   0.559
 4005SOL    HW212915   4.389   5.748   0.504
 4006SOL     OW12916   3.508   5.569   3.235
 4006SOL    HW112917   3.487   5.486   3.287
 4006SOL    HW212918   3.604   5.593   3.247
 4007SOL     OW12919   0.722   2.785   1.403
 4007SOL    HW112920   0.784   2.819   1.332
 4007SOL    HW212921   0.703   2.858   1.469
 4008SOL     OW12922   2.876   1.898   3.571
 4008SOL    HW112923   2.959   1.847   3.547
 4008SOL    HW212924   2.902   1.985   3.612
 4009SOL     OW12925   5.282   3.481   1.261
 4009SOL    HW112926   5.299   3.465   1.358
 4009SOL    HW212927   5.339   3.420   1.207
 4010SOL     OW12928   2.312   2.838   1.858
 4010SOL    HW112929   2.341   2.762   1.799
 4010SOL    HW212930   2.303   2.921   1.802
 4011SOL     OW12931   0.495   0.781   2.413
 4011SOL    HW112932   0.436   0.733   2.348
 4011SOL    HW212933   0.583   0.802   2.369
 4012SOL     OW12934   4.175   5.745   1.506
 4012SOL    HW112935   4.162   5.658   1.553
 4012SOL    HW212936   4.222   5.730   1.419
 4013SOL     OW12937   2.618   6.952   6.192
 4013SOL    HW112938   2.570   6.906   6.116
 4013SOL    HW212939   2.565   6.941   6.276
 4014SOL     OW12940   4.539   6.126   2.926
 4014SOL    HW112941   4.504   6.078   3.006
 4014SOL    HW212942   4.589   6.062   2.868
 4015SOL     OW12943   5.129   5.107   6.074
 4015SOL    HW112944   5.201   5.112   6.144
 4015SOL    HW212945   5.048   5.065   6.114
 4016SOL     OW12946   2.633   5.458   6.286
 4016SOL    HW112947   2.551   5.424   6.241
 4016SOL    HW212948   2.608   5.526   6.355
 4017SOL     OW12949   0.413   5.981   1.117
 4017SOL    HW112950   0.366   5.985   1.205
 4017SOL    HW212951   0.348   5.957   1.045
 4018SOL     OW12952   5.002   6.252   3.424
 4018SOL    HW112953   4.956   6.269   3.512
 4018SOL    HW212954   4.976   6.161   3.391
 4019SOL     OW12955   5.814   3.827   2.773
 4019SOL    HW112956   5.823   3.882   2.856
 4019SOL    HW212957   5.717   3.815   2.751
 4020SOL     OW12958   4.904   1.926   5.766
 4020SOL    HW112959   4.912   2.017   5.725
 4020SOL    HW212960   4.953   1.923   5.852
 4021SOL     OW12961   3.537   4.126   6.355
 4021SOL    HW112962   3.511   4.135   6.258
 4021SOL    HW212963   3.456   4.138   6.412
 4022SOL     OW12964   4.154   0.278   6.972
 4022SOL    HW112965   4.107   0.217   0.011
 4022SOL    HW212966   4.247   0.246   6.958
 4023SOL     OW12967   6.320   1.967   4.710
 4023SOL    HW112968   6.383   1.891   4.694
 4023SOL    HW212969   6.373   2.051   4.728
 4024SOL     OW12970   3.525   6.028   3.122
 4024SOL    HW112971   3.536   5.948   3.063
 4024SOL    HW212972   3.508   6.109   3.065
 4025SOL     OW12973   1.117   5.976   3.873
 4025SOL    HW112974   1.187   5.934   3.815
 4025SOL    HW212975   1.158   6.006   3.959
 4026SOL     OW12976   6.004   6.263   4.266
 4026SOL    HW112977   6.025   6.352   4.224
 4026SOL    HW212978   6.089   6.215   4.287
 4027SOL     OW12979   3.727   4.117   1.835
 4027SOL    HW112980   3.796   4.092   1.767
 4027SOL    HW212981   3.699   4.212   1.820
 4028SOL     OW12982   1.309   2.000   4.048
 4028SOL    HW112983   1.216   2.025   4.074
 4028SOL    HW212984   1.309   1.907   4.010
 4029SOL     OW12985   1.715   4.390   6.575
 4029SOL    HW112986   1.630   4.385   6.523
 4029SOL    HW212987   1.720   4.479   6.622
 4030SOL     OW12988   1.457   1.941   5.940
 4030SOL    HW112989   1.401   1.984   5.868
 4030SOL    HW212990   1.472   2.007   6.013
 4031SOL     OW12991   4.939   5.991   3.324
 4031SOL    HW112992   5.032   5.956   3.325
 4031SOL    HW212993   4.878   5.924   3.366
 4032SOL     OW12994   6.058   6.869   2.699
 4032SOL    HW112995   6.130   6.805   2.672
 4032SOL    HW212996   6.095   6.962   2.700
 4033SOL     OW12997   3.493   2.978   3.477
 4033SOL    HW112998   3.588   3.007   3.488
 4033SOL    HW212999   3.480   2.936   3.387
 4034SOL     OW13000   5.387   1.247   5.353
 4034SOL    HW113001   5.472   1.269   5.401
 4034SOL    HW213002   5.322   1.205   5.417
 4035SOL     OW13003   6.627   4.117   1.197
 4035SOL    HW113004   6.604   4.060   1.118
 4035SOL    HW213005   6.640   4.211   1.166
 4036SOL     OW13006   5.596   6.635   2.109
 4036SOL    HW113007   5.690   6.609   2.088
 4036SOL    HW213008   5.593   6.682   2.197
 4037SOL     OW13009   2.043   2.884   0.500
 4037SOL    HW113010   2.100   2.805   0.524
 4037SOL    HW213011   2.081   2.967   0.541
 4038SOL     OW13012   4.872   4.824   1.947
 4038SOL    HW113013   4.891   4.796   1.853
 4038SOL    HW213014   4.773   4.828   1.962
 4039SOL     OW13015   4.654   5.216   1.335
 4039SOL    HW113016   4.626   5.127   1.300
 4039SOL    HW213017   4.754   5.219   1.344
 4040SOL     OW13018   2.614   6.414   0.124
 4040SOL    HW113019   2.557   6.408   0.207
 4040SOL    HW213020   2.707   6.439   0.150
 4041SOL     OW13021   1.593   6.280   2.238
 4041SOL    HW113022   1.506   6.328   2.248
 4041SOL    HW213023   1.612   6.265   2.141
 4042SOL     OW13024   6.194   4.548   2.437
 4042SOL    HW113025   6.146   4.540   2.525
 4042SOL    HW213026   6.270   4.614   2.447
 4043SOL     OW13027   5.736   1.915   3.942
 4043SOL    HW113028   5.781   2.004   3.953
 4043SOL    HW213029   5.804   1.843   3.939
 4044SOL     OW13030   6.008   0.681   4.405
 4044SOL    HW113031   5.926   0.645   4.450
 4044SOL    HW213032   6.062   0.605   4.368
 4045SOL     OW13033   2.688   4.363   6.047
 4045SOL    HW113034   2.589   4.370   6.031
 4045SOL    HW213035   2.712   4.267   6.065
 4046SOL     OW13036   0.676   1.791   3.215
 4046SOL    HW113037   0.681   1.701   3.257
 4046SOL    HW213038   0.689   1.861   3.285
 4047SOL     OW13039   2.603   3.536   0.572
 4047SOL    HW113040   2.545   3.470   0.524
 4047SOL    HW213041   2.554   3.621   0.585
 4048SOL     OW13042   5.738   0.734   1.784
 4048SOL    HW113043   5.739   0.780   1.695
 4048SOL    HW213044   5.735   0.635   1.770
 4049SOL     OW13045   6.511   6.313   6.805
 4049SOL    HW113046   6.559   6.278   6.886
 4049SOL    HW213047   6.578   6.336   6.734
 4050SOL     OW13048   1.654   6.742   6.991
 4050SOL    HW113049   1.707   6.817   0.007
 4050SOL    HW213050   1.709   6.697   6.920
 4051SOL     OW13051   3.033   4.223   6.993
 4051SOL    HW113052   3.045   4.123   6.990
 4051SOL    HW213053   2.993   4.254   6.907
 4052SOL     OW13054   1.177   6.992   1.067
 4052SOL    HW113055   1.189   0.059   1.029
 4052SOL    HW213056   1.080   6.970   1.071
 4053SOL     OW13057   3.309   4.921   3.917
 4053SOL    HW113058   3.352   4.902   4.004
 4053SOL    HW213059   3.346   5.007   3.880
 4054SOL     OW13060   2.626   3.450   0.851
 4054SOL    HW113061   2.683   3.512   0.904
 4054SOL    HW213062   2.624   3.481   0.755
 4055SOL     OW13063   3.016   3.153   5.728
 4055SOL    HW113064   2.939   3.125   5.786
 4055SOL    HW213065   3.012   3.252   5.713
 4056SOL     OW13066   4.542   3.270   6.532
 4056SOL    HW113067   4.468   3.296   6.596
 4056SOL    HW213068   4.584   3.353   6.495
 4057SOL     OW13069   5.122   3.611   0.805
 4057SOL    HW113070   5.158   3.619   0.899
 4057SOL    HW213071   5.198   3.618   0.740
 4058SOL     OW13072   2.264   1.240   4.625
 4058SOL    HW113073   2.354   1.216   4.588
 4058SOL    HW213074   2.272   1.325   4.678
 4059SOL     OW13075   2.438   2.043   3.526
 4059SOL    HW113076   2.421   2.073   3.432
 4059SOL    HW213077   2.356   2.000   3.563
 4060SOL     OW13078   3.467   4.975   4.880
 4060SOL    HW113079   3.514   5.049   4.929
 4060SOL    HW213080   3.534   4.923   4.827
 4061SOL     OW13081   3.611   4.359   1.752
 4061SOL    HW113082   3.523   4.312   1.759
 4061SOL    HW213083   3.598   4.456   1.771
 4062SOL     OW13084   4.422   1.349   3.270
 4062SOL    HW113085   4.387   1.255   3.263
 4062SOL    HW213086   4.492   1.352   3.341
 4063SOL     OW13087   4.295   6.187   6.033
 4063SOL    HW113088   4.293   6.279   6.071
 4063SOL    HW213089   4.227   6.180   5.960
 4064SOL     OW13090   2.139   6.810   2.788
 4064SOL    HW113091   2.102   6.848   2.873
 4064SOL    HW213092   2.163   6.886   2.727
 4065SOL     OW13093   0.460   0.135   0.805
 4065SOL    HW113094   0.481   0.040   0.784
 4065SOL    HW213095   0.533   0.194   0.772
 4066SOL     OW13096   5.599   4.822   2.000
 4066SOL    HW113097   5.674   4.797   1.939
 4066SOL    HW213098   5.544   4.894   1.958
 4067SOL     OW13099   5.387   1.913   3.237
 4067SOL    HW113100   5.405   1.955   3.326
 4067SOL    HW213101   5.314   1.963   3.191
 4068SOL     OW13102   4.847   0.392   4.973
 4068SOL    HW113103   4.825   0.489   4.989
 4068SOL    HW213104   4.775   0.335   5.012
 4069SOL     OW13105   4.652   3.957   0.455
 4069SOL    HW113106   4.565   3.915   0.480
 4069SOL    HW213107   4.671   4.033   0.516
 4070SOL     OW13108   1.727   3.491   2.627
 4070SOL    HW113109   1.791   3.564   2.605
 4070SOL    HW213110   1.634   3.527   2.627
 4071SOL     OW13111   1.395   1.015   5.079
 4071SOL    HW113112   1.430   1.107   5.063
 4071SOL    HW213113   1.454   0.948   5.034
 4072SOL     OW13114   1.643   6.578   4.668
 4072SOL    HW113115   1.583   6.532   4.734
 4072SOL    HW213116   1.617   6.550   4.575
 4073SOL     OW13117   1.609   5.468   5.825
 4073SOL    HW113118   1.669   5.476   5.745
 4073SOL    HW213119   1.655   5.507   5.905
 4074SOL     OW13120   0.302   2.878   2.208
 4074SOL    HW113121   0.269   2.815   2.279
 4074SOL    HW213122   0.322   2.826   2.125
 4075SOL     OW13123   4.525   1.941   2.666
 4075SOL    HW113124   4.429   1.956   2.688
 4075SOL    HW213125   4.533   1.880   2.587
 4076SOL     OW13126   2.312   4.065   5.373
 4076SOL    HW113127   2.367   4.030   5.449
 4076SOL    HW213128   2.351   4.035   5.286
 4077SOL     OW13129   2.705   6.053   0.768
 4077SOL    HW113130   2.779   6.105   0.725
 4077SOL    HW213131   2.743   5.995   0.840
 4078SOL     OW13132   6.152   5.171   2.037
 4078SOL    HW113133   6.122   5.081   2.067
 4078SOL    HW213134   6.198   5.218   2.112
 4079SOL     OW13135   1.519   0.522   3.518
 4079SOL    HW113136   1.616   0.520   3.494
 4079SOL    HW213137   1.464   0.517   3.435
 4080SOL     OW13138   3.253   4.026   0.307
 4080SOL    HW113139   3.283   3.938   0.344
 4080SOL    HW213140   3.157   4.040   0.329
 4081SOL     OW13141   2.117   1.028   5.168
 4081SOL    HW113142   2.051   1.086   5.121
 4081SOL    HW213143   2.203   1.027   5.117
 4082SOL     OW13144   1.529   1.377   6.342
 4082SOL    HW113145   1.480   1.416   6.263
 4082SOL    HW213146   1.543   1.280   6.327
 4083SOL     OW13147   5.885   4.667   3.251
 4083SOL    HW113148   5.791   4.641   3.275
 4083SOL    HW213149   5.949   4.617   3.308
 4084SOL     OW13150   4.827   3.038   3.186
 4084SOL    HW113151   4.807   3.004   3.278
 4084SOL    HW213152   4.920   3.009   3.160
 4085SOL     OW13153   2.711   5.259   1.145
 4085SOL    HW113154   2.741   5.255   1.240
 4085SOL    HW213155   2.649   5.182   1.127
 4086SOL     OW13156   0.155   5.330   0.444
 4086SOL    HW113157   0.157   5.412   0.386
 4086SOL    HW213158   0.061   5.298   0.452
 4087SOL     OW13159   2.955   0.642   2.885
 4087SOL    HW113160   2.961   0.547   2.916
 4087SOL    HW213161   2.862   0.676   2.900
 4088SOL     OW13162   6.483   1.180   5.687
 4088SOL    HW113163   6.388   1.205   5.705
 4088SOL    HW213164   6.530   1.163   5.774
 4089SOL     OW13165   0.155   5.551   4.185
 4089SOL    HW113166   0.130   5.501   4.268
 4089SOL    HW213167   0.138   5.493   4.105
 4090SOL     OW13168   2.116   6.559   5.241
 4090SOL    HW113169   2.160   6.617   5.172
 4090SOL    HW213170   2.177   6.483   5.263
 4091SOL     OW13171   1.250   5.120   0.640
 4091SOL    HW113172   1.271   5.023   0.645
 4091SOL    HW213173   1.293   5.160   0.559
 4092SOL     OW13174   4.901   3.361   4.953
 4092SOL    HW113175   4.870   3.371   4.859
 4092SOL    HW213176   4.873   3.440   5.006
 4093SOL     OW13177   6.364   5.805   1.683
 4093SOL    HW113178   6.397   5.860   1.760
 4093SOL    HW213179   6.276   5.841   1.651
 4094SOL     OW13180   0.579   4.513   0.033
 4094SOL    HW113181   0.541   4.493   0.124
 4094SOL    HW213182   0.674   4.540   0.041
 4095SOL     OW13183   0.447   3.492   6.913
 4095SOL    HW113184   0.391   3.553   6.857
 4095SOL    HW213185   0.425   3.507   7.010
 4096SOL     OW13186   2.227   1.034   6.509
 4096SOL    HW113187   2.160   1.080   6.568
 4096SOL    HW213188   2.319   1.049   6.544
 4097SOL     OW13189   6.100   4.324   5.342
 4097SOL    HW113190   6.195   4.290   5.345
 4097SOL    HW213191   6.099   4.417   5.305
 4098SOL     OW13192   1.943   3.410   1.610
 4098SOL    HW113193   2.005   3.335   1.588
 4098SOL    HW213194   1.927   3.465   1.528
 4099SOL     OW13195   4.336   4.669   6.939
 4099SOL    HW113196   4.323   4.700   6.845
 4099SOL    HW213197   4.273   4.718   6.999
 4100SOL     OW13198   0.916   0.771   3.791
 4100SOL    HW113199   0.922   0.730   3.882
 4100SOL    HW213200   0.858   0.853   3.795
 4101SOL     OW13201   6.482   0.977   6.538
 4101SOL    HW113202   6.526   1.052   6.587
 4101SOL    HW213203   6.469   0.900   6.599
 4102SOL     OW13204   2.107   0.675   0.351
 4102SOL    HW113205   2.176   0.650   0.419
 4102SOL    HW213206   2.084   0.595   0.295
 4103SOL     OW13207   0.004   7.025   2.224
 4103SOL    HW113208   7.021   6.928   2.198
 4103SOL    HW213209   6.939   0.034   2.253
 4104SOL     OW13210   6.994   5.701   2.956
 4104SOL    HW113211   6.951   5.786   2.926
 4104SOL    HW213212   0.033   5.669   2.886
 4105SOL     OW13213   4.850   1.067   1.644
 4105SOL    HW113214   4.838   0.971   1.618
 4105SOL    HW213215   4.947   1.085   1.661
 4106SOL     OW13216   6.782   2.520   4.032
 4106SOL    HW113217   6.714   2.551   4.098
 4106SOL    HW213218   6.770   2.569   3.946
 4107SOL     OW13219   0.309   6.317   6.441
 4107SOL    HW113220   0.244   6.273   6.503
 4107SOL    HW213221   0.302   6.416   6.452
 4108SOL     OW13222   1.160   5.582   4.044
 4108SOL    HW113223   1.224   5.507   4.031
 4108SOL    HW213224   1.211   5.668   4.051
 4109SOL     OW13225   6.044   5.432   3.847
 4109SOL    HW113226   6.022   5.528   3.865
 4109SOL    HW213227   6.142   5.418   3.861
 4110SOL     OW13228   4.664   3.025   6.843
 4110SOL    HW113229   4.577   2.975   6.845
 4110SOL    HW213230   4.687   3.047   6.748
 4111SOL     OW13231   6.291   5.373   6.310
 4111SOL    HW113232   6.244   5.296   6.266
 4111SOL    HW213233   6.255   5.385   6.402
 4112SOL     OW13234   4.968   6.885   4.646
 4112SOL    HW113235   4.888   6.858   4.700
 4112SOL    HW213236   4.978   6.984   4.648
 4113SOL     OW13237   4.369   5.185   4.779
 4113SOL    HW113238   4.306   5.110   4.799
 4113SOL    HW213239   4.323   5.273   4.795
 4114SOL     OW13240   5.904   1.540   3.239
 4114SOL    HW113241   5.892   1.528   3.141
 4114SOL    HW213242   5.947   1.628   3.258
 4115SOL     OW13243   2.888   4.840   3.435
 4115SOL    HW113244   2.806   4.815   3.384
 4115SOL    HW213245   2.894   4.785   3.518
 4116SOL     OW13246   5.388   2.487   3.502
 4116SOL    HW113247   5.380   2.545   3.583
 4116SOL    HW213248   5.472   2.510   3.452
 4117SOL     OW13249   1.297   2.063   2.594
 4117SOL    HW113250   1.218   2.029   2.543
 4117SOL    HW213251   1.293   2.163   2.599
 4118SOL     OW13252   6.370   6.805   6.630
 4118SOL    HW113253   6.370   6.889   6.685
 4118SOL    HW213254   6.416   6.732   6.681
 4119SOL     OW13255   2.943   0.838   3.650
 4119SOL    HW113256   2.879   0.900   3.697
 4119SOL    HW213257   3.026   0.829   3.705
 4120SOL     OW13258   3.975   1.530   6.459
 4120SOL    HW113259   4.014   1.445   6.493
 4120SOL    HW213260   3.945   1.517   6.364
 4121SOL     OW13261   6.671   6.358   2.161
 4121SOL    HW113262   6.735   6.294   2.205
 4121SOL    HW213263   6.639   6.320   2.075
 4122SOL     OW13264   0.322   5.706   4.934
 4122SOL    HW113265   0.327   5.681   4.837
 4122SOL    HW213266   0.280   5.631   4.986
 4123SOL     OW13267   3.934   5.587   4.555
 4123SOL    HW113268   3.998   5.554   4.486
 4123SOL    HW213269   3.846   5.606   4.512
 4124SOL     OW13270   6.703   6.488   1.018
 4124SOL    HW113271   6.637   6.560   1.039
 4124SOL    HW213272   6.768   6.521   0.950
 4125SOL     OW13273   4.801   2.758   3.045
 4125SOL    HW113274   4.755   2.830   3.097
 4125SOL    HW213275   4.797   2.780   2.947
 4126SOL     OW13276   1.626   3.055   2.123
 4126SOL    HW113277   1.585   3.098   2.042
 4126SOL    HW213278   1.560   2.993   2.165
 4127SOL     OW13279   4.300   2.197   4.437
 4127SOL    HW113280   4.273   2.124   4.499
 4127SOL    HW213281   4.220   2.251   4.412
 4128SOL     OW13282   0.527   3.008   1.913
 4128SOL    HW113283   0.577   2.986   1.997
 4128SOL    HW213284   0.432   3.030   1.935
 4129SOL     OW13285   3.170   2.440   0.502
 4129SOL    HW113286   3.144   2.475   0.592
 4129SOL    HW213287   3.088   2.423   0.448
 4130SOL     OW13288   6.280   2.781   0.600
 4130SOL    HW113289   6.209   2.789   0.530
 4130SOL    HW213290   6.262   2.700   0.656
 4131SOL     OW13291   6.272   0.771   2.619
 4131SOL    HW113292   6.300   0.857   2.575
 4131SOL    HW213293   6.325   0.757   2.702
 4132SOL     OW13294   6.164   4.468   3.930
 4132SOL    HW113295   6.142   4.458   4.027
 4132SOL    HW213296   6.175   4.378   3.889
 4133SOL     OW13297   5.191   6.171   0.914
 4133SOL    HW113298   5.224   6.217   0.997
 4133SOL    HW213299   5.248   6.092   0.895
 4134SOL     OW13300   2.113   3.416   0.695
 4134SOL    HW113301   2.206   3.452   0.696
 4134SOL    HW213302   2.057   3.464   0.762
 4135SOL     OW13303   0.482   2.029   2.540
 4135SOL    HW113304   0.387   2.024   2.511
 4135SOL    HW213305   0.508   1.944   2.586
 4136SOL     OW13306   0.760   3.562   1.491
 4136SOL    HW113307   0.728   3.525   1.404
 4136SOL    HW213308   0.731   3.657   1.499
 4137SOL     OW13309   1.324   2.723   7.011
 4137SOL    HW113310   1.303   2.664   0.064
 4137SOL    HW213311   1.326   2.669   6.927
 4138SOL     OW13312   4.158   5.062   0.992
 4138SOL    HW113313   4.228   5.012   0.942
 4138SOL    HW213314   4.143   5.019   1.081
 4139SOL     OW13315   1.508   2.230   3.930
 4139SOL    HW113316   1.439   2.158   3.918
 4139SOL    HW213317   1.482   2.289   4.006
 4140SOL     OW13318   2.944   2.100   3.719
 4140SOL    HW113319   2.972   2.060   3.806
 4140SOL    HW213320   2.872   2.168   3.735
 4141SOL     OW13321   4.807   0.124   6.596
 4141SOL    HW113322   4.871   0.165   6.532
 4141SOL    HW213323   4.772   0.038   6.559
 4142SOL     OW13324   6.787   3.717   1.799
 4142SOL    HW113325   6.883   3.694   1.779
 4142SOL    HW213326   6.757   3.791   1.739
 4143SOL     OW13327   5.640   3.351   0.938
 4143SOL    HW113328   5.625   3.446   0.912
 4143SOL    HW213329   5.577   3.325   1.012
 4144SOL     OW13330   5.152   1.748   0.689
 4144SOL    HW113331   5.182   1.766   0.782
 4144SOL    HW213332   5.231   1.727   0.632
 4145SOL     OW13333   1.040   6.320   0.573
 4145SOL    HW113334   1.036   6.356   0.479
 4145SOL    HW213335   0.948   6.291   0.601
 4146SOL     OW13336   6.232   0.138   3.782
 4146SOL    HW113337   6.235   0.071   3.708
 4146SOL    HW213338   6.295   0.110   3.855
 4147SOL     OW13339   5.660   4.783   6.056
 4147SOL    HW113340   5.570   4.822   6.037
 4147SOL    HW213341   5.674   4.777   6.154
 4148SOL     OW13342   2.832   0.175   5.330
 4148SOL    HW113343   2.775   0.100   5.296
 4148SOL    HW213344   2.775   0.255   5.346
 4149SOL     OW13345   0.668   3.037   1.265
 4149SOL    HW113346   0.603   3.054   1.191
 4149SOL    HW213347   0.728   2.961   1.241
 4150SOL     OW13348   6.423   2.703   5.496
 4150SOL    HW113349   6.491   2.764   5.536
 4150SOL    HW213350   6.460   2.610   5.493
 4151SOL     OW13351   1.823   0.155   5.184
 4151SOL    HW113352   1.846   0.211   5.263
 4151SOL    HW213353   1.759   0.083   5.211
 4152SOL     OW13354   3.937   5.132   1.877
 4152SOL    HW113355   3.885   5.211   1.845
 4152SOL    HW213356   3.980   5.086   1.799
 4153SOL     OW13357   6.669   5.138   1.482
 4153SOL    HW113358   6.612   5.100   1.409
 4153SOL    HW213359   6.612   5.157   1.562
 4154SOL     OW13360   0.294   5.827   3.102
 4154SOL    HW113361   0.259   5.781   3.183
 4154SOL    HW213362   0.218   5.865   3.049
 4155SOL     OW13363   6.552   2.122   1.529
 4155SOL    HW113364   6.636   2.176   1.538
 4155SOL    HW213365   6.496   2.133   1.612
 4156SOL     OW13366   6.249   5.275   4.892
 4156SOL    HW113367   6.175   5.213   4.916
 4156SOL    HW213368   6.313   5.283   4.969
 4157SOL     OW13369   6.292   6.103   2.317
 4157SOL    HW113370   6.341   6.081   2.401
 4157SOL    HW213371   6.210   6.156   2.339
 4158SOL     OW13372   1.733   2.734   1.592
 4158SOL    HW113373   1.816   2.727   1.649
 4158SOL    HW213374   1.740   2.815   1.534
 4159SOL     OW13375   2.787   2.257   2.988
 4159SOL    HW113376   2.859   2.212   3.041
 4159SOL    HW213377   2.734   2.317   3.048
 4160SOL     OW13378   5.596   0.417   6.712
 4160SOL    HW113379   5.582   0.506   6.755
 4160SOL    HW213380   5.646   0.358   6.775
 4161SOL     OW13381   1.938   2.167   1.555
 4161SOL    HW113382   1.990   2.110   1.492
 4161SOL    HW213383   1.975   2.260   1.553
 4162SOL     OW13384   6.245   5.979   0.918
 4162SOL    HW113385   6.194   5.894   0.932
 4162SOL    HW213386   6.238   6.035   1.001
 4163SOL     OW13387   5.770   1.263   2.677
 4163SOL    HW113388   5.782   1.164   2.683
 4163SOL    HW213389   5.676   1.284   2.650
 4164SOL     OW13390   0.176   6.940   5.623
 4164SOL    HW113391   0.191   6.925   5.720
 4164SOL    HW213392   0.220   6.867   5.570
 4165SOL     OW13393   4.653   6.825   5.871
 4165SOL    HW113394   4.744   6.790   5.893
 4165SOL    HW213395   4.585   6.752   5.882
 4166SOL     OW13396   6.375   1.136   1.492
 4166SOL    HW113397   6.286   1.176   1.516
 4166SOL    HW213398   6.403   1.171   1.402
 4167SOL     OW13399   2.474   4.911   5.694
 4167SOL    HW113400   2.453   4.963   5.612
 4167SOL    HW213401   2.550   4.849   5.675
 4168SOL     OW13402   0.211   4.204   0.741
 4168SOL    HW113403   0.260   4.171   0.660
 4168SOL    HW213404   0.253   4.165   0.823
 4169SOL     OW13405   6.234   3.711   5.562
 4169SOL    HW113406   6.231   3.635   5.627
 4169SOL    HW213407   6.264   3.794   5.610
 4170SOL     OW13408   4.686   2.948   5.222
 4170SOL    HW113409   4.773   2.934   5.269
 4170SOL    HW213410   4.651   3.039   5.244
 4171SOL     OW13411   1.289   4.869   0.876
 4171SOL    HW113412   1.297   4.836   0.782
 4171SOL    HW213413   1.199   4.909   0.889
 4172SOL     OW13414   3.103   3.017   0.540
 4172SOL    HW113415   3.133   3.028   0.635
 4172SOL    HW213416   3.043   2.937   0.533
 4173SOL     OW13417   4.743   2.854   5.599
 4173SOL    HW113418   4.646   2.876   5.598
 4173SOL    HW213419   4.796   2.935   5.623
 4174SOL     OW13420   4.710   1.451   2.919
 4174SOL    HW113421   4.759   1.380   2.970
 4174SOL    HW213422   4.728   1.441   2.821
 4175SOL     OW13423   1.378   4.498   5.161
 4175SOL    HW113424   1.449   4.470   5.097
 4175SOL    HW213425   1.411   4.482   5.255
 4176SOL     OW13426   4.283   6.637   0.941
 4176SOL    HW113427   4.345   6.583   0.884
 4176SOL    HW213428   4.287   6.603   1.035
 4177SOL     OW13429   5.519   4.610   4.586
 4177SOL    HW113430   5.492   4.540   4.520
 4177SOL    HW213431   5.447   4.621   4.654
 4178SOL     OW13432   4.833   0.441   2.728
 4178SOL    HW113433   4.804   0.371   2.663
 4178SOL    HW213434   4.881   0.514   2.680
 4179SOL     OW13435   5.530   4.185   3.597
 4179SOL    HW113436   5.548   4.283   3.583
 4179SOL    HW213437   5.608   4.132   3.564
 4180SOL     OW13438   5.144   2.637   0.799
 4180SOL    HW113439   5.151   2.731   0.833
 4180SOL    HW213440   5.199   2.576   0.856
 4181SOL     OW13441   5.193   1.239   6.732
 4181SOL    HW113442   5.248   1.264   6.812
 4181SOL    HW213443   5.110   1.192   6.762
 4182SOL     OW13444   0.336   5.383   3.638
 4182SOL    HW113445   0.243   5.405   3.669
 4182SOL    HW213446   0.365   5.451   3.571
 4183SOL     OW13447   2.602   1.021   0.443
 4183SOL    HW113448   2.688   0.971   0.436
 4183SOL    HW213449   2.578   1.033   0.540
 4184SOL     OW13450   3.695   0.255   2.285
 4184SOL    HW113451   3.641   0.200   2.350
 4184SOL    HW213452   3.671   0.229   2.192
 4185SOL     OW13453   0.463   4.131   2.719
 4185SOL    HW113454   0.456   4.109   2.817
 4185SOL    HW213455   0.423   4.221   2.702
 4186SOL     OW13456   2.518   5.637   6.454
 4186SOL    HW113457   2.559   5.727   6.438
 4186SOL    HW213458   2.418   5.643   6.444
 4187SOL     OW13459   2.769   3.381   6.763
 4187SOL    HW113460   2.866   3.393   6.785
 4187SOL    HW213461   2.715   3.441   6.821
 4188SOL     OW13462   5.253   0.773   5.152
 4188SOL    HW113463   5.241   0.693   5.211
 4188SOL    HW213464   5.256   0.744   5.057
 4189SOL     OW13465   3.557   5.171   4.071
 4189SOL    HW113466   3.483   5.216   4.121
 4189SOL    HW213467   3.557   5.073   4.093
 4190SOL     OW13468   0.535   6.742   0.609
 4190SOL    HW113469   0.608   6.695   0.560
 4190SOL    HW213470   0.575   6.805   0.675
 4191SOL     OW13471   5.311   3.692   5.254
 4191SOL    HW113472   5.343   3.681   5.159
 4191SOL    HW213473   5.254   3.614   5.278
 4192SOL     OW13474   1.509   1.883   2.029
 4192SOL    HW113475   1.432   1.848   1.977
 4192SOL    HW213476   1.593   1.876   1.974
 4193SOL     OW13477   5.526   0.971   0.467
 4193SOL    HW113478   5.466   1.042   0.505
 4193SOL    HW213479   5.587   0.937   0.538
 4194SOL     OW13480   5.096   0.412   4.253
 4194SOL    HW113481   5.170   0.384   4.192
 4194SOL    HW213482   5.063   0.333   4.305
 4195SOL     OW13483   4.005   5.074   1.418
 4195SOL    HW113484   4.044   5.131   1.346
 4195SOL    HW213485   3.945   5.130   1.476
 4196SOL     OW13486   0.039   2.483   3.039
 4196SOL    HW113487   0.089   2.459   2.955
 4196SOL    HW213488   0.084   2.441   3.118
 4197SOL     OW13489   4.436   5.074   5.467
 4197SOL    HW113490   4.472   5.038   5.553
 4197SOL    HW213491   4.439   5.174   5.468
 4198SOL     OW13492   6.785   1.096   1.566
 4198SOL    HW113493   6.696   1.140   1.577
 4198SOL    HW213494   6.817   1.061   1.654
 4199SOL     OW13495   1.033   2.237   5.319
 4199SOL    HW113496   0.980   2.180   5.381
 4199SOL    HW213497   0.971   2.283   5.256
 4200SOL     OW13498   2.671   0.615   5.994
 4200SOL    HW113499   2.763   0.612   5.954
 4200SOL    HW213500   2.621   0.692   5.955
 4201SOL     OW13501   6.509   0.335   3.548
 4201SOL    HW113502   6.417   0.316   3.513
 4201SOL    HW213503   6.509   0.421   3.599
 4202SOL     OW13504   2.681   5.257   6.565
 4202SOL    HW113505   2.613   5.197   6.524
 4202SOL    HW213506   2.717   5.216   6.649
 4203SOL     OW13507   5.499   4.168   0.357
 4203SOL    HW113508   5.529   4.128   0.444
 4203SOL    HW213509   5.407   4.135   0.335
 4204SOL     OW13510   3.890   3.444   4.913
 4204SOL    HW113511   3.981   3.484   4.908
 4204SOL    HW213512   3.850   3.439   4.822
 4205SOL     OW13513   4.204   5.927   5.285
 4205SOL    HW113514   4.228   6.014   5.242
 4205SOL    HW213515   4.177   5.861   5.215
 4206SOL     OW13516   6.575   1.795   5.000
 4206SOL    HW113517   6.516   1.727   4.957
 4206SOL    HW213518   6.619   1.851   4.930
 4207SOL     OW13519   1.998   2.801   1.702
 4207SOL    HW113520   1.992   2.896   1.672
 4207SOL    HW213521   2.021   2.799   1.800
 4208SOL     OW13522   0.062   3.669   5.805
 4208SOL    HW113523   0.051   3.757   5.851
 4208SOL    HW213524   0.149   3.627   5.832
 4209SOL     OW13525   0.023   6.533   3.118
 4209SOL    HW113526   7.010   6.494   3.034
 4209SOL    HW213527   6.986   6.516   3.194
 4210SOL     OW13528   3.780   3.073   2.597
 4210SOL    HW113529   3.743   3.126   2.673
 4210SOL    HW213530   3.875   3.049   2.616
 4211SOL     OW13531   3.260   0.738   5.102
 4211SOL    HW113532   3.338   0.729   5.163
 4211SOL    HW213533   3.290   0.726   5.007
 4212SOL     OW13534   6.502   2.155   3.355
 4212SOL    HW113535   6.602   2.166   3.352
 4212SOL    HW213536   6.461   2.205   3.278
 4213SOL     OW13537   3.048   0.068   2.588
 4213SOL    HW113538   3.146   0.048   2.597
 4213SOL    HW213539   3.030   0.161   2.617
 4214SOL     OW13540   0.472   5.729   5.276
 4214SOL    HW113541   0.509   5.636   5.273
 4214SOL    HW213542   0.382   5.727   5.319
 4215SOL     OW13543   4.832   6.999   5.079
 4215SOL    HW113544   4.907   0.035   5.055
 4215SOL    HW213545   4.832   6.983   5.178
 4216SOL     OW13546   1.386   1.126   2.608
 4216SOL    HW113547   1.411   1.057   2.541
 4216SOL    HW213548   1.426   1.103   2.697
 4217SOL     OW13549   1.127   0.383   2.908
 4217SOL    HW113550   1.074   0.321   2.966
 4217SOL    HW213551   1.148   0.466   2.960
 4218SOL     OW13552   3.481   0.405   1.365
 4218SOL    HW113553   3.449   0.500   1.363
 4218SOL    HW213554   3.562   0.398   1.423
 4219SOL     OW13555   4.183   5.620   4.374
 4219SOL    HW113556   4.219   5.684   4.306
 4219SOL    HW213557   4.259   5.573   4.418
 4220SOL     OW13558   6.340   3.165   1.996
 4220SOL    HW113559   6.309   3.194   1.905
 4220SOL    HW213560   6.304   3.074   2.016
 4221SOL     OW13561   6.147   4.018   5.386
 4221SOL    HW113562   6.074   4.015   5.454
 4221SOL    HW213563   6.139   3.939   5.325
 4222SOL     OW13564   6.770   0.844   2.808
 4222SOL    HW113565   6.758   0.935   2.847
 4222SOL    HW213566   6.681   0.800   2.797
 4223SOL     OW13567   3.895   3.922   0.786
 4223SOL    HW113568   3.878   3.934   0.884
 4223SOL    HW213569   3.807   3.921   0.738
 4224SOL     OW13570   5.502   5.131   4.557
 4224SOL    HW113571   5.442   5.211   4.565
 4224SOL    HW213572   5.590   5.160   4.519
 4225SOL     OW13573   2.085   2.619   5.129
 4225SOL    HW113574   2.120   2.580   5.214
 4225SOL    HW213575   2.008   2.564   5.097
 4226SOL     OW13576   1.051   6.278   3.059
 4226SOL    HW113577   1.047   6.209   3.131
 4226SOL    HW213578   1.130   6.262   3.001
 4227SOL     OW13579   3.876   5.488   1.820
 4227SOL    HW113580   3.958   5.485   1.763
 4227SOL    HW213581   3.810   5.421   1.785
 4228SOL     OW13582   0.005   6.526   5.760
 4228SOL    HW113583   0.045   6.560   5.676
 4228SOL    HW213584   6.944   6.479   5.740
 4229SOL     OW13585   4.943   5.779   5.753
 4229SOL    HW113586   4.978   5.867   5.721
 4229SOL    HW213587   4.935   5.781   5.853
 4230SOL     OW13588   1.909   6.427   3.046
 4230SOL    HW113589   1.949   6.442   2.956
 4230SOL    HW213590   1.824   6.480   3.054
 4231SOL     OW13591   5.177   6.942   5.775
 4231SOL    HW113592   5.161   6.846   5.757
 4231SOL    HW213593   5.146   6.997   5.697
 4232SOL     OW13594   1.194   4.066   3.264
 4232SOL    HW113595   1.136   4.089   3.186
 4232SOL    HW213596   1.240   3.979   3.247
 4233SOL     OW13597   6.954   0.793   5.382
 4233SOL    HW113598   0.027   0.811   5.373
 4233SOL    HW213599   6.914   0.780   5.291
 4234SOL     OW13600   2.512   5.168   5.241
 4234SOL    HW113601   2.476   5.237   5.303
 4234SOL    HW213602   2.446   5.153   5.167
 4235SOL     OW13603   6.718   4.362   5.845
 4235SOL    HW113604   6.666   4.389   5.926
 4235SOL    HW213605   6.714   4.435   5.776
 4236SOL     OW13606   6.212   4.294   1.981
 4236SOL    HW113607   6.157   4.219   1.945
 4236SOL    HW213608   6.196   4.303   2.080
 4237SOL     OW13609   6.026   5.208   4.098
 4237SOL    HW113610   5.937   5.186   4.058
 4237SOL    HW213611   6.093   5.223   4.025
 4238SOL     OW13612   1.278   6.899   2.736
 4238SOL    HW113613   1.271   6.994   2.767
 4238SOL    HW213614   1.368   6.862   2.762
 4239SOL     OW13615   4.911   1.586   3.255
 4239SOL    HW113616   4.950   1.540   3.176
 4239SOL    HW213617   4.966   1.667   3.277
 4240SOL     OW13618   2.122   5.394   0.513
 4240SOL    HW113619   2.115   5.357   0.420
 4240SOL    HW213620   2.031   5.422   0.544
 4241SOL     OW13621   5.692   1.353   1.262
 4241SOL    HW113622   5.724   1.419   1.195
 4241SOL    HW213623   5.600   1.323   1.239
 4242SOL     OW13624   3.078   2.036   4.033
 4242SOL    HW113625   3.072   1.937   4.047
 4242SOL    HW213626   3.051   2.083   4.117
 4243SOL     OW13627   5.677   2.480   3.241
 4243SOL    HW113628   5.660   2.565   3.291
 4243SOL    HW213629   5.757   2.434   3.280
 4244SOL     OW13630   4.344   4.478   1.339
 4244SOL    HW113631   4.268   4.414   1.334
 4244SOL    HW213632   4.366   4.497   1.435
 4245SOL     OW13633   6.297   1.936   6.160
 4245SOL    HW113634   6.342   2.011   6.208
 4245SOL    HW213635   6.273   1.864   6.225
 4246SOL     OW13636   6.551   3.888   2.846
 4246SOL    HW113637   6.632   3.844   2.809
 4246SOL    HW213638   6.577   3.972   2.895
 4247SOL     OW13639   2.293   6.000   3.708
 4247SOL    HW113640   2.242   5.928   3.755
 4247SOL    HW213641   2.334   6.061   3.776
 4248SOL     OW13642   3.241   1.684   4.011
 4248SOL    HW113643   3.287   1.759   3.964
 4248SOL    HW213644   3.151   1.670   3.969
 4249SOL     OW13645   6.501   2.765   5.203
 4249SOL    HW113646   6.550   2.820   5.136
 4249SOL    HW213647   6.471   2.679   5.160
 4250SOL     OW13648   6.854   4.352   2.843
 4250SOL    HW113649   6.811   4.431   2.887
 4250SOL    HW213650   6.907   4.382   2.764
 4251SOL     OW13651   6.126   4.544   0.965
 4251SOL    HW113652   6.085   4.537   1.056
 4251SOL    HW213653   6.127   4.454   0.922
 4252SOL     OW13654   5.941   6.807   5.110
 4252SOL    HW113655   5.843   6.828   5.107
 4252SOL    HW213656   5.985   6.845   5.030
 4253SOL     OW13657   3.266   6.923   1.016
 4253SOL    HW113658   3.347   6.937   1.074
 4253SOL    HW213659   3.274   6.836   0.969
 4254SOL     OW13660   1.184   2.879   2.724
 4254SOL    HW113661   1.277   2.906   2.699
 4254SOL    HW213662   1.159   2.795   2.676
 4255SOL     OW13663   5.546   3.614   3.560
 4255SOL    HW113664   5.616   3.661   3.614
 4255SOL    HW213665   5.469   3.675   3.545
 4256SOL     OW13666   1.638   7.021   0.983
 4256SOL    HW113667   1.541   7.019   1.009
 4256SOL    HW213668   1.684   0.071   1.029
 4257SOL     OW13669   3.375   0.433   4.198
 4257SOL    HW113670   3.473   0.439   4.215
 4257SOL    HW213671   3.356   0.357   4.136
 4258SOL     OW13672   5.533   6.329   1.415
 4258SOL    HW113673   5.602   6.364   1.477
 4258SOL    HW213674   5.462   6.399   1.401
 4259SOL     OW13675   2.787   1.105   0.081
 4259SOL    HW113676   2.763   1.010   0.061
 4259SOL    HW213677   2.882   1.122   0.055
 4260SOL     OW13678   4.811   6.978   6.239
 4260SOL    HW113679   4.749   0.032   6.248
 4260SOL    HW213680   4.865   6.988   6.155
 4261SOL     OW13681   2.497   0.311   2.062
 4261SOL    HW113682   2.447   0.323   1.976
 4261SOL    HW213683   2.584   0.360   2.057
 4262SOL     OW13684   6.916   4.669   5.794
 4262SOL    HW113685   6.844   4.729   5.757
 4262SOL    HW213686   6.901   4.656   5.892
 4263SOL     OW13687   3.094   6.649   3.430
 4263SOL    HW113688   3.085   6.555   3.462
 4263SOL    HW213689   3.055   6.658   3.339
 4264SOL     OW13690   0.150   2.202   2.750
 4264SOL    HW113691   0.077   2.232   2.688
 4264SOL    HW213692   0.217   2.275   2.761
 4265SOL     OW13693   5.524   1.608   0.966
 4265SOL    HW113694   5.504   1.706   0.959
 4265SOL    HW213695   5.476   1.559   0.894
 4266SOL     OW13696   2.095   5.086   0.285
 4266SOL    HW113697   2.112   5.183   0.269
 4266SOL    HW213698   2.001   5.074   0.318
 4267SOL     OW13699   1.878   3.363   4.823
 4267SOL    HW113700   1.946   3.342   4.753
 4267SOL    HW213701   1.918   3.424   4.892
 4268SOL     OW13702   0.881   6.330   6.263
 4268SOL    HW113703   0.956   6.397   6.262
 4268SOL    HW213704   0.823   6.346   6.342
 4269SOL     OW13705   2.108   1.061   1.745
 4269SOL    HW113706   2.139   1.132   1.809
 4269SOL    HW213707   2.009   1.054   1.749
 4270SOL     OW13708   3.816   3.515   4.077
 4270SOL    HW113709   3.789   3.573   4.000
 4270SOL    HW213710   3.734   3.490   4.129
 4271SOL     OW13711   0.377   0.934   6.655
 4271SOL    HW113712   0.373   1.023   6.700
 4271SOL    HW213713   0.284   0.896   6.649
 4272SOL     OW13714   0.719   3.909   4.880
 4272SOL    HW113715   0.652   3.836   4.863
 4272SOL    HW213716   0.789   3.875   4.942
 4273SOL     OW13717   4.556   5.913   5.118
 4273SOL    HW113718   4.496   5.880   5.192
 4273SOL    HW213719   4.601   5.834   5.075
 4274SOL     OW13720   2.115   0.120   2.141
 4274SOL    HW113721   2.062   0.196   2.105
 4274SOL    HW213722   2.060   0.036   2.139
 4275SOL     OW13723   6.388   1.612   4.892
 4275SOL    HW113724   6.416   1.549   4.965
 4275SOL    HW213725   6.294   1.589   4.864
 4276SOL     OW13726   1.492   4.340   3.977
 4276SOL    HW113727   1.477   4.393   3.893
 4276SOL    HW213728   1.491   4.402   4.056
 4277SOL     OW13729   6.105   5.070   4.308
 4277SOL    HW113730   6.070   5.117   4.227
 4277SOL    HW213731   6.120   5.137   4.381
 4278SOL     OW13732   0.365   0.449   4.440
 4278SOL    HW113733   0.431   0.373   4.443
 4278SOL    HW213734   0.357   0.483   4.347
 4279SOL     OW13735   3.259   0.089   5.005
 4279SOL    HW113736   3.348   0.057   4.974
 4279SOL    HW213737   3.247   0.185   4.979
 4280SOL     OW13738   5.488   0.861   5.420
 4280SOL    HW113739   5.495   0.762   5.410
 4280SOL    HW213740   5.521   0.906   5.337
 4281SOL     OW13741   1.593   5.190   3.893
 4281SOL    HW113742   1.690   5.179   3.872
 4281SOL    HW213743   1.565   5.120   3.959
 4282SOL     OW13744   3.498   3.329   6.468
 4282SOL    HW113745   3.541   3.261   6.408
 4282SOL    HW213746   3.421   3.372   6.419
 4283SOL     OW13747   2.521   1.100   3.783
 4283SOL    HW113748   2.599   1.083   3.843
 4283SOL    HW213749   2.458   1.022   3.789
 4284SOL     OW13750   4.538   5.671   1.567
 4284SOL    HW113751   4.520   5.582   1.610
 4284SOL    HW213752   4.631   5.671   1.530
 4285SOL     OW13753   1.056   0.704   5.932
 4285SOL    HW113754   0.973   0.708   5.877
 4285SOL    HW213755   1.109   0.788   5.919
 4286SOL     OW13756   4.949   5.750   6.758
 4286SOL    HW113757   4.901   5.812   6.820
 4286SOL    HW213758   4.905   5.752   6.668
 4287SOL     OW13759   5.567   1.352   6.549
 4287SOL    HW113760   5.516   1.286   6.495
 4287SOL    HW213761   5.656   1.314   6.574
 4288SOL     OW13762   1.129   5.869   3.161
 4288SOL    HW113763   1.066   5.946   3.172
 4288SOL    HW213764   1.154   5.834   3.252
 4289SOL     OW13765   6.682   3.004   0.734
 4289SOL    HW113766   6.760   2.954   0.698
 4289SOL    HW213767   6.601   2.944   0.735
 4290SOL     OW13768   2.874   6.906   2.530
 4290SOL    HW113769   2.890   6.822   2.582
 4290SOL    HW213770   2.938   6.976   2.560
 4291SOL     OW13771   4.327   3.463   1.060
 4291SOL    HW113772   4.312   3.540   1.122
 4291SOL    HW213773   4.332   3.378   1.113
 4292SOL     OW13774   6.382   4.249   6.589
 4292SOL    HW113775   6.375   4.169   6.529
 4292SOL    HW213776   6.296   4.262   6.638
 4293SOL     OW13777   0.689   3.006   0.549
 4293SOL    HW113778   0.657   2.939   0.483
 4293SOL    HW213779   0.630   3.087   0.545
 4294SOL     OW13780   3.477   2.239   0.120
 4294SOL    HW113781   3.560   2.203   0.163
 4294SOL    HW213782   3.407   2.253   0.190
 4295SOL     OW13783   4.093   5.919   4.903
 4295SOL    HW113784   4.052   5.863   4.831
 4295SOL    HW213785   4.193   5.913   4.897
 4296SOL     OW13786   4.076   0.593   0.479
 4296SOL    HW113787   4.166   0.620   0.444
 4296SOL    HW213788   4.080   0.588   0.579
 4297SOL     OW13789   5.558   0.957   6.665
 4297SOL    HW113790   5.482   0.970   6.728
 4297SOL    HW213791   5.523   0.944   6.572
 4298SOL     OW13792   2.948   5.965   6.750
 4298SOL    HW113793   2.909   5.895   6.810
 4298SOL    HW213794   2.948   6.053   6.797
 4299SOL     OW13795   0.589   2.825   0.381
 4299SOL    HW113796   0.491   2.804   0.371
 4299SOL    HW213797   0.642   2.762   0.324
 4300SOL     OW13798   3.720   0.690   0.172
 4300SOL    HW113799   3.652   0.629   0.131
 4300SOL    HW213800   3.804   0.639   0.190
 4301SOL     OW13801   3.261   1.371   0.844
 4301SOL    HW113802   3.349   1.325   0.859
 4301SOL    HW213803   3.242   1.377   0.746
 4302SOL     OW13804   1.002   6.747   5.534
 4302SOL    HW113805   1.079   6.792   5.579
 4302SOL    HW213806   0.946   6.700   5.603
 4303SOL     OW13807   5.930   4.894   3.976
 4303SOL    HW113808   5.861   4.965   3.960
 4303SOL    HW213809   6.016   4.921   3.934
 4304SOL     OW13810   2.979   3.803   3.534
 4304SOL    HW113811   2.888   3.832   3.507
 4304SOL    HW213812   3.032   3.778   3.453
 4305SOL     OW13813   6.245   0.842   4.122
 4305SOL    HW113814   6.292   0.861   4.037
 4305SOL    HW213815   6.301   0.782   4.179
 4306SOL     OW13816   6.130   3.814   6.847
 4306SOL    HW113817   6.218   3.848   6.881
 4306SOL    HW213818   6.138   3.716   6.827
 4307SOL     OW13819   4.678   3.455   6.390
 4307SOL    HW113820   4.764   3.486   6.430
 4307SOL    HW213821   4.628   3.533   6.353
 4308SOL     OW13822   5.602   5.719   6.304
 4308SOL    HW113823   5.508   5.698   6.279
 4308SOL    HW213824   5.605   5.759   6.395
 4309SOL     OW13825   1.296   1.423   0.075
 4309SOL    HW113826   1.208   1.436   0.121
 4309SOL    HW213827   1.284   1.432   7.001
 4310SOL     OW13828   1.787   2.538   3.305
 4310SOL    HW113829   1.758   2.595   3.382
 4310SOL    HW213830   1.813   2.448   3.338
 4311SOL     OW13831   1.664   5.828   3.280
 4311SOL    HW113832   1.639   5.824   3.183
 4311SOL    HW213833   1.599   5.887   3.329
 4312SOL     OW13834   1.238   4.835   0.583
 4312SOL    HW113835   1.280   4.808   0.496
 4312SOL    HW213836   1.187   4.758   0.621
 4313SOL     OW13837   4.790   1.510   1.418
 4313SOL    HW113838   4.799   1.574   1.495
 4313SOL    HW213839   4.782   1.417   1.452
 4314SOL     OW13840   5.650   1.335   4.088
 4314SOL    HW113841   5.714   1.353   4.014
 4314SOL    HW213842   5.646   1.414   4.149
 4315SOL     OW13843   2.839   0.138   1.604
 4315SOL    HW113844   2.842   0.163   1.701
 4315SOL    HW213845   2.823   0.040   1.595
 4316SOL     OW13846   5.006   6.775   1.365
 4316SOL    HW113847   4.981   6.863   1.326
 4316SOL    HW213848   4.926   6.714   1.363
 4317SOL     OW13849   4.423   1.628   4.772
 4317SOL    HW113850   4.355   1.644   4.700
 4317SOL    HW213851   4.405   1.541   4.817
 4318SOL     OW13852   1.196   3.262   3.826
 4318SOL    HW113853   1.239   3.294   3.910
 4318SOL    HW213854   1.160   3.170   3.841
 4319SOL     OW13855   2.390   2.844   0.043
 4319SOL    HW113856   2.381   2.748   0.071
 4319SOL    HW213857   2.320   2.898   0.089
 4320SOL     OW13858   0.421   6.207   2.482
 4320SOL    HW113859   0.431   6.195   2.384
 4320SOL    HW213860   0.427   6.304   2.505
 4321SOL     OW13861   6.660   0.019   4.552
 4321SOL    HW113862   6.745   7.008   4.515
 4321SOL    HW213863   6.637   6.997   4.637
 4322SOL     OW13864   6.068   2.086   6.887
 4322SOL    HW113865   6.108   2.156   6.828
 4322SOL    HW213866   5.978   2.060   6.851
 4323SOL     OW13867   4.965   3.889   1.514
 4323SOL    HW113868   5.031   3.821   1.545
 4323SOL    HW213869   4.959   3.886   1.415
 4324SOL     OW13870   5.802   3.903   6.410
 4324SOL    HW113871   5.898   3.894   6.385
 4324SOL    HW213872   5.771   3.997   6.394
 4325SOL     OW13873   2.068   0.927   0.953
 4325SOL    HW113874   2.079   0.978   1.038
 4325SOL    HW213875   1.974   0.893   0.946
 4326SOL     OW13876   5.700   3.355   4.810
 4326SOL    HW113877   5.680   3.436   4.754
 4326SOL    HW213878   5.766   3.297   4.761
 4327SOL     OW13879   6.138   5.544   2.277
 4327SOL    HW113880   6.198   5.524   2.200
 4327SOL    HW213881   6.046   5.564   2.243
 4328SOL     OW13882   3.830   3.874   6.006
 4328SOL    HW113883   3.731   3.880   5.993
 4328SOL    HW213884   3.877   3.924   5.934
 4329SOL     OW13885   4.104   1.676   6.175
 4329SOL    HW113886   4.101   1.716   6.267
 4329SOL    HW213887   4.023   1.705   6.124
 4330SOL     OW13888   2.790   0.564   4.742
 4330SOL    HW113889   2.855   0.524   4.806
 4330SOL    HW213890   2.814   0.659   4.724
 4331SOL     OW13891   5.004   3.075   0.939
 4331SOL    HW113892   5.015   3.161   0.890
 4331SOL    HW213893   4.949   3.090   1.022
 4332SOL     OW13894   5.340   4.772   2.394
 4332SOL    HW113895   5.350   4.870   2.375
 4332SOL    HW213896   5.243   4.748   2.392
 4333SOL     OW13897   4.315   0.759   5.441
 4333SOL    HW113898   4.332   0.793   5.348
 4333SOL    HW213899   4.269   0.830   5.494
 4334SOL     OW13900   1.702   1.947   2.718
 4334SOL    HW113901   1.633   2.016   2.743
 4334SOL    HW213902   1.743   1.910   2.802
 4335SOL     OW13903   3.360   4.155   3.233
 4335SOL    HW113904   3.376   4.249   3.263
 4335SOL    HW213905   3.444   4.118   3.192
 4336SOL     OW13906   0.854   6.327   6.007
 4336SOL    HW113907   0.862   6.312   6.105
 4336SOL    HW213908   0.944   6.347   5.968
 4337SOL     OW13909   0.960   4.309   0.727
 4337SOL    HW113910   1.015   4.231   0.757
 4337SOL    HW213911   0.942   4.301   0.629
 4338SOL     OW13912   4.716   5.748   4.228
 4338SOL    HW113913   4.783   5.749   4.302
 4338SOL    HW213914   4.678   5.840   4.218
 4339SOL     OW13915   6.570   3.611   5.393
 4339SOL    HW113916   6.479   3.647   5.369
 4339SOL    HW213917   6.561   3.515   5.420
 4340SOL     OW13918   6.244   4.636   1.511
 4340SOL    HW113919   6.317   4.690   1.551
 4340SOL    HW213920   6.160   4.649   1.564
 4341SOL     OW13921   0.757   5.680   2.324
 4341SOL    HW113922   0.666   5.645   2.302
 4341SOL    HW213923   0.752   5.779   2.336
 4342SOL     OW13924   6.352   3.618   4.079
 4342SOL    HW113925   6.258   3.620   4.114
 4342SOL    HW213926   6.363   3.540   4.018
 4343SOL     OW13927   2.081   5.903   5.788
 4343SOL    HW113928   2.003   5.896   5.850
 4343SOL    HW213929   2.161   5.938   5.838
 4344SOL     OW13930   1.502   5.315   3.157
 4344SOL    HW113931   1.481   5.315   3.059
 4344SOL    HW213932   1.597   5.288   3.171
 4345SOL     OW13933   2.131   2.991   5.251
 4345SOL    HW113934   2.188   2.944   5.317
 4345SOL    HW213935   2.189   3.033   5.181
 4346SOL     OW13936   1.838   3.424   2.127
 4346SOL    HW113937   1.848   3.459   2.034
 4346SOL    HW213938   1.922   3.443   2.179
 4347SOL     OW13939   5.849   6.657   2.633
 4347SOL    HW113940   5.907   6.734   2.661
 4347SOL    HW213941   5.767   6.654   2.691
 4348SOL     OW13942   0.019   4.113   3.220
 4348SOL    HW113943   6.962   4.063   3.194
 4348SOL    HW213944   0.099   4.068   3.180
 4349SOL     OW13945   6.746   2.452   2.429
 4349SOL    HW113946   6.708   2.479   2.517
 4349SOL    HW213947   6.699   2.371   2.395
 4350SOL     OW13948   5.189   2.083   4.030
 4350SOL    HW113949   5.160   2.074   3.935
 4350SOL    HW213950   5.224   1.994   4.062
 4351SOL     OW13951   2.209   6.894   1.505
 4351SOL    HW113952   2.218   6.869   1.409
 4351SOL    HW213953   2.224   6.992   1.516
 4352SOL     OW13954   0.457   2.811   2.476
 4352SOL    HW113955   0.463   2.852   2.567
 4352SOL    HW213956   0.443   2.883   2.408
 4353SOL     OW13957   3.377   3.613   6.794
 4353SOL    HW113958   3.356   3.564   6.878
 4353SOL    HW213959   3.339   3.706   6.799
 4354SOL     OW13960   2.358   6.637   5.882
 4354SOL    HW113961   2.328   6.542   5.878
 4354SOL    HW213962   2.297   6.694   5.826
 4355SOL     OW13963   3.577   0.585   2.346
 4355SOL    HW113964   3.510   0.606   2.417
 4355SOL    HW213965   3.535   0.524   2.278
 4356SOL     OW13966   5.031   4.147   1.535
 4356SOL    HW113967   4.995   4.192   1.453
 4356SOL    HW213968   5.017   4.048   1.527
 4357SOL     OW13969   5.876   0.524   0.147
 4357SOL    HW113970   5.885   0.425   0.137
 4357SOL    HW213971   5.801   0.556   0.089
 4358SOL     OW13972   6.761   5.880   7.015
 4358SOL    HW113973   6.763   5.907   0.086
 4358SOL    HW213974   6.780   5.960   6.957
 4359SOL     OW13975   1.825   2.057   6.204
 4359SOL    HW113976   1.823   1.960   6.179
 4359SOL    HW213977   1.907   2.099   6.166
 4360SOL     OW13978   1.134   2.387   3.497
 4360SOL    HW113979   1.196   2.318   3.534
 4360SOL    HW213980   1.186   2.465   3.463
 4361SOL     OW13981   3.056   3.019   1.303
 4361SOL    HW113982   3.092   2.927   1.316
 4361SOL    HW213983   2.988   3.018   1.230
 4362SOL     OW13984   6.476   4.738   2.991
 4362SOL    HW113985   6.396   4.715   3.046
 4362SOL    HW213986   6.547   4.776   3.050
 4363SOL     OW13987   5.404   2.515   6.875
 4363SOL    HW113988   5.308   2.539   6.868
 4363SOL    HW213989   5.452   2.541   6.791
 4364SOL     OW13990   3.649   3.502   5.239
 4364SOL    HW113991   3.626   3.517   5.143
 4364SOL    HW213992   3.567   3.508   5.295
 4365SOL     OW13993   2.002   2.528   1.874
 4365SOL    HW113994   1.933   2.588   1.835
 4365SOL    HW213995   1.985   2.517   1.972
 4366SOL     OW13996   5.808   6.018   0.167
 4366SOL    HW113997   5.754   6.024   0.251
 4366SOL    HW213998   5.881   6.085   0.169
 4367SOL     OW13999   2.118   4.685   4.548
 4367SOL    HW114000   2.111   4.728   4.458
 4367SOL    HW214001   2.214   4.659   4.565
 4368SOL     OW14002   4.007   4.679   1.124
 4368SOL    HW114003   4.086   4.664   1.066
 4368SOL    HW214004   3.930   4.624   1.092
 4369SOL     OW14005   3.556   5.355   3.846
 4369SOL    HW114006   3.560   5.298   3.928
 4369SOL    HW214007   3.648   5.367   3.810
 4370SOL     OW14008   4.681   5.045   2.898
 4370SOL    HW114009   4.649   4.959   2.858
 4370SOL    HW214010   4.603   5.103   2.919
 4371SOL     OW14011   0.450   1.041   1.548
 4371SOL    HW114012   0.369   0.983   1.555
 4371SOL    HW214013   0.495   1.025   1.460
 4372SOL     OW14014   4.156   1.276   3.017
 4372SOL    HW114015   4.120   1.316   3.102
 4372SOL    HW214016   4.109   1.317   2.939
 4373SOL     OW14017   0.460   2.253   6.855
 4373SOL    HW114018   0.484   2.346   6.827
 4373SOL    HW214019   0.538   2.211   6.901
 4374SOL     OW14020   1.083   1.975   2.100
 4374SOL    HW114021   1.139   1.982   2.182
 4374SOL    HW214022   1.115   2.040   2.031
 4375SOL     OW14023   3.766   0.935   3.255
 4375SOL    HW114024   3.751   0.977   3.166
 4375SOL    HW214025   3.741   0.838   3.250
 4376SOL     OW14026   6.297   6.786   2.592
 4376SOL    HW114027   6.351   6.751   2.669
 4376SOL    HW214028   6.358   6.819   2.520
 4377SOL     OW14029   5.480   4.093   0.021
 4377SOL    HW114030   5.503   3.999   7.020
 4377SOL    HW214031   5.563   4.140   0.052
 4378SOL     OW14032   1.862   1.285   2.836
 4378SOL    HW114033   1.770   1.293   2.799
 4378SOL    HW214034   1.924   1.345   2.784
 4379SOL     OW14035   1.836   1.039   2.649
 4379SOL    HW114036   1.875   1.094   2.722
 4379SOL    HW214037   1.850   0.942   2.669
 4380SOL     OW14038   1.853   0.052   2.620
 4380SOL    HW114039   1.850   6.979   2.601
 4380SOL    HW214040   1.936   0.091   2.580
 4381SOL     OW14041   0.122   6.218   5.366
 4381SOL    HW114042   0.135   6.317   5.375
 4381SOL    HW214043   0.041   6.189   5.417
 4382SOL     OW14044   1.012   3.485   5.343
 4382SOL    HW114045   0.991   3.530   5.430
 4382SOL    HW214046   1.018   3.386   5.357
 4383SOL     OW14047   0.730   3.225   6.687
 4383SOL    HW114048   0.818   3.196   6.723
 4383SOL    HW214049   0.672   3.257   6.761
 4384SOL     OW14050   6.226   0.552   4.668
 4384SOL    HW114051   6.257   0.594   4.753
 4384SOL    HW214052   6.134   0.514   4.680
 4385SOL     OW14053   4.632   2.788   5.026
 4385SOL    HW114054   4.645   2.858   5.096
 4385SOL    HW214055   4.697   2.803   4.952
 4386SOL     OW14056   1.917   3.524   5.484
 4386SOL    HW114057   1.825   3.531   5.522
 4386SOL    HW214058   1.981   3.498   5.556
 4387SOL     OW14059   6.689   2.497   1.694
 4387SOL    HW114060   6.751   2.523   1.767
 4387SOL    HW214061   6.619   2.434   1.729
 4388SOL     OW14062   3.763   1.950   5.653
 4388SOL    HW114063   3.842   1.954   5.715
 4388SOL    HW214064   3.680   1.931   5.706
 4389SOL     OW14065   6.861   3.552   1.259
 4389SOL    HW114066   6.791   3.532   1.327
 4389SOL    HW214067   6.952   3.537   1.299
 4390SOL     OW14068   4.308   6.774   1.398
 4390SOL    HW114069   4.299   6.865   1.437
 4390SOL    HW214070   4.231   6.718   1.426
 4391SOL     OW14071   2.574   5.586   6.854
 4391SOL    HW114072   2.661   5.543   6.878
 4391SOL    HW214073   2.526   5.529   6.787
 4392SOL     OW14074   0.972   2.398   5.009
 4392SOL    HW114075   0.882   2.354   5.014
 4392SOL    HW214076   0.973   2.463   4.933
 4393SOL     OW14077   6.119   0.986   1.527
 4393SOL    HW114078   6.197   1.007   1.586
 4393SOL    HW214079   6.099   0.888   1.531
 4394SOL     OW14080   6.755   5.808   2.391
 4394SOL    HW114081   6.774   5.866   2.470
 4394SOL    HW214082   6.687   5.852   2.332
 4395SOL     OW14083   1.881   0.700   1.791
 4395SOL    HW114084   1.974   0.665   1.802
 4395SOL    HW214085   1.839   0.713   1.881
 4396SOL     OW14086   1.631   1.511   3.902
 4396SOL    HW114087   1.586   1.474   3.983
 4396SOL    HW214088   1.586   1.475   3.820
 4397SOL     OW14089   1.605   2.408   4.443
 4397SOL    HW114090   1.600   2.393   4.542
 4397SOL    HW214091   1.537   2.351   4.397
 4398SOL     OW14092   1.693   3.403   6.071
 4398SOL    HW114093   1.712   3.500   6.055
 4398SOL    HW214094   1.777   3.350   6.063
 4399SOL     OW14095   3.614   5.972   2.396
 4399SOL    HW114096   3.597   5.945   2.302
 4399SOL    HW214097   3.685   5.914   2.436
 4400SOL     OW14098   2.368   6.827   4.348
 4400SOL    HW114099   2.442   6.893   4.331
 4400SOL    HW214100   2.302   6.867   4.411
 4401SOL     OW14101   3.073   6.719   5.311
 4401SOL    HW114102   3.084   6.818   5.303
 4401SOL    HW214103   3.037   6.697   5.401
 4402SOL     OW14104   1.686   7.003   2.869
 4402SOL    HW114105   1.730   0.018   2.949
 4402SOL    HW214106   1.724   0.019   2.786
 4403SOL     OW14107   0.902   6.614   6.835
 4403SOL    HW114108   0.869   6.683   6.771
 4403SOL    HW214109   0.939   6.659   6.916
 4404SOL     OW14110   1.145   6.278   5.362
 4404SOL    HW114111   1.156   6.272   5.263
 4404SOL    HW214112   1.180   6.366   5.394
 4405SOL     OW14113   1.871   4.790   2.021
 4405SOL    HW114114   1.804   4.813   1.950
 4405SOL    HW214115   1.929   4.716   1.988
 4406SOL     OW14116   0.226   2.870   0.686
 4406SOL    HW114117   0.310   2.862   0.740
 4406SOL    HW214118   0.247   2.853   0.590
 4407SOL     OW14119   0.006   5.260   1.808
 4407SOL    HW114120   6.981   5.179   1.839
 4407SOL    HW214121   0.084   5.231   1.754
 4408SOL     OW14122   2.054   0.079   0.204
 4408SOL    HW114123   1.974   0.119   0.160
 4408SOL    HW214124   2.107   0.027   0.136
 4409SOL     OW14125   4.304   1.322   1.590
 4409SOL    HW114126   4.350   1.402   1.628
 4409SOL    HW214127   4.342   1.239   1.631
 4410SOL     OW14128   0.582   5.259   0.086
 4410SOL    HW114129   0.654   5.327   0.070
 4410SOL    HW214130   0.574   5.241   0.184
 4411SOL     OW14131   3.515   4.123   5.007
 4411SOL    HW114132   3.546   4.032   5.035
 4411SOL    HW214133   3.529   4.187   5.083
 4412SOL     OW14134   4.615   6.349   4.156
 4412SOL    HW114135   4.628   6.441   4.194
 4412SOL    HW214136   4.685   6.332   4.086
 4413SOL     OW14137   5.387   5.371   3.749
 4413SOL    HW114138   5.389   5.468   3.726
 4413SOL    HW214139   5.372   5.318   3.666
 4414SOL     OW14140   3.371   5.651   1.175
 4414SOL    HW114141   3.443   5.630   1.242
 4414SOL    HW214142   3.399   5.619   1.085
 4415SOL     OW14143   4.816   3.080   0.298
 4415SOL    HW114144   4.883   3.028   0.350
 4415SOL    HW214145   4.844   3.177   0.296
 4416SOL     OW14146   4.292   1.890   3.972
 4416SOL    HW114147   4.376   1.897   4.025
 4416SOL    HW214148   4.274   1.794   3.950
 4417SOL     OW14149   5.607   4.079   4.010
 4417SOL    HW114150   5.622   4.042   4.101
 4417SOL    HW214151   5.624   4.008   3.941
 4418SOL     OW14152   6.148   2.107   2.959
 4418SOL    HW114153   6.085   2.157   2.900
 4418SOL    HW214154   6.131   2.131   3.055
 4419SOL     OW14155   6.344   0.176   5.635
 4419SOL    HW114156   6.384   0.267   5.624
 4419SOL    HW214157   6.257   0.171   5.586
 4420SOL     OW14158   3.744   1.596   2.107
 4420SOL    HW114159   3.686   1.643   2.041
 4420SOL    HW214160   3.720   1.625   2.200
 4421SOL     OW14161   1.939   1.577   5.041
 4421SOL    HW114162   2.024   1.588   5.093
 4421SOL    HW214163   1.913   1.664   5.000
 4422SOL     OW14164   1.113   4.503   6.837
 4422SOL    HW114165   1.085   4.531   6.745
 4422SOL    HW214166   1.187   4.436   6.830
 4423SOL     OW14167   0.278   4.002   5.670
 4423SOL    HW114168   0.182   3.995   5.696
 4423SOL    HW214169   0.284   4.033   5.575
 4424SOL     OW14170   5.290   0.110   4.420
 4424SOL    HW114171   5.342   0.108   4.506
 4424SOL    HW214172   5.258   0.017   4.399
 4425SOL     OW14173   2.642   4.702   0.580
 4425SOL    HW114174   2.620   4.655   0.665
 4425SOL    HW214175   2.560   4.710   0.524
 4426SOL     OW14176   0.463   1.390   3.928
 4426SOL    HW114177   0.422   1.479   3.951
 4426SOL    HW214178   0.422   1.319   3.985
 4427SOL     OW14179   5.762   6.918   2.816
 4427SOL    HW114180   5.718   6.829   2.811
 4427SOL    HW214181   5.702   6.988   2.777
 4428SOL     OW14182   4.456   0.734   4.157
 4428SOL    HW114183   4.499   0.670   4.220
 4428SOL    HW214184   4.512   0.743   4.075
 4429SOL     OW14185   3.222   6.777   2.580
 4429SOL    HW114186   3.128   6.750   2.602
 4429SOL    HW214187   3.222   6.849   2.510
 4430SOL     OW14188   5.098   4.685   4.942
 4430SOL    HW114189   5.024   4.749   4.961
 4430SOL    HW214190   5.129   4.643   5.027
 4431SOL     OW14191   2.887   0.838   3.373
 4431SOL    HW114192   2.878   0.918   3.314
 4431SOL    HW214193   2.943   0.861   3.453
 4432SOL     OW14194   2.867   3.298   6.100
 4432SOL    HW114195   2.917   3.381   6.075
 4432SOL    HW214196   2.775   3.301   6.060
 4433SOL     OW14197   6.708   2.793   4.417
 4433SOL    HW114198   6.724   2.891   4.408
 4433SOL    HW214199   6.616   2.776   4.450
 4434SOL     OW14200   5.535   1.581   3.064
 4434SOL    HW114201   5.523   1.676   3.035
 4434SOL    HW214202   5.623   1.547   3.032
 4435SOL     OW14203   4.410   3.309   0.864
 4435SOL    HW114204   4.371   3.219   0.881
 4435SOL    HW214205   4.370   3.376   0.926
 4436SOL     OW14206   4.404   1.102   1.723
 4436SOL    HW114207   4.334   1.094   1.795
 4436SOL    HW214208   4.494   1.084   1.763
 4437SOL     OW14209   1.011   3.085   2.822
 4437SOL    HW114210   1.007   3.122   2.915
 4437SOL    HW214211   1.092   3.027   2.813
 4438SOL     OW14212   4.824   6.772   6.445
 4438SOL    HW114213   4.835   6.848   6.380
 4438SOL    HW214214   4.776   6.805   6.526
 4439SOL     OW14215   0.059   4.522   1.841
 4439SOL    HW114216   0.043   4.455   1.769
 4439SOL    HW214217   0.051   4.614   1.803
 4440SOL     OW14218   2.863   4.645   0.727
 4440SOL    HW114219   2.923   4.723   0.716
 4440SOL    HW214220   2.780   4.658   0.672
 4441SOL     OW14221   0.158   1.343   1.394
 4441SOL    HW114222   0.107   1.258   1.408
 4441SOL    HW214223   0.095   1.416   1.368
 4442SOL     OW14224   1.352   5.485   4.865
 4442SOL    HW114225   1.285   5.544   4.910
 4442SOL    HW214226   1.337   5.390   4.893
 4443SOL     OW14227   1.639   3.527   5.609
 4443SOL    HW114228   1.655   3.605   5.669
 4443SOL    HW214229   1.565   3.548   5.545
 4444SOL     OW14230   4.140   3.792   6.776
 4444SOL    HW114231   4.172   3.744   6.858
 4444SOL    HW214232   4.093   3.728   6.716
 4445SOL     OW14233   1.004   6.044   0.221
 4445SOL    HW114234   0.963   5.983   0.153
 4445SOL    HW214235   1.039   6.126   0.176
 4446SOL     OW14236   5.627   2.186   0.501
 4446SOL    HW114237   5.678   2.104   0.523
 4446SOL    HW214238   5.674   2.237   0.429
 4447SOL     OW14239   6.399   3.814   5.069
 4447SOL    HW114240   6.377   3.732   5.016
 4447SOL    HW214241   6.374   3.799   5.165
 4448SOL     OW14242   2.546   6.230   1.088
 4448SOL    HW114243   2.542   6.228   1.187
 4448SOL    HW214244   2.525   6.322   1.055
 4449SOL     OW14245   5.162   0.868   6.337
 4449SOL    HW114246   5.192   0.850   6.243
 4449SOL    HW214247   5.071   0.909   6.335
 4450SOL     OW14248   2.767   1.709   6.805
 4450SOL    HW114249   2.820   1.644   6.751
 4450SOL    HW214250   2.692   1.745   6.749
 4451SOL     OW14251   4.627   5.223   4.703
 4451SOL    HW114252   4.680   5.243   4.785
 4451SOL    HW214253   4.530   5.219   4.726
 4452SOL     OW14254   5.668   5.678   4.268
 4452SOL    HW114255   5.661   5.762   4.322
 4452SOL    HW214256   5.748   5.683   4.209
 4453SOL     OW14257   1.343   2.986   1.809
 4453SOL    HW114258   1.442   2.985   1.794
 4453SOL    HW214259   1.298   3.026   1.729
 4454SOL     OW14260   1.450   1.851   0.143
 4454SOL    HW114261   1.467   1.789   0.066
 4454SOL    HW214262   1.445   1.799   0.228
 4455SOL     OW14263   5.409   6.001   5.473
 4455SOL    HW114264   5.444   5.914   5.507
 4455SOL    HW214265   5.469   6.075   5.502
 4456SOL     OW14266   2.635   6.411   3.105
 4456SOL    HW114267   2.728   6.418   3.142
 4456SOL    HW214268   2.640   6.401   3.005
 4457SOL     OW14269   3.514   1.540   3.540
 4457SOL    HW114270   3.526   1.441   3.537
 4457SOL    HW214271   3.509   1.576   3.447
 4458SOL     OW14272   2.383   3.078   1.389
 4458SOL    HW114273   2.394   3.075   1.290
 4458SOL    HW214274   2.432   3.001   1.430
 4459SOL     OW14275   4.073   2.258   4.288
 4459SOL    HW114276   4.038   2.237   4.379
 4459SOL    HW214277   4.012   2.220   4.219
 4460SOL     OW14278   0.708   2.650   0.223
 4460SOL    HW114279   0.733   2.554   0.236
 4460SOL    HW214280   0.665   2.661   0.134
 4461SOL     OW14281   1.629   1.183   1.384
 4461SOL    HW114282   1.616   1.100   1.328
 4461SOL    HW214283   1.544   1.203   1.432
 4462SOL     OW14284   5.960   4.958   1.576
 4462SOL    HW114285   5.905   4.987   1.654
 4462SOL    HW214286   5.966   4.858   1.574
 4463SOL     OW14287   4.940   1.312   1.074
 4463SOL    HW114288   4.900   1.228   1.038
 4463SOL    HW214289   4.937   1.311   1.174
 4464SOL     OW14290   0.374   6.060   0.758
 4464SOL    HW114291   0.306   5.990   0.777
 4464SOL    HW214292   0.460   6.017   0.732
 4465SOL     OW14293   2.862   5.067   0.642
 4465SOL    HW114294   2.855   5.051   0.741
 4465SOL    HW214295   2.941   5.125   0.623
 4466SOL     OW14296   1.198   1.911   2.997
 4466SOL    HW114297   1.225   1.880   2.905
 4466SOL    HW214298   1.217   2.009   3.005
 4467SOL     OW14299   2.259   4.813   3.039
 4467SOL    HW114300   2.241   4.724   2.999
 4467SOL    HW214301   2.179   4.845   3.089
 4468SOL     OW14302   2.187   4.196   0.814
 4468SOL    HW114303   2.167   4.170   0.908
 4468SOL    HW214304   2.244   4.127   0.771
 4469SOL     OW14305   3.034   0.793   1.206
 4469SOL    HW114306   3.093   0.715   1.229
 4469SOL    HW214307   2.940   0.761   1.195
 4470SOL     OW14308   1.063   1.890   2.517
 4470SOL    HW114309   1.052   1.841   2.603
 4470SOL    HW214310   0.980   1.883   2.463
 4471SOL     OW14311   0.998   2.816   6.751
 4471SOL    HW114312   1.067   2.886   6.735
 4471SOL    HW214313   1.016   2.737   6.691
 4472SOL     OW14314   0.417   2.094   1.340
 4472SOL    HW114315   0.374   2.060   1.257
 4472SOL    HW214316   0.473   2.022   1.381
 4473SOL     OW14317   5.607   2.799   4.086
 4473SOL    HW114318   5.541   2.735   4.047
 4473SOL    HW214319   5.559   2.875   4.129
 4474SOL     OW14320   3.121   6.692   1.462
 4474SOL    HW114321   3.219   6.683   1.442
 4474SOL    HW214322   3.110   6.725   1.556
 4475SOL     OW14323   1.176   3.910   1.900
 4475SOL    HW114324   1.091   3.862   1.919
 4475SOL    HW214325   1.206   3.888   1.807
 4476SOL     OW14326   6.411   0.870   3.902
 4476SOL    HW114327   6.509   0.869   3.884
 4476SOL    HW214328   6.363   0.820   3.830
 4477SOL     OW14329   1.491   0.734   5.551
 4477SOL    HW114330   1.473   0.635   5.555
 4477SOL    HW214331   1.491   0.772   5.643
 4478SOL     OW14332   2.653   0.036   2.579
 4478SOL    HW114333   2.619   0.028   2.485
 4478SOL    HW214334   2.739   7.011   2.587
 4479SOL     OW14335   0.752   2.153   1.640
 4479SOL    HW114336   0.725   2.232   1.694
 4479SOL    HW214337   0.812   2.094   1.694
 4480SOL     OW14338   0.258   4.436   5.119
 4480SOL    HW114339   0.167   4.479   5.111
 4480SOL    HW214340   0.249   4.337   5.107
 4481SOL     OW14341   2.352   5.151   5.033
 4481SOL    HW114342   2.384   5.066   4.990
 4481SOL    HW214343   2.254   5.145   5.047
 4482SOL     OW14344   2.559   2.478   5.504
 4482SOL    HW114345   2.561   2.543   5.427
 4482SOL    HW214346   2.597   2.521   5.585
 4483SOL     OW14347   0.032   2.577   1.959
 4483SOL    HW114348   0.094   2.655   1.951
 4483SOL    HW214349   0.068   2.513   2.027
 4484SOL     OW14350   2.908   2.341   6.708
 4484SOL    HW114351   2.955   2.402   6.645
 4484SOL    HW214352   2.960   2.256   6.718
 4485SOL     OW14353   5.414   2.659   5.129
 4485SOL    HW114354   5.338   2.683   5.068
 4485SOL    HW214355   5.467   2.585   5.089
 4486SOL     OW14356   6.054   5.102   4.933
 4486SOL    HW114357   6.052   5.159   5.015
 4486SOL    HW214358   5.968   5.113   4.883
 4487SOL     OW14359   2.801   2.780   0.097
 4487SOL    HW114360   2.750   2.695   0.090
 4487SOL    HW214361   2.870   2.784   0.024
 4488SOL     OW14362   1.250   3.253   4.736
 4488SOL    HW114363   1.214   3.229   4.826
 4488SOL    HW214364   1.336   3.204   4.722
 4489SOL     OW14365   4.990   5.474   4.617
 4489SOL    HW114366   4.957   5.513   4.703
 4489SOL    HW214367   5.087   5.450   4.627
 4490SOL     OW14368   5.586   1.884   1.820
 4490SOL    HW114369   5.621   1.911   1.730
 4490SOL    HW214370   5.486   1.877   1.816
 4491SOL     OW14371   0.191   3.392   3.560
 4491SOL    HW114372   0.102   3.404   3.516
 4491SOL    HW214373   0.242   3.478   3.555
 4492SOL     OW14374   6.078   3.328   1.493
 4492SOL    HW114375   6.105   3.342   1.588
 4492SOL    HW214376   6.156   3.348   1.433
 4493SOL     OW14377   4.624   6.547   5.175
 4493SOL    HW114378   4.722   6.555   5.158
 4493SOL    HW214379   4.596   6.452   5.160
 4494SOL     OW14380   0.624   1.079   6.031
 4494SOL    HW114381   0.675   1.136   5.967
 4494SOL    HW214382   0.645   1.106   6.124
 4495SOL     OW14383   4.861   6.971   3.888
 4495SOL    HW114384   4.940   7.000   3.833
 4495SOL    HW214385   4.793   6.929   3.829
 4496SOL     OW14386   5.459   6.071   0.630
 4496SOL    HW114387   5.370   6.105   0.600
 4496SOL    HW214388   5.500   6.137   0.693
 4497SOL     OW14389   4.512   2.200   6.449
 4497SOL    HW114390   4.499   2.267   6.376
 4497SOL    HW214391   4.560   2.243   6.526
 4498SOL     OW14392   0.050   5.154   6.674
 4498SOL    HW114393   0.006   5.076   6.629
 4498SOL    HW214394   0.013   5.164   6.767
 4499SOL     OW14395   6.283   3.124   3.206
 4499SOL    HW114396   6.299   3.157   3.113
 4499SOL    HW214397   6.361   3.146   3.264
 4500SOL     OW14398   3.923   4.233   6.667
 4500SOL    HW114399   3.967   4.239   6.578
 4500SOL    HW214400   3.887   4.140   6.681
 4501SOL     OW14401   6.282   3.502   3.108
 4501SOL    HW114402   6.361   3.563   3.110
 4501SOL    HW214403   6.301   3.425   3.047
 4502SOL     OW14404   1.271   3.841   0.019
 4502SOL    HW114405   1.184   3.829   6.997
 4502SOL    HW214406   1.311   3.929   7.017
 4503SOL     OW14407   3.672   6.642   1.884
 4503SOL    HW114408   3.744   6.617   1.949
 4503SOL    HW214409   3.662   6.570   1.816
 4504SOL     OW14410   6.413   1.689   4.294
 4504SOL    HW114411   6.392   1.591   4.305
 4504SOL    HW214412   6.416   1.711   4.196
 4505SOL     OW14413   6.486   4.750   1.673
 4505SOL    HW114414   6.571   4.801   1.690
 4505SOL    HW214415   6.461   4.699   1.754
 4506SOL     OW14416   4.920   2.553   3.952
 4506SOL    HW114417   4.991   2.484   3.935
 4506SOL    HW214418   4.952   2.642   3.921
 4507SOL     OW14419   0.217   3.558   3.856
 4507SOL    HW114420   0.183   3.639   3.903
 4507SOL    HW214421   0.143   3.515   3.805
 4508SOL     OW14422   1.106   4.817   0.296
 4508SOL    HW114423   1.090   4.915   0.281
 4508SOL    HW214424   1.188   4.789   0.246
 4509SOL     OW14425   4.997   1.855   3.330
 4509SOL    HW114426   4.951   1.928   3.381
 4509SOL    HW214427   4.976   1.864   3.232
 4510SOL     OW14428   4.679   1.205   4.296
 4510SOL    HW114429   4.638   1.116   4.314
 4510SOL    HW214430   4.772   1.208   4.332
 4511SOL     OW14431   6.125   3.231   0.279
 4511SOL    HW114432   6.222   3.254   0.292
 4511SOL    HW214433   6.105   3.229   0.181
 4512SOL     OW14434   3.346   1.225   6.254
 4512SOL    HW114435   3.328   1.292   6.181
 4512SOL    HW214436   3.441   1.197   6.250
 4513SOL     OW14437   1.230   5.253   6.666
 4513SOL    HW114438   1.278   5.249   6.578
 4513SOL    HW214439   1.135   5.222   6.654
 4514SOL     OW14440   3.204   2.292   6.200
 4514SOL    HW114441   3.119   2.345   6.197
 4514SOL    HW214442   3.280   2.350   6.168
 4515SOL     OW14443   6.017   2.048   5.650
 4515SOL    HW114444   6.068   2.108   5.712
 4515SOL    HW214445   5.919   2.060   5.664
 4516SOL     OW14446   2.695   0.278   6.428
 4516SOL    HW114447   2.791   0.301   6.442
 4516SOL    HW214448   2.653   0.347   6.369
 4517SOL     OW14449   4.697   6.866   6.666
 4517SOL    HW114450   4.719   6.805   6.743
 4517SOL    HW214451   4.605   6.846   6.633
 4518SOL     OW14452   0.634   6.810   1.462
 4518SOL    HW114453   0.630   6.805   1.562
 4518SOL    HW214454   0.611   6.903   1.432
 4519SOL     OW14455   5.097   6.732   0.411
 4519SOL    HW114456   5.118   6.646   0.364
 4519SOL    HW214457   5.183   6.776   0.439
 4520SOL     OW14458   3.913   5.762   6.193
 4520SOL    HW114459   3.937   5.806   6.280
 4520SOL    HW214460   3.831   5.706   6.205
 4521SOL     OW14461   5.099   2.367   5.094
 4521SOL    HW114462   5.045   2.286   5.120
 4521SOL    HW214463   5.103   2.373   4.995
 4522SOL     OW14464   5.525   4.539   3.008
 4522SOL    HW114465   5.603   4.480   2.986
 4522SOL    HW214466   5.456   4.486   3.057
 4523SOL     OW14467   0.899   4.030   7.008
 4523SOL    HW114468   0.929   4.113   6.960
 4523SOL    HW214469   0.930   3.949   6.958
 4524SOL     OW14470   5.887   3.537   2.711
 4524SOL    HW114471   5.892   3.505   2.806
 4524SOL    HW214472   5.845   3.627   2.709
 4525SOL     OW14473   3.871   1.739   6.024
 4525SOL    HW114474   3.805   1.787   6.082
 4525SOL    HW214475   3.822   1.677   5.962
 4526SOL     OW14476   6.779   0.630   6.968
 4526SOL    HW114477   6.764   0.714   7.019
 4526SOL    HW214478   6.863   0.585   7.000
 4527SOL     OW14479   6.213   6.946   2.379
 4527SOL    HW114480   6.130   7.001   2.368
 4527SOL    HW214481   6.192   6.868   2.438
 4528SOL     OW14482   4.146   0.599   6.392
 4528SOL    HW114483   4.074   0.608   6.460
 4528SOL    HW214484   4.126   0.521   6.332
 4529SOL     OW14485   2.303   1.228   5.594
 4529SOL    HW114486   2.224   1.208   5.536
 4529SOL    HW214487   2.326   1.146   5.647
 4530SOL     OW14488   2.420   5.698   3.092
 4530SOL    HW114489   2.477   5.715   3.173
 4530SOL    HW214490   2.407   5.600   3.080
 4531SOL     OW14491   1.249   3.345   6.254
 4531SOL    HW114492   1.261   3.443   6.241
 4531SOL    HW214493   1.154   3.319   6.235
 4532SOL     OW14494   5.793   0.967   2.769
 4532SOL    HW114495   5.888   0.945   2.750
 4532SOL    HW214496   5.783   0.994   2.865
 4533SOL     OW14497   1.938   1.095   3.288
 4533SOL    HW114498   1.959   1.171   3.227
 4533SOL    HW214499   1.881   1.128   3.363
 4534SOL     OW14500   4.778   2.517   5.302
 4534SOL    HW114501   4.749   2.487   5.211
 4534SOL    HW214502   4.702   2.565   5.346
 4535SOL     OW14503   3.694   1.398   1.914
 4535SOL    HW114504   3.705   1.434   2.007
 4535SOL    HW214505   3.597   1.377   1.898
 4536SOL     OW14506   3.432   1.852   4.629
 4536SOL    HW114507   3.502   1.914   4.665
 4536SOL    HW214508   3.354   1.850   4.691
 4537SOL     OW14509   4.170   3.625   1.690
 4537SOL    HW114510   4.158   3.541   1.743
 4537SOL    HW214511   4.261   3.624   1.649
 4538SOL     OW14512   2.725   0.486   2.514
 4538SOL    HW114513   2.775   0.416   2.564
 4538SOL    HW214514   2.709   0.565   2.573
 4539SOL     OW14515   2.381   5.603   4.526
 4539SOL    HW114516   2.399   5.699   4.545
 4539SOL    HW214517   2.467   5.552   4.528
 4540SOL     OW14518   2.223   1.038   0.646
 4540SOL    HW114519   2.323   1.034   0.652
 4540SOL    HW214520   2.187   1.094   0.720
 4541SOL     OW14521   5.597   1.445   6.882
 4541SOL    HW114522   5.659   1.442   6.804
 4541SOL    HW214523   5.647   1.422   6.966
 4542SOL     OW14524   0.035   2.360   1.548
 4542SOL    HW114525   0.080   2.364   1.637
 4542SOL    HW214526   0.092   2.310   1.484
 4543SOL     OW14527   4.804   2.054   1.222
 4543SOL    HW114528   4.859   1.984   1.267
 4543SOL    HW214529   4.811   2.140   1.273
 4544SOL     OW14530   4.026   4.679   0.290
 4544SOL    HW114531   4.031   4.699   0.388
 4544SOL    HW214532   3.932   4.655   0.266
 4545SOL     OW14533   6.943   3.744   5.450
 4545SOL    HW114534   6.901   3.752   5.360
 4545SOL    HW214535   6.907   3.816   5.510
 4546SOL     OW14536   2.897   6.658   4.314
 4546SOL    HW114537   2.859   6.573   4.350
 4546SOL    HW214538   2.871   6.668   4.218
 4547SOL     OW14539   6.583   1.603   0.648
 4547SOL    HW114540   6.556   1.694   0.681
 4547SOL    HW214541   6.504   1.560   0.603
 4548SOL     OW14542   2.525   2.509   3.628
 4548SOL    HW114543   2.565   2.418   3.634
 4548SOL    HW214544   2.541   2.558   3.713
 4549SOL     OW14545   5.107   3.894   2.263
 4549SOL    HW114546   5.011   3.907   2.286
 4549SOL    HW214547   5.129   3.946   2.180
 4550SOL     OW14548   1.081   4.556   2.977
 4550SOL    HW114549   1.126   4.479   3.022
 4550SOL    HW214550   1.134   4.639   2.990
 4551SOL     OW14551   0.867   3.630   5.125
 4551SOL    HW114552   0.940   3.622   5.193
 4551SOL    HW214553   0.872   3.720   5.082
 4552SOL     OW14554   5.655   2.305   1.016
 4552SOL    HW114555   5.647   2.378   1.083
 4552SOL    HW214556   5.635   2.217   1.060
 4553SOL     OW14557   5.461   4.136   6.526
 4553SOL    HW114558   5.470   4.159   6.623
 4553SOL    HW214559   5.548   4.151   6.480
 4554SOL     OW14560   0.007   6.873   1.867
 4554SOL    HW114561   6.933   6.874   1.850
 4554SOL    HW214562   0.037   6.778   1.880
 4555SOL     OW14563   1.255   0.905   6.096
 4555SOL    HW114564   1.238   0.930   6.001
 4555SOL    HW214565   1.354   0.907   6.114
 4556SOL     OW14566   6.429   3.234   4.809
 4556SOL    HW114567   6.524   3.263   4.824
 4556SOL    HW214568   6.395   3.273   4.724
 4557SOL     OW14569   5.189   5.247   4.383
 4557SOL    HW114570   5.264   5.285   4.327
 4557SOL    HW214571   5.206   5.150   4.400
 4558SOL     OW14572   6.614   3.825   4.623
 4558SOL    HW114573   6.549   3.771   4.676
 4558SOL    HW214574   6.659   3.767   4.556
 4559SOL     OW14575   6.818   3.290   2.791
 4559SOL    HW114576   6.906   3.258   2.756
 4559SOL    HW214577   6.833   3.372   2.848
 4560SOL     OW14578   5.716   3.908   1.912
 4560SOL    HW114579   5.674   3.975   1.850
 4560SOL    HW214580   5.645   3.867   1.969
 4561SOL     OW14581   3.831   1.808   3.187
 4561SOL    HW114582   3.750   1.773   3.140
 4561SOL    HW214583   3.876   1.876   3.129
 4562SOL     OW14584   1.572   0.376   0.685
 4562SOL    HW114585   1.481   0.397   0.721
 4562SOL    HW214586   1.632   0.350   0.760
 4563SOL     OW14587   0.107   3.459   0.840
 4563SOL    HW114588   0.035   3.527   0.826
 4563SOL    HW214589   0.171   3.492   0.910
 4564SOL     OW14590   6.305   6.055   1.892
 4564SOL    HW114591   6.263   6.146   1.887
 4564SOL    HW214592   6.255   5.999   1.958
 4565SOL     OW14593   1.206   1.518   4.524
 4565SOL    HW114594   1.122   1.469   4.547
 4565SOL    HW214595   1.187   1.588   4.455
 4566SOL     OW14596   0.119   3.510   1.320
 4566SOL    HW114597   0.170   3.472   1.397
 4566SOL    HW214598   0.128   3.450   1.241
 4567SOL     OW14599   0.099   1.431   6.634
 4567SOL    HW114600   0.004   1.463   6.642
 4567SOL    HW214601   0.102   1.332   6.642
 4568SOL     OW14602   1.611   3.592   5.224
 4568SOL    HW114603   1.592   3.556   5.133
 4568SOL    HW214604   1.537   3.568   5.287
 4569SOL     OW14605   3.066   0.343   3.296
 4569SOL    HW114606   3.014   0.335   3.381
 4569SOL    HW214607   3.155   0.385   3.314
 4570SOL     OW14608   6.090   6.270   2.385
 4570SOL    HW114609   6.021   6.292   2.316
 4570SOL    HW214610   6.140   6.353   2.409
 4571SOL     OW14611   4.415   2.894   6.868
 4571SOL    HW114612   4.398   2.807   6.914
 4571SOL    HW214613   4.344   2.909   6.799
 4572SOL     OW14614   2.271   0.789   6.660
 4572SOL    HW114615   2.217   0.775   6.743
 4572SOL    HW214616   2.221   0.850   6.598
 4573SOL     OW14617   7.020   7.004   0.176
 4573SOL    HW114618   7.007   0.029   0.091
 4573SOL    HW214619   0.093   6.984   0.188
 4574SOL     OW14620   5.688   4.235   0.087
 4574SOL    HW114621   5.747   4.250   0.166
 4574SOL    HW214622   5.706   4.305   0.018
 4575SOL     OW14623   5.710   0.579   5.233
 4575SOL    HW114624   5.698   0.670   5.195
 4575SOL    HW214625   5.750   0.585   5.324
 4576SOL     OW14626   2.768   5.175   5.162
 4576SOL    HW114627   2.685   5.181   5.217
 4576SOL    HW214628   2.775   5.084   5.121
 4577SOL     OW14629   1.813   2.753   3.846
 4577SOL    HW114630   1.818   2.707   3.757
 4577SOL    HW214631   1.720   2.746   3.882
 4578SOL     OW14632   0.864   1.452   4.222
 4578SOL    HW114633   0.851   1.467   4.124
 4578SOL    HW214634   0.926   1.375   4.236
 4579SOL     OW14635   4.766   0.604   1.850
 4579SOL    HW114636   4.808   0.616   1.939
 4579SOL    HW214637   4.667   0.595   1.860
 4580SOL     OW14638   5.580   3.876   0.841
 4580SOL    HW114639   5.515   3.937   0.884
 4580SOL    HW214640   5.577   3.888   0.741
 4581SOL     OW14641   2.668   6.124   2.458
 4581SOL    HW114642   2.659   6.059   2.382
 4581SOL    HW214643   2.757   6.170   2.451
 4582SOL     OW14644   4.973   0.564   3.540
 4582SOL    HW114645   5.069   0.585   3.521
 4582SOL    HW214646   4.938   0.502   3.470
 4583SOL     OW14647   2.958   1.417   6.442
 4583SOL    HW114648   2.957   1.330   6.490
 4583SOL    HW214649   3.040   1.423   6.385
 4584SOL     OW14650   1.655   5.873   5.079
 4584SOL    HW114651   1.614   5.809   5.144
 4584SOL    HW214652   1.698   5.822   5.005
 4585SOL     OW14653   2.084   4.541   3.188
 4585SOL    HW114654   2.140   4.571   3.265
 4585SOL    HW214655   2.141   4.531   3.107
 4586SOL     OW14656   4.232   3.687   7.013
 4586SOL    HW114657   4.173   3.695   0.069
 4586SOL    HW214658   4.324   3.717   0.012
 4587SOL     OW14659   3.353   3.793   3.906
 4587SOL    HW114660   3.306   3.714   3.868
 4587SOL    HW214661   3.336   3.873   3.849
 4588SOL     OW14662   3.343   3.035   5.602
 4588SOL    HW114663   3.430   3.011   5.645
 4588SOL    HW214664   3.268   2.988   5.649
 4589SOL     OW14665   5.052   0.165   2.088
 4589SOL    HW114666   5.094   0.080   2.056
 4589SOL    HW214667   5.122   0.225   2.124
 4590SOL     OW14668   3.894   5.219   1.119
 4590SOL    HW114669   3.971   5.241   1.059
 4590SOL    HW214670   3.883   5.120   1.124
 4591SOL     OW14671   1.745   0.426   5.284
 4591SOL    HW114672   1.658   0.475   5.285
 4591SOL    HW214673   1.807   0.467   5.351
 4592SOL     OW14674   3.731   1.064   3.021
 4592SOL    HW114675   3.806   1.082   2.958
 4592SOL    HW214676   3.700   1.150   3.061
 4593SOL     OW14677   6.044   6.158   1.995
 4593SOL    HW114678   5.997   6.076   2.028
 4593SOL    HW214679   6.017   6.236   2.051
 4594SOL     OW14680   3.639   0.682   3.213
 4594SOL    HW114681   3.676   0.617   3.147
 4594SOL    HW214682   3.639   0.641   3.304
 4595SOL     OW14683   4.696   3.278   5.780
 4595SOL    HW114684   4.753   3.357   5.804
 4595SOL    HW214685   4.600   3.305   5.775
 4596SOL     OW14686   6.529   0.620   2.370
 4596SOL    HW114687   6.474   0.537   2.362
 4596SOL    HW214688   6.594   0.610   2.445
 4597SOL     OW14689   2.905   5.473   6.337
 4597SOL    HW114690   2.933   5.429   6.251
 4597SOL    HW214691   2.813   5.443   6.361
 4598SOL     OW14692   1.620   5.589   1.341
 4598SOL    HW114693   1.617   5.663   1.407
 4598SOL    HW214694   1.531   5.582   1.295
 4599SOL     OW14695   1.541   4.725   1.180
 4599SOL    HW114696   1.528   4.769   1.269
 4599SOL    HW214697   1.493   4.638   1.179
 4600SOL     OW14698   0.278   6.795   5.051
 4600SOL    HW114699   0.235   6.712   5.087
 4600SOL    HW214700   0.248   6.874   5.103
 4601SOL     OW14701   0.744   1.676   5.453
 4601SOL    HW114702   0.811   1.604   5.473
 4601SOL    HW214703   0.755   1.706   5.358
 4602SOL     OW14704   2.478   6.324   0.349
 4602SOL    HW114705   2.403   6.388   0.365
 4602SOL    HW214706   2.440   6.236   0.319
 4603SOL     OW14707   3.325   5.640   0.473
 4603SOL    HW114708   3.235   5.651   0.431
 4603SOL    HW214709   3.380   5.577   0.419
 4604SOL     OW14710   5.185   0.305   6.473
 4604SOL    HW114711   5.272   0.272   6.437
 4604SOL    HW214712   5.181   0.405   6.465
 4605SOL     OW14713   2.418   6.833   1.252
 4605SOL    HW114714   2.408   6.740   1.216
 4605SOL    HW214715   2.488   6.882   1.199
 4606SOL     OW14716   0.107   6.924   2.686
 4606SOL    HW114717   0.195   6.959   2.719
 4606SOL    HW214718   0.095   6.829   2.715
 4607SOL     OW14719   1.663   3.397   3.224
 4607SOL    HW114720   1.723   3.319   3.206
 4607SOL    HW214721   1.629   3.433   3.137
 4608SOL     OW14722   6.888   4.212   3.823
 4608SOL    HW114723   6.966   4.263   3.858
 4608SOL    HW214724   6.895   4.203   3.723
 4609SOL     OW14725   5.118   4.774   0.080
 4609SOL    HW114726   5.022   4.744   0.077
 4609SOL    HW214727   5.159   4.745   0.167
 4610SOL     OW14728   4.328   1.741   6.911
 4610SOL    HW114729   4.302   1.648   6.884
 4610SOL    HW214730   4.322   1.750   7.010
 4611SOL     OW14731   0.409   0.427   6.237
 4611SOL    HW114732   0.351   0.391   6.309
 4611SOL    HW214733   0.403   0.527   6.236
 4612SOL     OW14734   2.544   6.745   1.494
 4612SOL    HW114735   2.469   6.790   1.447
 4612SOL    HW214736   2.589   6.681   1.433
 4613SOL     OW14737   1.342   5.623   2.838
 4613SOL    HW114738   1.297   5.574   2.763
 4613SOL    HW214739   1.432   5.654   2.809
 4614SOL     OW14740   6.036   2.866   3.591
 4614SOL    HW114741   6.087   2.782   3.570
 4614SOL    HW214742   6.065   2.938   3.529
 4615SOL     OW14743   1.553   1.407   1.096
 4615SOL    HW114744   1.568   1.461   1.013
 4615SOL    HW214745   1.593   1.316   1.084
 4616SOL     OW14746   5.925   1.777   4.438
 4616SOL    HW114747   5.999   1.831   4.397
 4616SOL    HW214748   5.939   1.681   4.417
 4617SOL     OW14749   1.566   2.231   2.509
 4617SOL    HW114750   1.640   2.233   2.442
 4617SOL    HW214751   1.478   2.245   2.462
 4618SOL     OW14752   2.354   3.281   5.520
 4618SOL    HW114753   2.450   3.299   5.499
 4618SOL    HW214754   2.296   3.338   5.461
 4619SOL     OW14755   2.992   6.457   3.987
 4619SOL    HW114756   2.962   6.371   4.029
 4619SOL    HW214757   2.946   6.468   3.899
 4620SOL     OW14758   0.824   4.206   1.486
 4620SOL    HW114759   0.883   4.271   1.438
 4620SOL    HW214760   0.752   4.255   1.536
 4621SOL     OW14761   5.242   0.758   2.301
 4621SOL    HW114762   5.258   0.852   2.273
 4621SOL    HW214763   5.224   0.702   2.219
 4622SOL     OW14764   3.713   5.380   0.947
 4622SOL    HW114765   3.733   5.478   0.951
 4622SOL    HW214766   3.765   5.333   1.018
 4623SOL     OW14767   4.070   5.469   1.088
 4623SOL    HW114768   4.151   5.500   1.038
 4623SOL    HW214769   4.007   5.545   1.100
 4624SOL     OW14770   3.524   0.802   2.948
 4624SOL    HW114771   3.552   0.785   3.043
 4624SOL    HW214772   3.602   0.836   2.896
 4625SOL     OW14773   2.248   5.592   1.941
 4625SOL    HW114774   2.303   5.516   1.975
 4625SOL    HW214775   2.189   5.625   2.015
 4626SOL     OW14776   4.436   4.487   1.610
 4626SOL    HW114777   4.533   4.475   1.629
 4626SOL    HW214778   4.388   4.401   1.626
 4627SOL     OW14779   1.099   5.666   5.442
 4627SOL    HW114780   1.116   5.756   5.483
 4627SOL    HW214781   1.166   5.650   5.369
 4628SOL     OW14782   4.475   4.577   4.693
 4628SOL    HW114783   4.511   4.670   4.704
 4628SOL    HW214784   4.435   4.547   4.780
 4629SOL     OW14785   2.013   4.665   5.686
 4629SOL    HW114786   1.914   4.663   5.668
 4629SOL    HW214787   2.045   4.760   5.689
 4630SOL     OW14788   2.338   5.349   2.235
 4630SOL    HW114789   2.331   5.447   2.216
 4630SOL    HW214790   2.375   5.302   2.154
 4631SOL     OW14791   0.787   6.599   4.094
 4631SOL    HW114792   0.687   6.598   4.096
 4631SOL    HW214793   0.821   6.508   4.117
 4632SOL     OW14794   2.640   4.770   2.815
 4632SOL    HW114795   2.700   4.779   2.894
 4632SOL    HW214796   2.656   4.681   2.772
 4633SOL     OW14797   5.679   1.096   4.712
 4633SOL    HW114798   5.635   1.173   4.667
 4633SOL    HW214799   5.662   1.012   4.661
 4634SOL     OW14800   2.535   3.751   5.318
 4634SOL    HW114801   2.512   3.795   5.405
 4634SOL    HW214802   2.496   3.803   5.242
 4635SOL     OW14803   4.641   4.350   1.701
 4635SOL    HW114804   4.585   4.275   1.737
 4635SOL    HW214805   4.675   4.405   1.777
 4636SOL     OW14806   2.302   4.548   0.356
 4636SOL    HW114807   2.284   4.621   0.423
 4636SOL    HW214808   2.397   4.554   0.326
 4637SOL     OW14809   0.834   6.696   1.034
 4637SOL    HW114810   0.906   6.627   1.035
 4637SOL    HW214811   0.792   6.700   0.943
 4638SOL     OW14812   3.888   5.885   6.675
 4638SOL    HW114813   3.904   5.787   6.687
 4638SOL    HW214814   3.793   5.906   6.700
 4639SOL     OW14815   2.664   2.987   6.088
 4639SOL    HW114816   2.608   3.048   6.144
 4639SOL    HW214817   2.724   2.933   6.148
 4640SOL     OW14818   6.251   3.297   4.268
 4640SOL    HW114819   6.191   3.375   4.284
 4640SOL    HW214820   6.251   3.275   4.171
 4641SOL     OW14821   1.889   0.220   4.110
 4641SOL    HW114822   1.980   0.212   4.070
 4641SOL    HW214823   1.824   0.249   4.040
 4642SOL     OW14824   1.615   6.428   2.557
 4642SOL    HW114825   1.598   6.520   2.522
 4642SOL    HW214826   1.711   6.421   2.585
 4643SOL     OW14827   6.984   2.245   0.282
 4643SOL    HW114828   7.000   2.343   0.290
 4643SOL    HW214829   6.940   2.211   0.365
 4644SOL     OW14830   0.066   0.471   5.568
 4644SOL    HW114831   0.078   0.569   5.587
 4644SOL    HW214832   6.998   0.456   5.533
 4645SOL     OW14833   2.181   1.110   4.173
 4645SOL    HW114834   2.162   1.101   4.270
 4645SOL    HW214835   2.152   1.027   4.126
 4646SOL     OW14836   2.235   5.058   3.629
 4646SOL    HW114837   2.335   5.063   3.624
 4646SOL    HW214838   2.207   5.019   3.716
 4647SOL     OW14839   1.871   0.207   3.235
 4647SOL    HW114840   1.776   0.211   3.265
 4647SOL    HW214841   1.881   0.257   3.149
 4648SOL     OW14842   2.717   0.966   4.212
 4648SOL    HW114843   2.677   0.924   4.293
 4648SOL    HW214844   2.814   0.986   4.229
 4649SOL     OW14845   6.147   0.852   0.666
 4649SOL    HW114846   6.171   0.894   0.753
 4649SOL    HW214847   6.174   0.756   0.666
 4650SOL     OW14848   4.827   5.196   1.979
 4650SOL    HW114849   4.825   5.190   2.079
 4650SOL    HW214850   4.750   5.145   1.941
 4651SOL     OW14851   5.740   3.716   6.867
 4651SOL    HW114852   5.774   3.623   6.856
 4651SOL    HW214853   5.749   3.744   6.963
 4652SOL     OW14854   6.366   6.423   4.935
 4652SOL    HW114855   6.390   6.332   4.967
 4652SOL    HW214856   6.289   6.458   4.988
 4653SOL     OW14857   5.091   5.781   0.766
 4653SOL    HW114858   5.027   5.705   0.752
 4653SOL    HW214859   5.052   5.846   0.831
 4654SOL     OW14860   0.252   5.983   5.988
 4654SOL    HW114861   0.277   6.061   6.044
 4654SOL    HW214862   0.333   5.951   5.938
 4655SOL     OW14863   5.310   4.098   1.448
 4655SOL    HW114864   5.235   4.163   1.463
 4655SOL    HW214865   5.291   4.044   1.366
 4656SOL     OW14866   1.085   0.516   1.659
 4656SOL    HW114867   1.086   0.441   1.594
 4656SOL    HW214868   1.163   0.509   1.721
 4657SOL     OW14869   4.731   5.389   1.742
 4657SOL    HW114870   4.809   5.393   1.681
 4657SOL    HW214871   4.693   5.297   1.743
 4658SOL     OW14872   3.246   1.818   4.871
 4658SOL    HW114873   3.326   1.849   4.922
 4658SOL    HW214874   3.209   1.736   4.914
 4659SOL     OW14875   2.611   4.094   6.959
 4659SOL    HW114876   2.594   4.108   0.031
 4659SOL    HW214877   2.526   4.069   6.913
 4660SOL     OW14878   1.532   6.537   4.396
 4660SOL    HW114879   1.598   6.533   4.322
 4660SOL    HW214880   1.488   6.627   4.397
 4661SOL     OW14881   2.264   4.740   5.431
 4661SOL    HW114882   2.352   4.753   5.385
 4661SOL    HW214883   2.250   4.814   5.498
 4662SOL     OW14884   3.020   0.279   5.695
 4662SOL    HW114885   2.931   0.267   5.741
 4662SOL    HW214886   3.030   0.374   5.667
 4663SOL     OW14887   0.562   0.672   0.814
 4663SOL    HW114888   0.471   0.632   0.817
 4663SOL    HW214889   0.578   0.725   0.898
 4664SOL     OW14890   0.711   0.904   0.437
 4664SOL    HW114891   0.629   0.928   0.490
 4664SOL    HW214892   0.735   0.808   0.454
 4665SOL     OW14893   2.795   6.983   5.904
 4665SOL    HW114894   2.772   0.035   5.964
 4665SOL    HW214895   2.751   6.900   5.937
 4666SOL     OW14896   2.286   2.125   6.675
 4666SOL    HW114897   2.306   2.159   6.767
 4666SOL    HW214898   2.282   2.201   6.611
 4667SOL     OW14899   6.286   3.845   1.761
 4667SOL    HW114900   6.217   3.899   1.714
 4667SOL    HW214901   6.376   3.889   1.750
 4668SOL     OW14902   4.992   1.600   4.579
 4668SOL    HW114903   4.903   1.625   4.619
 4668SOL    HW214904   5.051   1.564   4.651
 4669SOL     OW14905   5.303   6.945   6.363
 4669SOL    HW114906   5.372   6.873   6.353
 4669SOL    HW214907   5.347   0.009   6.371
 4670SOL     OW14908   1.087   2.968   6.393
 4670SOL    HW114909   1.115   3.003   6.482
 4670SOL    HW214910   0.987   2.968   6.387
 4671SOL     OW14911   0.874   3.552   6.750
 4671SOL    HW114912   0.815   3.625   6.717
 4671SOL    HW214913   0.847   3.527   6.843
 4672SOL     OW14914   4.135   4.766   6.349
 4672SOL    HW114915   4.152   4.836   6.419
 4672SOL    HW214916   4.076   4.695   6.387
 4673SOL     OW14917   5.145   0.047   0.575
 4673SOL    HW114918   5.072   0.029   0.510
 4673SOL    HW214919   5.109   0.040   0.668
 4674SOL     OW14920   5.608   1.839   0.648
 4674SOL    HW114921   5.634   1.743   0.653
 4674SOL    HW214922   5.688   1.895   0.627
 4675SOL     OW14923   3.819   0.102   6.959
 4675SOL    HW114924   3.763   0.020   6.974
 4675SOL    HW214925   3.891   0.107   0.002
 4676SOL     OW14926   0.333   6.666   4.649
 4676SOL    HW114927   0.427   6.674   4.683
 4676SOL    HW214928   0.333   6.673   4.549
 4677SOL     OW14929   2.937   0.165   0.086
 4677SOL    HW114930   3.008   0.226   0.051
 4677SOL    HW214931   2.874   0.217   0.144
 4678SOL     OW14932   2.263   4.638   2.350
 4678SOL    HW114933   2.188   4.580   2.316
 4678SOL    HW214934   2.228   4.729   2.371
 4679SOL     OW14935   3.606   1.289   7.016
 4679SOL    HW114936   3.689   1.290   0.046
 4679SOL    HW214937   3.553   1.372   0.010
 4680SOL     OW14938   2.368   0.069   2.144
 4680SOL    HW114939   2.271   0.092   2.133
 4680SOL    HW214940   2.422   0.154   2.140
 4681SOL     OW14941   5.940   6.047   5.505
 4681SOL    HW114942   5.972   5.983   5.435
 4681SOL    HW214943   5.852   6.085   5.477
 4682SOL     OW14944   4.844   4.570   6.673
 4682SOL    HW114945   4.896   4.528   6.747
 4682SOL    HW214946   4.747   4.549   6.683
 4683SOL     OW14947   5.382   4.442   2.650
 4683SOL    HW114948   5.392   4.426   2.551
 4683SOL    HW214949   5.465   4.486   2.685
 4684SOL     OW14950   6.812   2.238   4.262
 4684SOL    HW114951   6.798   2.152   4.212
 4684SOL    HW214952   6.806   2.315   4.198
 4685SOL     OW14953   0.512   5.827   4.393
 4685SOL    HW114954   0.504   5.731   4.419
 4685SOL    HW214955   0.484   5.839   4.298
 4686SOL     OW14956   4.873   5.886   0.308
 4686SOL    HW114957   4.853   5.841   0.395
 4686SOL    HW214958   4.905   5.818   0.242
 4687SOL     OW14959   6.367   5.012   5.209
 4687SOL    HW114960   6.289   4.952   5.190
 4687SOL    HW214961   6.405   5.046   5.123
 4688SOL     OW14962   0.065   2.929   6.172
 4688SOL    HW114963   0.060   2.840   6.218
 4688SOL    HW214964   0.091   2.916   6.077
 4689SOL     OW14965   5.518   0.636   6.860
 4689SOL    HW114966   5.432   0.608   6.818
 4689SOL    HW214967   5.500   0.696   6.937
 4690SOL     OW14968   1.023   1.733   0.048
 4690SOL    HW114969   0.982   1.778   6.994
 4690SOL    HW214970   1.083   1.797   0.096
 4691SOL     OW14971   3.145   4.052   1.897
 4691SOL    HW114972   3.101   4.106   1.826
 4691SOL    HW214973   3.087   3.974   1.921
 4692SOL     OW14974   6.850   5.306   2.388
 4692SOL    HW114975   6.758   5.283   2.357
 4692SOL    HW214976   6.897   5.358   2.317
 4693SOL     OW14977   0.698   0.398   4.349
 4693SOL    HW114978   0.726   0.332   4.418
 4693SOL    HW214979   0.676   0.350   4.264
 4694SOL     OW14980   2.862   0.629   0.262
 4694SOL    HW114981   2.926   0.689   0.214
 4694SOL    HW214982   2.791   0.599   0.200
 4695SOL     OW14983   3.103   3.460   1.629
 4695SOL    HW114984   3.025   3.520   1.610
 4695SOL    HW214985   3.087   3.370   1.587
 4696SOL     OW14986   0.862   4.469   5.831
 4696SOL    HW114987   0.831   4.393   5.774
 4696SOL    HW214988   0.961   4.463   5.842
 4697SOL     OW14989   1.748   3.466   0.807
 4697SOL    HW114990   1.722   3.408   0.729
 4697SOL    HW214991   1.709   3.428   0.890
 4698SOL     OW14992   4.586   5.594   3.214
 4698SOL    HW114993   4.577   5.515   3.274
 4698SOL    HW214994   4.673   5.588   3.164
 4699SOL     OW14995   1.125   7.000   2.163
 4699SOL    HW114996   1.088   0.068   2.162
 4699SOL    HW214997   1.178   6.985   2.080
 4700SOL     OW14998   6.023   1.938   2.137
 4700SOL    HW114999   6.115   1.969   2.159
 4700SOL    HW215000   6.025   1.881   2.055
 4701SOL     OW15001   1.273   2.132   0.404
 4701SOL    HW115002   1.368   2.143   0.377
 4701SOL    HW215003   1.253   2.189   0.483
 4702SOL     OW15004   5.532   5.169   6.666
 4702SOL    HW115005   5.624   5.204   6.647
 4702SOL    HW215006   5.524   5.076   6.630
 4703SOL     OW15007   1.073   2.680   2.509
 4703SOL    HW115008   1.131   2.744   2.461
 4703SOL    HW215009   0.977   2.707   2.498
 4704SOL     OW15010   0.124   6.470   6.983
 4704SOL    HW115011   0.118   6.558   0.005
 4704SOL    HW215012   0.205   6.469   6.925
 4705SOL     OW15013   3.898   3.391   2.725
 4705SOL    HW115014   3.946   3.419   2.809
 4705SOL    HW215015   3.818   3.336   2.750
 4706SOL     OW15016   4.283   6.070   6.849
 4706SOL    HW115017   4.365   6.047   6.797
 4706SOL    HW215018   4.203   6.068   6.788
 4707SOL     OW15019   1.867   5.959   0.767
 4707SOL    HW115020   1.889   5.910   0.682
 4707SOL    HW215021   1.946   5.956   0.828
 4708SOL     OW15022   1.619   2.665   0.072
 4708SOL    HW115023   1.611   2.663   0.171
 4708SOL    HW215024   1.534   2.634   0.030
 4709SOL     OW15025   3.804   4.976   5.230
 4709SOL    HW115026   3.709   5.005   5.218
 4709SOL    HW215027   3.848   5.036   5.297
 4710SOL     OW15028   3.775   1.191   5.921
 4710SOL    HW115029   3.808   1.270   5.869
 4710SOL    HW215030   3.853   1.144   5.962
 4711SOL     OW15031   4.871   0.431   2.350
 4711SOL    HW115032   4.954   0.392   2.390
 4711SOL    HW215033   4.791   0.384   2.388
 4712SOL     OW15034   2.806   4.382   0.789
 4712SOL    HW115035   2.707   4.372   0.784
 4712SOL    HW215036   2.830   4.479   0.781
 4713SOL     OW15037   2.587   3.871   1.126
 4713SOL    HW115038   2.499   3.827   1.108
 4713SOL    HW215039   2.578   3.932   1.205
 4714SOL     OW15040   2.031   1.827   6.987
 4714SOL    HW115041   1.997   1.921   6.982
 4714SOL    HW215042   2.124   1.824   6.950
 4715SOL     OW15043   6.728   3.896   1.591
 4715SOL    HW115044   6.701   3.837   1.515
 4715SOL    HW215045   6.767   3.981   1.554
 4716SOL     OW15046   3.755   5.376   6.554
 4716SOL    HW115047   3.843   5.353   6.596
 4716SOL    HW215048   3.684   5.314   6.587
 4717SOL     OW15049   1.100   6.541   3.104
 4717SOL    HW115050   1.064   6.451   3.080
 4717SOL    HW215051   1.027   6.609   3.093
 4718SOL     OW15052   5.338   1.767   6.466
 4718SOL    HW115053   5.305   1.687   6.516
 4718SOL    HW215054   5.322   1.849   6.520
 4719SOL     OW15055   4.896   3.481   2.976
 4719SOL    HW115056   4.907   3.424   3.058
 4719SOL    HW215057   4.865   3.572   3.002
 4720SOL     OW15058   2.382   5.882   5.648
 4720SOL    HW115059   2.402   5.952   5.580
 4720SOL    HW215060   2.344   5.925   5.730
 4721SOL     OW15061   6.217   2.085   1.527
 4721SOL    HW115062   6.290   2.107   1.591
 4721SOL    HW215063   6.134   2.134   1.552
 4722SOL     OW15064   1.374   5.992   0.265
 4722SOL    HW115065   1.339   5.900   0.250
 4722SOL    HW215066   1.313   6.058   0.221
 4723SOL     OW15067   1.680   5.262   5.457
 4723SOL    HW115068   1.673   5.208   5.373
 4723SOL    HW215069   1.601   5.242   5.516
 4724SOL     OW15070   4.668   5.944   2.771
 4724SOL    HW115071   4.629   5.853   2.752
 4724SOL    HW215072   4.762   5.933   2.804
 4725SOL     OW15073   5.406   6.539   2.584
 4725SOL    HW115074   5.486   6.525   2.525
 4725SOL    HW215075   5.374   6.633   2.574
 4726SOL     OW15076   1.643   3.357   6.438
 4726SOL    HW115077   1.721   3.411   6.470
 4726SOL    HW215078   1.639   3.357   6.338
 4727SOL     OW15079   6.876   6.112   6.883
 4727SOL    HW115080   6.963   6.157   6.901
 4727SOL    HW215081   6.876   6.076   6.790
 4728SOL     OW15082   4.563   1.489   1.254
 4728SOL    HW115083   4.639   1.502   1.318
 4728SOL    HW215084   4.587   1.526   1.165
 4729SOL     OW15085   2.661   1.471   2.555
 4729SOL    HW115086   2.724   1.503   2.484
 4729SOL    HW215087   2.697   1.388   2.597
 4730SOL     OW15088   1.940   5.810   5.296
 4730SOL    HW115089   1.919   5.719   5.259
 4730SOL    HW215090   2.001   5.801   5.374
 4731SOL     OW15091   4.699   0.211   6.292
 4731SOL    HW115092   4.691   0.239   6.196
 4731SOL    HW215093   4.784   0.247   6.330
 4732SOL     OW15094   0.013   3.181   6.260
 4732SOL    HW115095   0.044   3.090   6.233
 4732SOL    HW215096   6.960   3.173   6.321
 4733SOL     OW15097   0.574   4.379   2.835
 4733SOL    HW115098   0.621   4.467   2.846
 4733SOL    HW215099   0.488   4.393   2.785
 4734SOL     OW15100   4.924   3.379   6.769
 4734SOL    HW115101   4.940   3.282   6.789
 4734SOL    HW215102   4.843   3.410   6.819
 4735SOL     OW15103   0.884   5.187   4.181
 4735SOL    HW115104   0.847   5.273   4.216
 4735SOL    HW215105   0.912   5.199   4.086
 4736SOL     OW15106   0.640   1.627   6.540
 4736SOL    HW115107   0.698   1.684   6.598
 4736SOL    HW215108   0.579   1.572   6.598
 4737SOL     OW15109   1.477   5.464   2.204
 4737SOL    HW115110   1.488   5.563   2.195
 4737SOL    HW215111   1.514   5.419   2.122
 4738SOL     OW15112   6.913   5.938   2.819
 4738SOL    HW115113   7.005   5.976   2.819
 4738SOL    HW215114   6.865   5.968   2.737
 4739SOL     OW15115   4.251   6.269   2.635
 4739SOL    HW115116   4.344   6.278   2.670
 4739SOL    HW215117   4.251   6.213   2.552
 4740SOL     OW15118   0.232   1.239   1.717
 4740SOL    HW115119   0.174   1.162   1.740
 4740SOL    HW215120   0.258   1.234   1.621
 4741SOL     OW15121   3.350   2.089   1.622
 4741SOL    HW115122   3.411   2.036   1.680
 4741SOL    HW215123   3.385   2.182   1.613
 4742SOL     OW15124   1.825   6.626   6.328
 4742SOL    HW115125   1.871   6.653   6.413
 4742SOL    HW215126   1.727   6.619   6.345
 4743SOL     OW15127   2.100   3.314   2.910
 4743SOL    HW115128   2.074   3.245   2.843
 4743SOL    HW215129   2.118   3.401   2.863
 4744SOL     OW15130   1.696   4.997   1.225
 4744SOL    HW115131   1.614   4.998   1.167
 4744SOL    HW215132   1.736   5.089   1.227
 4745SOL     OW15133   3.255   3.847   6.872
 4745SOL    HW115134   3.196   3.849   6.953
 4745SOL    HW215135   3.314   3.928   6.872
 4746SOL     OW15136   4.306   6.360   3.805
 4746SOL    HW115137   4.219   6.342   3.851
 4746SOL    HW215138   4.354   6.274   3.790
 4747SOL     OW15139   1.152   3.632   0.833
 4747SOL    HW115140   1.226   3.571   0.863
 4747SOL    HW215141   1.068   3.579   0.820
 4748SOL     OW15142   1.400   6.727   1.679
 4748SOL    HW115143   1.487   6.775   1.692
 4748SOL    HW215144   1.382   6.714   1.582
 4749SOL     OW15145   1.856   6.937   6.526
 4749SOL    HW115146   1.908   6.852   6.530
 4749SOL    HW215147   1.906   7.004   6.471
 4750SOL     OW15148   6.257   3.487   5.701
 4750SOL    HW115149   6.189   3.443   5.761
 4750SOL    HW215150   6.341   3.505   5.753
 4751SOL     OW15151   4.827   2.582   3.499
 4751SOL    HW115152   4.787   2.503   3.546
 4751SOL    HW215153   4.909   2.554   3.451
 4752SOL     OW15154   4.620   0.505   0.349
 4752SOL    HW115155   4.613   0.605   0.338
 4752SOL    HW215156   4.706   0.482   0.393
 4753SOL     OW15157   0.726   6.850   3.992
 4753SOL    HW115158   0.752   6.775   4.053
 4753SOL    HW215159   0.789   6.926   4.004
 4754SOL     OW15160   4.977   3.682   5.231
 4754SOL    HW115161   4.913   3.666   5.155
 4754SOL    HW215162   5.045   3.609   5.234
 4755SOL     OW15163   2.449   0.701   0.666
 4755SOL    HW115164   2.427   0.728   0.572
 4755SOL    HW215165   2.375   0.727   0.727
 4756SOL     OW15166   6.655   3.921   5.924
 4756SOL    HW115167   6.670   3.822   5.919
 4756SOL    HW215168   6.566   3.939   5.964
 4757SOL     OW15169   1.532   2.763   1.318
 4757SOL    HW115170   1.574   2.684   1.362
 4757SOL    HW215171   1.523   2.837   1.385
 4758SOL     OW15172   1.261   6.888   3.060
 4758SOL    HW115173   1.331   6.958   3.050
 4758SOL    HW215174   1.244   6.871   3.157
 4759SOL     OW15175   0.382   5.965   6.826
 4759SOL    HW115176   0.380   5.887   6.764
 4759SOL    HW215177   0.394   6.049   6.773
 4760SOL     OW15178   1.628   1.084   0.770
 4760SOL    HW115179   1.641   1.125   0.861
 4760SOL    HW215180   1.575   1.146   0.712
 4761SOL     OW15181   1.676   0.671   0.739
 4761SOL    HW115182   1.599   0.663   0.677
 4761SOL    HW215183   1.660   0.616   0.820
 4762SOL     OW15184   1.389   5.763   2.233
 4762SOL    HW115185   1.459   5.771   2.304
 4762SOL    HW215186   1.335   5.848   2.229
 4763SOL     OW15187   4.563   0.376   2.418
 4763SOL    HW115188   4.533   0.398   2.511
 4763SOL    HW215189   4.548   0.455   2.359
 4764SOL     OW15190   4.521   3.457   5.419
 4764SOL    HW115191   4.543   3.521   5.346
 4764SOL    HW215192   4.522   3.504   5.507
 4765SOL     OW15193   3.832   0.857   6.214
 4765SOL    HW115194   3.734   0.843   6.225
 4765SOL    HW215195   3.863   0.813   6.129
 4766SOL     OW15196   5.788   6.056   4.145
 4766SOL    HW115197   5.859   6.115   4.182
 4766SOL    HW215198   5.699   6.082   4.182
 4767SOL     OW15199   2.581   5.233   5.617
 4767SOL    HW115200   2.666   5.203   5.574
 4767SOL    HW215201   2.510   5.163   5.601
 4768SOL     OW15202   3.857   3.426   6.136
 4768SOL    HW115203   3.837   3.346   6.192
 4768SOL    HW215204   3.772   3.463   6.098
 4769SOL     OW15205   3.332   5.974   0.129
 4769SOL    HW115206   3.364   5.920   0.208
 4769SOL    HW215207   3.399   6.044   0.107
 4770SOL     OW15208   6.626   1.969   4.803
 4770SOL    HW115209   6.663   2.046   4.751
 4770SOL    HW215210   6.601   1.895   4.740
 4771SOL     OW15211   2.284   6.369   5.922
 4771SOL    HW115212   2.320   6.333   5.837
 4771SOL    HW215213   2.293   6.301   5.994
 4772SOL     OW15214   2.911   5.010   1.048
 4772SOL    HW115215   2.890   5.097   1.003
 4772SOL    HW215216   2.955   5.029   1.136
 4773SOL     OW15217   1.155   6.150   4.373
 4773SOL    HW115218   1.064   6.187   4.358
 4773SOL    HW215219   1.218   6.224   4.399
 4774SOL     OW15220   1.367   4.227   1.633
 4774SOL    HW115221   1.428   4.241   1.555
 4774SOL    HW215222   1.276   4.201   1.600
 4775SOL     OW15223   4.861   7.009   4.343
 4775SOL    HW115224   4.917   6.928   4.328
 4775SOL    HW215225   4.920   0.063   4.357
 4776SOL     OW15226   0.940   1.011   5.076
 4776SOL    HW115227   1.035   0.983   5.059
 4776SOL    HW215228   0.881   0.971   5.006
 4777SOL     OW15229   1.790   5.514   1.111
 4777SOL    HW115230   1.751   5.547   1.197
 4777SOL    HW215231   1.773   5.582   1.039
 4778SOL     OW15232   0.283   3.048   4.578
 4778SOL    HW115233   0.328   3.107   4.510
 4778SOL    HW215234   0.302   2.953   4.556
 4779SOL     OW15235   5.597   6.406   4.119
 4779SOL    HW115236   5.590   6.308   4.100
 4779SOL    HW215237   5.579   6.423   4.216
 4780SOL     OW15238   6.211   2.432   6.246
 4780SOL    HW115239   6.202   2.438   6.147
 4780SOL    HW215240   6.273   2.504   6.278
 4781SOL     OW15241   2.700   5.325   2.377
 4781SOL    HW115242   2.777   5.272   2.412
 4781SOL    HW215243   2.619   5.308   2.433
 4782SOL     OW15244   6.416   5.871   6.197
 4782SOL    HW115245   6.479   5.807   6.154
 4782SOL    HW215246   6.370   5.827   6.274
 4783SOL     OW15247   5.851   3.517   0.199
 4783SOL    HW115248   5.775   3.454   0.184
 4783SOL    HW215249   5.838   3.565   0.285
 4784SOL     OW15250   6.010   2.257   6.010
 4784SOL    HW115251   5.976   2.293   5.923
 4784SOL    HW215252   6.107   2.232   6.000
 4785SOL     OW15253   0.015   6.654   2.735
 4785SOL    HW115254   0.057   6.564   2.747
 4785SOL    HW215255   6.989   6.679   2.817
 4786SOL     OW15256   2.742   6.937   6.829
 4786SOL    HW115257   2.811   6.869   6.854
 4786SOL    HW215258   2.653   6.893   6.825
 4787SOL     OW15259   3.965   1.749   3.413
 4787SOL    HW115260   3.937   1.767   3.318
 4787SOL    HW215261   3.926   1.819   3.473
 4788SOL     OW15262   6.431   6.263   0.413
 4788SOL    HW115263   6.508   6.258   0.476
 4788SOL    HW215264   6.345   6.250   0.463
 4789SOL     OW15265   4.795   1.667   1.657
 4789SOL    HW115266   4.711   1.618   1.679
 4789SOL    HW215267   4.862   1.655   1.731
 4790SOL     OW15268   5.390   1.812   5.729
 4790SOL    HW115269   5.475   1.774   5.693
 4790SOL    HW215270   5.409   1.859   5.815
 4791SOL     OW15271   0.301   3.041   1.687
 4791SOL    HW115272   0.262   3.067   1.775
 4791SOL    HW215273   0.382   2.983   1.702
 4792SOL     OW15274   2.213   4.343   4.345
 4792SOL    HW115275   2.250   4.255   4.373
 4792SOL    HW215276   2.249   4.415   4.405
 4793SOL     OW15277   1.557   3.465   4.982
 4793SOL    HW115278   1.578   3.368   4.978
 4793SOL    HW215279   1.463   3.480   4.953
 4794SOL     OW15280   4.442   6.832   4.108
 4794SOL    HW115281   4.414   6.830   4.204
 4794SOL    HW215282   4.534   6.872   4.101
 4795SOL     OW15283   6.898   1.669   4.603
 4795SOL    HW115284   6.942   1.617   4.529
 4795SOL    HW215285   6.820   1.719   4.567
 4796SOL     OW15286   3.741   6.762   5.970
 4796SOL    HW115287   3.779   6.853   5.978
 4796SOL    HW215288   3.641   6.767   5.977
 4797SOL     OW15289   0.931   5.514   4.461
 4797SOL    HW115290   0.923   5.467   4.549
 4797SOL    HW215291   0.947   5.612   4.477
 4798SOL     OW15292   6.220   5.164   6.091
 4798SOL    HW115293   6.210   5.224   6.012
 4798SOL    HW215294   6.161   5.085   6.081
 4799SOL     OW15295   4.073   1.416   0.135
 4799SOL    HW115296   4.002   1.348   0.120
 4799SOL    HW215297   4.054   1.466   0.219
 4800SOL     OW15298   1.639   4.210   6.774
 4800SOL    HW115299   1.550   4.255   6.782
 4800SOL    HW215300   1.689   4.249   6.697
 4801SOL     OW15301   3.943   2.839   7.018
 4801SOL    HW115302   3.972   2.932   0.016
 4801SOL    HW215303   3.884   2.804   0.065
 4802SOL     OW15304   6.847   6.662   1.807
 4802SOL    HW115305   6.773   6.609   1.848
 4802SOL    HW215306   6.810   6.724   1.738
 4803SOL     OW15307   6.347   4.793   1.043
 4803SOL    HW115308   6.395   4.752   1.121
 4803SOL    HW215309   6.249   4.775   1.051
 4804SOL     OW15310   5.639   0.576   1.313
 4804SOL    HW115311   5.628   0.542   1.220
 4804SOL    HW215312   5.554   0.619   1.343
 4805SOL     OW15313   6.682   0.914   2.240
 4805SOL    HW115314   6.710   0.967   2.160
 4805SOL    HW215315   6.654   0.823   2.211
 4806SOL     OW15316   1.089   3.838   2.944
 4806SOL    HW115317   1.039   3.789   2.872
 4806SOL    HW215318   1.144   3.911   2.903
 4807SOL     OW15319   1.760   3.446   6.773
 4807SOL    HW115320   1.817   3.408   6.846
 4807SOL    HW215321   1.811   3.445   6.687
 4808SOL     OW15322   4.303   5.294   0.509
 4808SOL    HW115323   4.356   5.357   0.565
 4808SOL    HW215324   4.359   5.263   0.432
 4809SOL     OW15325   3.863   4.346   1.677
 4809SOL    HW115326   3.916   4.426   1.704
 4809SOL    HW215327   3.767   4.359   1.704
 4810SOL     OW15328   1.322   4.229   3.656
 4810SOL    HW115329   1.403   4.188   3.698
 4810SOL    HW215330   1.336   4.328   3.647
 4811SOL     OW15331   3.991   3.956   3.932
 4811SOL    HW115332   4.030   3.896   4.001
 4811SOL    HW215333   4.057   4.028   3.909
 4812SOL     OW15334   0.651   0.036   2.134
 4812SOL    HW115335   0.645   0.038   2.034
 4812SOL    HW215336   0.560   0.045   2.173
 4813SOL     OW15337   5.783   2.167   6.111
 4813SOL    HW115338   5.733   2.249   6.081
 4813SOL    HW215339   5.875   2.168   6.073
 4814SOL     OW15340   6.918   3.079   2.282
 4814SOL    HW115341   6.876   3.155   2.332
 4814SOL    HW215342   7.018   3.085   2.291
 4815SOL     OW15343   5.238   4.698   2.855
 4815SOL    HW115344   5.267   4.602   2.854
 4815SOL    HW215345   5.179   4.714   2.934
 4816SOL     OW15346   2.342   6.285   1.286
 4816SOL    HW115347   2.439   6.281   1.310
 4816SOL    HW215348   2.307   6.193   1.272
 4817SOL     OW15349   3.449   1.139   1.887
 4817SOL    HW115350   3.399   1.226   1.884
 4817SOL    HW215351   3.386   1.064   1.908
 4818SOL     OW15352   1.365   1.183   4.313
 4818SOL    HW115353   1.430   1.222   4.378
 4818SOL    HW215354   1.282   1.155   4.362
 4819SOL     OW15355   3.067   1.765   1.890
 4819SOL    HW115356   3.046   1.861   1.913
 4819SOL    HW215357   3.135   1.730   1.955
 4820SOL     OW15358   6.315   2.451   0.968
 4820SOL    HW115359   6.389   2.412   0.912
 4820SOL    HW215360   6.264   2.377   1.012
 4821SOL     OW15361   6.415   6.078   1.346
 4821SOL    HW115362   6.494   6.136   1.366
 4821SOL    HW215363   6.428   6.035   1.257
 4822SOL     OW15364   1.676   3.109   4.052
 4822SOL    HW115365   1.635   3.149   4.134
 4822SOL    HW215366   1.747   3.170   4.017
 4823SOL     OW15367   6.875   0.716   3.681
 4823SOL    HW115368   6.849   0.654   3.756
 4823SOL    HW215369   6.914   0.663   3.606
 4824SOL     OW15370   5.871   1.437   3.917
 4824SOL    HW115371   5.901   1.375   3.845
 4824SOL    HW215372   5.821   1.513   3.877
 4825SOL     OW15373   2.341   2.680   4.375
 4825SOL    HW115374   2.297   2.590   4.381
 4825SOL    HW215375   2.275   2.747   4.340
 4826SOL     OW15376   0.867   6.959   0.850
 4826SOL    HW115377   0.905   0.026   0.842
 4826SOL    HW215378   0.925   6.895   0.800
 4827SOL     OW15379   6.078   0.698   1.566
 4827SOL    HW115380   5.995   0.657   1.530
 4827SOL    HW215381   6.102   0.654   1.653
 4828SOL     OW15382   6.053   3.656   1.475
 4828SOL    HW115383   5.995   3.668   1.555
 4828SOL    HW215384   6.131   3.598   1.499
 4829SOL     OW15385   3.769   6.730   6.413
 4829SOL    HW115386   3.807   6.702   6.501
 4829SOL    HW215387   3.700   6.664   6.384
 4830SOL     OW15388   5.095   5.752   3.698
 4830SOL    HW115389   5.187   5.736   3.733
 4830SOL    HW215390   5.095   5.741   3.598
 4831SOL     OW15391   6.485   5.248   5.800
 4831SOL    HW115392   6.558   5.307   5.763
 4831SOL    HW215393   6.518   5.202   5.882
 4832SOL     OW15394   2.947   2.830   6.428
 4832SOL    HW115395   2.956   2.929   6.438
 4832SOL    HW215396   3.025   2.795   6.377
 4833SOL     OW15397   4.972   1.898   3.080
 4833SOL    HW115398   4.901   1.831   3.057
 4833SOL    HW215399   5.060   1.866   3.045
 4834SOL     OW15400   3.381   0.305   0.082
 4834SOL    HW115401   3.293   0.302   0.129
 4834SOL    HW215402   3.446   0.359   0.135
 4835SOL     OW15403   1.744   0.591   6.880
 4835SOL    HW115404   1.730   0.504   6.928
 4835SOL    HW215405   1.815   0.644   6.927
 4836SOL     OW15406   4.683   2.421   3.836
 4836SOL    HW115407   4.604   2.480   3.856
 4836SOL    HW215408   4.766   2.463   3.875
 4837SOL     OW15409   3.751   3.092   1.622
 4837SOL    HW115410   3.735   3.117   1.717
 4837SOL    HW215411   3.664   3.087   1.573
 4838SOL     OW15412   2.300   5.172   1.993
 4838SOL    HW115413   2.215   5.134   1.956
 4838SOL    HW215414   2.334   5.112   2.066
 4839SOL     OW15415   1.686   3.767   5.782
 4839SOL    HW115416   1.609   3.831   5.777
 4839SOL    HW215417   1.769   3.812   5.750
 4840SOL     OW15418   6.949   0.082   5.828
 4840SOL    HW115419   6.990   0.168   5.796
 4840SOL    HW215420   6.868   0.103   5.882
 4841SOL     OW15421   3.246   5.814   1.780
 4841SOL    HW115422   3.242   5.722   1.741
 4841SOL    HW215423   3.221   5.881   1.710
 4842SOL     OW15424   3.419   4.804   1.489
 4842SOL    HW115425   3.421   4.777   1.393
 4842SOL    HW215426   3.330   4.781   1.529
 4843SOL     OW15427   6.247   3.924   0.475
 4843SOL    HW115428   6.299   3.848   0.438
 4843SOL    HW215429   6.309   3.995   0.507
 4844SOL     OW15430   0.006   4.227   6.057
 4844SOL    HW115431   6.960   4.293   6.082
 4844SOL    HW215432   0.080   4.230   6.124
 4845SOL     OW15433   6.625   5.958   4.458
 4845SOL    HW115434   6.646   5.965   4.361
 4845SOL    HW215435   6.600   5.864   4.480
 4846SOL     OW15436   6.639   3.477   2.188
 4846SOL    HW115437   6.688   3.398   2.151
 4846SOL    HW215438   6.699   3.556   2.190
 4847SOL     OW15439   3.550   1.780   5.848
 4847SOL    HW115440   3.584   1.810   5.937
 4847SOL    HW215441   3.457   1.815   5.834
 4848SOL     OW15442   1.782   1.212   4.231
 4848SOL    HW115443   1.812   1.157   4.309
 4848SOL    HW215444   1.858   1.227   4.169
 4849SOL     OW15445   1.005   6.971   6.803
 4849SOL    HW115446   1.098   7.007   6.805
 4849SOL    HW215447   0.955   7.011   6.727
 4850SOL     OW15448   4.269   1.265   2.373
 4850SOL    HW115449   4.325   1.347   2.379
 4850SOL    HW215450   4.320   1.187   2.410
 4851SOL     OW15451   3.491   5.622   5.118
 4851SOL    HW115452   3.479   5.642   5.020
 4851SOL    HW215453   3.432   5.683   5.171
 4852SOL     OW15454   0.850   0.070   6.606
 4852SOL    HW115455   0.893   0.130   6.538
 4852SOL    HW215456   0.793   0.125   6.667
 4853SOL     OW15457   3.079   0.877   2.290
 4853SOL    HW115458   3.030   0.895   2.375
 4853SOL    HW215459   3.033   0.805   2.239
 4854SOL     OW15460   5.270   6.254   2.419
 4854SOL    HW115461   5.323   6.248   2.504
 4854SOL    HW215462   5.204   6.179   2.416
 4855SOL     OW15463   5.659   2.751   2.473
 4855SOL    HW115464   5.688   2.717   2.384
 4855SOL    HW215465   5.559   2.757   2.476
 4856SOL     OW15466   1.346   4.257   2.473
 4856SOL    HW115467   1.375   4.233   2.380
 4856SOL    HW215468   1.368   4.181   2.535
 4857SOL     OW15469   1.863   2.418   5.588
 4857SOL    HW115470   1.937   2.375   5.640
 4857SOL    HW215471   1.784   2.433   5.647
 4858SOL     OW15472   2.144   0.948   4.432
 4858SOL    HW115473   2.112   0.994   4.516
 4858SOL    HW215474   2.074   0.885   4.400
 4859SOL     OW15475   1.027   0.838   4.208
 4859SOL    HW115476   1.021   0.773   4.132
 4859SOL    HW215477   1.113   0.889   4.202
 4860SOL     OW15478   3.331   4.847   1.773
 4860SOL    HW115479   3.345   4.882   1.866
 4860SOL    HW215480   3.244   4.799   1.768
 4861SOL     OW15481   5.252   5.456   0.014
 4861SOL    HW115482   5.301   5.391   0.072
 4861SOL    HW215483   5.272   5.549   0.044
 4862SOL     OW15484   2.772   4.761   4.719
 4862SOL    HW115485   2.775   4.696   4.796
 4862SOL    HW215486   2.689   4.744   4.665
 4863SOL     OW15487   6.081   4.326   0.800
 4863SOL    HW115488   6.093   4.335   0.701
 4863SOL    HW215489   5.994   4.281   0.819
 4864SOL     OW15490   3.723   1.096   4.173
 4864SOL    HW115491   3.682   1.174   4.125
 4864SOL    HW215492   3.797   1.129   4.232
 4865SOL     OW15493   1.658   0.779   5.793
 4865SOL    HW115494   1.680   0.729   5.877
 4865SOL    HW215495   1.731   0.845   5.775
 4866SOL     OW15496   6.715   3.139   0.967
 4866SOL    HW115497   6.695   3.081   0.888
 4866SOL    HW215498   6.712   3.235   0.940
 4867SOL     OW15499   4.201   5.428   3.069
 4867SOL    HW115500   4.135   5.489   3.024
 4867SOL    HW215501   4.293   5.463   3.056
 4868SOL     OW15502   6.326   5.006   2.868
 4868SOL    HW115503   6.342   5.102   2.889
 4868SOL    HW215504   6.301   4.957   2.952
 4869SOL     OW15505   2.072   1.807   1.492
 4869SOL    HW115506   2.120   1.889   1.459
 4869SOL    HW215507   2.020   1.767   1.416
 4870SOL     OW15508   0.900   6.338   1.851
 4870SOL    HW115509   0.856   6.423   1.819
 4870SOL    HW215510   0.908   6.340   1.950
 4871SOL     OW15511   0.564   1.034   3.574
 4871SOL    HW115512   0.644   1.088   3.547
 4871SOL    HW215513   0.568   0.944   3.529
 4872SOL     OW15514   6.325   0.041   3.246
 4872SOL    HW115515   6.312   0.115   3.311
 4872SOL    HW215516   6.402   0.062   3.185
 4873SOL     OW15517   6.807   5.680   4.367
 4873SOL    HW115518   6.835   5.731   4.286
 4873SOL    HW215519   6.885   5.671   4.429
 4874SOL     OW15520   5.173   4.079   2.516
 4874SOL    HW115521   5.147   3.993   2.472
 4874SOL    HW215522   5.164   4.154   2.450
 4875SOL     OW15523   6.372   1.196   0.340
 4875SOL    HW115524   6.280   1.186   0.301
 4875SOL    HW215525   6.437   1.216   0.267
 4876SOL     OW15526   0.181   1.777   3.727
 4876SOL    HW115527   0.192   1.680   3.706
 4876SOL    HW215528   0.269   1.816   3.752
 4877SOL     OW15529   0.446   1.641   5.478
 4877SOL    HW115530   0.521   1.691   5.436
 4877SOL    HW215531   0.479   1.592   5.559
 4878SOL     OW15532   6.486   1.082   2.001
 4878SOL    HW115533   6.576   1.124   1.989
 4878SOL    HW215534   6.451   1.102   2.092
 4879SOL     OW15535   4.356   1.647   2.192
 4879SOL    HW115536   4.285   1.713   2.171
 4879SOL    HW215537   4.406   1.623   2.109
 4880SOL     OW15538   5.946   3.304   0.037
 4880SOL    HW115539   5.925   3.382   0.095
 4880SOL    HW215540   5.990   3.337   6.978
 4881SOL     OW15541   1.739   1.540   0.126
 4881SOL    HW115542   1.731   1.545   0.225
 4881SOL    HW215543   1.691   1.618   0.085
 4882SOL     OW15544   4.589   0.836   5.252
 4882SOL    HW115545   4.629   0.928   5.257
 4882SOL    HW215546   4.587   0.796   5.344
 4883SOL     OW15547   4.913   4.214   1.255
 4883SOL    HW115548   4.865   4.175   1.177
 4883SOL    HW215549   4.852   4.221   1.334
 4884SOL     OW15550   3.504   5.320   1.543
 4884SOL    HW115551   3.456   5.233   1.527
 4884SOL    HW215552   3.477   5.385   1.472
 4885SOL     OW15553   2.088   5.330   1.340
 4885SOL    HW115554   2.184   5.303   1.341
 4885SOL    HW215555   2.031   5.254   1.372
 4886SOL     OW15556   2.796   6.342   1.172
 4886SOL    HW115557   2.730   6.383   1.109
 4886SOL    HW215558   2.889   6.358   1.138
 4887SOL     OW15559   6.921   6.467   1.396
 4887SOL    HW115560   6.828   6.478   1.431
 4887SOL    HW215561   6.917   6.419   1.308
 4888SOL     OW15562   2.793   0.067   3.917
 4888SOL    HW115563   2.755   7.012   3.965
 4888SOL    HW215564   2.741   0.148   3.942
 4889SOL     OW15565   0.035   1.828   5.054
 4889SOL    HW115566   0.071   1.813   4.962
 4889SOL    HW215567   6.993   1.757   5.075
 4890SOL     OW15568   0.016   1.473   5.472
 4890SOL    HW115569   6.954   1.456   5.519
 4890SOL    HW215570   0.051   1.563   5.497
 4891SOL     OW15571   2.109   5.232   6.978
 4891SOL    HW115572   2.132   5.292   0.029
 4891SOL    HW215573   2.144   5.140   6.997
 4892SOL     OW15574   4.562   5.361   2.190
 4892SOL    HW115575   4.478   5.377   2.242
 4892SOL    HW215576   4.577   5.437   2.127
 4893SOL     OW15577   6.060   3.147   2.164
 4893SOL    HW115578   6.056   3.111   2.257
 4893SOL    HW215579   6.111   3.083   2.106
 4894SOL     OW15580   3.847   0.613   2.808
 4894SOL    HW115581   3.805   0.700   2.779
 4894SOL    HW215582   3.804   0.583   2.893
 4895SOL     OW15583   0.622   4.631   4.035
 4895SOL    HW115584   0.632   4.730   4.047
 4895SOL    HW215585   0.599   4.611   3.940
 4896SOL     OW15586   2.603   4.587   2.440
 4896SOL    HW115587   2.549   4.516   2.485
 4896SOL    HW215588   2.632   4.555   2.350
 4897SOL     OW15589   1.700   5.560   5.356
 4897SOL    HW115590   1.631   5.487   5.359
 4897SOL    HW215591   1.747   5.557   5.268
 4898SOL     OW15592   4.119   1.197   4.693
 4898SOL    HW115593   4.144   1.163   4.783
 4898SOL    HW215594   4.029   1.240   4.698
 4899SOL     OW15595   5.798   5.190   2.889
 4899SOL    HW115596   5.722   5.137   2.851
 4899SOL    HW215597   5.762   5.264   2.946
 4900SOL     OW15598   3.450   5.946   4.997
 4900SOL    HW115599   3.534   5.898   4.973
 4900SOL    HW215600   3.429   6.014   4.926
 4901SOL     OW15601   2.617   1.695   5.593
 4901SOL    HW115602   2.576   1.693   5.684
 4901SOL    HW215603   2.623   1.601   5.557
 4902SOL     OW15604   1.018   1.357   4.649
 4902SOL    HW115605   0.966   1.424   4.594
 4902SOL    HW215606   0.962   1.327   4.726
 4903SOL     OW15607   4.483   5.938   0.516
 4903SOL    HW115608   4.556   5.973   0.574
 4903SOL    HW215609   4.521   5.915   0.426
 4904SOL     OW15610   1.908   0.172   5.484
 4904SOL    HW115611   1.829   0.202   5.538
 4904SOL    HW215612   1.983   0.237   5.497
 4905SOL     OW15613   3.554   0.832   3.677
 4905SOL    HW115614   3.592   0.767   3.743
 4905SOL    HW215615   3.460   0.856   3.704
 4906SOL     OW15616   4.861   1.863   6.421
 4906SOL    HW115617   4.889   1.959   6.413
 4906SOL    HW215618   4.782   1.846   6.362
 4907SOL     OW15619   4.842   0.093   1.459
 4907SOL    HW115620   4.801   0.004   1.479
 4907SOL    HW215621   4.881   0.131   1.543
 4908SOL     OW15622   5.805   6.550   6.586
 4908SOL    HW115623   5.768   6.576   6.676
 4908SOL    HW215624   5.814   6.631   6.528
 4909SOL     OW15625   0.079   5.586   3.488
 4909SOL    HW115626   0.106   5.610   3.581
 4909SOL    HW215627   0.121   5.650   3.424
 4910SOL     OW15628   5.582   0.738   4.353
 4910SOL    HW115629   5.645   0.734   4.275
 4910SOL    HW215630   5.511   0.669   4.342
 4911SOL     OW15631   1.804   3.636   3.383
 4911SOL    HW115632   1.794   3.718   3.326
 4911SOL    HW215633   1.762   3.558   3.337
 4912SOL     OW15634   5.552   2.001   6.215
 4912SOL    HW115635   5.638   2.041   6.184
 4912SOL    HW215636   5.505   2.065   6.276
 4913SOL     OW15637   4.012   3.546   5.255
 4913SOL    HW115638   3.946   3.596   5.200
 4913SOL    HW215639   4.039   3.462   5.207
 4914SOL     OW15640   4.450   6.759   5.187
 4914SOL    HW115641   4.365   6.717   5.157
 4914SOL    HW215642   4.522   6.689   5.192
 4915SOL     OW15643   2.229   6.437   5.529
 4915SOL    HW115644   2.135   6.408   5.549
 4915SOL    HW215645   2.258   6.399   5.442
 4916SOL     OW15646   0.781   0.995   3.803
 4916SOL    HW115647   0.722   1.040   3.735
 4916SOL    HW215648   0.790   1.054   3.883
 4917SOL     OW15649   3.110   5.650   1.542
 4917SOL    HW115650   3.065   5.631   1.629
 4917SOL    HW215651   3.196   5.599   1.537
 4918SOL     OW15652   5.473   6.393   1.759
 4918SOL    HW115653   5.555   6.407   1.704
 4918SOL    HW215654   5.494   6.410   1.855
 4919SOL     OW15655   3.002   3.237   1.481
 4919SOL    HW115656   2.960   3.291   1.408
 4919SOL    HW215657   3.021   3.144   1.448
 4920SOL     OW15658   5.600   0.364   4.780
 4920SOL    HW115659   5.571   0.346   4.874
 4920SOL    HW215660   5.653   0.449   4.778
 4921SOL     OW15661   1.423   5.501   6.955
 4921SOL    HW115662   1.499   5.451   6.912
 4921SOL    HW215663   1.339   5.447   6.948
 4922SOL     OW15664   3.123   2.081   4.371
 4922SOL    HW115665   3.195   2.100   4.438
 4922SOL    HW215666   3.078   2.166   4.345
 4923SOL     OW15667   3.031   1.409   2.689
 4923SOL    HW115668   3.103   1.427   2.621
 4923SOL    HW215669   2.964   1.346   2.650
 4924SOL     OW15670   3.358   1.540   4.208
 4924SOL    HW115671   3.450   1.577   4.216
 4924SOL    HW215672   3.302   1.600   4.151
 4925SOL     OW15673   5.565   0.643   2.183
 4925SOL    HW115674   5.664   0.647   2.195
 4925SOL    HW215675   5.537   0.708   2.112
 4926SOL     OW15676   5.879   1.932   1.740
 4926SOL    HW115677   5.934   1.848   1.744
 4926SOL    HW215678   5.797   1.921   1.795
 4927SOL     OW15679   3.138   3.388   4.898
 4927SOL    HW115680   3.227   3.386   4.945
 4927SOL    HW215681   3.087   3.305   4.919
 4928SOL     OW15682   1.342   0.906   0.424
 4928SOL    HW115683   1.337   1.004   0.409
 4928SOL    HW215684   1.338   0.859   0.336
 4929SOL     OW15685   6.472   0.243   4.518
 4929SOL    HW115686   6.455   0.325   4.572
 4929SOL    HW215687   6.552   0.196   4.553
 4930SOL     OW15688   5.890   0.156   2.719
 4930SOL    HW115689   5.881   0.056   2.725
 4930SOL    HW215690   5.929   0.181   2.631
 4931SOL     OW15691   6.214   6.199   1.472
 4931SOL    HW115692   6.270   6.209   1.554
 4931SOL    HW215693   6.266   6.150   1.402
 4932SOL     OW15694   3.963   3.084   2.904
 4932SOL    HW115695   4.013   3.079   2.817
 4932SOL    HW215696   3.866   3.068   2.887
 4933SOL     OW15697   2.463   6.765   2.216
 4933SOL    HW115698   2.454   6.785   2.314
 4933SOL    HW215699   2.375   6.779   2.171
 4934SOL     OW15700   3.490   5.810   2.950
 4934SOL    HW115701   3.509   5.884   2.886
 4934SOL    HW215702   3.439   5.738   2.903
 4935SOL     OW15703   1.532   2.114   6.215
 4935SOL    HW115704   1.628   2.087   6.217
 4935SOL    HW215705   1.525   2.213   6.208
 4936SOL     OW15706   3.434   4.984   1.196
 4936SOL    HW115707   3.456   5.074   1.235
 4936SOL    HW215708   3.341   4.958   1.223
 4937SOL     OW15709   5.900   2.847   5.896
 4937SOL    HW115710   5.850   2.878   5.977
 4937SOL    HW215711   5.986   2.897   5.889
 4938SOL     OW15712   1.860   5.736   5.637
 4938SOL    HW115713   1.863   5.774   5.729
 4938SOL    HW215714   1.953   5.733   5.600
 4939SOL     OW15715   5.505   1.976   5.030
 4939SOL    HW115716   5.546   2.067   5.038
 4939SOL    HW215717   5.407   1.982   5.049
 4940SOL     OW15718   0.911   1.132   4.381
 4940SOL    HW115719   1.009   1.134   4.403
 4940SOL    HW215720   0.862   1.081   4.452
 4941SOL     OW15721   4.354   2.142   6.155
 4941SOL    HW115722   4.434   2.083   6.167
 4941SOL    HW215723   4.272   2.094   6.187
 4942SOL     OW15724   5.292   3.072   5.609
 4942SOL    HW115725   5.339   3.033   5.529
 4942SOL    HW215726   5.204   3.027   5.621
 4943SOL     OW15727   3.981   3.262   0.258
 4943SOL    HW115728   4.056   3.242   0.194
 4943SOL    HW215729   3.942   3.351   0.236
 4944SOL     OW15730   2.124   4.365   2.746
 4944SOL    HW115731   2.202   4.402   2.696
 4944SOL    HW215732   2.077   4.297   2.689
 4945SOL     OW15733   1.082   1.116   3.863
 4945SOL    HW115734   1.079   1.028   3.815
 4945SOL    HW215735   1.150   1.112   3.936
 4946SOL     OW15736   0.244   3.086   1.401
 4946SOL    HW115737   0.249   3.049   1.494
 4946SOL    HW215738   0.276   3.017   1.336
 4947SOL     OW15739   1.607   0.668   1.050
 4947SOL    HW115740   1.668   0.747   1.059
 4947SOL    HW215741   1.525   0.683   1.105
 4948SOL     OW15742   2.827   0.275   2.635
 4948SOL    HW115743   2.761   0.210   2.598
 4948SOL    HW215744   2.793   0.311   2.722
 4949SOL     OW15745   4.623   0.112   5.315
 4949SOL    HW115746   4.575   0.173   5.377
 4949SOL    HW215747   4.667   0.039   5.367
 4950SOL     OW15748   3.022   5.506   3.632
 4950SOL    HW115749   2.969   5.463   3.705
 4950SOL    HW215750   3.011   5.453   3.548
 4951SOL     OW15751   5.586   1.303   4.894
 4951SOL    HW115752   5.650   1.367   4.936
 4951SOL    HW215753   5.636   1.232   4.845
 4952SOL     OW15754   0.305   0.794   4.976
 4952SOL    HW115755   0.384   0.841   4.937
 4952SOL    HW215756   0.245   0.763   4.902
 4953SOL     OW15757   2.527   6.318   1.988
 4953SOL    HW115758   2.603   6.316   2.053
 4953SOL    HW215759   2.517   6.412   1.953
 4954SOL     OW15760   4.790   4.644   6.368
 4954SOL    HW115761   4.788   4.721   6.431
 4954SOL    HW215762   4.819   4.676   6.277
 4955SOL     OW15763   1.659   6.486   6.064
 4955SOL    HW115764   1.749   6.523   6.086
 4955SOL    HW215765   1.589   6.540   6.110
 4956SOL     OW15766   2.927   6.772   4.937
 4956SOL    HW115767   2.999   6.840   4.919
 4956SOL    HW215768   2.867   6.765   4.858
 4957SOL     OW15769   0.091   0.852   3.334
 4957SOL    HW115770   0.109   0.875   3.429
 4957SOL    HW215771   0.080   0.936   3.280
 4958SOL     OW15772   6.755   6.026   6.075
 4958SOL    HW115773   6.847   6.043   6.041
 4958SOL    HW215774   6.688   6.055   6.007
 4959SOL     OW15775   6.600   1.457   6.584
 4959SOL    HW115776   6.672   1.435   6.518
 4959SOL    HW215777   6.585   1.556   6.585
 4960SOL     OW15778   3.096   6.377   3.487
 4960SOL    HW115779   3.006   6.388   3.446
 4960SOL    HW215780   3.095   6.298   3.548
 4961SOL     OW15781   5.300   1.894   5.485
 4961SOL    HW115782   5.304   1.845   5.572
 4961SOL    HW215783   5.359   1.847   5.419
 4962SOL     OW15784   5.891   2.656   1.470
 4962SOL    HW115785   5.972   2.645   1.412
 4962SOL    HW215786   5.869   2.754   1.476
 4963SOL     OW15787   5.910   6.006   0.753
 4963SOL    HW115788   5.860   5.973   0.673
 4963SOL    HW215789   6.003   5.968   0.751
 4964SOL     OW15790   3.732   6.231   3.265
 4964SOL    HW115791   3.705   6.324   3.243
 4964SOL    HW215792   3.658   6.186   3.316
 4965SOL     OW15793   0.260   0.089   3.896
 4965SOL    HW115794   0.231   0.045   3.981
 4965SOL    HW215795   0.360   0.088   3.891
 4966SOL     OW15796   2.242   6.715   5.030
 4966SOL    HW115797   2.259   6.698   4.933
 4966SOL    HW215798   2.224   6.812   5.045
 4967SOL     OW15799   3.949   3.398   6.517
 4967SOL    HW115800   4.016   3.331   6.548
 4967SOL    HW215801   3.902   3.363   6.436
 4968SOL     OW15802   5.318   3.214   3.227
 4968SOL    HW115803   5.368   3.141   3.181
 4968SOL    HW215804   5.261   3.263   3.161
 4969SOL     OW15805   2.099   1.307   2.503
 4969SOL    HW115806   2.071   1.373   2.572
 4969SOL    HW215807   2.162   1.241   2.544
 4970SOL     OW15808   1.424   2.363   4.711
 4970SOL    HW115809   1.437   2.268   4.682
 4970SOL    HW215810   1.512   2.402   4.739
 4971SOL     OW15811   6.446   6.102   3.438
 4971SOL    HW115812   6.422   6.045   3.360
 4971SOL    HW215813   6.521   6.061   3.489
 4972SOL     OW15814   1.987   3.745   0.303
 4972SOL    HW115815   1.913   3.812   0.311
 4972SOL    HW215816   2.030   3.752   0.213
 4973SOL     OW15817   0.296   6.941   1.407
 4973SOL    HW115818   0.260   6.975   1.320
 4973SOL    HW215819   0.395   6.937   1.403
 4974SOL     OW15820   6.457   4.366   0.532
 4974SOL    HW115821   6.419   4.385   0.441
 4974SOL    HW215822   6.417   4.281   0.568
 4975SOL     OW15823   6.069   5.925   0.271
 4975SOL    HW115824   6.062   6.024   0.259
 4975SOL    HW215825   6.004   5.879   0.210
 4976SOL     OW15826   3.261   0.658   4.292
 4976SOL    HW115827   3.296   0.581   4.240
 4976SOL    HW215828   3.231   0.628   4.382
 4977SOL     OW15829   4.949   4.031   1.003
 4977SOL    HW115830   5.035   4.081   1.006
 4977SOL    HW215831   4.956   3.948   1.059
 4978SOL     OW15832   6.704   3.420   5.701
 4978SOL    HW115833   6.785   3.469   5.670
 4978SOL    HW215834   6.650   3.390   5.622
 4979SOL     OW15835   6.888   1.628   5.072
 4979SOL    HW115836   6.860   1.592   4.983
 4979SOL    HW215837   6.807   1.665   5.119
 4980SOL     OW15838   4.520   0.091   3.092
 4980SOL    HW115839   4.536   0.162   3.024
 4980SOL    HW215840   4.608   0.053   3.121
 4981SOL     OW15841   4.910   5.468   5.743
 4981SOL    HW115842   4.967   5.403   5.792
 4981SOL    HW215843   4.969   5.538   5.701
 4982SOL     OW15844   2.554   1.394   6.912
 4982SOL    HW115845   2.529   1.298   6.925
 4982SOL    HW215846   2.606   1.403   6.827
 4983SOL     OW15847   5.019   3.341   4.378
 4983SOL    HW115848   4.988   3.287   4.456
 4983SOL    HW215849   4.954   3.332   4.303
 4984SOL     OW15850   5.637   3.707   4.412
 4984SOL    HW115851   5.547   3.749   4.406
 4984SOL    HW215852   5.700   3.754   4.350
 4985SOL     OW15853   6.422   6.028   3.907
 4985SOL    HW115854   6.432   6.128   3.909
 4985SOL    HW215855   6.386   5.996   3.994
 4986SOL     OW15856   6.753   4.600   2.892
 4986SOL    HW115857   6.678   4.636   2.947
 4986SOL    HW215858   6.830   4.663   2.896
 4987SOL     OW15859   0.638   1.824   1.283
 4987SOL    HW115860   0.628   1.737   1.330
 4987SOL    HW215861   0.633   1.899   1.350
 4988SOL     OW15862   6.667   1.775   3.581
 4988SOL    HW115863   6.692   1.726   3.498
 4988SOL    HW215864   6.671   1.713   3.659
 4989SOL     OW15865   6.029   0.985   1.283
 4989SOL    HW115866   6.043   1.074   1.240
 4989SOL    HW215867   6.088   0.977   1.363
 4990SOL     OW15868   1.408   1.698   6.220
 4990SOL    HW115869   1.471   1.708   6.143
 4990SOL    HW215870   1.315   1.718   6.189
 4991SOL     OW15871   0.643   4.049   3.594
 4991SOL    HW115872   0.560   4.105   3.600
 4991SOL    HW215873   0.718   4.096   3.640
 4992SOL     OW15874   4.855   0.530   3.943
 4992SOL    HW115875   4.910   0.577   4.012
 4992SOL    HW215876   4.856   0.432   3.961
 4993SOL     OW15877   2.527   4.494   3.764
 4993SOL    HW115878   2.527   4.590   3.736
 4993SOL    HW215879   2.616   4.453   3.744
 4994SOL     OW15880   1.469   0.464   2.470
 4994SOL    HW115881   1.485   0.373   2.507
 4994SOL    HW215882   1.527   0.479   2.391
 4995SOL     OW15883   6.825   3.030   5.773
 4995SOL    HW115884   6.837   3.049   5.675
 4995SOL    HW215885   6.806   2.933   5.785
 4996SOL     OW15886   1.447   0.568   2.736
 4996SOL    HW115887   1.437   0.530   2.644
 4996SOL    HW215888   1.366   0.621   2.760
 4997SOL     OW15889   6.061   2.602   2.943
 4997SOL    HW115890   5.971   2.565   2.966
 4997SOL    HW215891   6.061   2.634   2.848
 4998SOL     OW15892   2.114   3.885   4.851
 4998SOL    HW115893   2.187   3.926   4.904
 4998SOL    HW215894   2.059   3.957   4.807
 4999SOL     OW15895   5.291   5.768   1.108
 4999SOL    HW115896   5.246   5.841   1.159
 4999SOL    HW215897   5.293   5.792   1.011
 5000SOL     OW15898   1.434   0.493   4.029
 5000SOL    HW115899   1.473   0.479   4.120
 5000SOL    HW215900   1.507   0.509   3.963
 5001SOL     OW15901   1.782   4.286   5.973
 5001SOL    HW115902   1.797   4.293   5.874
 5001SOL    HW215903   1.865   4.313   6.021
 5002SOL     OW15904   1.286   2.896   3.210
 5002SOL    HW115905   1.254   2.952   3.134
 5002SOL    HW215906   1.313   2.956   3.286
 5003SOL     OW15907   1.033   6.484   3.590
 5003SOL    HW115908   0.991   6.520   3.673
 5003SOL    HW215909   1.117   6.436   3.613
 5004SOL     OW15910   2.388   5.341   5.406
 5004SOL    HW115911   2.452   5.414   5.428
 5004SOL    HW215912   2.359   5.296   5.490
 5005SOL     OW15913   3.334   1.996   0.656
 5005SOL    HW115914   3.238   1.975   0.672
 5005SOL    HW215915   3.349   2.094   0.665
 5006SOL     OW15916   5.542   7.018   6.130
 5006SOL    HW115917   5.510   6.952   6.063
 5006SOL    HW215918   5.464   0.042   6.170
 5007SOL     OW15919   2.463   0.457   6.406
 5007SOL    HW115920   2.384   0.514   6.381
 5007SOL    HW215921   2.442   0.361   6.386
 5008SOL     OW15922   6.646   0.033   3.973
 5008SOL    HW115923   6.704   0.007   3.895
 5008SOL    HW215924   6.649   6.986   4.042
 5009SOL     OW15925   2.229   6.474   1.778
 5009SOL    HW115926   2.166   6.497   1.704
 5009SOL    HW215927   2.264   6.557   1.820
 5010SOL     OW15928   3.418   3.446   3.705
 5010SOL    HW115929   3.416   3.402   3.615
 5010SOL    HW215930   3.512   3.451   3.738
 5011SOL     OW15931   2.077   3.551   2.285
 5011SOL    HW115932   2.108   3.639   2.321
 5011SOL    HW215933   2.126   3.531   2.200
 5012SOL     OW15934   5.686   2.705   6.886
 5012SOL    HW115935   5.766   2.658   6.851
 5012SOL    HW215936   5.656   2.661   6.971
 5013SOL     OW15937   5.339   1.278   6.953
 5013SOL    HW115938   5.276   1.320   7.018
 5013SOL    HW215939   5.422   1.333   6.946
 5014SOL     OW15940   5.888   5.553   0.639
 5014SOL    HW115941   5.949   5.617   0.591
 5014SOL    HW215942   5.868   5.589   0.731
 5015SOL     OW15943   4.006   1.675   3.847
 5015SOL    HW115944   3.978   1.711   3.758
 5015SOL    HW215945   4.016   1.750   3.912
 5016SOL     OW15946   2.232   1.761   2.018
 5016SOL    HW115947   2.167   1.812   1.962
 5016SOL    HW215948   2.272   1.687   1.964
 5017SOL     OW15949   2.062   2.561   0.768
 5017SOL    HW115950   2.079   2.484   0.831
 5017SOL    HW215951   2.052   2.645   0.821
 5018SOL     OW15952   0.618   4.661   1.552
 5018SOL    HW115953   0.676   4.683   1.473
 5018SOL    HW215954   0.646   4.717   1.630
 5019SOL     OW15955   2.622   4.419   0.409
 5019SOL    HW115956   2.670   4.451   0.490
 5019SOL    HW215957   2.578   4.331   0.428
 5020SOL     OW15958   5.463   6.638   5.133
 5020SOL    HW115959   5.545   6.673   5.088
 5020SOL    HW215960   5.398   6.713   5.146
 5021SOL     OW15961   1.314   3.457   5.966
 5021SOL    HW115962   1.408   3.431   5.943
 5021SOL    HW215963   1.313   3.505   6.054
 5022SOL     OW15964   1.782   0.461   1.263
 5022SOL    HW115965   1.844   0.435   1.337
 5022SOL    HW215966   1.771   0.383   1.201
 5023SOL     OW15967   6.480   3.466   0.665
 5023SOL    HW115968   6.521   3.377   0.641
 5023SOL    HW215969   6.485   3.479   0.764
 5024SOL     OW15970   7.023   4.162   2.873
 5024SOL    HW115971   6.945   4.225   2.876
 5024SOL    HW215972   0.083   4.215   2.881
 5025SOL     OW15973   4.498   2.086   1.982
 5025SOL    HW115974   4.586   2.047   1.956
 5025SOL    HW215975   4.513   2.168   2.037
 5026SOL     OW15976   5.833   6.014   6.397
 5026SOL    HW115977   5.910   6.070   6.364
 5026SOL    HW215978   5.751   6.037   6.345
 5027SOL     OW15979   0.937   0.052   2.769
 5027SOL    HW115980   0.983   6.989   2.783
 5027SOL    HW215981   0.885   0.049   2.684
 5028SOL     OW15982   0.397   6.443   1.913
 5028SOL    HW115983   0.330   6.378   1.878
 5028SOL    HW215984   0.473   6.452   1.848
 5029SOL     OW15985   6.853   3.209   3.264
 5029SOL    HW115986   6.945   3.172   3.258
 5029SOL    HW215987   6.816   3.224   3.173
 5030SOL     OW15988   6.539   0.916   6.827
 5030SOL    HW115989   6.490   0.860   6.893
 5030SOL    HW215990   6.575   0.998   6.872
 5031SOL     OW15991   5.873   1.245   4.466
 5031SOL    HW115992   5.950   1.182   4.469
 5031SOL    HW215993   5.792   1.198   4.430
 5032SOL     OW15994   1.516   4.120   1.001
 5032SOL    HW115995   1.490   4.216   0.994
 5032SOL    HW215996   1.580   4.097   0.926
 5033SOL     OW15997   1.824   4.925   6.430
 5033SOL    HW115998   1.819   4.927   6.330
 5033SOL    HW215999   1.885   4.850   6.458
 5034SOL     OW16000   0.410   3.624   2.101
 5034SOL    HW116001   0.351   3.592   2.026
 5034SOL    HW216002   0.498   3.576   2.096
 5035SOL     OW16003   5.940   4.701   1.179
 5035SOL    HW116004   6.003   4.634   1.219
 5035SOL    HW216005   5.992   4.778   1.143
 5036SOL     OW16006   0.463   5.750   6.649
 5036SOL    HW116007   0.562   5.732   6.648
 5036SOL    HW216008   0.436   5.789   6.561
 5037SOL     OW16009   4.517   2.553   2.939
 5037SOL    HW116010   4.476   2.462   2.929
 5037SOL    HW216011   4.508   2.583   3.034
 5038SOL     OW16012   1.435   5.437   5.448
 5038SOL    HW116013   1.412   5.371   5.519
 5038SOL    HW216014   1.405   5.403   5.359
 5039SOL     OW16015   1.877   3.650   5.133
 5039SOL    HW116016   1.963   3.602   5.119
 5039SOL    HW216017   1.839   3.626   5.222
 5040SOL     OW16018   2.319   3.397   6.487
 5040SOL    HW116019   2.378   3.392   6.567
 5040SOL    HW216020   2.303   3.305   6.451
 5041SOL     OW16021   0.665   3.667   1.110
 5041SOL    HW116022   0.678   3.580   1.062
 5041SOL    HW216023   0.587   3.660   1.172
 5042SOL     OW16024   0.349   2.976   7.003
 5042SOL    HW116025   0.318   2.881   7.002
 5042SOL    HW216026   0.424   2.988   6.938
 5043SOL     OW16027   3.374   0.863   5.488
 5043SOL    HW116028   3.419   0.937   5.438
 5043SOL    HW216029   3.339   0.795   5.423
 5044SOL     OW16030   6.558   6.382   3.278
 5044SOL    HW116031   6.466   6.345   3.264
 5044SOL    HW216032   6.614   6.315   3.327
 5045SOL     OW16033   5.183   3.437   0.525
 5045SOL    HW116034   5.265   3.486   0.555
 5045SOL    HW216035   5.204   3.385   0.442
 5046SOL     OW16036   3.865   2.953   4.586
 5046SOL    HW116037   3.917   3.032   4.619
 5046SOL    HW216038   3.847   2.891   4.662
 5047SOL     OW16039   6.385   1.935   2.551
 5047SOL    HW116040   6.309   1.943   2.616
 5047SOL    HW216041   6.469   1.910   2.599
 5048SOL     OW16042   6.398   2.547   1.532
 5048SOL    HW116043   6.361   2.636   1.558
 5048SOL    HW216044   6.399   2.486   1.611
 5049SOL     OW16045   6.404   1.269   3.158
 5049SOL    HW116046   6.329   1.334   3.172
 5049SOL    HW216047   6.411   1.209   3.237
 5050SOL     OW16048   0.394   1.639   1.893
 5050SOL    HW116049   0.342   1.564   1.934
 5050SOL    HW216050   0.474   1.602   1.845
 5051SOL     OW16051   3.846   3.108   0.039
 5051SOL    HW116052   3.928   3.116   7.008
 5051SOL    HW216053   3.849   3.175   0.113
 5052SOL     OW16054   2.771   4.938   6.554
 5052SOL    HW116055   2.709   4.951   6.477
 5052SOL    HW216056   2.856   4.896   6.521
 5053SOL     OW16057   2.153   3.596   2.879
 5053SOL    HW116058   2.228   3.626   2.939
 5053SOL    HW216059   2.165   3.636   2.788
 5054SOL     OW16060   3.940   5.607   5.374
 5054SOL    HW116061   3.976   5.615   5.466
 5054SOL    HW216062   3.906   5.514   5.359
 5055SOL     OW16063   6.891   1.217   4.931
 5055SOL    HW116064   6.807   1.255   4.893
 5055SOL    HW216065   6.933   1.155   4.865
 5056SOL     OW16066   6.656   4.129   6.150
 5056SOL    HW116067   6.669   4.105   6.053
 5056SOL    HW216068   6.660   4.228   6.161
 5057SOL     OW16069   1.432   5.431   3.505
 5057SOL    HW116070   1.383   5.369   3.443
 5057SOL    HW216071   1.508   5.474   3.456
 5058SOL     OW16072   3.811   3.869   6.535
 5058SOL    HW116073   3.849   3.904   6.449
 5058SOL    HW216074   3.712   3.858   6.526
 5059SOL     OW16075   5.211   3.384   5.011
 5059SOL    HW116076   5.120   3.377   4.972
 5059SOL    HW216077   5.280   3.362   4.941
 5060SOL     OW16078   0.027   2.883   4.802
 5060SOL    HW116079   0.059   2.854   4.712
 5060SOL    HW216080   0.061   2.975   4.820
 5061SOL     OW16081   2.912   3.450   3.953
 5061SOL    HW116082   2.974   3.371   3.945
 5061SOL    HW216083   2.916   3.505   3.870
 5062SOL     OW16084   5.508   1.656   2.299
 5062SOL    HW116085   5.589   1.689   2.250
 5062SOL    HW216086   5.537   1.592   2.372
 5063SOL     OW16087   1.333   6.245   1.840
 5063SOL    HW116088   1.340   6.343   1.825
 5063SOL    HW216089   1.303   6.228   1.934
 5064SOL     OW16090   4.922   5.575   0.714
 5064SOL    HW116091   5.004   5.518   0.717
 5064SOL    HW216092   4.842   5.520   0.740
 5065SOL     OW16093   1.886   0.289   2.940
 5065SOL    HW116094   1.798   0.323   2.907
 5065SOL    HW216095   1.959   0.345   2.902
 5066SOL     OW16096   2.651   3.829   1.655
 5066SOL    HW116097   2.670   3.913   1.604
 5066SOL    HW216098   2.558   3.798   1.634
 5067SOL     OW16099   4.288   2.100   2.166
 5067SOL    HW116100   4.361   2.102   2.098
 5067SOL    HW216101   4.242   2.011   2.163
 5068SOL     OW16102   2.834   5.508   0.124
 5068SOL    HW116103   2.796   5.472   0.039
 5068SOL    HW216104   2.759   5.540   0.183
 5069SOL     OW16105   2.280   2.993   5.579
 5069SOL    HW116106   2.300   2.999   5.676
 5069SOL    HW216107   2.265   3.085   5.542
 5070SOL     OW16108   5.795   4.180   4.218
 5070SOL    HW116109   5.868   4.191   4.285
 5070SOL    HW216110   5.832   4.196   4.126
 5071SOL     OW16111   3.799   2.098   3.333
 5071SOL    HW116112   3.844   2.129   3.249
 5071SOL    HW216113   3.714   2.051   3.310
 5072SOL     OW16114   2.166   1.266   1.537
 5072SOL    HW116115   2.099   1.211   1.587
 5072SOL    HW216116   2.158   1.361   1.566
 5073SOL     OW16117   1.620   5.786   1.518
 5073SOL    HW116118   1.554   5.820   1.585
 5073SOL    HW216119   1.679   5.862   1.489
 5074SOL     OW16120   3.652   1.758   1.895
 5074SOL    HW116121   3.589   1.836   1.891
 5074SOL    HW216122   3.666   1.722   1.802
 5075SOL     OW16123   1.148   2.319   6.972
 5075SOL    HW116124   1.170   2.295   0.042
 5075SOL    HW216125   1.213   2.275   6.910
 5076SOL     OW16126   5.037   0.189   0.247
 5076SOL    HW116127   5.112   0.170   0.184
 5076SOL    HW216128   4.971   0.249   0.203
 5077SOL     OW16129   1.028   3.716   6.062
 5077SOL    HW116130   0.952   3.748   6.118
 5077SOL    HW216131   1.063   3.791   6.007
 5078SOL     OW16132   0.369   0.907   4.129
 5078SOL    HW116133   0.450   0.896   4.072
 5078SOL    HW216134   0.395   0.948   4.217
 5079SOL     OW16135   2.621   2.593   5.752
 5079SOL    HW116136   2.576   2.655   5.816
 5079SOL    HW216137   2.662   2.517   5.802
 5080SOL     OW16138   5.798   5.783   5.113
 5080SOL    HW116139   5.733   5.711   5.091
 5080SOL    HW216140   5.778   5.819   5.204
 5081SOL     OW16141   2.846   4.895   5.447
 5081SOL    HW116142   2.873   4.801   5.468
 5081SOL    HW216143   2.805   4.899   5.356
 5082SOL     OW16144   4.448   6.808   0.304
 5082SOL    HW116145   4.427   6.739   0.235
 5082SOL    HW216146   4.547   6.826   0.303
 5083SOL     OW16147   3.536   0.187   0.865
 5083SOL    HW116148   3.595   0.125   0.918
 5083SOL    HW216149   3.594   0.245   0.807
 5084SOL     OW16150   0.345   4.884   4.626
 5084SOL    HW116151   0.394   4.797   4.620
 5084SOL    HW216152   0.247   4.869   4.611
 5085SOL     OW16153   1.372   3.126   5.874
 5085SOL    HW116154   1.312   3.168   5.942
 5085SOL    HW216155   1.424   3.197   5.827
 5086SOL     OW16156   0.061   4.324   2.189
 5086SOL    HW116157   0.015   4.409   2.215
 5086SOL    HW216158   0.083   4.328   2.091
 5087SOL     OW16159   6.988   5.639   2.281
 5087SOL    HW116160   6.966   5.551   2.237
 5087SOL    HW216161   6.960   5.636   2.377
 5088SOL     OW16162   4.445   6.713   3.495
 5088SOL    HW116163   4.435   6.810   3.518
 5088SOL    HW216164   4.530   6.677   3.533
 5089SOL     OW16165   5.554   4.291   4.243
 5089SOL    HW116166   5.520   4.313   4.152
 5089SOL    HW216167   5.648   4.257   4.237
 5090SOL     OW16168   2.447   0.930   2.952
 5090SOL    HW116169   2.379   0.873   3.000
 5090SOL    HW216170   2.406   1.017   2.927
 5091SOL     OW16171   6.505   0.712   0.990
 5091SOL    HW116172   6.431   0.646   0.974
 5091SOL    HW216173   6.471   0.805   0.978
 5092SOL     OW16174   3.365   2.879   3.691
 5092SOL    HW116175   3.396   2.913   3.602
 5092SOL    HW216176   3.360   2.779   3.689
 5093SOL     OW16177   2.748   1.754   1.560
 5093SOL    HW116178   2.714   1.665   1.528
 5093SOL    HW216179   2.842   1.744   1.590
 5094SOL     OW16180   1.920   5.826   6.623
 5094SOL    HW116181   2.009   5.865   6.601
 5094SOL    HW216182   1.865   5.893   6.672
 5095SOL     OW16183   0.777   1.661   2.834
 5095SOL    HW116184   0.789   1.757   2.859
 5095SOL    HW216185   0.762   1.607   2.916
 5096SOL     OW16186   5.281   4.785   6.336
 5096SOL    HW116187   5.372   4.752   6.362
 5096SOL    HW216188   5.213   4.749   6.399
 5097SOL     OW16189   6.971   0.681   0.283
 5097SOL    HW116190   6.979   0.616   0.208
 5097SOL    HW216191   0.032   0.686   0.333
 5098SOL     OW16192   3.406   2.310   1.222
 5098SOL    HW116193   3.434   2.404   1.201
 5098SOL    HW216194   3.383   2.263   1.137
 5099SOL     OW16195   0.094   6.209   1.537
 5099SOL    HW116196   0.096   6.290   1.596
 5099SOL    HW216197   0.157   6.222   1.460
 5100SOL     OW16198   2.998   5.354   3.411
 5100SOL    HW116199   2.924   5.307   3.363
 5100SOL    HW216200   3.013   5.443   3.369
 5101SOL     OW16201   4.600   0.028   4.932
 5101SOL    HW116202   4.527   0.048   4.997
 5101SOL    HW216203   4.687   0.018   4.980
 5102SOL     OW16204   5.094   6.040   4.408
 5102SOL    HW116205   5.037   5.962   4.434
 5102SOL    HW216206   5.172   6.046   4.470
 5103SOL     OW16207   0.630   1.287   4.659
 5103SOL    HW116208   0.532   1.290   4.681
 5103SOL    HW216209   0.656   1.370   4.611
 5104SOL     OW16210   3.129   6.004   1.611
 5104SOL    HW116211   3.093   6.095   1.631
 5104SOL    HW216212   3.081   5.965   1.533
 5105SOL     OW16213   3.143   2.655   6.213
 5105SOL    HW116214   3.217   2.711   6.252
 5105SOL    HW216215   3.163   2.636   6.117
 5106SOL     OW16216   4.007   1.649   1.090
 5106SOL    HW116217   3.957   1.682   1.170
 5106SOL    HW216218   4.071   1.718   1.059
 5107SOL     OW16219   4.992   2.250   1.026
 5107SOL    HW116220   4.974   2.341   0.988
 5107SOL    HW216221   4.937   2.182   0.979
 5108SOL     OW16222   4.092   3.838   4.956
 5108SOL    HW116223   4.106   3.938   4.955
 5108SOL    HW216224   4.167   3.795   5.007
 5109SOL     OW16225   1.340   2.557   0.213
 5109SOL    HW116226   1.418   2.500   0.239
 5109SOL    HW216227   1.261   2.499   0.194
 5110SOL     OW16228   0.129   0.747   6.377
 5110SOL    HW116229   0.117   0.650   6.395
 5110SOL    HW216230   0.216   0.762   6.330
 5111SOL     OW16231   0.826   0.019   4.179
 5111SOL    HW116232   0.906   0.079   4.166
 5111SOL    HW216233   0.855   6.961   4.228
 5112SOL     OW16234   0.676   0.767   3.046
 5112SOL    HW116235   0.767   0.807   3.057
 5112SOL    HW216236   0.656   0.755   2.949
 5113SOL     OW16237   1.074   5.908   1.273
 5113SOL    HW116238   1.127   5.876   1.351
 5113SOL    HW216239   1.134   5.962   1.213
 5114SOL     OW16240   4.112   6.517   6.828
 5114SOL    HW116241   4.078   6.590   6.886
 5114SOL    HW216242   4.035   6.477   6.777
 5115SOL     OW16243   1.739   4.278   2.025
 5115SOL    HW116244   1.813   4.298   1.961
 5115SOL    HW216245   1.655   4.323   1.994
 5116SOL     OW16246   1.976   6.548   0.335
 5116SOL    HW116247   1.981   6.482   0.260
 5116SOL    HW216248   1.946   6.636   0.300
 5117SOL     OW16249   0.940   4.168   3.941
 5117SOL    HW116250   0.932   4.209   4.032
 5117SOL    HW216251   1.025   4.115   3.936
 5118SOL     OW16252   5.896   1.201   0.195
 5118SOL    HW116253   5.812   1.147   0.186
 5118SOL    HW216254   5.912   1.220   0.292
 5119SOL     OW16255   4.525   1.471   1.697
 5119SOL    HW116256   4.578   1.402   1.647
 5119SOL    HW216257   4.520   1.555   1.643
 5120SOL     OW16258   4.923   6.585   5.578
 5120SOL    HW116259   4.856   6.510   5.577
 5120SOL    HW216260   4.876   6.672   5.565
 5121SOL     OW16261   3.034   3.439   6.813
 5121SOL    HW116262   3.047   3.524   6.763
 5121SOL    HW216263   3.111   3.426   6.877
 5122SOL     OW16264   3.124   5.910   2.961
 5122SOL    HW116265   3.177   5.948   3.037
 5122SOL    HW216266   3.135   5.968   2.880
 5123SOL     OW16267   5.597   1.836   4.366
 5123SOL    HW116268   5.695   1.821   4.377
 5123SOL    HW216269   5.571   1.813   4.272
 5124SOL     OW16270   2.258   6.338   4.073
 5124SOL    HW116271   2.160   6.317   4.081
 5124SOL    HW216272   2.299   6.281   4.001
 5125SOL     OW16273   0.002   2.175   3.095
 5125SOL    HW116274   0.061   2.196   3.173
 5125SOL    HW216275   7.007   2.259   3.045
 5126SOL     OW16276   0.704   6.052   6.761
 5126SOL    HW116277   0.686   6.123   6.693
 5126SOL    HW216278   0.798   6.019   6.751
 5127SOL     OW16279   0.299   5.512   0.026
 5127SOL    HW116280   0.231   5.537   6.983
 5127SOL    HW216281   0.389   5.509   7.008
 5128SOL     OW16282   6.853   6.522   0.725
 5128SOL    HW116283   6.829   6.619   0.716
 5128SOL    HW216284   6.923   6.498   0.658
 5129SOL     OW16285   5.050   6.447   2.803
 5129SOL    HW116286   4.965   6.411   2.763
 5129SOL    HW216287   5.072   6.395   2.885
 5130SOL     OW16288   6.892   5.558   2.623
 5130SOL    HW116289   6.921   5.463   2.635
 5130SOL    HW216290   6.971   5.619   2.629
 5131SOL     OW16291   2.077   3.527   4.103
 5131SOL    HW116292   2.094   3.490   4.011
 5131SOL    HW216293   2.146   3.491   4.165
 5132SOL     OW16294   4.265   3.050   5.774
 5132SOL    HW116295   4.251   2.974   5.837
 5132SOL    HW216296   4.259   3.136   5.824
 5133SOL     OW16297   2.696   4.948   7.018
 5133SOL    HW116298   2.786   4.976   0.026
 5133SOL    HW216299   2.643   5.030   6.994
 5134SOL     OW16300   6.612   2.352   2.116
 5134SOL    HW116301   6.526   2.401   2.104
 5134SOL    HW216302   6.604   2.288   2.192
 5135SOL     OW16303   6.347   2.278   5.012
 5135SOL    HW116304   6.257   2.289   4.969
 5135SOL    HW216305   6.365   2.181   5.027
 5136SOL     OW16306   4.919   0.202   5.727
 5136SOL    HW116307   4.924   0.298   5.754
 5136SOL    HW216308   4.833   0.163   5.758
 5137SOL     OW16309   5.553   3.246   6.612
 5137SOL    HW116310   5.593   3.198   6.691
 5137SOL    HW216311   5.599   3.216   6.529
 5138SOL     OW16312   3.287   2.715   5.767
 5138SOL    HW116313   3.215   2.780   5.744
 5138SOL    HW216314   3.375   2.763   5.769
 5139SOL     OW16315   1.396   6.966   3.346
 5139SOL    HW116316   1.405   6.872   3.313
 5139SOL    HW216317   1.409   6.967   3.445
 5140SOL     OW16318   3.382   1.190   0.306
 5140SOL    HW116319   3.389   1.289   0.299
 5140SOL    HW216320   3.366   1.150   0.216
 5141SOL     OW16321   7.019   3.878   0.664
 5141SOL    HW116322   0.009   3.887   0.762
 5141SOL    HW216323   0.081   3.861   0.618
 5142SOL     OW16324   6.368   1.121   4.046
 5142SOL    HW116325   6.269   1.113   4.058
 5142SOL    HW216326   6.392   1.097   3.952
 5143SOL     OW16327   0.638   4.281   3.953
 5143SOL    HW116328   0.650   4.345   3.877
 5143SOL    HW216329   0.541   4.267   3.970
 5144SOL     OW16330   0.726   5.626   6.633
 5144SOL    HW116331   0.755   5.584   6.547
 5144SOL    HW216332   0.739   5.561   6.708
 5145SOL     OW16333   1.542   4.727   5.854
 5145SOL    HW116334   1.579   4.678   5.933
 5145SOL    HW216335   1.471   4.672   5.811
 5146SOL     OW16336   4.035   3.714   5.515
 5146SOL    HW116337   3.977   3.674   5.586
 5146SOL    HW216338   4.048   3.647   5.442
 5147SOL     OW16339   6.943   4.687   2.468
 5147SOL    HW116340   7.015   4.730   2.522
 5147SOL    HW216341   6.868   4.752   2.455
 5148SOL     OW16342   1.046   6.499   1.124
 5148SOL    HW116343   1.103   6.444   1.064
 5148SOL    HW216344   0.978   6.440   1.168
 5149SOL     OW16345   6.040   5.816   4.274
 5149SOL    HW116346   6.074   5.887   4.336
 5149SOL    HW216347   6.117   5.775   4.225
 5150SOL     OW16348   2.079   5.170   2.760
 5150SOL    HW116349   2.141   5.158   2.838
 5150SOL    HW216350   2.091   5.093   2.697
 5151SOL     OW16351   5.380   1.708   0.546
 5151SOL    HW116352   5.376   1.678   0.451
 5151SOL    HW216353   5.450   1.779   0.556
 5152SOL     OW16354   1.946   4.701   6.499
 5152SOL    HW116355   2.025   4.734   6.551
 5152SOL    HW216356   1.874   4.675   6.563
 5153SOL     OW16357   2.406   0.550   6.696
 5153SOL    HW116358   2.366   0.640   6.675
 5153SOL    HW216359   2.464   0.521   6.619
 5154SOL     OW16360   2.111   3.083   6.634
 5154SOL    HW116361   2.090   3.034   6.719
 5154SOL    HW216362   2.027   3.116   6.592
 5155SOL     OW16363   3.825   6.625   2.261
 5155SOL    HW116364   3.870   6.658   2.178
 5155SOL    HW216365   3.859   6.677   2.340
 5156SOL     OW16366   6.943   3.530   5.618
 5156SOL    HW116367   7.003   3.576   5.683
 5156SOL    HW216368   6.923   3.592   5.542
 5157SOL     OW16369   4.470   2.523   3.991
 5157SOL    HW116370   4.376   2.538   4.020
 5157SOL    HW216371   4.519   2.472   4.062
 5158SOL     OW16372   3.265   1.328   1.440
 5158SOL    HW116373   3.293   1.401   1.378
 5158SOL    HW216374   3.346   1.276   1.468
 5159SOL     OW16375   0.353   3.414   4.592
 5159SOL    HW116376   0.430   3.463   4.633
 5159SOL    HW216377   0.387   3.336   4.539
 5160SOL     OW16378   0.355   4.381   3.295
 5160SOL    HW116379   0.386   4.360   3.203
 5160SOL    HW216380   0.434   4.404   3.352
 5161SOL     OW16381   1.914   3.748   4.302
 5161SOL    HW116382   1.843   3.678   4.301
 5161SOL    HW216383   1.920   3.791   4.212
 5162SOL     OW16384   1.311   4.833   4.310
 5162SOL    HW116385   1.401   4.851   4.349
 5162SOL    HW216386   1.258   4.918   4.306
 5163SOL     OW16387   3.365   5.010   0.785
 5163SOL    HW116388   3.455   4.967   0.793
 5163SOL    HW216389   3.321   5.015   0.875
 5164SOL     OW16390   5.426   2.476   0.126
 5164SOL    HW116391   5.404   2.508   0.033
 5164SOL    HW216392   5.357   2.510   0.190
 5165SOL     OW16393   6.034   3.688   5.370
 5165SOL    HW116394   6.105   3.686   5.440
 5165SOL    HW216395   5.944   3.684   5.415
 5166SOL     OW16396   0.872   5.845   1.958
 5166SOL    HW116397   0.789   5.884   1.998
 5166SOL    HW216398   0.858   5.746   1.945
 5167SOL     OW16399   5.925   0.316   5.856
 5167SOL    HW116400   6.015   0.290   5.892
 5167SOL    HW216401   5.877   0.371   5.924
 5168SOL     OW16402   5.149   3.115   3.454
 5168SOL    HW116403   5.189   3.091   3.366
 5168SOL    HW216404   5.058   3.154   3.440
 5169SOL     OW16405   3.540   2.251   5.719
 5169SOL    HW116406   3.539   2.212   5.811
 5169SOL    HW216407   3.506   2.183   5.654
 5170SOL     OW16408   6.785   3.431   5.980
 5170SOL    HW116409   6.845   3.510   5.998
 5170SOL    HW216410   6.817   3.384   5.897
 5171SOL     OW16411   1.982   4.709   3.917
 5171SOL    HW116412   1.942   4.739   3.830
 5171SOL    HW216413   1.953   4.770   3.990
 5172SOL     OW16414   6.933   2.838   2.159
 5172SOL    HW116415   6.857   2.781   2.188
 5172SOL    HW216416   6.922   2.931   2.195
 5173SOL     OW16417   5.995   4.933   6.233
 5173SOL    HW116418   5.905   4.890   6.232
 5173SOL    HW216419   5.985   5.032   6.222
 5174SOL     OW16420   1.807   4.639   3.455
 5174SOL    HW116421   1.847   4.548   3.466
 5174SOL    HW216422   1.809   4.664   3.358
 5175SOL     OW16423   2.565   4.433   6.680
 5175SOL    HW116424   2.466   4.416   6.684
 5175SOL    HW216425   2.602   4.432   6.773
 5176SOL     OW16426   4.399   3.498   0.629
 5176SOL    HW116427   4.383   3.420   0.689
 5176SOL    HW216428   4.446   3.467   0.547
 5177SOL     OW16429   4.942   0.047   5.999
 5177SOL    HW116430   4.981   0.139   6.005
 5177SOL    HW216431   4.895   0.037   5.912
 5178SOL     OW16432   2.115   2.857   1.123
 5178SOL    HW116433   2.194   2.918   1.125
 5178SOL    HW216434   2.044   2.892   1.185
 5179SOL     OW16435   4.329   5.717   5.432
 5179SOL    HW116436   4.284   5.771   5.361
 5179SOL    HW216437   4.261   5.660   5.479
 5180SOL     OW16438   3.258   3.029   6.140
 5180SOL    HW116439   3.238   2.975   6.222
 5180SOL    HW216440   3.326   2.981   6.084
 5181SOL     OW16441   5.134   1.654   2.547
 5181SOL    HW116442   5.060   1.683   2.486
 5181SOL    HW216443   5.096   1.621   2.633
 5182SOL     OW16444   4.911   5.237   1.251
 5182SOL    HW116445   4.991   5.183   1.278
 5182SOL    HW216446   4.879   5.206   1.161
 5183SOL     OW16447   4.196   0.572   2.651
 5183SOL    HW116448   4.110   0.529   2.625
 5183SOL    HW216449   4.218   0.645   2.586
 5184SOL     OW16450   0.776   2.042   4.033
 5184SOL    HW116451   0.867   2.074   4.060
 5184SOL    HW216452   0.739   2.104   3.963
 5185SOL     OW16453   4.735   6.929   3.196
 5185SOL    HW116454   4.780   6.843   3.216
 5185SOL    HW216455   4.782   6.975   3.120
 5186SOL     OW16456   5.530   3.598   0.878
 5186SOL    HW116457   5.471   3.599   0.959
 5186SOL    HW216458   5.566   3.690   0.862
 5187SOL     OW16459   6.198   0.889   3.587
 5187SOL    HW116460   6.287   0.865   3.548
 5187SOL    HW216461   6.131   0.895   3.513
 5188SOL     OW16462   0.677   4.810   0.513
 5188SOL    HW116463   0.686   4.863   0.597
 5188SOL    HW216464   0.768   4.785   0.479
 5189SOL     OW16465   4.902   4.735   0.992
 5189SOL    HW116466   4.808   4.729   1.024
 5189SOL    HW216467   4.932   4.646   0.957
 5190SOL     OW16468   0.813   2.214   4.354
 5190SOL    HW116469   0.882   2.223   4.426
 5190SOL    HW216470   0.801   2.302   4.308
 5191SOL     OW16471   3.763   0.512   2.047
 5191SOL    HW116472   3.795   0.431   1.999
 5191SOL    HW216473   3.807   0.518   2.137
 5192SOL     OW16474   3.941   5.451   2.244
 5192SOL    HW116475   3.919   5.443   2.342
 5192SOL    HW216476   3.863   5.490   2.196
 5193SOL     OW16477   4.873   5.026   3.878
 5193SOL    HW116478   4.787   5.051   3.835
 5193SOL    HW216479   4.858   5.011   3.976
 5194SOL     OW16480   4.444   0.028   6.347
 5194SOL    HW116481   4.362   0.053   6.399
 5194SOL    HW216482   4.498   0.110   6.329
 5195SOL     OW16483   6.245   6.227   4.409
 5195SOL    HW116484   6.339   6.216   4.440
 5195SOL    HW216485   6.191   6.147   4.435
 5196SOL     OW16486   1.319   3.449   0.933
 5196SOL    HW116487   1.288   3.359   0.964
 5196SOL    HW216488   1.418   3.455   0.942
 5197SOL     OW16489   1.824   5.901   4.333
 5197SOL    HW116490   1.874   5.821   4.366
 5197SOL    HW216491   1.760   5.932   4.404
 5198SOL     OW16492   3.883   0.340   3.851
 5198SOL    HW116493   3.853   0.248   3.875
 5198SOL    HW216494   3.966   0.335   3.796
 5199SOL     OW16495   1.748   6.036   0.367
 5199SOL    HW116496   1.701   6.124   0.365
 5199SOL    HW216497   1.771   6.009   0.273
 5200SOL     OW16498   1.137   1.790   5.275
 5200SOL    HW116499   1.147   1.754   5.368
 5200SOL    HW216500   1.193   1.873   5.265
 5201SOL     OW16501   5.187   5.911   4.173
 5201SOL    HW116502   5.267   5.898   4.231
 5201SOL    HW216503   5.110   5.942   4.229
 5202SOL     OW16504   6.046   3.631   6.171
 5202SOL    HW116505   5.991   3.552   6.145
 5202SOL    HW216506   6.120   3.602   6.232
 5203SOL     OW16507   1.645   0.581   0.209
 5203SOL    HW116508   1.559   0.613   0.248
 5203SOL    HW216509   1.721   0.608   0.268
 5204SOL     OW16510   3.332   6.362   6.868
 5204SOL    HW116511   3.395   6.410   6.807
 5204SOL    HW216512   3.246   6.346   6.821
 5205SOL     OW16513   7.003   5.660   0.175
 5205SOL    HW116514   6.934   5.625   0.112
 5205SOL    HW216515   0.004   5.753   0.147
 5206SOL     OW16516   0.885   5.014   5.662
 5206SOL    HW116517   0.872   4.988   5.566
 5206SOL    HW216518   0.866   4.936   5.721
 5207SOL     OW16519   0.656   0.760   3.490
 5207SOL    HW116520   0.637   0.707   3.572
 5207SOL    HW216521   0.722   0.711   3.432
 5208SOL     OW16522   4.580   2.170   0.266
 5208SOL    HW116523   4.678   2.191   0.274
 5208SOL    HW216524   4.569   2.072   0.249
 5209SOL     OW16525   5.223   0.427   1.943
 5209SOL    HW116526   5.245   0.348   1.885
 5209SOL    HW216527   5.291   0.499   1.927
 5210SOL     OW16528   5.504   4.012   1.112
 5210SOL    HW116529   5.552   4.017   1.200
 5210SOL    HW216530   5.412   3.975   1.126
 5211SOL     OW16531   5.131   1.494   4.763
 5211SOL    HW116532   5.082   1.437   4.829
 5211SOL    HW216533   5.229   1.495   4.787
 5212SOL     OW16534   1.292   2.856   0.876
 5212SOL    HW116535   1.338   2.811   0.953
 5212SOL    HW216536   1.317   2.810   0.791
 5213SOL     OW16537   4.325   3.721   1.178
 5213SOL    HW116538   4.340   3.749   1.273
 5213SOL    HW216539   4.280   3.795   1.129
 5214SOL     OW16540   4.739   3.747   5.631
 5214SOL    HW116541   4.830   3.709   5.613
 5214SOL    HW216542   4.701   3.785   5.547
 5215SOL     OW16543   6.833   4.172   4.263
 5215SOL    HW116544   6.848   4.201   4.357
 5215SOL    HW216545   6.752   4.112   4.259
 5216SOL     OW16546   4.789   5.715   1.057
 5216SOL    HW116547   4.817   5.810   1.045
 5216SOL    HW216548   4.861   5.665   1.106
 5217SOL     OW16549   3.845   5.991   4.481
 5217SOL    HW116550   3.876   5.902   4.517
 5217SOL    HW216551   3.782   5.976   4.405
 5218SOL     OW16552   0.322   1.130   1.212
 5218SOL    HW116553   0.388   1.070   1.257
 5218SOL    HW216554   0.253   1.158   1.279
 5219SOL     OW16555   3.708   1.846   3.968
 5219SOL    HW116556   3.686   1.749   3.960
 5219SOL    HW216557   3.806   1.857   3.981
 5220SOL     OW16558   1.769   4.957   2.671
 5220SOL    HW116559   1.853   4.907   2.692
 5220SOL    HW216560   1.692   4.911   2.713
 5221SOL     OW16561   6.992   0.425   2.254
 5221SOL    HW116562   7.005   0.518   2.289
 5221SOL    HW216563   0.031   0.409   2.179
 5222SOL     OW16564   3.627   5.437   2.376
 5222SOL    HW116565   3.623   5.367   2.304
 5222SOL    HW216566   3.561   5.509   2.356
 5223SOL     OW16567   0.657   2.404   0.840
 5223SOL    HW116568   0.673   2.503   0.833
 5223SOL    HW216569   0.586   2.378   0.774
 5224SOL     OW16570   0.223   1.754   4.475
 5224SOL    HW116571   0.196   1.675   4.420
 5224SOL    HW216572   0.195   1.838   4.429
 5225SOL     OW16573   7.010   0.545   4.211
 5225SOL    HW116574   7.021   0.482   4.135
 5225SOL    HW216575   0.029   0.632   4.189
 5226SOL     OW16576   0.430   6.300   3.247
 5226SOL    HW116577   0.352   6.356   3.274
 5226SOL    HW216578   0.405   6.204   3.249
 5227SOL     OW16579   0.018   3.951   5.895
 5227SOL    HW116580   6.973   3.935   5.964
 5227SOL    HW216581   0.098   3.993   5.937
 5228SOL     OW16582   0.863   2.414   0.199
 5228SOL    HW116583   0.875   2.326   0.152
 5228SOL    HW216584   0.931   2.479   0.165
 5229SOL     OW16585   3.089   6.232   6.745
 5229SOL    HW116586   3.134   6.158   6.696
 5229SOL    HW216587   3.077   6.311   6.684
 5230SOL     OW16588   6.447   0.155   2.869
 5230SOL    HW116589   6.383   0.231   2.876
 5230SOL    HW216590   6.436   0.093   2.947
 5231SOL     OW16591   4.761   2.176   3.967
 5231SOL    HW116592   4.730   2.265   3.933
 5231SOL    HW216593   4.772   2.113   3.890
 5232SOL     OW16594   1.098   4.195   5.966
 5232SOL    HW116595   1.008   4.208   6.007
 5232SOL    HW216596   1.135   4.284   5.938
 5233SOL     OW16597   3.174   0.750   1.782
 5233SOL    HW116598   3.107   0.700   1.837
 5233SOL    HW216599   3.165   0.848   1.800
 5234SOL     OW16600   2.982   3.112   6.421
 5234SOL    HW116601   2.990   3.115   6.321
 5234SOL    HW216602   3.052   3.169   6.462
 5235SOL     OW16603   1.840   2.530   0.609
 5235SOL    HW116604   1.923   2.532   0.666
 5235SOL    HW216605   1.824   2.622   0.572
 5236SOL     OW16606   3.691   5.301   1.746
 5236SOL    HW116607   3.650   5.266   1.830
 5236SOL    HW216608   3.620   5.316   1.677
 5237SOL     OW16609   2.664   1.104   4.669
 5237SOL    HW116610   2.631   1.029   4.727
 5237SOL    HW216611   2.590   1.132   4.607
 5238SOL     OW16612   0.964   5.620   1.562
 5238SOL    HW116613   1.039   5.683   1.539
 5238SOL    HW216614   0.878   5.672   1.566
 5239SOL     OW16615   3.269   3.268   0.501
 5239SOL    HW116616   3.198   3.198   0.493
 5239SOL    HW216617   3.356   3.230   0.468
 5240SOL     OW16618   2.950   2.360   5.355
 5240SOL    HW116619   2.880   2.366   5.283
 5240SOL    HW216620   3.030   2.412   5.328
 5241SOL     OW16621   0.674   5.588   2.710
 5241SOL    HW116622   0.681   5.676   2.757
 5241SOL    HW216623   0.765   5.552   2.694
 5242SOL     OW16624   5.100   0.282   2.429
 5242SOL    HW116625   5.125   0.294   2.333
 5242SOL    HW216626   5.154   0.343   2.487
 5243SOL     OW16627   2.744   6.355   1.703
 5243SOL    HW116628   2.753   6.383   1.799
 5243SOL    HW216629   2.704   6.430   1.651
 5244SOL     OW16630   5.159   3.722   0.413
 5244SOL    HW116631   5.066   3.759   0.402
 5244SOL    HW216632   5.154   3.629   0.450
 5245SOL     OW16633   3.890   4.514   0.921
 5245SOL    HW116634   3.882   4.422   0.959
 5245SOL    HW216635   3.895   4.509   0.821
 5246SOL     OW16636   5.887   2.502   2.469
 5246SOL    HW116637   5.826   2.453   2.406
 5246SOL    HW216638   5.865   2.600   2.467
 5247SOL     OW16639   3.278   0.706   6.039
 5247SOL    HW116640   3.251   0.764   5.962
 5247SOL    HW216641   3.252   0.611   6.019
 5248SOL     OW16642   6.941   1.943   2.977
 5248SOL    HW116643   6.963   2.027   3.026
 5248SOL    HW216644   7.003   1.870   3.005
 5249SOL     OW16645   1.599   5.999   6.628
 5249SOL    HW116646   1.550   6.081   6.658
 5249SOL    HW216647   1.534   5.925   6.612
 5250SOL     OW16648   1.053   5.845   0.620
 5250SOL    HW116649   1.001   5.800   0.692
 5250SOL    HW216650   1.133   5.891   0.660
 5251SOL     OW16651   1.367   4.297   0.688
 5251SOL    HW116652   1.405   4.233   0.621
 5251SOL    HW216653   1.367   4.389   0.650
 5252SOL     OW16654   2.752   6.583   1.381
 5252SOL    HW116655   2.760   6.499   1.328
 5252SOL    HW216656   2.826   6.646   1.355
 5253SOL     OW16657   6.838   3.756   4.464
 5253SOL    HW116658   6.831   3.794   4.556
 5253SOL    HW216659   6.856   3.830   4.399
 5254SOL     OW16660   6.261   0.256   3.410
 5254SOL    HW116661   6.232   0.302   3.326
 5254SOL    HW216662   6.197   0.277   3.483
 5255SOL     OW16663   5.584   2.833   4.709
 5255SOL    HW116664   5.493   2.847   4.749
 5255SOL    HW216665   5.633   2.920   4.706
 5256SOL     OW16666   4.934   1.442   4.339
 5256SOL    HW116667   4.845   1.484   4.323
 5256SOL    HW216668   4.982   1.491   4.412
 5257SOL     OW16669   4.684   6.961   1.150
 5257SOL    HW116670   4.770   7.007   1.171
 5257SOL    HW216671   4.687   6.926   1.056
 5258SOL     OW16672   5.532   2.372   2.729
 5258SOL    HW116673   5.581   2.455   2.755
 5258SOL    HW216674   5.533   2.363   2.629
 5259SOL     OW16675   4.941   5.956   2.885
 5259SOL    HW116676   4.889   6.003   2.956
 5259SOL    HW216677   4.984   6.023   2.825
 5260SOL     OW16678   4.145   5.075   0.555
 5260SOL    HW116679   4.178   4.998   0.610
 5260SOL    HW216680   4.207   5.152   0.564
 5261SOL     OW16681   6.975   4.093   6.425
 5261SOL    HW116682   0.035   4.098   6.371
 5261SOL    HW216683   6.994   4.119   6.519
 5262SOL     OW16684   3.268   1.077   3.885
 5262SOL    HW116685   3.243   1.108   3.793
 5262SOL    HW216686   3.338   1.139   3.923
 5263SOL     OW16687   1.370   1.343   2.863
 5263SOL    HW116688   1.412   1.254   2.877
 5263SOL    HW216689   1.347   1.383   2.951
 5264SOL     OW16690   6.391   2.702   1.864
 5264SOL    HW116691   6.367   2.731   1.771
 5264SOL    HW216692   6.486   2.724   1.883
 5265SOL     OW16693   6.620   3.060   4.439
 5265SOL    HW116694   6.642   3.056   4.536
 5265SOL    HW216695   6.597   3.154   4.414
 5266SOL     OW16696   2.626   5.808   0.084
 5266SOL    HW116697   2.649   5.892   0.132
 5266SOL    HW216698   2.630   5.731   0.148
 5267SOL     OW16699   5.161   2.439   4.622
 5267SOL    HW116700   5.121   2.419   4.532
 5267SOL    HW216701   5.116   2.382   4.691
 5268SOL     OW16702   5.339   0.545   0.200
 5268SOL    HW116703   5.338   0.506   0.108
 5268SOL    HW216704   5.251   0.589   0.218
 5269SOL     OW16705   0.727   6.916   2.339
 5269SOL    HW116706   0.719   6.967   2.254
 5269SOL    HW216707   0.745   6.820   2.318
 5270SOL     OW16708   5.982   1.491   1.976
 5270SOL    HW116709   5.909   1.555   1.998
 5270SOL    HW216710   5.943   1.401   1.956
 5271SOL     OW16711   5.591   4.998   5.392
 5271SOL    HW116712   5.605   4.929   5.322
 5271SOL    HW216713   5.614   4.960   5.482
 5272SOL     OW16714   3.493   5.277   1.197
 5272SOL    HW116715   3.496   5.343   1.122
 5272SOL    HW216716   3.580   5.277   1.246
 5273SOL     OW16717   0.299   3.471   2.396
 5273SOL    HW116718   0.225   3.516   2.446
 5273SOL    HW216719   0.368   3.539   2.370
 5274SOL     OW16720   5.407   7.004   3.075
 5274SOL    HW116721   5.353   0.057   3.043
 5274SOL    HW216722   5.423   6.942   2.998
 5275SOL     OW16723   3.769   1.131   0.816
 5275SOL    HW116724   3.731   1.150   0.907
 5275SOL    HW216725   3.744   1.039   0.788
 5276SOL     OW16726   2.229   0.393   1.535
 5276SOL    HW116727   2.235   0.424   1.630
 5276SOL    HW216728   2.279   0.455   1.476
 5277SOL     OW16729   2.637   1.038   3.107
 5277SOL    HW116730   2.602   1.132   3.103
 5277SOL    HW216731   2.576   0.978   3.057
 5278SOL     OW16732   4.978   5.594   4.274
 5278SOL    HW116733   4.942   5.619   4.184
 5278SOL    HW216734   4.983   5.494   4.281
 5279SOL     OW16735   2.974   5.482   0.698
 5279SOL    HW116736   2.952   5.578   0.684
 5279SOL    HW216737   3.037   5.472   0.775
 5280SOL     OW16738   3.036   6.031   5.060
 5280SOL    HW116739   2.936   6.040   5.066
 5280SOL    HW216740   3.059   5.934   5.046
 5281SOL     OW16741   6.124   2.265   2.339
 5281SOL    HW116742   6.061   2.330   2.383
 5281SOL    HW216743   6.144   2.296   2.246
 5282SOL     OW16744   3.510   1.267   3.578
 5282SOL    HW116745   3.546   1.244   3.668
 5282SOL    HW216746   3.531   1.193   3.514
 5283SOL     OW16747   4.963   6.579   1.857
 5283SOL    HW116748   5.035   6.511   1.868
 5283SOL    HW216749   5.002   6.671   1.863
 5284SOL     OW16750   5.632   4.565   3.280
 5284SOL    HW116751   5.550   4.605   3.321
 5284SOL    HW216752   5.622   4.563   3.181
 5285SOL     OW16753   2.910   4.930   4.309
 5285SOL    HW116754   2.945   4.896   4.397
 5285SOL    HW216755   2.986   4.967   4.256
 5286SOL     OW16756   2.395   4.401   1.159
 5286SOL    HW116757   2.303   4.425   1.129
 5286SOL    HW216758   2.405   4.420   1.256
 5287SOL     OW16759   2.766   1.396   0.789
 5287SOL    HW116760   2.803   1.436   0.872
 5287SOL    HW216761   2.789   1.299   0.785
 5288SOL     OW16762   3.850   7.014   1.470
 5288SOL    HW116763   3.840   6.962   1.385
 5288SOL    HW216764   3.786   6.978   1.539
 5289SOL     OW16765   1.600   4.848   0.200
 5289SOL    HW116766   1.588   4.782   0.126
 5289SOL    HW216767   1.642   4.931   0.163
 5290SOL     OW16768   2.561   4.967   6.376
 5290SOL    HW116769   2.464   4.946   6.366
 5290SOL    HW216770   2.586   5.041   6.313
 5291SOL     OW16771   2.624   5.511   5.501
 5291SOL    HW116772   2.625   5.419   5.540
 5291SOL    HW216773   2.717   5.540   5.479
 5292SOL     OW16774   6.059   2.785   0.433
 5292SOL    HW116775   6.065   2.760   0.337
 5292SOL    HW216776   6.028   2.880   0.440
 5293SOL     OW16777   0.861   0.901   4.849
 5293SOL    HW116778   0.856   0.965   4.773
 5293SOL    HW216779   0.931   0.832   4.830
 5294SOL     OW16780   5.266   3.661   6.616
 5294SOL    HW116781   5.365   3.647   6.617
 5294SOL    HW216782   5.246   3.758   6.633
 5295SOL     OW16783   5.337   1.243   2.789
 5295SOL    HW116784   5.328   1.229   2.888
 5295SOL    HW216785   5.329   1.156   2.742
 5296SOL     OW16786   1.589   5.181   6.823
 5296SOL    HW116787   1.633   5.248   6.763
 5296SOL    HW216788   1.578   5.221   6.914
 5297SOL     OW16789   1.735   2.522   0.909
 5297SOL    HW116790   1.822   2.476   0.929
 5297SOL    HW216791   1.661   2.475   0.955
 5298SOL     OW16792   6.423   5.756   2.004
 5298SOL    HW116793   6.345   5.807   2.038
 5298SOL    HW216794   6.394   5.665   1.975
 5299SOL     OW16795   2.349   0.603   1.367
 5299SOL    HW116796   2.313   0.635   1.279
 5299SOL    HW216797   2.305   0.652   1.441
 5300SOL     OW16798   0.387   5.559   3.405
 5300SOL    HW116799   0.325   5.495   3.358
 5300SOL    HW216800   0.475   5.560   3.358
 5301SOL     OW16801   3.804   1.319   0.168
 5301SOL    HW116802   3.765   1.387   0.229
 5301SOL    HW216803   3.846   1.246   0.222
 5302SOL     OW16804   6.453   4.210   2.182
 5302SOL    HW116805   6.454   4.198   2.083
 5302SOL    HW216806   6.407   4.296   2.205
 5303SOL     OW16807   6.414   5.670   3.839
 5303SOL    HW116808   6.358   5.588   3.849
 5303SOL    HW216809   6.356   5.747   3.815
 5304SOL     OW16810   4.948   2.134   6.339
 5304SOL    HW116811   4.926   2.212   6.282
 5304SOL    HW216812   5.034   2.151   6.388
 5305SOL     OW16813   1.756   0.896   4.297
 5305SOL    HW116814   1.752   0.908   4.396
 5305SOL    HW216815   1.697   0.964   4.253
 5306SOL     OW16816   2.686   6.025   5.458
 5306SOL    HW116817   2.640   5.967   5.391
 5306SOL    HW216818   2.728   5.968   5.528
 5307SOL     OW16819   4.535   6.251   6.140
 5307SOL    HW116820   4.454   6.202   6.106
 5307SOL    HW216821   4.574   6.306   6.066
 5308SOL     OW16822   0.382   0.569   3.812
 5308SOL    HW116823   0.303   0.532   3.764
 5308SOL    HW216824   0.415   0.502   3.879
 5309SOL     OW16825   4.138   3.657   3.319
 5309SOL    HW116826   4.170   3.664   3.413
 5309SOL    HW216827   4.138   3.561   3.290
 5310SOL     OW16828   4.837   2.589   1.839
 5310SOL    HW116829   4.919   2.630   1.878
 5310SOL    HW216830   4.820   2.626   1.748
 5311SOL     OW16831   1.178   5.745   6.750
 5311SOL    HW116832   1.171   5.668   6.686
 5311SOL    HW216833   1.220   5.714   6.835
 5312SOL     OW16834   0.926   5.074   2.138
 5312SOL    HW116835   1.017   5.067   2.178
 5312SOL    HW216836   0.879   5.153   2.176
 5313SOL     OW16837   0.743   5.411   6.832
 5313SOL    HW116838   0.748   5.320   6.792
 5313SOL    HW216839   0.824   5.427   6.889
 5314SOL     OW16840   4.226   4.996   0.298
 5314SOL    HW116841   4.206   4.993   0.396
 5314SOL    HW216842   4.298   5.064   0.281
 5315SOL     OW16843   4.806   4.146   1.999
 5315SOL    HW116844   4.715   4.185   1.987
 5315SOL    HW216845   4.826   4.084   1.923
 5316SOL     OW16846   0.156   5.428   4.840
 5316SOL    HW116847   0.144   5.336   4.878
 5316SOL    HW216848   0.067   5.472   4.831
 5317SOL     OW16849   5.571   0.899   3.336
 5317SOL    HW116850   5.494   0.908   3.272
 5317SOL    HW216851   5.623   0.985   3.338
 5318SOL     OW16852   6.921   2.441   4.897
 5318SOL    HW116853   6.894   2.346   4.880
 5318SOL    HW216854   6.986   2.469   4.826
 5319SOL     OW16855   5.582   0.006   6.390
 5319SOL    HW116856   5.555   0.017   6.294
 5319SOL    HW216857   5.636   0.086   6.419
 5320SOL     OW16858   6.010   4.410   6.677
 5320SOL    HW116859   6.052   4.499   6.657
 5320SOL    HW216860   6.004   4.398   6.776
 5321SOL     OW16861   1.529   5.061   4.241
 5321SOL    HW116862   1.525   4.996   4.317
 5321SOL    HW216863   1.507   5.013   4.156
 5322SOL     OW16864   3.649   6.451   6.967
 5322SOL    HW116865   3.581   6.471   0.013
 5322SOL    HW216866   3.740   6.480   6.999
 5323SOL     OW16867   4.127   2.067   0.839
 5323SOL    HW116868   4.146   2.165   0.833
 5323SOL    HW216869   4.123   2.028   0.746
 5324SOL     OW16870   3.820   1.985   2.013
 5324SOL    HW116871   3.763   1.915   1.969
 5324SOL    HW216872   3.761   2.055   2.053
 5325SOL     OW16873   4.834   6.618   2.761
 5325SOL    HW116874   4.926   6.578   2.755
 5325SOL    HW216875   4.782   6.593   2.679
 5326SOL     OW16876   0.194   5.526   1.696
 5326SOL    HW116877   0.126   5.580   1.746
 5326SOL    HW216878   0.184   5.430   1.719
 5327SOL     OW16879   0.446   6.397   4.534
 5327SOL    HW116880   0.386   6.432   4.606
 5327SOL    HW216881   0.394   6.340   4.471
 5328SOL     OW16882   3.601   3.497   6.090
 5328SOL    HW116883   3.515   3.462   6.128
 5328SOL    HW216884   3.593   3.504   5.991
 5329SOL     OW16885   0.214   4.418   0.387
 5329SOL    HW116886   0.310   4.396   0.366
 5329SOL    HW216887   0.155   4.348   0.347
 5330SOL     OW16888   4.200   3.440   6.928
 5330SOL    HW116889   4.114   3.457   6.880
 5330SOL    HW216890   4.228   3.524   6.975
 5331SOL     OW16891   4.625   2.363   0.921
 5331SOL    HW116892   4.709   2.417   0.930
 5331SOL    HW216893   4.546   2.421   0.943
 5332SOL     OW16894   6.260   5.049   0.344
 5332SOL    HW116895   6.348   5.082   0.379
 5332SOL    HW216896   6.206   5.126   0.311
 5333SOL     OW16897   2.215   0.823   3.650
 5333SOL    HW116898   2.265   0.849   3.733
 5333SOL    HW216899   2.273   0.836   3.570
 5334SOL     OW16900   4.572   4.782   3.723
 5334SOL    HW116901   4.615   4.829   3.800
 5334SOL    HW216902   4.507   4.714   3.757
 5335SOL     OW16903   6.550   4.549   2.408
 5335SOL    HW116904   6.564   4.620   2.477
 5335SOL    HW216905   6.498   4.473   2.447
 5336SOL     OW16906   2.019   1.625   4.266
 5336SOL    HW116907   1.934   1.573   4.269
 5336SOL    HW216908   2.021   1.681   4.183
 5337SOL     OW16909   6.160   4.534   1.245
 5337SOL    HW116910   6.241   4.499   1.197
 5337SOL    HW216911   6.187   4.570   1.334
 5338SOL     OW16912   6.086   2.877   6.830
 5338SOL    HW116913   6.137   2.912   6.908
 5338SOL    HW216914   6.078   2.777   6.836
 5339SOL     OW16915   5.827   2.126   2.171
 5339SOL    HW116916   5.892   2.050   2.174
 5339SOL    HW216917   5.753   2.109   2.237
 5340SOL     OW16918   5.144   3.221   2.116
 5340SOL    HW116919   5.216   3.290   2.107
 5340SOL    HW216920   5.140   3.190   2.211
 5341SOL     OW16921   4.717   4.815   3.228
 5341SOL    HW116922   4.634   4.830   3.283
 5341SOL    HW216923   4.725   4.888   3.160
 5342SOL     OW16924   5.805   6.897   5.848
 5342SOL    HW116925   5.875   6.919   5.780
 5342SOL    HW216926   5.821   6.805   5.882
 5343SOL     OW16927   3.877   3.713   5.038
 5343SOL    HW116928   3.959   3.761   5.007
 5343SOL    HW216929   3.865   3.630   4.985
 5344SOL     OW16930   0.667   1.468   0.219
 5344SOL    HW116931   0.582   1.499   0.177
 5344SOL    HW216932   0.721   1.417   0.151
 5345SOL     OW16933   4.601   1.433   6.877
 5345SOL    HW116934   4.582   1.402   6.784
 5345SOL    HW216935   4.516   1.436   6.929
 5346SOL     OW16936   2.513   5.054   3.661
 5346SOL    HW116937   2.560   5.079   3.746
 5346SOL    HW216938   2.570   5.080   3.583
 5347SOL     OW16939   6.702   2.665   3.478
 5347SOL    HW116940   6.647   2.743   3.505
 5347SOL    HW216941   6.701   2.655   3.378
 5348SOL     OW16942   6.157   1.526   4.779
 5348SOL    HW116943   6.110   1.524   4.867
 5348SOL    HW216944   6.094   1.500   4.706
 5349SOL     OW16945   0.479   2.572   2.049
 5349SOL    HW116946   0.559   2.622   2.016
 5349SOL    HW216947   0.473   2.483   2.005
 5350SOL     OW16948   1.595   0.083   5.877
 5350SOL    HW116949   1.569   7.013   5.862
 5350SOL    HW216950   1.569   0.110   5.970
 5351SOL     OW16951   0.230   5.586   1.430
 5351SOL    HW116952   0.217   5.592   1.529
 5351SOL    HW216953   0.209   5.493   1.400
 5352SOL     OW16954   1.679   4.150   2.749
 5352SOL    HW116955   1.644   4.223   2.807
 5352SOL    HW216956   1.737   4.089   2.802
 5353SOL     OW16957   3.853   5.386   3.776
 5353SOL    HW116958   3.918   5.355   3.846
 5353SOL    HW216959   3.869   5.336   3.691
 5354SOL     OW16960   3.595   5.041   0.525
 5354SOL    HW116961   3.585   5.003   0.617
 5354SOL    HW216962   3.682   5.089   0.518
 5355SOL     OW16963   5.061   5.586   5.263
 5355SOL    HW116964   5.029   5.522   5.333
 5355SOL    HW216965   5.111   5.661   5.307
 5356SOL     OW16966   7.004   3.544   1.728
 5356SOL    HW116967   7.015   3.464   1.668
 5356SOL    HW216968   0.027   3.527   1.814
 5357SOL     OW16969   4.663   4.727   1.721
 5357SOL    HW116970   4.660   4.671   1.804
 5357SOL    HW216971   4.715   4.679   1.651
 5358SOL     OW16972   4.347   1.460   0.006
 5358SOL    HW116973   4.322   1.537   0.066
 5358SOL    HW216974   4.288   1.382   0.026
 5359SOL     OW16975   2.233   1.875   0.459
 5359SOL    HW116976   2.135   1.870   0.478
 5359SOL    HW216977   2.282   1.809   0.516
 5360SOL     OW16978   5.338   5.058   3.837
 5360SOL    HW116979   5.338   5.158   3.829
 5360SOL    HW216980   5.259   5.022   3.788
 5361SOL     OW16981   3.326   6.094   2.790
 5361SOL    HW116982   3.424   6.082   2.781
 5361SOL    HW216983   3.307   6.169   2.853
 5362SOL     OW16984   5.281   6.819   2.562
 5362SOL    HW116985   5.209   6.769   2.515
 5362SOL    HW216986   5.248   6.850   2.651
 5363SOL     OW16987   5.289   6.575   4.916
 5363SOL    HW116988   5.357   6.574   4.989
 5363SOL    HW216989   5.323   6.523   4.838
 5364SOL     OW16990   5.374   0.651   2.522
 5364SOL    HW116991   5.323   0.690   2.445
 5364SOL    HW216992   5.408   0.725   2.580
 5365SOL     OW16993   3.458   3.259   3.457
 5365SOL    HW116994   3.457   3.161   3.478
 5365SOL    HW216995   3.529   3.278   3.390
 5366SOL     OW16996   6.908   0.036   1.489
 5366SOL    HW116997   6.897   0.135   1.495
 5366SOL    HW216998   6.865   0.004   1.404
 5367SOL     OW16999   5.968   0.325   0.664
 5367SOL    HW117000   6.023   0.382   0.603
 5367SOL    HW217001   5.926   0.383   0.734
 5368SOL     OW17002   6.898   5.945   1.912
 5368SOL    HW117003   6.925   6.040   1.927
 5368SOL    HW217004   6.803   5.932   1.940
 5369SOL     OW17005   2.844   4.924   1.682
 5369SOL    HW117006   2.822   4.827   1.668
 5369SOL    HW217007   2.828   4.948   1.778
 5370SOL     OW17008   3.793   3.936   1.639
 5370SOL    HW117009   3.865   3.887   1.688
 5370SOL    HW217010   3.707   3.887   1.649
 5371SOL     OW17011   6.484   5.039   4.976
 5371SOL    HW117012   6.536   4.967   5.021
 5371SOL    HW217013   6.443   5.003   4.892
 5372SOL     OW17014   2.021   6.886   3.049
 5372SOL    HW117015   2.084   6.858   3.121
 5372SOL    HW217016   2.036   6.982   3.027
 5373SOL     OW17017   4.477   6.629   5.903
 5373SOL    HW117018   4.394   6.601   5.854
 5373SOL    HW217019   4.465   6.612   6.001
 5374SOL     OW17020   2.655   4.951   1.417
 5374SOL    HW117021   2.609   4.889   1.480
 5374SOL    HW217022   2.653   5.044   1.453
 5375SOL     OW17023   0.548   6.797   5.666
 5375SOL    HW117024   0.502   6.746   5.739
 5375SOL    HW217025   0.488   6.803   5.586
 5376SOL     OW17026   1.300   2.485   1.428
 5376SOL    HW117027   1.285   2.427   1.508
 5376SOL    HW217028   1.398   2.486   1.406
 5377SOL     OW17029   2.245   0.760   3.072
 5377SOL    HW117030   2.300   0.763   3.155
 5377SOL    HW217031   2.269   0.680   3.017
 5378SOL     OW17032   5.431   0.776   0.853
 5378SOL    HW117033   5.359   0.730   0.905
 5378SOL    HW217034   5.422   0.753   0.756
 5379SOL     OW17035   1.600   2.664   5.270
 5379SOL    HW117036   1.501   2.671   5.283
 5379SOL    HW217037   1.621   2.657   5.173
 5380SOL     OW17038   3.886   0.198   1.311
 5380SOL    HW117039   3.965   0.247   1.349
 5380SOL    HW217040   3.864   0.120   1.370
 5381SOL     OW17041   5.649   6.673   2.822
 5381SOL    HW117042   5.664   6.583   2.863
 5381SOL    HW217043   5.553   6.699   2.836
 5382SOL     OW17044   4.303   1.687   2.683
 5382SOL    HW117045   4.306   1.787   2.676
 5382SOL    HW217046   4.379   1.655   2.739
 5383SOL     OW17047   1.087   2.986   3.832
 5383SOL    HW117048   1.053   3.040   3.909
 5383SOL    HW217049   1.122   2.899   3.866
 5384SOL     OW17050   4.421   5.481   5.297
 5384SOL    HW117051   4.457   5.424   5.370
 5384SOL    HW217052   4.446   5.577   5.314
 5385SOL     OW17053   6.636   2.607   5.911
 5385SOL    HW117054   6.687   2.521   5.906
 5385SOL    HW217055   6.561   2.598   5.977
 5386SOL     OW17056   6.087   3.027   3.881
 5386SOL    HW117057   6.053   2.984   3.965
 5386SOL    HW217058   6.069   2.967   3.803
 5387SOL     OW17059   2.791   0.109   3.004
 5387SOL    HW117060   2.850   0.028   3.004
 5387SOL    HW217061   2.844   0.188   2.973
 5388SOL     OW17062   0.726   6.305   2.762
 5388SOL    HW117063   0.666   6.299   2.841
 5388SOL    HW217064   0.713   6.225   2.704
 5389SOL     OW17065   4.584   1.773   4.935
 5389SOL    HW117066   4.519   1.720   4.881
 5389SOL    HW217067   4.535   1.827   5.003
 5390SOL     OW17068   6.357   3.432   3.898
 5390SOL    HW117069   6.288   3.473   3.839
 5390SOL    HW217070   6.314   3.367   3.960
 5391SOL     OW17071   2.280   2.609   0.149
 5391SOL    HW117072   2.293   2.588   0.246
 5391SOL    HW217073   2.182   2.619   0.130
 5392SOL     OW17074   4.722   2.283   3.611
 5392SOL    HW117075   4.638   2.239   3.580
 5392SOL    HW217076   4.706   2.327   3.700
 5393SOL     OW17077   4.191   0.410   5.101
 5393SOL    HW117078   4.179   0.312   5.116
 5393SOL    HW217079   4.128   0.461   5.160
 5394SOL     OW17080   1.429   6.975   1.200
 5394SOL    HW117081   1.343   7.011   1.165
 5394SOL    HW217082   1.460   0.007   1.276
 5395SOL     OW17083   5.169   1.466   1.179
 5395SOL    HW117084   5.103   1.535   1.210
 5395SOL    HW217085   5.128   1.413   1.105
 5396SOL     OW17086   5.475   5.681   2.704
 5396SOL    HW117087   5.558   5.734   2.688
 5396SOL    HW217088   5.403   5.742   2.737
 5397SOL     OW17089   6.171   1.939   2.728
 5397SOL    HW117090   6.132   1.850   2.753
 5397SOL    HW217091   6.171   1.998   2.808
 5398SOL     OW17092   4.616   2.350   4.152
 5398SOL    HW117093   4.641   2.367   4.247
 5398SOL    HW217094   4.680   2.285   4.112
 5399SOL     OW17095   1.492   0.165   5.166
 5399SOL    HW117096   1.522   0.217   5.086
 5399SOL    HW217097   1.401   0.128   5.150
 5400SOL     OW17098   3.643   2.977   0.822
 5400SOL    HW117099   3.645   3.043   0.897
 5400SOL    HW217100   3.711   3.003   0.753
 5401SOL     OW17101   5.148   4.919   3.175
 5401SOL    HW117102   5.197   4.910   3.088
 5401SOL    HW217103   5.094   5.003   3.173
 5402SOL     OW17104   2.528   6.979   0.513
 5402SOL    HW117105   2.486   7.001   0.601
 5402SOL    HW217106   2.463   6.994   0.439
 5403SOL     OW17107   5.490   3.099   0.146
 5403SOL    HW117108   5.492   3.078   0.243
 5403SOL    HW217109   5.400   3.075   0.108
 5404SOL     OW17110   0.869   0.824   0.965
 5404SOL    HW117111   0.880   0.762   0.887
 5404SOL    HW217112   0.955   0.872   0.981
 5405SOL     OW17113   5.212   5.670   0.530
 5405SOL    HW117114   5.307   5.687   0.505
 5405SOL    HW217115   5.196   5.703   0.623
 5406SOL     OW17116   2.534   0.640   4.728
 5406SOL    HW117117   2.471   0.570   4.762
 5406SOL    HW217118   2.628   0.606   4.735
 5407SOL     OW17119   2.588   0.789   1.420
 5407SOL    HW117120   2.551   0.722   1.357
 5407SOL    HW217121   2.514   0.837   1.466
 5408SOL     OW17122   2.579   1.921   4.303
 5408SOL    HW117123   2.575   2.021   4.302
 5408SOL    HW217124   2.486   1.884   4.308
 5409SOL     OW17125   6.735   2.721   1.531
 5409SOL    HW117126   6.708   2.642   1.587
 5409SOL    HW217127   6.664   2.739   1.463
 5410SOL     OW17128   0.335   2.422   1.191
 5410SOL    HW117129   0.398   2.364   1.138
 5410SOL    HW217130   0.298   2.369   1.268
 5411SOL     OW17131   4.931   4.906   6.795
 5411SOL    HW117132   4.949   4.948   6.884
 5411SOL    HW217133   4.854   4.843   6.803
 5412SOL     OW17134   1.332   1.484   6.524
 5412SOL    HW117135   1.329   1.584   6.526
 5412SOL    HW217136   1.405   1.454   6.464
 5413SOL     OW17137   6.313   0.387   5.353
 5413SOL    HW117138   6.410   0.386   5.377
 5413SOL    HW217139   6.296   0.462   5.290
 5414SOL     OW17140   0.038   4.625   5.375
 5414SOL    HW117141   6.975   4.641   5.422
 5414SOL    HW217142   0.113   4.648   5.437
 5415SOL     OW17143   2.889   6.777   0.262
 5415SOL    HW117144   2.952   6.825   0.324
 5415SOL    HW217145   2.801   6.765   0.307
 5416SOL     OW17146   2.677   5.409   5.025
 5416SOL    HW117147   2.705   5.493   5.071
 5416SOL    HW217148   2.731   5.332   5.060
 5417SOL     OW17149   4.880   6.225   3.687
 5417SOL    HW117150   4.806   6.291   3.672
 5417SOL    HW217151   4.844   6.132   3.674
 5418SOL     OW17152   6.017   4.751   4.189
 5418SOL    HW117153   5.949   4.774   4.259
 5418SOL    HW217154   5.999   4.804   4.107
 5419SOL     OW17155   4.190   6.726   6.653
 5419SOL    HW117156   4.238   6.677   6.725
 5419SOL    HW217157   4.102   6.683   6.636
 5420SOL     OW17158   1.312   1.716   1.500
 5420SOL    HW117159   1.328   1.669   1.414
 5420SOL    HW217160   1.338   1.813   1.491
 5421SOL     OW17161   3.491   5.369   2.118
 5421SOL    HW117162   3.453   5.442   2.061
 5421SOL    HW217163   3.545   5.307   2.060
 5422SOL     OW17164   2.075   5.944   3.922
 5422SOL    HW117165   2.035   5.853   3.933
 5422SOL    HW217166   2.102   5.979   4.011
 5423SOL     OW17167   6.580   6.275   1.918
 5423SOL    HW117168   6.483   6.250   1.915
 5423SOL    HW217169   6.623   6.253   1.830
 5424SOL     OW17170   4.807   4.126   4.909
 5424SOL    HW117171   4.777   4.176   4.828
 5424SOL    HW217172   4.735   4.128   4.978
 5425SOL     OW17173   0.202   3.335   5.468
 5425SOL    HW117174   0.192   3.373   5.560
 5425SOL    HW217175   0.171   3.402   5.401
 5426SOL     OW17176   5.233   5.212   2.225
 5426SOL    HW117177   5.195   5.294   2.268
 5426SOL    HW217178   5.159   5.158   2.185
 5427SOL     OW17179   4.941   2.641   6.599
 5427SOL    HW117180   5.017   2.703   6.618
 5427SOL    HW217181   4.907   2.603   6.684
 5428SOL     OW17182   6.303   5.578   2.862
 5428SOL    HW117183   6.265   5.496   2.821
 5428SOL    HW217184   6.403   5.570   2.867
 5429SOL     OW17185   3.165   0.810   3.861
 5429SOL    HW117186   3.199   0.904   3.867
 5429SOL    HW217187   3.133   0.781   3.952
 5430SOL     OW17188   2.397   3.964   6.153
 5430SOL    HW117189   2.433   3.881   6.110
 5430SOL    HW217190   2.384   4.034   6.083
 5431SOL     OW17191   3.335   4.789   6.195
 5431SOL    HW117192   3.249   4.789   6.143
 5431SOL    HW217193   3.377   4.879   6.187
 5432SOL     OW17194   5.767   5.829   1.276
 5432SOL    HW117195   5.848   5.784   1.239
 5432SOL    HW217196   5.701   5.846   1.203
 5433SOL     OW17197   1.506   0.410   1.314
 5433SOL    HW117198   1.602   0.421   1.287
 5433SOL    HW217199   1.498   0.416   1.413
 5434SOL     OW17200   5.031   1.315   4.930
 5434SOL    HW117201   5.005   1.220   4.913
 5434SOL    HW217202   4.957   1.362   4.977
 5435SOL     OW17203   6.549   3.799   0.903
 5435SOL    HW117204   6.582   3.869   0.839
 5435SOL    HW217205   6.617   3.784   0.974
 5436SOL     OW17206   1.267   5.537   2.599
 5436SOL    HW117207   1.276   5.456   2.541
 5436SOL    HW217208   1.253   5.618   2.542
 5437SOL     OW17209   3.109   5.010   6.558
 5437SOL    HW117210   3.045   5.033   6.631
 5437SOL    HW217211   3.148   5.094   6.521
 5438SOL     OW17212   4.832   3.999   2.224
 5438SOL    HW117213   4.805   4.037   2.136
 5438SOL    HW217214   4.781   3.915   2.241
 5439SOL     OW17215   0.845   3.970   0.728
 5439SOL    HW117216   0.927   4.025   0.713
 5439SOL    HW217217   0.780   4.022   0.784
 5440SOL     OW17218   5.752   6.334   3.395
 5440SOL    HW117219   5.711   6.277   3.466
 5440SOL    HW217220   5.736   6.430   3.415
 5441SOL     OW17221   4.688   2.774   4.007
 5441SOL    HW117222   4.681   2.817   4.097
 5441SOL    HW217223   4.623   2.698   4.001
 5442SOL     OW17224   5.267   0.091   4.089
 5442SOL    HW117225   5.356   0.073   4.132
 5442SOL    HW217226   5.276   0.170   4.028
 5443SOL     OW17227   4.965   6.762   5.135
 5443SOL    HW117228   4.918   6.815   5.065
 5443SOL    HW217229   4.945   6.800   5.225
 5444SOL     OW17230   0.230   1.534   3.960
 5444SOL    HW117231   0.244   1.632   3.975
 5444SOL    HW217232   0.254   1.484   4.044
 5445SOL     OW17233   5.008   5.349   5.419
 5445SOL    HW117234   5.014   5.274   5.354
 5445SOL    HW217235   5.066   5.329   5.498
 5446SOL     OW17236   0.212   4.827   5.283
 5446SOL    HW117237   0.164   4.740   5.277
 5446SOL    HW217238   0.275   4.825   5.360
 5447SOL     OW17239   1.483   1.870   1.039
 5447SOL    HW117240   1.443   1.961   1.042
 5447SOL    HW217241   1.582   1.877   1.025
 5448SOL     OW17242   4.507   6.132   3.656
 5448SOL    HW117243   4.447   6.069   3.706
 5448SOL    HW217244   4.459   6.167   3.576
 5449SOL     OW17245   3.231   1.463   2.502
 5449SOL    HW117246   3.314   1.414   2.530
 5449SOL    HW217247   3.188   1.414   2.427
 5450SOL     OW17248   4.062   6.291   1.705
 5450SOL    HW117249   4.133   6.237   1.751
 5450SOL    HW217250   3.974   6.244   1.713
 5451SOL     OW17251   1.189   0.247   3.301
 5451SOL    HW117252   1.265   0.189   3.330
 5451SOL    HW217253   1.179   0.324   3.365
 5452SOL     OW17254   1.815   4.630   1.689
 5452SOL    HW117255   1.737   4.587   1.736
 5452SOL    HW217256   1.783   4.671   1.604
 5453SOL     OW17257   5.746   4.152   2.849
 5453SOL    HW117258   5.809   4.102   2.790
 5453SOL    HW217259   5.658   4.166   2.802
 5454SOL     OW17260   5.715   5.844   2.688
 5454SOL    HW117261   5.786   5.860   2.620
 5454SOL    HW217262   5.723   5.912   2.762
 5455SOL     OW17263   0.313   1.618   2.258
 5455SOL    HW117264   0.246   1.548   2.230
 5455SOL    HW217265   0.275   1.709   2.241
 5456SOL     OW17266   4.983   0.738   6.768
 5456SOL    HW117267   5.038   0.820   6.750
 5456SOL    HW217268   4.921   0.755   6.844
 5457SOL     OW17269   6.498   2.310   0.822
 5457SOL    HW117270   6.565   2.287   0.892
 5457SOL    HW217271   6.540   2.305   0.732
 5458SOL     OW17272   6.366   4.420   1.119
 5458SOL    HW117273   6.351   4.331   1.076
 5458SOL    HW217274   6.438   4.469   1.070
 5459SOL     OW17275   1.439   4.471   5.409
 5459SOL    HW117276   1.453   4.396   5.474
 5459SOL    HW217277   1.528   4.504   5.376
 5460SOL     OW17278   1.887   1.415   0.803
 5460SOL    HW117279   1.923   1.437   0.894
 5460SOL    HW217280   1.927   1.329   0.771
 5461SOL     OW17281   0.278   1.689   6.237
 5461SOL    HW117282   0.332   1.680   6.153
 5461SOL    HW217283   0.192   1.736   6.215
 5462SOL     OW17284   5.543   6.415   6.749
 5462SOL    HW117285   5.585   6.501   6.778
 5462SOL    HW217286   5.464   6.435   6.691
 5463SOL     OW17287   0.076   2.447   6.466
 5463SOL    HW117288   0.132   2.432   6.548
 5463SOL    HW217289   7.017   2.393   6.473
 5464SOL     OW17290   6.059   6.259   5.616
 5464SOL    HW117291   6.032   6.176   5.568
 5464SOL    HW217292   6.149   6.248   5.656
 5465SOL     OW17293   6.293   6.718   3.065
 5465SOL    HW117294   6.391   6.717   3.086
 5465SOL    HW217295   6.264   6.812   3.047
 5466SOL     OW17296   5.825   2.537   5.243
 5466SOL    HW117297   5.775   2.509   5.161
 5466SOL    HW217298   5.772   2.605   5.293
 5467SOL     OW17299   5.771   4.056   3.553
 5467SOL    HW117300   5.763   3.961   3.523
 5467SOL    HW217301   5.858   4.093   3.523
 5468SOL     OW17302   6.758   1.943   2.735
 5468SOL    HW117303   6.795   1.927   2.826
 5468SOL    HW217304   6.822   1.910   2.666
 5469SOL     OW17305   1.966   0.712   6.032
 5469SOL    HW117306   1.988   0.626   6.077
 5469SOL    HW217307   1.991   0.788   6.093
 5470SOL     OW17308   3.990   5.363   4.693
 5470SOL    HW117309   4.075   5.367   4.745
 5470SOL    HW217310   3.970   5.453   4.655
 5471SOL     OW17311   5.043   0.088   2.839
 5471SOL    HW117312   5.124   0.135   2.873
 5471SOL    HW217313   5.030   0.109   2.742
 5472SOL     OW17314   2.894   2.119   6.276
 5472SOL    HW117315   2.986   2.081   6.278
 5472SOL    HW217316   2.827   2.045   6.280
 5473SOL     OW17317   2.070   4.734   0.450
 5473SOL    HW117318   2.136   4.809   0.442
 5473SOL    HW217319   2.083   4.688   0.538
 5474SOL     OW17320   1.393   5.625   3.685
 5474SOL    HW117321   1.407   5.560   3.610
 5474SOL    HW217322   1.411   5.580   3.772
 5475SOL     OW17323   1.589   2.069   0.227
 5475SOL    HW117324   1.619   2.056   0.322
 5475SOL    HW217325   1.531   1.993   0.200
 5476SOL     OW17326   1.940   5.285   5.306
 5476SOL    HW117327   2.031   5.292   5.347
 5476SOL    HW217328   1.887   5.366   5.327
 5477SOL     OW17329   1.377   4.324   2.973
 5477SOL    HW117330   1.476   4.332   2.961
 5477SOL    HW217331   1.347   4.387   3.044
 5478SOL     OW17332   5.339   5.654   6.257
 5478SOL    HW117333   5.278   5.655   6.336
 5478SOL    HW217334   5.345   5.561   6.220
 5479SOL     OW17335   4.697   1.558   4.650
 5479SOL    HW117336   4.717   1.656   4.656
 5479SOL    HW217337   4.600   1.543   4.669
 5480SOL     OW17338   6.211   4.889   4.834
 5480SOL    HW117339   6.170   4.830   4.765
 5480SOL    HW217340   6.149   4.966   4.852
 5481SOL     OW17341   3.933   0.764   5.942
 5481SOL    HW117342   3.955   0.667   5.940
 5481SOL    HW217343   3.840   0.778   5.909
 5482SOL     OW17344   3.856   3.577   2.082
 5482SOL    HW117345   3.795   3.498   2.093
 5482SOL    HW217346   3.951   3.545   2.076
 5483SOL     OW17347   6.616   2.786   5.685
 5483SOL    HW117348   6.679   2.747   5.618
 5483SOL    HW217349   6.618   2.731   5.769
 5484SOL     OW17350   6.638   6.709   3.896
 5484SOL    HW117351   6.651   6.669   3.987
 5484SOL    HW217352   6.707   6.671   3.834
 5485SOL     OW17353   2.673   0.315   4.365
 5485SOL    HW117354   2.737   0.385   4.395
 5485SOL    HW217355   2.604   0.355   4.306
 5486SOL     OW17356   1.446   0.166   3.935
 5486SOL    HW117357   1.487   0.075   3.930
 5486SOL    HW217358   1.410   0.192   3.845
 5487SOL     OW17359   5.943   4.027   6.886
 5487SOL    HW117360   5.878   4.021   6.962
 5487SOL    HW217361   5.998   3.943   6.883
 5488SOL     OW17362   4.285   1.760   0.145
 5488SOL    HW117363   4.357   1.793   0.205
 5488SOL    HW217364   4.207   1.823   0.146
 5489SOL     OW17365   1.481   4.437   2.039
 5489SOL    HW117366   1.441   4.456   2.129
 5489SOL    HW217367   1.411   4.396   1.980
 5490SOL     OW17368   3.119   6.925   0.374
 5490SOL    HW117369   3.205   6.930   0.324
 5490SOL    HW217370   3.086   7.018   0.392
 5491SOL     OW17371   1.324   4.580   6.495
 5491SOL    HW117372   1.255   4.514   6.525
 5491SOL    HW217373   1.372   4.616   6.575
 5492SOL     OW17374   1.262   1.247   6.178
 5492SOL    HW117375   1.185   1.289   6.131
 5492SOL    HW217376   1.347   1.289   6.146
 5493SOL     OW17377   3.776   3.060   5.079
 5493SOL    HW117378   3.809   3.152   5.100
 5493SOL    HW217379   3.830   2.993   5.130
 5494SOL     OW17380   6.757   2.934   0.439
 5494SOL    HW117381   6.672   2.882   0.432
 5494SOL    HW217382   6.817   2.911   0.362
 5495SOL     OW17383   3.469   2.837   0.461
 5495SOL    HW117384   3.437   2.901   0.530
 5495SOL    HW217385   3.458   2.743   0.494
 5496SOL     OW17386   3.618   6.050   1.648
 5496SOL    HW117387   3.704   6.096   1.625
 5496SOL    HW217388   3.553   6.061   1.573
 5497SOL     OW17389   0.491   2.297   3.159
 5497SOL    HW117390   0.453   2.250   3.079
 5497SOL    HW217391   0.579   2.338   3.135
 5498SOL     OW17392   4.931   0.884   0.102
 5498SOL    HW117393   4.885   0.845   0.022
 5498SOL    HW217394   4.869   0.883   0.180
 5499SOL     OW17395   0.787   1.245   3.604
 5499SOL    HW117396   0.793   1.260   3.505
 5499SOL    HW217397   0.726   1.314   3.644
 5500SOL     OW17398   2.042   5.782   0.131
 5500SOL    HW117399   2.119   5.729   0.167
 5500SOL    HW217400   2.036   5.770   0.032
 5501SOL     OW17401   3.519   6.946   1.496
 5501SOL    HW117402   3.440   6.947   1.557
 5501SOL    HW217403   3.603   6.944   1.551
 5502SOL     OW17404   6.122   4.285   5.933
 5502SOL    HW117405   6.075   4.332   6.008
 5502SOL    HW217406   6.056   4.232   5.880
 5503SOL     OW17407   0.785   5.079   2.465
 5503SOL    HW117408   0.809   5.124   2.379
 5503SOL    HW217409   0.704   5.123   2.504
 5504SOL     OW17410   2.930   0.945   4.849
 5504SOL    HW117411   2.919   1.044   4.850
 5504SOL    HW217412   2.895   0.907   4.934
 5505SOL     OW17413   1.847   6.021   4.836
 5505SOL    HW117414   1.803   6.030   4.747
 5505SOL    HW217415   1.808   6.086   4.900
 5506SOL     OW17416   6.753   0.191   5.175
 5506SOL    HW117417   6.836   0.210   5.227
 5506SOL    HW217418   6.751   0.095   5.150
 5507SOL     OW17419   3.008   6.468   3.010
 5507SOL    HW117420   3.081   6.501   3.069
 5507SOL    HW217421   3.000   6.368   3.018
 5508SOL     OW17422   2.456   1.043   0.156
 5508SOL    HW117423   2.519   1.106   0.200
 5508SOL    HW217424   2.508   0.969   0.112
 5509SOL     OW17425   0.082   6.179   0.779
 5509SOL    HW117426   0.165   6.224   0.746
 5509SOL    HW217427   0.048   6.117   0.708
 5510SOL     OW17428   5.219   6.562   0.218
 5510SOL    HW117429   5.201   6.553   0.120
 5510SOL    HW217430   5.317   6.577   0.232
 5511SOL     OW17431   1.744   0.303   3.622
 5511SOL    HW117432   1.810   0.368   3.584
 5511SOL    HW217433   1.762   0.212   3.585
 5512SOL     OW17434   6.331   1.966   0.526
 5512SOL    HW117435   6.300   2.039   0.586
 5512SOL    HW217436   6.403   2.000   0.465
 5513SOL     OW17437   4.978   4.249   5.116
 5513SOL    HW117438   4.914   4.205   5.054
 5513SOL    HW217439   4.950   4.344   5.132
 5514SOL     OW17440   5.092   5.564   2.724
 5514SOL    HW117441   5.085   5.629   2.800
 5514SOL    HW217442   5.141   5.483   2.754
 5515SOL     OW17443   6.565   3.493   0.972
 5515SOL    HW117444   6.600   3.586   0.977
 5515SOL    HW217445   6.636   3.433   0.934
 5516SOL     OW17446   1.449   3.027   0.465
 5516SOL    HW117447   1.395   2.967   0.407
 5516SOL    HW217448   1.531   3.057   0.415
 5517SOL     OW17449   2.645   2.396   2.541
 5517SOL    HW117450   2.737   2.374   2.572
 5517SOL    HW217451   2.578   2.349   2.600
 5518SOL     OW17452   6.633   5.787   5.811
 5518SOL    HW117453   6.625   5.720   5.885
 5518SOL    HW217454   6.580   5.869   5.835
 5519SOL     OW17455   4.956   3.985   2.881
 5519SOL    HW117456   5.037   4.031   2.844
 5519SOL    HW217457   4.984   3.904   2.933
 5520SOL     OW17458   0.510   4.622   2.587
 5520SOL    HW117459   0.595   4.592   2.630
 5520SOL    HW217460   0.500   4.577   2.498
 5521SOL     OW17461   4.279   5.723   2.234
 5521SOL    HW117462   4.226   5.667   2.298
 5521SOL    HW217463   4.293   5.673   2.149
 5522SOL     OW17464   1.952   3.242   1.018
 5522SOL    HW117465   1.932   3.248   1.116
 5522SOL    HW217466   1.867   3.233   0.967
 5523SOL     OW17467   3.416   6.474   2.797
 5523SOL    HW117468   3.425   6.470   2.698
 5523SOL    HW217469   3.371   6.559   2.823
 5524SOL     OW17470   6.925   5.789   4.824
 5524SOL    HW117471   6.855   5.835   4.768
 5524SOL    HW217472   6.996   5.855   4.848
 5525SOL     OW17473   6.485   4.378   7.007
 5525SOL    HW117474   6.571   4.362   6.958
 5525SOL    HW217475   6.454   4.293   0.024
 5526SOL     OW17476   5.853   3.928   4.761
 5526SOL    HW117477   5.822   3.960   4.672
 5526SOL    HW217478   5.926   3.988   4.794
 5527SOL     OW17479   0.851   3.327   3.196
 5527SOL    HW117480   0.898   3.301   3.112
 5527SOL    HW217481   0.894   3.280   3.274
 5528SOL     OW17482   0.972   2.296   6.098
 5528SOL    HW117483   0.894   2.252   6.142
 5528SOL    HW217484   0.956   2.394   6.091
 5529SOL     OW17485   2.243   0.247   4.502
 5529SOL    HW117486   2.320   0.194   4.467
 5529SOL    HW217487   2.275   0.309   4.573
 5530SOL     OW17488   6.970   1.939   2.109
 5530SOL    HW117489   6.898   1.907   2.170
 5530SOL    HW217490   6.973   1.881   2.027
 5531SOL     OW17491   4.062   3.442   4.202
 5531SOL    HW117492   3.968   3.470   4.184
 5531SOL    HW217493   4.063   3.373   4.274
 5532SOL     OW17494   1.622   1.481   1.375
 5532SOL    HW117495   1.607   1.402   1.315
 5532SOL    HW217496   1.604   1.454   1.470
 5533SOL     OW17497   2.727   0.429   2.823
 5533SOL    HW117498   2.783   0.396   2.899
 5533SOL    HW217499   2.742   0.527   2.812
 5534SOL     OW17500   1.187   3.281   6.740
 5534SOL    HW117501   1.256   3.308   6.674
 5534SOL    HW217502   1.191   3.342   6.820
 5535SOL     OW17503   0.037   3.550   3.190
 5535SOL    HW117504   0.091   3.506   3.118
 5535SOL    HW217505   0.013   3.483   3.260
 5536SOL     OW17506   3.037   1.036   4.248
 5536SOL    HW117507   3.008   1.130   4.263
 5536SOL    HW217508   3.137   1.031   4.248
 5537SOL     OW17509   3.334   1.356   4.411
 5537SOL    HW117510   3.246   1.351   4.459
 5537SOL    HW217511   3.331   1.427   4.341
 5538SOL     OW17512   3.120   0.055   4.607
 5538SOL    HW117513   3.075   7.014   4.546
 5538SOL    HW217514   3.207   0.084   4.566
 5539SOL     OW17515   0.510   1.808   0.763
 5539SOL    HW117516   0.546   1.798   0.856
 5539SOL    HW217517   0.491   1.718   0.725
 5540SOL     OW17518   4.882   3.428   2.440
 5540SOL    HW117519   4.861   3.442   2.343
 5540SOL    HW217520   4.870   3.331   2.463
 5541SOL     OW17521   5.337   2.990   5.870
 5541SOL    HW117522   5.326   3.009   5.773
 5541SOL    HW217523   5.434   2.993   5.894
 5542SOL     OW17524   5.974   6.097   5.975
 5542SOL    HW117525   5.978   6.181   6.030
 5542SOL    HW217526   5.949   6.020   6.033
 5543SOL     OW17527   1.620   5.083   6.467
 5543SOL    HW117528   1.702   5.031   6.443
 5543SOL    HW217529   1.645   5.161   6.523
 5544SOL     OW17530   5.409   5.270   5.924
 5544SOL    HW117531   5.409   5.277   6.023
 5544SOL    HW217532   5.366   5.351   5.884
 5545SOL     OW17533   5.047   1.023   2.282
 5545SOL    HW117534   4.975   0.991   2.221
 5545SOL    HW217535   5.044   1.123   2.287
 5546SOL     OW17536   1.151   6.352   3.954
 5546SOL    HW117537   1.215   6.292   3.907
 5546SOL    HW217538   1.200   6.431   3.991
 5547SOL     OW17539   4.020   0.873   4.928
 5547SOL    HW117540   3.981   0.869   5.020
 5547SOL    HW217541   4.108   0.826   4.927
 5548SOL     OW17542   6.635   3.783   5.600
 5548SOL    HW117543   6.630   3.715   5.527
 5548SOL    HW217544   6.649   3.873   5.561
 5549SOL     OW17545   3.734   4.390   1.212
 5549SOL    HW117546   3.765   4.342   1.295
 5549SOL    HW217547   3.732   4.326   1.135
 5550SOL     OW17548   2.447   4.532   2.131
 5550SOL    HW117549   2.405   4.579   2.208
 5550SOL    HW217550   2.380   4.473   2.087
 5551SOL     OW17551   1.363   6.334   2.572
 5551SOL    HW117552   1.326   6.354   2.663
 5551SOL    HW217553   1.445   6.389   2.557
 5552SOL     OW17554   6.506   1.224   6.689
 5552SOL    HW117555   6.530   1.317   6.663
 5552SOL    HW217556   6.409   1.208   6.672
 5553SOL     OW17557   5.007   6.563   6.485
 5553SOL    HW117558   5.097   6.566   6.443
 5553SOL    HW217559   4.945   6.625   6.436
 5554SOL     OW17560   4.871   2.195   0.258
 5554SOL    HW117561   4.900   2.170   0.165
 5554SOL    HW217562   4.938   2.257   0.298
 5555SOL     OW17563   1.027   3.847   2.174
 5555SOL    HW117564   1.106   3.792   2.146
 5555SOL    HW217565   1.058   3.937   2.203
 5556SOL     OW17566   6.227   1.436   3.289
 5556SOL    HW117567   6.194   1.530   3.279
 5556SOL    HW217568   6.301   1.434   3.357
 5557SOL     OW17569   4.153   5.961   2.273
 5557SOL    HW117570   4.192   5.872   2.247
 5557SOL    HW217571   4.065   5.947   2.317
 5558SOL     OW17572   2.932   3.764   6.343
 5558SOL    HW117573   2.954   3.667   6.348
 5558SOL    HW217574   2.843   3.776   6.299
 5559SOL     OW17575   2.162   0.555   1.802
 5559SOL    HW117576   2.204   0.628   1.856
 5559SOL    HW217577   2.133   0.481   1.862
 5560SOL     OW17578   0.403   5.235   1.452
 5560SOL    HW117579   0.493   5.278   1.456
 5560SOL    HW217580   0.413   5.137   1.432
 5561SOL     OW17581   2.385   0.906   4.364
 5561SOL    HW117582   2.389   0.819   4.413
 5561SOL    HW217583   2.292   0.944   4.370
 5562SOL     OW17584   3.831   2.696   6.766
 5562SOL    HW117585   3.916   2.693   6.713
 5562SOL    HW217586   3.847   2.742   6.853
 5563SOL     OW17587   3.084   5.012   2.659
 5563SOL    HW117588   3.089   4.923   2.613
 5563SOL    HW217589   3.006   5.013   2.721
 5564SOL     OW17590   4.721   0.149   0.796
 5564SOL    HW117591   4.754   0.156   0.702
 5564SOL    HW217592   4.775   0.209   0.855
 5565SOL     OW17593   3.812   2.265   5.987
 5565SOL    HW117594   3.714   2.250   5.971
 5565SOL    HW217595   3.850   2.318   5.911
 5566SOL     OW17596   1.426   4.654   6.765
 5566SOL    HW117597   1.483   4.723   6.721
 5566SOL    HW217598   1.352   4.699   6.815
 5567SOL     OW17599   7.001   3.058   0.930
 5567SOL    HW117600   6.909   3.095   0.944
 5567SOL    HW217601   6.997   2.982   0.865
 5568SOL     OW17602   5.177   0.977   3.313
 5568SOL    HW117603   5.194   1.073   3.333
 5568SOL    HW217604   5.117   0.938   3.384
 5569SOL     OW17605   2.106   1.775   2.662
 5569SOL    HW117606   2.167   1.845   2.698
 5569SOL    HW217607   2.100   1.700   2.728
 5570SOL     OW17608   6.572   4.089   4.519
 5570SOL    HW117609   6.612   4.008   4.562
 5570SOL    HW217610   6.579   4.167   4.582
 5571SOL     OW17611   6.054   6.004   1.162
 5571SOL    HW117612   6.001   6.066   1.104
 5571SOL    HW217613   6.027   6.015   1.257
 5572SOL     OW17614   1.388   3.788   4.797
 5572SOL    HW117615   1.460   3.812   4.732
 5572SOL    HW217616   1.366   3.691   4.788
 5573SOL     OW17617   1.790   5.700   4.874
 5573SOL    HW117618   1.698   5.671   4.849
 5573SOL    HW217619   1.821   5.771   4.811
 5574SOL     OW17620   0.206   1.858   2.205
 5574SOL    HW117621   0.117   1.892   2.175
 5574SOL    HW217622   0.264   1.935   2.231
 5575SOL     OW17623   0.135   1.319   0.924
 5575SOL    HW117624   0.229   1.345   0.946
 5575SOL    HW217625   0.072   1.383   0.968
 5576SOL     OW17626   0.910   4.990   1.531
 5576SOL    HW117627   0.984   5.012   1.594
 5576SOL    HW217628   0.927   4.901   1.490
 5577SOL     OW17629   3.114   2.789   6.685
 5577SOL    HW117630   3.190   2.844   6.649
 5577SOL    HW217631   3.044   2.780   6.615
 5578SOL     OW17632   3.427   3.538   1.892
 5578SOL    HW117633   3.376   3.622   1.908
 5578SOL    HW217634   3.371   3.459   1.918
 5579SOL     OW17635   0.298   3.633   0.386
 5579SOL    HW117636   0.267   3.727   0.402
 5579SOL    HW217637   0.229   3.569   0.419
 5580SOL     OW17638   4.948   2.446   5.606
 5580SOL    HW117639   4.941   2.349   5.628
 5580SOL    HW217640   4.959   2.458   5.507
 5581SOL     OW17641   2.399   0.297   1.793
 5581SOL    HW117642   2.320   0.236   1.782
 5581SOL    HW217643   2.472   0.267   1.732
 5582SOL     OW17644   3.275   3.428   6.329
 5582SOL    HW117645   3.286   3.515   6.281
 5582SOL    HW217646   3.266   3.354   6.262
 5583SOL     OW17647   5.014   0.669   2.689
 5583SOL    HW117648   5.023   0.668   2.789
 5583SOL    HW217649   5.054   0.754   2.653
 5584SOL     OW17650   6.842   4.892   4.520
 5584SOL    HW117651   6.931   4.884   4.476
 5584SOL    HW217652   6.774   4.839   4.470
 5585SOL     OW17653   5.600   5.835   3.028
 5585SOL    HW117654   5.587   5.927   2.991
 5585SOL    HW217655   5.629   5.841   3.123
 5586SOL     OW17656   0.115   2.916   5.889
 5586SOL    HW117657   0.145   2.989   5.828
 5586SOL    HW217658   0.023   2.886   5.862
 5587SOL     OW17659   4.152   6.451   0.695
 5587SOL    HW117660   4.105   6.383   0.751
 5587SOL    HW217661   4.089   6.484   0.624
 5588SOL     OW17662   2.260   5.123   2.955
 5588SOL    HW117663   2.203   5.052   2.997
 5588SOL    HW217664   2.306   5.174   3.027
 5589SOL     OW17665   6.530   3.329   5.515
 5589SOL    HW117666   6.433   3.330   5.539
 5589SOL    HW217667   6.546   3.259   5.446
 5590SOL     OW17668   0.061   6.269   3.422
 5590SOL    HW117669   0.059   6.183   3.370
 5590SOL    HW217670   0.130   6.330   3.384
 5591SOL     OW17671   5.876   1.535   1.524
 5591SOL    HW117672   5.860   1.596   1.447
 5591SOL    HW217673   5.893   1.589   1.607
 5592SOL     OW17674   1.777   5.787   2.289
 5592SOL    HW117675   1.815   5.695   2.292
 5592SOL    HW217676   1.743   5.806   2.197
 5593SOL     OW17677   0.935   2.925   0.632
 5593SOL    HW117678   0.974   2.843   0.590
 5593SOL    HW217679   0.864   2.962   0.572
 5594SOL     OW17680   4.494   1.031   6.483
 5594SOL    HW117681   4.430   0.955   6.470
 5594SOL    HW217682   4.523   1.033   6.579
 5595SOL     OW17683   0.299   0.960   4.688
 5595SOL    HW117684   0.374   0.918   4.637
 5595SOL    HW217685   0.232   0.891   4.713
 5596SOL     OW17686   4.774   0.846   2.535
 5596SOL    HW117687   4.763   0.800   2.623
 5596SOL    HW217688   4.838   0.794   2.478
 5597SOL     OW17689   4.915   3.147   4.591
 5597SOL    HW117690   4.950   3.119   4.681
 5597SOL    HW217691   4.877   3.067   4.544
 5598SOL     OW17692   5.291   4.076   4.055
 5598SOL    HW117693   5.328   4.126   3.976
 5598SOL    HW217694   5.194   4.095   4.063
 5599SOL     OW17695   0.979   2.225   2.641
 5599SOL    HW117696   0.990   2.239   2.543
 5599SOL    HW217697   0.978   2.313   2.688
 5600SOL     OW17698   1.110   1.382   1.378
 5600SOL    HW117699   1.072   1.473   1.360
 5600SOL    HW217700   1.107   1.363   1.476
 5601SOL     OW17701   1.993   0.516   6.221
 5601SOL    HW117702   1.950   0.432   6.256
 5601SOL    HW217703   2.082   0.528   6.263
 5602SOL     OW17704   0.112   1.607   1.271
 5602SOL    HW117705   0.184   1.575   1.210
 5602SOL    HW217706   0.141   1.693   1.314
 5603SOL     OW17707   5.879   2.984   0.707
 5603SOL    HW117708   5.904   2.999   0.611
 5603SOL    HW217709   5.832   2.897   0.716
 5604SOL     OW17710   6.468   2.471   4.872
 5604SOL    HW117711   6.432   2.389   4.917
 5604SOL    HW217712   6.482   2.451   4.775
 5605SOL     OW17713   0.304   1.389   5.449
 5605SOL    HW117714   0.367   1.466   5.437
 5605SOL    HW217715   0.216   1.423   5.480
 5606SOL     OW17716   4.842   6.713   0.488
 5606SOL    HW117717   4.842   6.615   0.465
 5606SOL    HW217718   4.935   6.749   0.480
 5607SOL     OW17719   5.313   1.026   2.599
 5607SOL    HW117720   5.411   1.007   2.591
 5607SOL    HW217721   5.261   0.945   2.571
 5608SOL     OW17722   5.762   0.308   3.917
 5608SOL    HW117723   5.814   0.326   4.000
 5608SOL    HW217724   5.682   0.253   3.939
 5609SOL     OW17725   3.148   5.903   0.951
 5609SOL    HW117726   3.085   5.835   0.989
 5609SOL    HW217727   3.228   5.857   0.913
 5610SOL     OW17728   3.976   5.946   0.268
 5610SOL    HW117729   3.916   5.906   0.338
 5610SOL    HW217730   3.990   6.043   0.288
 5611SOL     OW17731   1.499   5.898   2.776
 5611SOL    HW117732   1.399   5.902   2.773
 5611SOL    HW217733   1.536   5.983   2.738
 5612SOL     OW17734   3.919   2.166   6.197
 5612SOL    HW117735   3.889   2.194   6.106
 5612SOL    HW217736   3.918   2.245   6.258
 5613SOL     OW17737   6.202   4.387   3.163
 5613SOL    HW117738   6.192   4.361   3.259
 5613SOL    HW217739   6.165   4.315   3.105
 5614SOL     OW17740   4.656   2.149   4.378
 5614SOL    HW117741   4.619   2.231   4.420
 5614SOL    HW217742   4.751   2.136   4.406
 5615SOL     OW17743   0.090   1.878   4.076
 5615SOL    HW117744   0.049   1.868   4.166
 5615SOL    HW217745   0.021   1.859   4.006
 5616SOL     OW17746   2.814   1.545   4.779
 5616SOL    HW117747   2.754   1.612   4.821
 5616SOL    HW217748   2.766   1.501   4.703
 5617SOL     OW17749   2.684   6.549   5.785
 5617SOL    HW117750   2.597   6.523   5.742
 5617SOL    HW217751   2.717   6.634   5.744
 5618SOL     OW17752   0.059   4.742   3.638
 5618SOL    HW117753   0.130   4.682   3.603
 5618SOL    HW217754   0.024   4.800   3.564
 5619SOL     OW17755   3.120   3.804   5.124
 5619SOL    HW117756   3.098   3.898   5.101
 5619SOL    HW217757   3.041   3.760   5.167
 5620SOL     OW17758   4.138   3.600   0.506
 5620SOL    HW117759   4.184   3.511   0.500
 5620SOL    HW217760   4.194   3.663   0.559
 5621SOL     OW17761   2.109   2.362   0.414
 5621SOL    HW117762   2.164   2.442   0.438
 5621SOL    HW217763   2.169   2.283   0.400
 5622SOL     OW17764   4.428   0.198   6.088
 5622SOL    HW117765   4.460   0.110   6.054
 5622SOL    HW217766   4.371   0.243   6.018
 5623SOL     OW17767   3.037   5.393   5.213
 5623SOL    HW117768   3.081   5.398   5.303
 5623SOL    HW217769   2.997   5.483   5.191
 5624SOL     OW17770   1.110   4.007   3.764
 5624SOL    HW117771   1.174   4.071   3.721
 5624SOL    HW217772   1.069   3.949   3.693
 5625SOL     OW17773   5.749   1.163   5.094
 5625SOL    HW117774   5.777   1.235   5.157
 5625SOL    HW217775   5.774   1.188   5.001
 5626SOL     OW17776   2.433   6.029   4.330
 5626SOL    HW117777   2.498   6.098   4.361
 5626SOL    HW217778   2.340   6.061   4.346
 5627SOL     OW17779   0.771   5.583   6.355
 5627SOL    HW117780   0.683   5.567   6.310
 5627SOL    HW217781   0.833   5.628   6.292
 5628SOL     OW17782   1.291   2.300   0.656
 5628SOL    HW117783   1.222   2.237   0.692
 5628SOL    HW217784   1.381   2.275   0.693
 5629SOL     OW17785   3.625   3.778   2.527
 5629SOL    HW117786   3.576   3.833   2.595
 5629SOL    HW217787   3.585   3.686   2.525
 5630SOL     OW17788   1.595   3.809   0.077
 5630SOL    HW117789   1.608   3.879   0.007
 5630SOL    HW217790   1.501   3.814   0.112
 5631SOL     OW17791   4.499   1.796   0.981
 5631SOL    HW117792   4.488   1.868   0.913
 5631SOL    HW217793   4.459   1.825   1.068
 5632SOL     OW17794   2.966   2.397   6.006
 5632SOL    HW117795   2.917   2.397   6.093
 5632SOL    HW217796   3.045   2.459   6.013
 5633SOL     OW17797   5.984   4.036   3.865
 5633SOL    HW117798   5.905   3.983   3.834
 5633SOL    HW217799   5.954   4.125   3.898
 5634SOL     OW17800   2.148   4.609   4.197
 5634SOL    HW117801   2.244   4.594   4.221
 5634SOL    HW217802   2.121   4.700   4.230
 5635SOL     OW17803   1.913   4.381   5.282
 5635SOL    HW117804   1.934   4.313   5.211
 5635SOL    HW217805   1.979   4.372   5.357
 5636SOL     OW17806   4.433   6.277   4.325
 5636SOL    HW117807   4.506   6.290   4.258
 5636SOL    HW217808   4.431   6.181   4.354
 5637SOL     OW17809   5.548   0.260   3.513
 5637SOL    HW117810   5.596   0.214   3.438
 5637SOL    HW217811   5.453   0.229   3.516
 5638SOL     OW17812   6.338   3.698   1.277
 5638SOL    HW117813   6.396   3.779   1.283
 5638SOL    HW217814   6.263   3.715   1.213
 5639SOL     OW17815   0.561   1.213   2.161
 5639SOL    HW117816   0.615   1.291   2.130
 5639SOL    HW217817   0.504   1.180   2.086
 5640SOL     OW17818   3.237   0.365   3.811
 5640SOL    HW117819   3.155   0.398   3.858
 5640SOL    HW217820   3.258   0.425   3.733
 5641SOL     OW17821   1.015   4.977   5.176
 5641SOL    HW117822   1.083   4.905   5.159
 5641SOL    HW217823   0.927   4.949   5.139
 5642SOL     OW17824   1.735   6.814   5.597
 5642SOL    HW117825   1.738   6.908   5.561
 5642SOL    HW217826   1.772   6.751   5.528
 5643SOL     OW17827   4.592   0.896   5.762
 5643SOL    HW117828   4.566   0.990   5.738
 5643SOL    HW217829   4.545   0.868   5.845
 5644SOL     OW17830   3.506   0.266   5.080
 5644SOL    HW117831   3.546   0.358   5.085
 5644SOL    HW217832   3.499   0.227   5.172
 5645SOL     OW17833   6.377   4.627   3.834
 5645SOL    HW117834   6.373   4.723   3.806
 5645SOL    HW217835   6.290   4.599   3.872
 5646SOL     OW17836   1.684   5.537   3.428
 5646SOL    HW117837   1.778   5.503   3.423
 5646SOL    HW217838   1.675   5.619   3.371
 5647SOL     OW17839   4.664   5.941   1.826
 5647SOL    HW117840   4.607   5.932   1.908
 5647SOL    HW217841   4.730   6.015   1.840
 5648SOL     OW17842   2.182   6.031   2.496
 5648SOL    HW117843   2.266   6.013   2.548
 5648SOL    HW217844   2.179   6.128   2.470
 5649SOL     OW17845   0.925   6.828   4.292
 5649SOL    HW117846   1.008   6.883   4.287
 5649SOL    HW217847   0.947   6.733   4.269
 5650SOL     OW17848   1.076   5.387   1.219
 5650SOL    HW117849   1.017   5.360   1.295
 5650SOL    HW217850   1.122   5.473   1.240
 5651SOL     OW17851   1.770   1.681   1.278
 5651SOL    HW117852   1.713   1.761   1.296
 5651SOL    HW217853   1.721   1.598   1.306
 5652SOL     OW17854   6.163   6.390   1.246
 5652SOL    HW117855   6.209   6.464   1.199
 5652SOL    HW217856   6.221   6.358   1.322
 5653SOL     OW17857   6.274   6.785   6.372
 5653SOL    HW117858   6.201   6.852   6.387
 5653SOL    HW217859   6.323   6.769   6.457
 5654SOL     OW17860   0.898   6.370   4.411
 5654SOL    HW117861   0.943   6.394   4.325
 5654SOL    HW217862   0.812   6.323   4.392
 5655SOL     OW17863   0.360   2.769   3.865
 5655SOL    HW117864   0.408   2.776   3.777
 5655SOL    HW217865   0.262   2.786   3.851
 5656SOL     OW17866   6.936   4.051   6.760
 5656SOL    HW117867   6.847   4.017   6.732
 5656SOL    HW217868   6.934   4.151   6.767
 5657SOL     OW17869   5.909   3.390   6.172
 5657SOL    HW117870   5.952   3.301   6.184
 5657SOL    HW217871   5.840   3.404   6.243
 5658SOL     OW17872   2.989   3.038   6.124
 5658SOL    HW117873   2.942   3.121   6.095
 5658SOL    HW217874   3.075   3.028   6.073
 5659SOL     OW17875   3.334   3.279   6.110
 5659SOL    HW117876   3.273   3.301   6.034
 5659SOL    HW217877   3.327   3.181   6.131
 5660SOL     OW17878   4.933   6.678   5.961
 5660SOL    HW117879   4.957   6.741   6.035
 5660SOL    HW217880   4.864   6.612   5.994
 5661SOL     OW17881   1.844   6.219   5.037
 5661SOL    HW117882   1.780   6.209   5.114
 5661SOL    HW217883   1.912   6.145   5.042
 5662SOL     OW17884   2.947   6.914   3.011
 5662SOL    HW117885   2.990   6.903   3.100
 5662SOL    HW217886   2.896   6.831   2.988
 5663SOL     OW17887   2.686   2.500   0.681
 5663SOL    HW117888   2.653   2.492   0.775
 5663SOL    HW217889   2.662   2.591   0.645
 5664SOL     OW17890   0.065   3.579   4.256
 5664SOL    HW117891   0.094   3.615   4.344
 5664SOL    HW217892   6.991   3.564   4.257
 5665SOL     OW17893   1.272   0.641   0.565
 5665SOL    HW117894   1.268   0.741   0.560
 5665SOL    HW217895   1.360   0.609   0.530
 5666SOL     OW17896   6.631   0.108   3.480
 5666SOL    HW117897   6.661   0.056   3.560
 5666SOL    HW217898   6.586   0.192   3.509
 5667SOL     OW17899   1.377   5.210   4.909
 5667SOL    HW117900   1.367   5.138   4.977
 5667SOL    HW217901   1.474   5.229   4.894
 5668SOL     OW17902   5.626   3.223   3.237
 5668SOL    HW117903   5.619   3.230   3.137
 5668SOL    HW217904   5.597   3.309   3.278
 5669SOL     OW17905   6.279   3.752   0.860
 5669SOL    HW117906   6.373   3.775   0.884
 5669SOL    HW217907   6.268   3.653   0.859
 5670SOL     OW17908   1.366   3.731   3.831
 5670SOL    HW117909   1.452   3.728   3.883
 5670SOL    HW217910   1.304   3.797   3.874
 5671SOL     OW17911   5.887   6.400   5.384
 5671SOL    HW117912   5.885   6.499   5.393
 5671SOL    HW217913   5.913   6.359   5.471
 5672SOL     OW17914   5.120   4.026   6.321
 5672SOL    HW117915   5.219   4.024   6.326
 5672SOL    HW217916   5.090   3.978   6.238
 5673SOL     OW17917   2.131   6.475   1.380
 5673SOL    HW117918   2.198   6.417   1.334
 5673SOL    HW217919   2.112   6.555   1.322
 5674SOL     OW17920   1.176   4.696   5.171
 5674SOL    HW117921   1.252   4.632   5.178
 5674SOL    HW217922   1.091   4.645   5.153
 5675SOL     OW17923   4.455   2.812   6.362
 5675SOL    HW117924   4.536   2.770   6.401
 5675SOL    HW217925   4.433   2.767   6.275
 5676SOL     OW17926   2.337   1.960   3.131
 5676SOL    HW117927   2.335   2.030   3.202
 5676SOL    HW217928   2.401   1.986   3.059
 5677SOL     OW17929   0.969   0.683   0.714
 5677SOL    HW117930   1.036   0.609   0.714
 5677SOL    HW217931   1.015   0.770   0.692
 5678SOL     OW17932   3.879   0.276   2.972
 5678SOL    HW117933   3.800   0.217   2.988
 5678SOL    HW217934   3.930   0.242   2.893
 5679SOL     OW17935   5.795   0.968   3.821
 5679SOL    HW117936   5.726   0.939   3.755
 5679SOL    HW217937   5.755   0.971   3.913
 5680SOL     OW17938   1.380   5.018   6.794
 5680SOL    HW117939   1.339   4.996   6.706
 5680SOL    HW217940   1.435   5.101   6.786
 5681SOL     OW17941   0.473   3.824   1.757
 5681SOL    HW117942   0.403   3.856   1.821
 5681SOL    HW217943   0.432   3.757   1.695
 5682SOL     OW17944   2.037   5.150   4.427
 5682SOL    HW117945   1.954   5.097   4.405
 5682SOL    HW217946   2.065   5.130   4.521
 5683SOL     OW17947   3.745   1.684   6.398
 5683SOL    HW117948   3.834   1.693   6.443
 5683SOL    HW217949   3.728   1.588   6.376
 5684SOL     OW17950   2.448   3.717   6.038
 5684SOL    HW117951   2.445   3.726   5.938
 5684SOL    HW217952   2.401   3.633   6.065
 5685SOL     OW17953   2.855   1.505   3.613
 5685SOL    HW117954   2.785   1.537   3.678
 5685SOL    HW217955   2.928   1.572   3.607
 5686SOL     OW17956   3.091   1.623   5.066
 5686SOL    HW117957   3.160   1.650   5.132
 5686SOL    HW217958   3.011   1.683   5.074
 5687SOL     OW17959   0.803   5.670   5.788
 5687SOL    HW117960   0.706   5.687   5.767
 5687SOL    HW217961   0.848   5.757   5.810
 5688SOL     OW17962   1.633   2.359   2.937
 5688SOL    HW117963   1.592   2.334   3.025
 5688SOL    HW217964   1.719   2.408   2.954
 5689SOL     OW17965   2.537   1.276   2.413
 5689SOL    HW117966   2.559   1.364   2.455
 5689SOL    HW217967   2.452   1.283   2.362
 5690SOL     OW17968   1.189   5.824   0.181
 5690SOL    HW117969   1.141   5.900   0.224
 5690SOL    HW217970   1.165   5.739   0.228
 5691SOL     OW17971   3.656   0.881   2.199
 5691SOL    HW117972   3.725   0.899   2.268
 5691SOL    HW217973   3.626   0.786   2.206
 5692SOL     OW17974   5.562   4.512   0.312
 5692SOL    HW117975   5.646   4.481   0.266
 5692SOL    HW217976   5.493   4.441   0.308
 5693SOL     OW17977   4.356   1.196   2.117
 5693SOL    HW117978   4.318   1.264   2.180
 5693SOL    HW217979   4.287   1.170   2.050
 5694SOL     OW17980   1.284   0.836   2.806
 5694SOL    HW117981   1.245   0.784   2.882
 5694SOL    HW217982   1.305   0.929   2.838
 5695SOL     OW17983   1.790   1.456   3.572
 5695SOL    HW117984   1.786   1.442   3.473
 5695SOL    HW217985   1.749   1.544   3.595
 5696SOL     OW17986   0.530   6.554   4.169
 5696SOL    HW117987   0.502   6.462   4.141
 5696SOL    HW217988   0.556   6.552   4.266
 5697SOL     OW17989   5.809   2.371   2.250
 5697SOL    HW117990   5.780   2.427   2.173
 5697SOL    HW217991   5.847   2.285   2.217
 5698SOL     OW17992   1.262   4.466   3.857
 5698SOL    HW117993   1.165   4.455   3.838
 5698SOL    HW217994   1.310   4.492   3.774
 5699SOL     OW17995   1.212   2.229   2.986
 5699SOL    HW117996   1.112   2.223   2.988
 5699SOL    HW217997   1.240   2.323   3.006
 5700SOL     OW17998   6.282   6.683   3.949
 5700SOL    HW117999   6.280   6.751   4.023
 5700SOL    HW218000   6.199   6.693   3.894
 5701SOL     OW18001   0.604   0.260   1.674
 5701SOL    HW118002   0.633   0.339   1.728
 5701SOL    HW218003   0.616   0.176   1.727
 5702SOL     OW18004   2.155   6.073   4.374
 5702SOL    HW118005   2.083   6.114   4.430
 5702SOL    HW218006   2.165   5.976   4.397
 5703SOL     OW18007   6.860   4.152   0.173
 5703SOL    HW118008   6.904   4.230   0.128
 5703SOL    HW218009   6.800   4.106   0.107
 5704SOL     OW18010   5.099   4.246   3.553
 5704SOL    HW118011   5.005   4.260   3.524
 5704SOL    HW218012   5.101   4.192   3.637
 5705SOL     OW18013   4.755   6.213   6.901
 5705SOL    HW118014   4.725   6.295   6.949
 5705SOL    HW218015   4.746   6.227   6.802
 5706SOL     OW18016   5.116   2.698   2.450
 5706SOL    HW118017   5.065   2.720   2.367
 5706SOL    HW218018   5.115   2.777   2.512
 5707SOL     OW18019   6.092   0.142   0.937
 5707SOL    HW118020   6.045   0.060   0.969
 5707SOL    HW218021   6.097   0.141   0.837
 5708SOL     OW18022   4.816   5.708   2.096
 5708SOL    HW118023   4.784   5.792   2.140
 5708SOL    HW218024   4.909   5.688   2.127
 5709SOL     OW18025   0.707   1.372   2.451
 5709SOL    HW118026   0.765   1.397   2.528
 5709SOL    HW218027   0.761   1.371   2.367
 5710SOL     OW18028   3.633   2.008   0.281
 5710SOL    HW118029   3.603   1.932   0.338
 5710SOL    HW218030   3.635   2.091   0.335
 5711SOL     OW18031   5.125   1.064   1.687
 5711SOL    HW118032   5.169   1.048   1.599
 5711SOL    HW218033   5.192   1.097   1.753
 5712SOL     OW18034   6.153   6.743   0.277
 5712SOL    HW118035   6.201   6.831   0.270
 5712SOL    HW218036   6.090   6.746   0.354
 5713SOL     OW18037   2.859   3.790   1.827
 5713SOL    HW118038   2.771   3.790   1.780
 5713SOL    HW218039   2.930   3.822   1.765
 5714SOL     OW18040   6.626   6.249   1.395
 5714SOL    HW118041   6.677   6.254   1.309
 5714SOL    HW218042   6.618   6.341   1.434
 5715SOL     OW18043   0.031   0.179   2.859
 5715SOL    HW118044   6.985   0.137   2.915
 5715SOL    HW218045   0.082   0.108   2.810
 5716SOL     OW18046   1.423   5.835   5.743
 5716SOL    HW118047   1.465   5.831   5.652
 5716SOL    HW218048   1.384   5.746   5.765
 5717SOL     OW18049   1.585   5.169   0.570
 5717SOL    HW118050   1.618   5.091   0.515
 5717SOL    HW218051   1.638   5.175   0.654
 5718SOL     OW18052   1.240   3.897   0.873
 5718SOL    HW118053   1.193   3.809   0.867
 5718SOL    HW218054   1.336   3.885   0.851
 5719SOL     OW18055   2.649   3.816   0.201
 5719SOL    HW118056   2.723   3.775   0.148
 5719SOL    HW218057   2.656   3.915   0.198
 5720SOL     OW18058   1.394   6.760   4.722
 5720SOL    HW118059   1.437   6.850   4.714
 5720SOL    HW218060   1.369   6.743   4.817
 5721SOL     OW18061   6.092   4.408   0.533
 5721SOL    HW118062   6.060   4.316   0.512
 5721SOL    HW218063   6.083   4.466   0.453
 5722SOL     OW18064   6.623   2.187   5.242
 5722SOL    HW118065   6.699   2.131   5.211
 5722SOL    HW218066   6.636   2.282   5.211
 5723SOL     OW18067   3.858   3.517   0.234
 5723SOL    HW118068   3.768   3.555   0.254
 5723SOL    HW218069   3.928   3.586   0.252
 5724SOL     OW18070   6.091   2.879   4.163
 5724SOL    HW118071   6.157   2.839   4.099
 5724SOL    HW218072   6.004   2.830   4.155
 5725SOL     OW18073   6.186   5.116   3.896
 5725SOL    HW118074   6.286   5.118   3.904
 5725SOL    HW218075   6.160   5.075   3.809
 5726SOL     OW18076   0.057   5.790   4.132
 5726SOL    HW118077   0.097   5.699   4.139
 5726SOL    HW218078   7.003   5.788   4.071
 5727SOL     OW18079   6.198   2.598   4.521
 5727SOL    HW118080   6.146   2.629   4.600
 5727SOL    HW218081   6.228   2.504   4.536
 5728SOL     OW18082   5.259   6.647   5.528
 5728SOL    HW118083   5.261   6.740   5.490
 5728SOL    HW218084   5.225   6.651   5.622
 5729SOL     OW18085   1.363   1.069   6.796
 5729SOL    HW118086   1.425   1.079   6.874
 5729SOL    HW218087   1.268   1.071   6.829
 5730SOL     OW18088   5.740   5.011   5.948
 5730SOL    HW118089   5.793   5.071   6.009
 5730SOL    HW218090   5.726   4.922   5.992
 5731SOL     OW18091   6.875   0.298   3.039
 5731SOL    HW118092   6.821   0.253   3.110
 5731SOL    HW218093   6.965   0.320   3.075
 5732SOL     OW18094   0.470   6.072   3.692
 5732SOL    HW118095   0.475   6.140   3.765
 5732SOL    HW218096   0.499   6.113   3.606
 5733SOL     OW18097   3.347   6.383   5.057
 5733SOL    HW118098   3.435   6.346   5.088
 5733SOL    HW218099   3.338   6.370   4.958
 5734SOL     OW18100   1.195   0.587   5.663
 5734SOL    HW118101   1.271   0.532   5.629
 5734SOL    HW218102   1.198   0.590   5.763
 5735SOL     OW18103   4.159   1.254   0.914
 5735SOL    HW118104   4.068   1.281   0.946
 5735SOL    HW218105   4.229   1.299   0.969
 5736SOL     OW18106   6.376   4.183   0.138
 5736SOL    HW118107   6.466   4.207   0.175
 5736SOL    HW218108   6.354   4.089   0.164
 5737SOL     OW18109   5.738   6.394   0.732
 5737SOL    HW118110   5.690   6.399   0.644
 5737SOL    HW218111   5.722   6.305   0.774
 5738SOL     OW18112   2.107   2.654   5.946
 5738SOL    HW118113   2.162   2.689   6.023
 5738SOL    HW218114   2.137   2.698   5.862
 5739SOL     OW18115   1.836   1.153   6.058
 5739SOL    HW118116   1.887   1.143   6.144
 5739SOL    HW218117   1.816   1.250   6.043
 5740SOL     OW18118   4.250   4.800   0.668
 5740SOL    HW118119   4.150   4.801   0.668
 5740SOL    HW218120   4.283   4.727   0.608
 5741SOL     OW18121   0.324   5.357   4.353
 5741SOL    HW118122   0.273   5.321   4.275
 5741SOL    HW218123   0.261   5.407   4.413
 5742SOL     OW18124   5.321   6.527   3.002
 5742SOL    HW118125   5.325   6.434   2.967
 5742SOL    HW218126   5.251   6.533   3.073
 5743SOL     OW18127   2.512   6.558   5.091
 5743SOL    HW118128   2.430   6.610   5.067
 5743SOL    HW218129   2.546   6.589   5.179
 5744SOL     OW18130   4.822   0.259   1.255
 5744SOL    HW118131   4.825   0.192   1.330
 5744SOL    HW218132   4.752   0.327   1.274
 5745SOL     OW18133   4.024   1.617   4.552
 5745SOL    HW118134   4.000   1.520   4.554
 5745SOL    HW218135   4.113   1.630   4.595
 5746SOL     OW18136   4.863   0.785   0.958
 5746SOL    HW118137   4.882   0.721   0.883
 5746SOL    HW218138   4.950   0.824   0.991
 5747SOL     OW18139   0.302   5.158   2.896
 5747SOL    HW118140   0.228   5.225   2.890
 5747SOL    HW218141   0.389   5.204   2.884
 5748SOL     OW18142   1.540   4.916   0.978
 5748SOL    HW118143   1.442   4.917   0.955
 5748SOL    HW218144   1.558   4.840   1.040
 5749SOL     OW18145   2.801   0.539   4.453
 5749SOL    HW118146   2.778   0.569   4.545
 5749SOL    HW218147   2.899   0.551   4.437
 5750SOL     OW18148   5.652   5.209   4.906
 5750SOL    HW118149   5.710   5.144   4.857
 5750SOL    HW218150   5.563   5.167   4.924
 5751SOL     OW18151   2.657   2.426   4.625
 5751SOL    HW118152   2.592   2.501   4.634
 5751SOL    HW218153   2.672   2.385   4.715
 5752SOL     OW18154   6.107   1.334   6.409
 5752SOL    HW118155   6.137   1.384   6.490
 5752SOL    HW218156   6.024   1.376   6.372
 5753SOL     OW18157   3.333   3.719   6.250
 5753SOL    HW118158   3.312   3.750   6.157
 5753SOL    HW218159   3.428   3.741   6.271
 5754SOL     OW18160   5.537   6.064   1.348
 5754SOL    HW118161   5.534   6.164   1.338
 5754SOL    HW218162   5.514   6.039   1.441
 5755SOL     OW18163   3.413   3.541   5.379
 5755SOL    HW118164   3.368   3.482   5.446
 5755SOL    HW218165   3.350   3.557   5.302
 5756SOL     OW18166   6.851   5.401   3.786
 5756SOL    HW118167   6.851   5.373   3.690
 5756SOL    HW218168   6.937   5.374   3.828
 5757SOL     OW18169   6.629   6.207   2.492
 5757SOL    HW118170   6.553   6.271   2.487
 5757SOL    HW218171   6.705   6.249   2.542
 5758SOL     OW18172   2.782   1.888   3.996
 5758SOL    HW118173   2.812   1.850   4.083
 5758SOL    HW218174   2.772   1.814   3.929
 5759SOL     OW18175   4.732   1.984   6.830
 5759SOL    HW118176   4.798   2.003   6.758
 5759SOL    HW218177   4.649   1.945   6.790
 5760SOL     OW18178   1.629   6.294   1.951
 5760SOL    HW118179   1.655   6.387   1.977
 5760SOL    HW218180   1.622   6.287   1.852
 5761SOL     OW18181   5.834   0.852   5.673
 5761SOL    HW118182   5.869   0.910   5.746
 5761SOL    HW218183   5.760   0.900   5.626
 5762SOL     OW18184   4.766   0.100   0.530
 5762SOL    HW118185   4.674   0.065   0.512
 5762SOL    HW218186   4.832   0.054   0.471
 5763SOL     OW18187   0.625   0.131   0.312
 5763SOL    HW118188   0.535   0.166   0.286
 5763SOL    HW218189   0.690   0.144   0.237
 5764SOL     OW18190   5.390   4.835   6.054
 5764SOL    HW118191   5.339   4.898   5.995
 5764SOL    HW218192   5.348   4.834   6.144
 5765SOL     OW18193   6.477   4.752   6.366
 5765SOL    HW118194   6.445   4.672   6.416
 5765SOL    HW218195   6.407   4.782   6.302
 5766SOL     OW18196   2.586   1.212   1.718
 5766SOL    HW118197   2.549   1.176   1.632
 5766SOL    HW218198   2.656   1.149   1.753
 5767SOL     OW18199   2.119   6.850   0.379
 5767SOL    HW118200   2.167   6.907   0.313
 5767SOL    HW218201   2.028   6.828   0.344
 5768SOL     OW18202   6.914   7.007   3.056
 5768SOL    HW118203   6.897   6.921   3.007
 5768SOL    HW218204   6.996   6.998   3.112
 5769SOL     OW18205   2.700   6.940   3.448
 5769SOL    HW118206   2.672   6.977   3.360
 5769SOL    HW218207   2.637   6.868   3.476
 5770SOL     OW18208   6.992   7.009   0.731
 5770SOL    HW118209   0.007   6.990   0.821
 5770SOL    HW218210   6.921   0.054   0.740
 5771SOL     OW18211   1.683   6.513   1.211
 5771SOL    HW118212   1.585   6.502   1.228
 5771SOL    HW218213   1.707   6.610   1.210
 5772SOL     OW18214   6.039   3.048   0.915
 5772SOL    HW118215   5.985   3.099   0.983
 5772SOL    HW218216   5.978   3.004   0.849
 5773SOL     OW18217   5.944   7.000   3.758
 5773SOL    HW118218   6.034   6.964   3.736
 5773SOL    HW218219   5.951   0.074   3.771
 5774SOL     OW18220   2.319   4.573   3.350
 5774SOL    HW118221   2.335   4.666   3.383
 5774SOL    HW218222   2.394   4.546   3.290
 5775SOL     OW18223   1.782   0.730   1.321
 5775SOL    HW118224   1.769   0.636   1.288
 5775SOL    HW218225   1.880   0.750   1.327
 5776SOL     OW18226   6.746   0.626   6.277
 5776SOL    HW118227   6.798   0.551   6.319
 5776SOL    HW218228   6.806   0.705   6.265
 5777SOL     OW18229   5.779   0.928   4.108
 5777SOL    HW118230   5.862   0.941   4.162
 5777SOL    HW218231   5.759   0.830   4.102
 5778SOL     OW18232   2.473   0.332   2.411
 5778SOL    HW118233   2.563   0.368   2.435
 5778SOL    HW218234   2.479   0.234   2.395
 5779SOL     OW18235   3.721   0.419   0.766
 5779SOL    HW118236   3.652   0.480   0.805
 5779SOL    HW218237   3.791   0.398   0.835
 5780SOL     OW18238   6.541   5.146   1.726
 5780SOL    HW118239   6.497   5.219   1.778
 5780SOL    HW218240   6.471   5.086   1.686
 5781SOL     OW18241   2.267   4.196   4.728
 5781SOL    HW118242   2.304   4.112   4.769
 5781SOL    HW218243   2.253   4.181   4.630
 5782SOL     OW18244   1.566   1.389   1.630
 5782SOL    HW118245   1.578   1.306   1.686
 5782SOL    HW218246   1.469   1.414   1.629
 5783SOL     OW18247   1.616   1.655   0.564
 5783SOL    HW118248   1.671   1.737   0.553
 5783SOL    HW218249   1.546   1.671   0.635
 5784SOL     OW18250   0.669   6.332   0.226
 5784SOL    HW118251   0.587   6.304   0.177
 5784SOL    HW218252   0.666   6.297   0.320
 5785SOL     OW18253   1.301   1.289   1.220
 5785SOL    HW118254   1.219   1.330   1.259
 5785SOL    HW218255   1.363   1.360   1.188
 5786SOL     OW18256   1.441   3.370   1.267
 5786SOL    HW118257   1.404   3.424   1.342
 5786SOL    HW218258   1.380   3.293   1.248
 5787SOL     OW18259   5.658   2.337   4.201
 5787SOL    HW118260   5.716   2.308   4.277
 5787SOL    HW218261   5.609   2.258   4.164
 5788SOL     OW18262   3.118   0.333   1.105
 5788SOL    HW118263   3.218   0.330   1.102
 5788SOL    HW218264   3.084   0.256   1.158
 5789SOL     OW18265   3.882   2.767   6.467
 5789SOL    HW118266   3.937   2.690   6.434
 5789SOL    HW218267   3.933   2.852   6.454
 5790SOL     OW18268   6.574   5.965   5.059
 5790SOL    HW118269   6.585   5.887   4.997
 5790SOL    HW218270   6.663   5.994   5.093
 5791SOL     OW18271   3.124   1.335   2.285
 5791SOL    HW118272   3.158   1.251   2.244
 5791SOL    HW218273   3.024   1.333   2.285
 5792SOL     OW18274   5.287   3.482   3.331
 5792SOL    HW118275   5.309   3.518   3.240
 5792SOL    HW218276   5.303   3.383   3.332
 5793SOL     OW18277   5.852   2.611   5.574
 5793SOL    HW118278   5.771   2.650   5.531
 5793SOL    HW218279   5.841   2.512   5.582
 5794SOL     OW18280   3.382   6.907   6.307
 5794SOL    HW118281   3.421   6.950   6.389
 5794SOL    HW218282   3.283   6.905   6.315
 5795SOL     OW18283   1.077   5.903   1.742
 5795SOL    HW118284   1.088   6.002   1.728
 5795SOL    HW218285   1.003   5.887   1.808
 5796SOL     OW18286   4.744   1.033   6.235
 5796SOL    HW118287   4.676   1.000   6.170
 5796SOL    HW218288   4.711   1.117   6.278
 5797SOL     OW18289   5.702   1.603   0.638
 5797SOL    HW118290   5.752   1.574   0.720
 5797SOL    HW218291   5.763   1.597   0.559
 5798SOL     OW18292   0.544   3.691   4.855
 5798SOL    HW118293   0.520   3.726   4.765
 5798SOL    HW218294   0.540   3.591   4.854
 5799SOL     OW18295   1.064   6.835   2.902
 5799SOL    HW118296   1.140   6.845   2.967
 5799SOL    HW218297   1.100   6.808   2.813
 5800SOL     OW18298   0.599   6.896   0.825
 5800SOL    HW118299   0.571   6.884   0.920
 5800SOL    HW218300   0.695   6.922   0.821
 5801SOL     OW18301   2.332   2.788   2.547
 5801SOL    HW118302   2.398   2.727   2.591
 5801SOL    HW218303   2.320   2.870   2.603
 5802SOL     OW18304   6.513   2.517   2.883
 5802SOL    HW118305   6.430   2.472   2.915
 5802SOL    HW218306   6.533   2.596   2.941
 5803SOL     OW18307   1.383   4.648   4.063
 5803SOL    HW118308   1.350   4.590   3.988
 5803SOL    HW218309   1.306   4.693   4.107
 5804SOL     OW18310   6.450   6.869   3.754
 5804SOL    HW118311   6.354   6.842   3.751
 5804SOL    HW218312   6.492   6.832   3.837
 5805SOL     OW18313   1.556   3.512   1.026
 5805SOL    HW118314   1.549   3.612   1.025
 5805SOL    HW218315   1.528   3.477   1.115
 5806SOL     OW18316   0.511   3.546   3.780
 5806SOL    HW118317   0.460   3.570   3.863
 5806SOL    HW218318   0.581   3.478   3.802
 5807SOL     OW18319   1.237   6.077   1.101
 5807SOL    HW118320   1.196   6.146   1.041
 5807SOL    HW218321   1.278   6.122   1.180
 5808SOL     OW18322   6.341   6.860   4.134
 5808SOL    HW118323   6.352   6.943   4.080
 5808SOL    HW218324   6.397   6.866   4.216
 5809SOL     OW18325   0.802   1.907   5.915
 5809SOL    HW118326   0.738   1.874   5.984
 5809SOL    HW218327   0.896   1.893   5.947
 5810SOL     OW18328   4.236   6.693   5.047
 5810SOL    HW118329   4.236   6.760   4.973
 5810SOL    HW218330   4.148   6.696   5.095
 5811SOL     OW18331   2.908   2.713   5.793
 5811SOL    HW118332   2.813   2.683   5.808
 5811SOL    HW218333   2.951   2.731   5.882
 5812SOL     OW18334   5.902   3.019   0.421
 5812SOL    HW118335   5.956   3.102   0.429
 5812SOL    HW218336   5.881   3.002   0.325
 5813SOL     OW18337   3.681   6.424   1.251
 5813SOL    HW118338   3.647   6.514   1.222
 5813SOL    HW218339   3.609   6.356   1.238
 5814SOL     OW18340   6.690   1.931   2.295
 5814SOL    HW118341   6.616   1.864   2.305
 5814SOL    HW218342   6.683   1.973   2.204
 5815SOL     OW18343   6.265   1.512   3.942
 5815SOL    HW118344   6.205   1.502   3.864
 5815SOL    HW218345   6.319   1.596   3.932
 5816SOL     OW18346   0.276   5.374   2.285
 5816SOL    HW118347   0.368   5.334   2.284
 5816SOL    HW218348   0.244   5.382   2.379
 5817SOL     OW18349   5.317   4.061   5.259
 5817SOL    HW118350   5.412   4.045   5.232
 5817SOL    HW218351   5.272   3.973   5.277
 5818SOL     OW18352   0.928   6.285   5.100
 5818SOL    HW118353   0.874   6.249   5.175
 5818SOL    HW218354   0.938   6.384   5.110
 5819SOL     OW18355   3.022   5.089   6.978
 5819SOL    HW118356   3.095   5.046   6.925
 5819SOL    HW218357   3.053   5.106   0.046
 5820SOL     OW18358   5.385   5.038   2.374
 5820SOL    HW118359   5.336   5.118   2.339
 5820SOL    HW218360   5.483   5.058   2.378
 5821SOL     OW18361   6.815   0.939   1.342
 5821SOL    HW118362   6.809   0.852   1.391
 5821SOL    HW218363   6.794   1.014   1.405
 5822SOL     OW18364   1.447   2.091   3.013
 5822SOL    HW118365   1.360   2.139   3.027
 5822SOL    HW218366   1.489   2.123   2.928
 5823SOL     OW18367   2.353   6.468   4.690
 5823SOL    HW118368   2.364   6.530   4.768
 5823SOL    HW218369   2.309   6.517   4.615
 5824SOL     OW18370   1.172   0.203   2.436
 5824SOL    HW118371   1.107   0.145   2.485
 5824SOL    HW218372   1.173   0.295   2.476
 5825SOL     OW18373   6.792   6.254   4.611
 5825SOL    HW118374   6.862   6.315   4.650
 5825SOL    HW218375   6.831   6.163   4.599
 5826SOL     OW18376   6.913   0.543   5.224
 5826SOL    HW118377   7.007   0.577   5.224
 5826SOL    HW218378   6.912   0.447   5.194
 5827SOL     OW18379   1.314   3.508   4.812
 5827SOL    HW118380   1.287   3.419   4.775
 5827SOL    HW218381   1.236   3.549   4.859
 5828SOL     OW18382   5.374   6.602   3.885
 5828SOL    HW118383   5.332   6.672   3.827
 5828SOL    HW218384   5.439   6.548   3.830
 5829SOL     OW18385   1.590   0.872   4.982
 5829SOL    HW118386   1.616   0.786   4.939
 5829SOL    HW218387   1.654   0.894   5.055
 5830SOL     OW18388   3.572   5.067   5.407
 5830SOL    HW118389   3.607   4.973   5.409
 5830SOL    HW218390   3.635   5.127   5.457
 5831SOL     OW18391   1.257   1.453   5.629
 5831SOL    HW118392   1.351   1.433   5.602
 5831SOL    HW218393   1.255   1.482   5.724
 5832SOL     OW18394   3.349   4.487   1.239
 5832SOL    HW118395   3.289   4.566   1.227
 5832SOL    HW218396   3.364   4.442   1.151
 5833SOL     OW18397   4.183   3.945   5.367
 5833SOL    HW118398   4.092   3.915   5.339
 5833SOL    HW218399   4.248   3.870   5.354
 5834SOL     OW18400   6.796   4.307   6.395
 5834SOL    HW118401   6.797   4.312   6.295
 5834SOL    HW218402   6.826   4.217   6.424
 5835SOL     OW18403   5.471   0.837   2.712
 5835SOL    HW118404   5.404   0.776   2.755
 5835SOL    HW218405   5.520   0.888   2.784
 5836SOL     OW18406   3.931   6.181   2.418
 5836SOL    HW118407   3.848   6.175   2.363
 5836SOL    HW218408   4.003   6.227   2.364
 5837SOL     OW18409   3.495   4.227   0.494
 5837SOL    HW118410   3.478   4.135   0.530
 5837SOL    HW218411   3.511   4.221   0.395
 5838SOL     OW18412   3.382   1.783   1.444
 5838SOL    HW118413   3.400   1.871   1.488
 5838SOL    HW218414   3.422   1.709   1.499
 5839SOL     OW18415   0.715   2.669   1.958
 5839SOL    HW118416   0.778   2.601   1.995
 5839SOL    HW218417   0.719   2.668   1.858
 5840SOL     OW18418   0.233   3.848   2.180
 5840SOL    HW118419   0.249   3.749   2.180
 5840SOL    HW218420   0.268   3.888   2.096
 5841SOL     OW18421   4.284   0.624   1.722
 5841SOL    HW118422   4.203   0.624   1.664
 5841SOL    HW218423   4.366   0.615   1.666
 5842SOL     OW18424   3.945   1.821   0.383
 5842SOL    HW118425   3.950   1.837   0.482
 5842SOL    HW218426   3.854   1.845   0.350
 5843SOL     OW18427   2.015   3.771   1.078
 5843SOL    HW118428   1.985   3.688   1.031
 5843SOL    HW218429   1.947   3.797   1.146
 5844SOL     OW18430   0.692   6.605   5.012
 5844SOL    HW118431   0.741   6.607   4.924
 5844SOL    HW218432   0.701   6.514   5.053
 5845SOL     OW18433   0.148   6.804   1.611
 5845SOL    HW118434   0.123   6.847   1.697
 5845SOL    HW218435   0.189   6.872   1.550
 5846SOL     OW18436   6.739   3.759   5.230
 5846SOL    HW118437   6.697   3.846   5.256
 5846SOL    HW218438   6.691   3.684   5.275
 5847SOL     OW18439   2.316   3.068   1.709
 5847SOL    HW118440   2.396   3.121   1.682
 5847SOL    HW218441   2.260   3.122   1.772
 5848SOL     OW18442   2.391   5.905   4.036
 5848SOL    HW118443   2.323   5.978   4.029
 5848SOL    HW218444   2.482   5.946   4.042
 5849SOL     OW18445   2.618   6.320   5.153
 5849SOL    HW118446   2.580   6.405   5.116
 5849SOL    HW218447   2.669   6.340   5.237
 5850SOL     OW18448   1.151   2.602   2.067
 5850SOL    HW118449   1.157   2.674   2.135
 5850SOL    HW218450   1.063   2.555   2.074
 5851SOL     OW18451   5.964   3.515   4.561
 5851SOL    HW118452   5.870   3.510   4.595
 5851SOL    HW218453   6.019   3.573   4.622
 5852SOL     OW18454   4.716   5.850   3.419
 5852SOL    HW118455   4.735   5.769   3.474
 5852SOL    HW218456   4.617   5.862   3.411
 5853SOL     OW18457   3.973   5.173   5.318
 5853SOL    HW118458   3.894   5.234   5.309
 5853SOL    HW218459   4.048   5.222   5.363
 5854SOL     OW18460   3.471   4.385   5.563
 5854SOL    HW118461   3.465   4.484   5.553
 5854SOL    HW218462   3.451   4.340   5.476
 5855SOL     OW18463   1.980   2.277   3.910
 5855SOL    HW118464   2.024   2.227   3.836
 5855SOL    HW218465   2.033   2.359   3.931
 5856SOL     OW18466   1.762   6.796   2.349
 5856SOL    HW118467   1.839   6.822   2.292
 5856SOL    HW218468   1.791   6.785   2.444
 5857SOL     OW18469   0.223   3.327   5.777
 5857SOL    HW118470   0.231   3.421   5.810
 5857SOL    HW218471   0.128   3.297   5.784
 5858SOL     OW18472   2.503   1.286   3.127
 5858SOL    HW118473   2.588   1.322   3.088
 5858SOL    HW218474   2.467   1.351   3.193
 5859SOL     OW18475   5.695   6.407   1.631
 5859SOL    HW118476   5.760   6.341   1.668
 5859SOL    HW218477   5.741   6.494   1.615
 5860SOL     OW18478   0.625   4.493   3.417
 5860SOL    HW118479   0.686   4.572   3.406
 5860SOL    HW218480   0.647   4.446   3.502
 5861SOL     OW18481   6.136   0.611   5.046
 5861SOL    HW118482   6.065   0.543   5.030
 5861SOL    HW218483   6.122   0.688   4.984
 5862SOL     OW18484   6.678   5.876   2.068
 5862SOL    HW118485   6.593   5.832   2.036
 5862SOL    HW218486   6.655   5.953   2.127
 5863SOL     OW18487   3.053   0.845   4.441
 5863SOL    HW118488   3.016   0.924   4.392
 5863SOL    HW218489   3.143   0.822   4.404
 5864SOL     OW18490   3.272   3.464   3.028
 5864SOL    HW118491   3.215   3.459   3.109
 5864SOL    HW218492   3.327   3.381   3.019
 5865SOL     OW18493   5.986   1.374   5.756
 5865SOL    HW118494   6.019   1.335   5.842
 5865SOL    HW218495   5.945   1.463   5.773
 5866SOL     OW18496   3.205   3.295   1.027
 5866SOL    HW118497   3.206   3.380   1.081
 5866SOL    HW218498   3.256   3.224   1.076
 5867SOL     OW18499   2.059   2.260   1.272
 5867SOL    HW118500   2.071   2.162   1.288
 5867SOL    HW218501   2.088   2.311   1.353
 5868SOL     OW18502   1.052   1.875   5.936
 5868SOL    HW118503   1.092   1.966   5.926
 5868SOL    HW218504   1.076   1.819   5.857
 5869SOL     OW18505   1.272   4.413   3.340
 5869SOL    HW118506   1.314   4.329   3.306
 5869SOL    HW218507   1.193   4.391   3.397
 5870SOL     OW18508   4.117   4.775   5.464
 5870SOL    HW118509   4.109   4.691   5.517
 5870SOL    HW218510   4.158   4.755   5.375
 5871SOL     OW18511   3.722   3.410   3.307
 5871SOL    HW118512   3.670   3.484   3.264
 5871SOL    HW218513   3.793   3.378   3.245
 5872SOL     OW18514   3.883   5.927   1.274
 5872SOL    HW118515   3.903   5.952   1.369
 5872SOL    HW218516   3.814   5.989   1.237
 5873SOL     OW18517   2.694   5.226   2.107
 5873SOL    HW118518   2.755   5.148   2.090
 5873SOL    HW218519   2.695   5.249   2.204
 5874SOL     OW18520   2.191   4.276   5.047
 5874SOL    HW118521   2.265   4.319   5.098
 5874SOL    HW218522   2.211   4.179   5.034
 5875SOL     OW18523   3.395   1.950   0.092
 5875SOL    HW118524   3.471   1.996   0.137
 5875SOL    HW218525   3.361   2.008   0.018
 5876SOL     OW18526   4.087   3.744   2.311
 5876SOL    HW118527   4.175   3.703   2.334
 5876SOL    HW218528   4.014   3.700   2.363
 5877SOL     OW18529   5.730   6.161   1.159
 5877SOL    HW118530   5.737   6.232   1.230
 5877SOL    HW218531   5.684   6.081   1.197
 5878SOL     OW18532   1.517   5.989   3.439
 5878SOL    HW118533   1.418   5.998   3.443
 5878SOL    HW218534   1.559   6.056   3.501
 5879SOL     OW18535   6.450   3.380   7.010
 5879SOL    HW118536   6.451   3.480   7.008
 5879SOL    HW218537   6.537   3.345   6.975
 5880SOL     OW18538   2.831   5.487   1.386
 5880SOL    HW118539   2.731   5.479   1.391
 5880SOL    HW218540   2.859   5.577   1.420
 5881SOL     OW18541   0.390   4.796   3.482
 5881SOL    HW118542   0.373   4.709   3.527
 5881SOL    HW218543   0.448   4.853   3.540
 5882SOL     OW18544   5.620   0.504   0.920
 5882SOL    HW118545   5.632   0.428   0.984
 5882SOL    HW218546   5.530   0.498   0.877
 5883SOL     OW18547   0.357   2.164   6.519
 5883SOL    HW118548   0.446   2.207   6.530
 5883SOL    HW218549   0.290   2.209   6.578
 5884SOL     OW18550   1.961   1.086   3.647
 5884SOL    HW118551   1.968   1.073   3.746
 5884SOL    HW218552   1.954   0.998   3.601
 5885SOL     OW18553   6.771   6.911   1.684
 5885SOL    HW118554   6.844   6.939   1.622
 5885SOL    HW218555   6.733   6.991   1.730
 5886SOL     OW18556   0.466   2.173   4.645
 5886SOL    HW118557   0.441   2.196   4.551
 5886SOL    HW218558   0.457   2.254   4.703
 5887SOL     OW18559   4.099   1.404   3.252
 5887SOL    HW118560   4.113   1.473   3.323
 5887SOL    HW218561   4.068   1.318   3.294
 5888SOL     OW18562   2.980   6.678   2.671
 5888SOL    HW118563   2.939   6.675   2.762
 5888SOL    HW218564   2.965   6.591   2.625
 5889SOL     OW18565   1.767   6.920   1.426
 5889SOL    HW118566   1.856   6.953   1.458
 5889SOL    HW218567   1.710   6.894   1.504
 5890SOL     OW18568   1.132   0.179   5.528
 5890SOL    HW118569   1.082   0.251   5.576
 5890SOL    HW218570   1.078   0.095   5.529
 5891SOL     OW18571   4.047   3.000   6.286
 5891SOL    HW118572   4.086   2.912   6.311
 5891SOL    HW218573   4.121   3.064   6.262
 5892SOL     OW18574   1.089   6.188   1.719
 5892SOL    HW118575   1.034   6.245   1.780
 5892SOL    HW218576   1.183   6.184   1.753
 5893SOL     OW18577   1.036   3.805   3.600
 5893SOL    HW118578   0.948   3.776   3.562
 5893SOL    HW218579   1.109   3.746   3.565
 5894SOL     OW18580   1.072   4.998   3.032
 5894SOL    HW118581   1.100   5.093   3.043
 5894SOL    HW218582   0.995   4.993   2.968
 5895SOL     OW18583   5.421   2.609   4.054
 5895SOL    HW118584   5.427   2.563   4.142
 5895SOL    HW218585   5.326   2.605   4.021
 5896SOL     OW18586   3.986   1.662   0.030
 5896SOL    HW118587   4.004   1.741   0.089
 5896SOL    HW218588   4.032   1.582   0.067
 5897SOL     OW18589   3.955   6.794   2.047
 5897SOL    HW118590   3.946   6.706   2.000
 5897SOL    HW218591   4.042   6.836   2.021
 5898SOL     OW18592   2.230   0.214   3.058
 5898SOL    HW118593   2.289   0.284   3.019
 5898SOL    HW218594   2.188   0.160   2.985
 5899SOL     OW18595   5.491   0.035   5.545
 5899SOL    HW118596   5.516   0.041   5.642
 5899SOL    HW218597   5.450   0.122   5.516
 5900SOL     OW18598   4.537   5.220   4.009
 5900SOL    HW118599   4.461   5.252   4.065
 5900SOL    HW218600   4.569   5.295   3.951
 5901SOL     OW18601   2.916   0.434   6.503
 5901SOL    HW118602   2.942   0.528   6.524
 5901SOL    HW218603   2.979   0.371   6.549
 5902SOL     OW18604   0.201   2.191   0.973
 5902SOL    HW118605   0.226   2.104   1.015
 5902SOL    HW218606   0.138   2.174   0.897
 5903SOL     OW18607   5.069   3.950   0.562
 5903SOL    HW118608   5.168   3.935   0.558
 5903SOL    HW218609   5.025   3.874   0.610
 5904SOL     OW18610   0.092   3.568   2.520
 5904SOL    HW118611   0.017   3.632   2.535
 5904SOL    HW218612   0.143   3.555   2.604
 5905SOL     OW18613   5.994   5.977   2.840
 5905SOL    HW118614   6.041   6.035   2.774
 5905SOL    HW218615   5.897   6.000   2.842
 5906SOL     OW18616   5.352   0.907   4.372
 5906SOL    HW118617   5.337   0.961   4.455
 5906SOL    HW218618   5.441   0.862   4.377
 5907SOL     OW18619   1.731   6.180   1.673
 5907SOL    HW118620   1.749   6.228   1.587
 5907SOL    HW218621   1.783   6.223   1.747
 5908SOL     OW18622   0.977   2.543   5.476
 5908SOL    HW118623   0.939   2.451   5.483
 5908SOL    HW218624   1.048   2.555   5.546
 5909SOL     OW18625   0.697   5.183   0.654
 5909SOL    HW118626   0.646   5.105   0.690
 5909SOL    HW218627   0.787   5.153   0.623
 5910SOL     OW18628   0.848   2.994   3.332
 5910SOL    HW118629   0.884   2.910   3.372
 5910SOL    HW218630   0.869   3.071   3.392
 5911SOL     OW18631   6.865   5.421   6.489
 5911SOL    HW118632   6.881   5.455   6.396
 5911SOL    HW218633   6.951   5.384   6.525
 5912SOL     OW18634   6.269   1.490   5.208
 5912SOL    HW118635   6.206   1.557   5.170
 5912SOL    HW218636   6.362   1.529   5.210
 5913SOL     OW18637   5.207   2.628   0.231
 5913SOL    HW118638   5.269   2.679   0.171
 5913SOL    HW218639   5.113   2.655   0.211
 5914SOL     OW18640   1.050   6.836   6.422
 5914SOL    HW118641   1.125   6.899   6.445
 5914SOL    HW218642   1.002   6.869   6.342
 5915SOL     OW18643   3.497   6.170   0.013
 5915SOL    HW118644   3.593   6.160   7.010
 5915SOL    HW218645   3.455   6.244   6.985
 5916SOL     OW18646   6.934   6.946   2.501
 5916SOL    HW118647   6.975   6.942   2.410
 5916SOL    HW218648   7.001   6.918   2.570
 5917SOL     OW18649   3.330   3.890   5.313
 5917SOL    HW118650   3.297   3.830   5.240
 5917SOL    HW218651   3.393   3.958   5.275
 5918SOL     OW18652   1.747   5.339   6.150
 5918SOL    HW118653   1.652   5.325   6.178
 5918SOL    HW218654   1.760   5.435   6.122
 5919SOL     OW18655   3.270   4.032   2.735
 5919SOL    HW118656   3.217   3.995   2.659
 5919SOL    HW218657   3.207   4.056   2.810
 5920SOL     OW18658   5.163   1.131   6.485
 5920SOL    HW118659   5.184   1.164   6.577
 5920SOL    HW218660   5.165   1.208   6.421
 5921SOL     OW18661   4.123   5.108   6.423
 5921SOL    HW118662   4.064   5.141   6.349
 5921SOL    HW218663   4.218   5.116   6.394
 5922SOL     OW18664   6.031   3.907   4.144
 5922SOL    HW118665   6.119   3.944   4.174
 5922SOL    HW218666   6.005   3.949   4.057
 5923SOL     OW18667   0.083   0.679   1.700
 5923SOL    HW118668   7.023   0.721   1.734
 5923SOL    HW218669   0.069   0.580   1.689
 5924SOL     OW18670   5.970   6.774   3.003
 5924SOL    HW118671   6.043   6.823   2.956
 5924SOL    HW218672   5.882   6.820   2.986
 5925SOL     OW18673   3.966   5.978   1.843
 5925SOL    HW118674   3.969   6.039   1.923
 5925SOL    HW218675   4.046   5.995   1.785
 5926SOL     OW18676   4.784   4.226   2.574
 5926SOL    HW118677   4.815   4.138   2.607
 5926SOL    HW218678   4.812   4.237   2.478
 5927SOL     OW18679   0.799   3.904   2.017
 5927SOL    HW118680   0.756   3.821   1.982
 5927SOL    HW218681   0.859   3.881   2.094
 5928SOL     OW18682   3.695   6.934   1.696
 5928SOL    HW118683   3.712   7.006   1.763
 5928SOL    HW218684   3.697   6.845   1.743
 5929SOL     OW18685   5.915   1.377   5.493
 5929SOL    HW118686   5.930   1.350   5.588
 5929SOL    HW218687   5.967   1.316   5.433
 5930SOL     OW18688   0.507   2.827   2.765
 5930SOL    HW118689   0.553   2.899   2.817
 5930SOL    HW218690   0.571   2.751   2.751
 5931SOL     OW18691   5.837   5.867   2.377
 5931SOL    HW118692   5.927   5.874   2.421
 5931SOL    HW218693   5.816   5.771   2.357
 5932SOL     OW18694   3.196   0.158   6.868
 5932SOL    HW118695   3.151   0.089   6.925
 5932SOL    HW218696   3.295   0.147   6.873
 5933SOL     OW18697   6.714   5.105   4.060
 5933SOL    HW118698   6.673   5.014   4.061
 5933SOL    HW218699   6.673   5.162   4.130
 5934SOL     OW18700   3.658   3.256   5.449
 5934SOL    HW118701   3.753   3.237   5.472
 5934SOL    HW218702   3.654   3.333   5.385
 5935SOL     OW18703   0.740   6.170   5.270
 5935SOL    HW118704   0.719   6.074   5.251
 5935SOL    HW218705   0.793   6.176   5.354
 5936SOL     OW18706   3.015   3.679   2.322
 5936SOL    HW118707   2.963   3.630   2.392
 5936SOL    HW218708   2.962   3.681   2.237
 5937SOL     OW18709   5.799   3.091   2.075
 5937SOL    HW118710   5.893   3.121   2.092
 5937SOL    HW218711   5.736   3.163   2.104
 5938SOL     OW18712   6.065   6.051   4.484
 5938SOL    HW118713   6.063   6.028   4.582
 5938SOL    HW218714   5.986   6.110   4.463
 5939SOL     OW18715   2.795   5.853   4.492
 5939SOL    HW118716   2.883   5.814   4.466
 5939SOL    HW218717   2.801   5.888   4.585
 5940SOL     OW18718   4.275   5.105   3.911
 5940SOL    HW118719   4.273   5.016   3.957
 5940SOL    HW218720   4.319   5.172   3.970
 5941SOL     OW18721   5.587   2.705   3.378
 5941SOL    HW118722   5.655   2.729   3.448
 5941SOL    HW218723   5.525   2.783   3.363
 5942SOL     OW18724   5.532   3.556   6.691
 5942SOL    HW118725   5.597   3.484   6.666
 5942SOL    HW218726   5.582   3.639   6.717
 5943SOL     OW18727   3.832   3.036   6.673
 5943SOL    HW118728   3.798   2.976   6.601
 5943SOL    HW218729   3.765   3.040   6.747
 5944SOL     OW18730   0.982   2.755   0.185
 5944SOL    HW118731   0.887   2.736   0.207
 5944SOL    HW218732   1.015   2.690   0.117
 5945SOL     OW18733   0.173   5.897   5.614
 5945SOL    HW118734   0.119   5.934   5.539
 5945SOL    HW218735   0.126   5.915   5.701
 5946SOL     OW18736   3.148   4.691   0.045
 5946SOL    HW118737   3.202   4.611   0.017
 5946SOL    HW218738   3.058   4.688   0.002
 5947SOL     OW18739   3.167   3.463   3.299
 5947SOL    HW118740   3.237   3.446   3.369
 5947SOL    HW218741   3.087   3.404   3.316
 5948SOL     OW18742   4.538   4.637   2.232
 5948SOL    HW118743   4.611   4.702   2.255
 5948SOL    HW218744   4.569   4.544   2.247
 5949SOL     OW18745   4.602   5.479   1.175
 5949SOL    HW118746   4.657   5.398   1.154
 5949SOL    HW218747   4.663   5.554   1.200
 5950SOL     OW18748   4.941   2.180   5.609
 5950SOL    HW118749   4.846   2.174   5.578
 5950SOL    HW218750   5.001   2.136   5.543
 5951SOL     OW18751   0.920   5.619   5.023
 5951SOL    HW118752   0.836   5.647   4.977
 5951SOL    HW218753   0.908   5.626   5.122
 5952SOL     OW18754   4.330   5.419   3.365
 5952SOL    HW118755   4.282   5.332   3.377
 5952SOL    HW218756   4.295   5.464   3.283
 5953SOL     OW18757   6.756   4.338   5.097
 5953SOL    HW118758   6.844   4.385   5.098
 5953SOL    HW218759   6.769   4.242   5.120
 5954SOL     OW18760   0.334   5.580   5.714
 5954SOL    HW118761   0.369   5.532   5.794
 5954SOL    HW218762   0.399   5.652   5.688
 5955SOL     OW18763   4.438   5.209   1.545
 5955SOL    HW118764   4.528   5.203   1.589
 5955SOL    HW218765   4.437   5.286   1.482
 5956SOL     OW18766   5.679   1.612   3.739
 5956SOL    HW118767   5.677   1.630   3.640
 5956SOL    HW218768   5.611   1.669   3.784
 5957SOL     OW18769   2.485   1.696   3.768
 5957SOL    HW118770   2.428   1.628   3.813
 5957SOL    HW218771   2.456   1.788   3.796
 5958SOL     OW18772   4.200   0.296   2.980
 5958SOL    HW118773   4.145   0.237   2.922
 5958SOL    HW218774   4.182   0.392   2.957
 5959SOL     OW18775   4.118   2.471   5.847
 5959SOL    HW118776   4.028   2.448   5.809
 5959SOL    HW218777   4.165   2.387   5.873
 5960SOL     OW18778   2.587   6.275   4.359
 5960SOL    HW118779   2.636   6.289   4.273
 5960SOL    HW218780   2.500   6.323   4.356
 5961SOL     OW18781   4.648   1.162   2.269
 5961SOL    HW118782   4.666   1.250   2.227
 5961SOL    HW218783   4.728   1.133   2.322
 5962SOL     OW18784   5.441   5.731   5.928
 5962SOL    HW118785   5.532   5.753   5.960
 5962SOL    HW218786   5.373   5.782   5.981
 5963SOL     OW18787   3.073   3.940   6.493
 5963SOL    HW118788   3.012   3.893   6.428
 5963SOL    HW218789   3.143   3.876   6.524
 5964SOL     OW18790   2.592   6.962   4.243
 5964SOL    HW118791   2.603   6.899   4.166
 5964SOL    HW218792   2.673   7.021   4.250
 5965SOL     OW18793   2.043   0.482   0.193
 5965SOL    HW118794   1.999   0.436   0.270
 5965SOL    HW218795   2.072   0.414   0.126
 5966SOL     OW18796   1.001   6.966   5.965
 5966SOL    HW118797   0.978   6.923   6.053
 5966SOL    HW218798   0.935   6.938   5.896
 5967SOL     OW18799   1.700   0.260   5.640
 5967SOL    HW118800   1.688   0.355   5.670
 5967SOL    HW218801   1.706   0.200   5.719
 5968SOL     OW18802   5.894   2.668   0.173
 5968SOL    HW118803   5.828   2.742   0.187
 5968SOL    HW218804   5.845   2.585   0.147
 5969SOL     OW18805   4.905   1.104   6.791
 5969SOL    HW118806   4.911   1.184   6.850
 5969SOL    HW218807   4.876   1.132   6.699
 5970SOL     OW18808   0.622   4.594   0.927
 5970SOL    HW118809   0.580   4.502   0.926
 5970SOL    HW218810   0.566   4.656   0.872
 5971SOL     OW18811   6.280   0.147   1.559
 5971SOL    HW118812   6.275   0.246   1.546
 5971SOL    HW218813   6.217   0.118   1.630
 5972SOL     OW18814   4.964   6.013   6.428
 5972SOL    HW118815   5.012   6.000   6.341
 5972SOL    HW218816   4.957   6.110   6.448
 5973SOL     OW18817   1.687   3.075   2.945
 5973SOL    HW118818   1.689   3.151   2.881
 5973SOL    HW218819   1.774   3.071   2.995
 5974SOL     OW18820   4.804   0.375   0.493
 5974SOL    HW118821   4.764   0.284   0.500
 5974SOL    HW218822   4.896   0.368   0.454
 5975SOL     OW18823   4.153   6.014   0.740
 5975SOL    HW118824   4.215   6.075   0.790
 5975SOL    HW218825   4.187   6.001   0.647
 5976SOL     OW18826   3.399   3.137   5.321
 5976SOL    HW118827   3.359   3.097   5.404
 5976SOL    HW218828   3.498   3.142   5.331
 5977SOL     OW18829   0.471   5.730   0.626
 5977SOL    HW118830   0.403   5.705   0.694
 5977SOL    HW218831   0.544   5.783   0.669
 5978SOL     OW18832   3.667   5.650   1.397
 5978SOL    HW118833   3.682   5.552   1.386
 5978SOL    HW218834   3.755   5.695   1.417
 5979SOL     OW18835   6.604   0.888   1.861
 5979SOL    HW118836   6.582   0.823   1.934
 5979SOL    HW218837   6.549   0.970   1.872
 5980SOL     OW18838   3.691   3.059   1.951
 5980SOL    HW118839   3.744   3.105   2.022
 5980SOL    HW218840   3.726   2.967   1.937
 5981SOL     OW18841   4.863   1.745   0.326
 5981SOL    HW118842   4.876   1.721   0.422
 5981SOL    HW218843   4.811   1.830   0.319
 5982SOL     OW18844   5.990   2.303   2.838
 5982SOL    HW118845   5.951   2.377   2.893
 5982SOL    HW218846   6.024   2.340   2.752
 5983SOL     OW18847   1.268   0.962   4.130
 5983SOL    HW118848   1.345   0.966   4.194
 5983SOL    HW218849   1.303   0.970   4.036
 5984SOL     OW18850   5.826   6.605   3.488
 5984SOL    HW118851   5.818   6.663   3.407
 5984SOL    HW218852   5.919   6.569   3.494
 5985SOL     OW18853   6.516   2.444   3.512
 5985SOL    HW118854   6.599   2.499   3.499
 5985SOL    HW218855   6.442   2.482   3.457
 5986SOL     OW18856   3.767   4.130   5.601
 5986SOL    HW118857   3.695   4.098   5.538
 5986SOL    HW218858   3.835   4.182   5.549
 5987SOL     OW18859   5.408   0.691   4.690
 5987SOL    HW118860   5.336   0.698   4.759
 5987SOL    HW218861   5.387   0.615   4.628
 5988SOL     OW18862   3.537   0.625   6.763
 5988SOL    HW118863   3.523   0.646   6.667
 5988SOL    HW218864   3.536   0.526   6.776
 5989SOL     OW18865   1.446   5.170   5.589
 5989SOL    HW118866   1.385   5.137   5.518
 5989SOL    HW218867   1.482   5.093   5.642
 5990SOL     OW18868   3.757   4.061   0.520
 5990SOL    HW118869   3.798   4.133   0.576
 5990SOL    HW218870   3.657   4.070   0.523
 5991SOL     OW18871   4.551   5.897   6.780
 5991SOL    HW118872   4.534   5.827   6.849
 5991SOL    HW218873   4.547   5.855   6.689
 5992SOL     OW18874   3.442   6.770   1.969
 5992SOL    HW118875   3.480   6.790   2.060
 5992SOL    HW218876   3.505   6.710   1.920
 5993SOL     OW18877   5.395   4.002   6.300
 5993SOL    HW118878   5.474   3.974   6.245
 5993SOL    HW218879   5.426   4.036   6.389
 5994SOL     OW18880   6.714   2.640   1.025
 5994SOL    HW118881   6.616   2.655   1.025
 5994SOL    HW218882   6.756   2.686   1.103
 5995SOL     OW18883   4.658   2.692   2.015
 5995SOL    HW118884   4.659   2.791   2.001
 5995SOL    HW218885   4.701   2.647   1.937
 5996SOL     OW18886   1.440   5.266   1.761
 5996SOL    HW118887   1.390   5.330   1.701
 5996SOL    HW218888   1.494   5.204   1.705
 5997SOL     OW18889   0.851   6.600   3.376
 5997SOL    HW118890   0.920   6.581   3.446
 5997SOL    HW218891   0.847   6.524   3.312
 5998SOL     OW18892   5.849   0.569   1.491
 5998SOL    HW118893   5.876   0.473   1.497
 5998SOL    HW218894   5.756   0.576   1.456
 5999SOL     OW18895   2.582   3.273   1.055
 5999SOL    HW118896   2.593   3.326   0.971
 5999SOL    HW218897   2.590   3.176   1.036
 6000SOL     OW18898   0.795   6.213   0.626
 6000SOL    HW118899   0.824   6.144   0.560
 6000SOL    HW218900   0.709   6.254   0.597
 6001SOL     OW18901   5.804   5.473   6.931
 6001SOL    HW118902   5.816   5.453   0.003
 6001SOL    HW218903   5.726   5.535   6.919
 6002SOL     OW18904   6.460   0.025   5.848
 6002SOL    HW118905   6.429   6.957   5.826
 6002SOL    HW218906   6.392   0.091   5.816
 6003SOL     OW18907   5.599   2.618   4.539
 6003SOL    HW118908   5.590   2.702   4.593
 6003SOL    HW218909   5.696   2.599   4.524
 6004SOL     OW18910   6.339   2.111   3.609
 6004SOL    HW118911   6.417   2.124   3.547
 6004SOL    HW218912   6.256   2.146   3.566
 6005SOL     OW18913   5.596   4.829   5.196
 6005SOL    HW118914   5.540   4.749   5.216
 6005SOL    HW218915   5.569   4.869   5.109
 6006SOL     OW18916   3.015   0.489   4.895
 6006SOL    HW118917   3.094   0.430   4.878
 6006SOL    HW218918   3.016   0.520   4.990
 6007SOL     OW18919   0.310   3.091   6.199
 6007SOL    HW118920   0.392   3.052   6.157
 6007SOL    HW218921   0.229   3.048   6.160
 6008SOL     OW18922   2.205   4.774   5.086
 6008SOL    HW118923   2.158   4.731   5.163
 6008SOL    HW218924   2.176   4.731   5.001
 6009SOL     OW18925   4.240   5.930   3.102
 6009SOL    HW118926   4.184   5.917   3.183
 6009SOL    HW218927   4.327   5.972   3.128
 6010SOL     OW18928   0.893   4.626   3.449
 6010SOL    HW118929   0.928   4.682   3.374
 6010SOL    HW218930   0.924   4.531   3.437
 6011SOL     OW18931   4.812   3.100   2.903
 6011SOL    HW118932   4.813   3.099   3.003
 6011SOL    HW218933   4.801   3.193   2.870
 6012SOL     OW18934   6.310   0.765   0.253
 6012SOL    HW118935   6.328   0.822   0.332
 6012SOL    HW218936   6.255   0.686   0.280
 6013SOL     OW18937   4.963   1.030   2.763
 6013SOL    HW118938   4.964   1.089   2.682
 6013SOL    HW218939   4.870   1.001   2.783
 6014SOL     OW18940   3.406   4.132   3.946
 6014SOL    HW118941   3.417   4.093   3.855
 6014SOL    HW218942   3.312   4.120   3.977
 6015SOL     OW18943   6.249   3.629   4.446
 6015SOL    HW118944   6.179   3.622   4.376
 6015SOL    HW218945   6.263   3.725   4.470
 6016SOL     OW18946   5.774   1.966   5.858
 6016SOL    HW118947   5.724   1.948   5.943
 6016SOL    HW218948   5.829   1.886   5.834
 6017SOL     OW18949   6.959   5.017   5.043
 6017SOL    HW118950   0.015   5.072   5.022
 6017SOL    HW218951   6.877   5.073   5.032
 6018SOL     OW18952   3.402   1.012   4.989
 6018SOL    HW118953   3.392   1.081   5.060
 6018SOL    HW218954   3.331   0.942   4.999
 6019SOL     OW18955   0.710   3.492   5.520
 6019SOL    HW118956   0.715   3.408   5.466
 6019SOL    HW218957   0.800   3.511   5.561
 6020SOL     OW18958   0.749   5.596   0.554
 6020SOL    HW118959   0.799   5.636   0.631
 6020SOL    HW218960   0.668   5.548   0.588
 6021SOL     OW18961   4.947   0.392   2.990
 6021SOL    HW118962   4.942   0.294   3.012
 6021SOL    HW218963   4.918   0.406   2.896
 6022SOL     OW18964   6.925   1.822   3.400
 6022SOL    HW118965   6.961   1.831   3.307
 6022SOL    HW218966   6.882   1.733   3.411
 6023SOL     OW18967   5.242   0.323   2.196
 6023SOL    HW118968   5.311   0.374   2.246
 6023SOL    HW218969   5.232   0.360   2.103
 6024SOL     OW18970   0.874   4.494   0.885
 6024SOL    HW118971   0.774   4.501   0.880
 6024SOL    HW218972   0.903   4.412   0.836
 6025SOL     OW18973   3.595   1.308   3.071
 6025SOL    HW118974   3.610   1.361   3.155
 6025SOL    HW218975   3.498   1.308   3.049
 6026SOL     OW18976   6.773   5.434   4.964
 6026SOL    HW118977   6.765   5.452   4.866
 6026SOL    HW218978   6.735   5.511   5.015
 6027SOL     OW18979   0.391   3.103   5.841
 6027SOL    HW118980   0.379   3.035   5.769
 6027SOL    HW218981   0.343   3.187   5.815
 6028SOL     OW18982   5.284   4.629   1.106
 6028SOL    HW118983   5.379   4.649   1.131
 6028SOL    HW218984   5.223   4.666   1.177
 6029SOL     OW18985   2.671   6.827   4.014
 6029SOL    HW118986   2.610   6.750   4.001
 6029SOL    HW218987   2.766   6.794   4.018
 6030SOL     OW18988   5.002   3.856   4.620
 6030SOL    HW118989   4.917   3.902   4.597
 6030SOL    HW218990   4.982   3.764   4.653
 6031SOL     OW18991   2.178   5.828   4.481
 6031SOL    HW118992   2.238   5.750   4.500
 6031SOL    HW218993   2.134   5.858   4.566
 6032SOL     OW18994   2.749   4.818   3.085
 6032SOL    HW118995   2.828   4.880   3.088
 6032SOL    HW218996   2.678   4.853   3.146
 6033SOL     OW18997   2.044   3.157   2.662
 6033SOL    HW118998   2.024   3.240   2.609
 6033SOL    HW218999   1.978   3.086   2.639
 6034SOL     OW19000   0.885   0.488   6.398
 6034SOL    HW119001   0.945   0.498   6.319
 6034SOL    HW219002   0.808   0.551   6.390
 6035SOL     OW19003   1.477   0.230   2.616
 6035SOL    HW119004   1.505   0.145   2.571
 6035SOL    HW219005   1.397   0.213   2.673
 6036SOL     OW19006   6.058   5.064   1.354
 6036SOL    HW119007   6.037   5.026   1.445
 6036SOL    HW219008   5.979   5.054   1.295
 6037SOL     OW19009   3.650   6.955   0.500
 6037SOL    HW119010   3.732   6.981   0.551
 6037SOL    HW219011   3.578   6.928   0.563
 6038SOL     OW19012   1.039   2.540   6.686
 6038SOL    HW119013   1.118   2.585   6.726
 6038SOL    HW219014   1.067   2.488   6.606
 6039SOL     OW19015   4.110   3.380   3.298
 6039SOL    HW119016   4.047   3.371   3.376
 6039SOL    HW219017   4.083   3.315   3.227
 6040SOL     OW19018   1.776   1.494   0.405
 6040SOL    HW119019   1.715   1.530   0.475
 6040SOL    HW219020   1.870   1.522   0.425
 6041SOL     OW19021   3.289   2.177   5.326
 6041SOL    HW119022   3.347   2.245   5.372
 6041SOL    HW219023   3.214   2.224   5.279
 6042SOL     OW19024   3.689   6.897   2.952
 6042SOL    HW119025   3.646   6.819   2.998
 6042SOL    HW219026   3.780   6.870   2.920
 6043SOL     OW19027   1.201   0.687   4.392
 6043SOL    HW119028   1.276   0.743   4.355
 6043SOL    HW219029   1.117   0.706   4.342
 6044SOL     OW19030   2.423   2.229   1.917
 6044SOL    HW119031   2.402   2.234   2.015
 6044SOL    HW219032   2.483   2.152   1.899
 6045SOL     OW19033   5.334   3.502   3.866
 6045SOL    HW119034   5.409   3.561   3.896
 6045SOL    HW219035   5.362   3.406   3.872
 6046SOL     OW19036   3.443   2.526   0.544
 6046SOL    HW119037   3.345   2.509   0.538
 6046SOL    HW219038   3.476   2.504   0.635
 6047SOL     OW19039   5.478   2.092   1.208
 6047SOL    HW119040   5.393   2.134   1.239
 6047SOL    HW219041   5.458   2.024   1.137
 6048SOL     OW19042   4.941   5.709   5.062
 6048SOL    HW119043   5.006   5.784   5.071
 6048SOL    HW219044   4.953   5.644   5.137
 6049SOL     OW19045   5.025   4.726   6.154
 6049SOL    HW119046   5.118   4.691   6.166
 6049SOL    HW219047   4.993   4.705   6.061
 6050SOL     OW19048   2.151   5.232   0.828
 6050SOL    HW119049   2.116   5.298   0.894
 6050SOL    HW219050   2.180   5.280   0.745
 6051SOL     OW19051   1.890   6.460   2.575
 6051SOL    HW119052   1.930   6.398   2.508
 6051SOL    HW219053   1.957   6.478   2.647
 6052SOL     OW19054   5.514   1.304   1.635
 6052SOL    HW119055   5.608   1.310   1.601
 6052SOL    HW219056   5.509   1.340   1.728
 6053SOL     OW19057   3.835   0.515   6.110
 6053SOL    HW119058   3.749   0.521   6.060
 6053SOL    HW219059   3.820   0.539   6.206
 6054SOL     OW19060   3.274   4.340   0.593
 6054SOL    HW119061   3.307   4.370   0.682
 6054SOL    HW219062   3.349   4.296   0.543
 6055SOL     OW19063   3.879   5.927   5.942
 6055SOL    HW119064   3.882   5.897   6.037
 6055SOL    HW219065   3.898   5.850   5.882
 6056SOL     OW19066   4.938   3.174   5.210
 6056SOL    HW119067   4.869   3.177   5.137
 6056SOL    HW219068   4.914   3.239   5.282
 6057SOL     OW19069   5.850   0.478   2.054
 6057SOL    HW119070   5.796   0.418   2.114
 6057SOL    HW219071   5.896   0.547   2.109
 6058SOL     OW19072   5.593   3.902   0.275
 6058SOL    HW119073   5.596   4.000   0.296
 6058SOL    HW219074   5.623   3.850   0.355
 6059SOL     OW19075   5.049   4.474   5.730
 6059SOL    HW119076   4.998   4.457   5.645
 6059SOL    HW219077   5.105   4.555   5.718
 6060SOL     OW19078   2.481   3.319   6.687
 6060SOL    HW119079   2.521   3.228   6.689
 6060SOL    HW219080   2.548   3.386   6.719
 6061SOL     OW19081   4.775   3.916   0.853
 6061SOL    HW119082   4.832   3.978   0.906
 6061SOL    HW219083   4.819   3.896   0.766
 6062SOL     OW19084   2.296   1.495   6.941
 6062SOL    HW119085   2.387   1.458   6.924
 6062SOL    HW219086   2.283   1.508   0.014
 6063SOL     OW19087   3.485   3.754   5.551
 6063SOL    HW119088   3.462   3.682   5.485
 6063SOL    HW219089   3.568   3.802   5.520
 6064SOL     OW19090   1.274   0.898   0.948
 6064SOL    HW119091   1.247   0.979   1.000
 6064SOL    HW219092   1.315   0.926   0.861
 6065SOL     OW19093   0.419   5.731   1.816
 6065SOL    HW119094   0.358   5.793   1.865
 6065SOL    HW219095   0.366   5.677   1.750
 6066SOL     OW19096   5.640   1.269   5.461
 6066SOL    HW119097   5.623   1.193   5.524
 6066SOL    HW219098   5.737   1.291   5.461
 6067SOL     OW19099   4.913   1.121   5.318
 6067SOL    HW119100   5.005   1.110   5.280
 6067SOL    HW219101   4.911   1.083   5.410
 6068SOL     OW19102   5.059   2.345   4.376
 6068SOL    HW119103   5.013   2.273   4.428
 6068SOL    HW219104   4.992   2.395   4.322
 6069SOL     OW19105   6.357   3.785   5.335
 6069SOL    HW119106   6.397   3.874   5.357
 6069SOL    HW219107   6.290   3.761   5.405
 6070SOL     OW19108   3.689   3.125   1.069
 6070SOL    HW119109   3.694   3.222   1.046
 6070SOL    HW219110   3.598   3.104   1.106
 6071SOL     OW19111   1.256   6.032   4.144
 6071SOL    HW119112   1.209   6.037   4.232
 6071SOL    HW219113   1.254   5.938   4.111
 6072SOL     OW19114   0.845   0.924   1.967
 6072SOL    HW119115   0.835   0.977   2.052
 6072SOL    HW219116   0.883   0.834   1.989
 6073SOL     OW19117   5.192   2.884   0.889
 6073SOL    HW119118   5.221   2.857   0.981
 6073SOL    HW219119   5.121   2.954   0.895
 6074SOL     OW19120   2.095   6.663   2.100
 6074SOL    HW119121   2.174   6.605   2.081
 6074SOL    HW219122   2.032   6.616   2.162
 6075SOL     OW19123   4.351   7.015   5.036
 6075SOL    HW119124   4.322   0.028   5.123
 6075SOL    HW219125   4.363   6.916   5.045
 6076SOL     OW19126   2.559   5.160   3.266
 6076SOL    HW119127   2.511   5.212   3.196
 6076SOL    HW219128   2.546   5.062   3.250
 6077SOL     OW19129   6.542   5.961   1.105
 6077SOL    HW119130   6.472   5.898   1.074
 6077SOL    HW219131   6.616   5.910   1.149
 6078SOL     OW19132   4.514   4.735   0.472
 6078SOL    HW119133   4.523   4.766   0.377
 6078SOL    HW219134   4.452   4.657   0.475
 6079SOL     OW19135   5.508   4.811   6.514
 6079SOL    HW119136   5.528   4.737   6.579
 6079SOL    HW219137   5.444   4.876   6.555
 6080SOL     OW19138   0.657   5.350   1.372
 6080SOL    HW119139   0.755   5.337   1.387
 6080SOL    HW219140   0.642   5.383   1.279
 6081SOL     OW19141   0.012   2.897   5.074
 6081SOL    HW119142   0.012   2.903   4.974
 6081SOL    HW219143   6.953   2.853   5.105
 6082SOL     OW19144   3.460   6.643   2.571
 6082SOL    HW119145   3.539   6.688   2.613
 6082SOL    HW219146   3.383   6.707   2.571
 6083SOL     OW19147   5.770   5.628   0.878
 6083SOL    HW119148   5.826   5.712   0.881
 6083SOL    HW219149   5.784   5.576   0.962
 6084SOL     OW19150   0.797   6.663   2.292
 6084SOL    HW119151   0.781   6.607   2.372
 6084SOL    HW219152   0.892   6.654   2.262
 6085SOL     OW19153   6.891   5.652   6.653
 6085SOL    HW119154   6.894   5.572   6.592
 6085SOL    HW219155   6.883   5.621   6.747
 6086SOL     OW19156   2.660   2.064   5.836
 6086SOL    HW119157   2.613   1.992   5.888
 6086SOL    HW219158   2.638   2.054   5.739
 6087SOL     OW19159   3.753   5.970   0.840
 6087SOL    HW119160   3.674   6.014   0.798
 6087SOL    HW219161   3.814   5.934   0.769
 6088SOL     OW19162   5.676   6.821   4.702
 6088SOL    HW119163   5.578   6.837   4.715
 6088SOL    HW219164   5.725   6.907   4.712
 6089SOL     OW19165   6.003   2.420   3.330
 6089SOL    HW119166   6.030   2.397   3.424
 6089SOL    HW219167   6.080   2.462   3.282
 6090SOL     OW19168   2.097   4.849   4.297
 6090SOL    HW119169   2.193   4.874   4.311
 6090SOL    HW219170   2.045   4.930   4.270
 6091SOL     OW19171   2.806   1.484   0.492
 6091SOL    HW119172   2.794   1.440   0.581
 6091SOL    HW219173   2.803   1.415   0.419
 6092SOL     OW19174   4.667   0.989   1.811
 6092SOL    HW119175   4.714   1.044   1.743
 6092SOL    HW219176   4.646   0.899   1.773
 6093SOL     OW19177   2.155   2.318   1.794
 6093SOL    HW119178   2.246   2.340   1.831
 6093SOL    HW219179   2.089   2.385   1.828
 6094SOL     OW19180   1.579   5.778   3.021
 6094SOL    HW119181   1.530   5.840   2.959
 6094SOL    HW219182   1.644   5.723   2.968
 6095SOL     OW19183   4.795   4.910   6.500
 6095SOL    HW119184   4.895   4.904   6.500
 6095SOL    HW219185   4.763   4.943   6.589
 6096SOL     OW19186   6.223   6.830   2.138
 6096SOL    HW119187   6.200   6.736   2.164
 6096SOL    HW219188   6.228   6.887   2.220
 6097SOL     OW19189   1.832   5.249   2.197
 6097SOL    HW119190   1.927   5.255   2.227
 6097SOL    HW219191   1.782   5.186   2.257
 6098SOL     OW19192   7.008   1.223   6.173
 6098SOL    HW119193   6.986   1.208   6.269
 6098SOL    HW219194   6.968   1.310   6.143
 6099SOL     OW19195   5.141   5.629   5.613
 6099SOL    HW119196   5.094   5.704   5.659
 6099SOL    HW219197   5.169   5.658   5.521
 6100SOL     OW19198   0.344   6.446   2.280
 6100SOL    HW119199   0.397   6.530   2.273
 6100SOL    HW219200   0.260   6.456   2.226
 6101SOL     OW19201   6.737   3.039   2.959
 6101SOL    HW119202   6.653   3.063   2.909
 6101SOL    HW219203   6.804   3.002   2.894
 6102SOL     OW19204   4.096   5.427   2.665
 6102SOL    HW119205   4.073   5.363   2.739
 6102SOL    HW219206   4.129   5.512   2.705
 6103SOL     OW19207   6.755   0.709   1.137
 6103SOL    HW119208   6.668   0.712   1.088
 6103SOL    HW219209   6.819   0.774   1.095
 6104SOL     OW19210   5.997   0.000   4.920
 6104SOL    HW119211   6.062   6.972   4.866
 6104SOL    HW219212   6.035   0.091   4.938
 6105SOL     OW19213   1.503   5.226   5.885
 6105SOL    HW119214   1.536   5.316   5.858
 6105SOL    HW219215   1.427   5.198   5.826
 6106SOL     OW19216   1.316   4.640   0.082
 6106SOL    HW119217   1.412   4.614   0.069
 6106SOL    HW219218   1.295   4.719   0.026
 6107SOL     OW19219   4.810   5.586   4.838
 6107SOL    HW119220   4.721   5.631   4.842
 6107SOL    HW219221   4.875   5.635   4.895
 6108SOL     OW19222   2.254   2.419   3.696
 6108SOL    HW119223   2.323   2.468   3.643
 6108SOL    HW219224   2.221   2.478   3.770
 6109SOL     OW19225   5.584   1.031   5.637
 6109SOL    HW119226   5.529   1.063   5.715
 6109SOL    HW219227   5.531   0.964   5.585
 6110SOL     OW19228   2.844   3.037   0.706
 6110SOL    HW119229   2.861   3.103   0.633
 6110SOL    HW219230   2.745   3.026   0.719
 6111SOL     OW19231   1.103   3.573   2.478
 6111SOL    HW119232   1.042   3.647   2.509
 6111SOL    HW219233   1.073   3.487   2.519
 6112SOL     OW19234   4.470   0.461   2.656
 6112SOL    HW119235   4.372   0.446   2.671
 6112SOL    HW219236   4.496   0.551   2.692
 6113SOL     OW19237   2.495   2.986   6.582
 6113SOL    HW119238   2.530   2.899   6.546
 6113SOL    HW219239   2.539   3.006   6.669
 6114SOL     OW19240   4.855   3.959   2.613
 6114SOL    HW119241   4.910   3.896   2.559
 6114SOL    HW219242   4.859   3.933   2.709
 6115SOL     OW19243   6.449   1.201   4.738
 6115SOL    HW119244   6.360   1.171   4.705
 6115SOL    HW219245   6.437   1.274   4.805
 6116SOL     OW19246   3.673   1.434   6.076
 6116SOL    HW119247   3.635   1.488   6.151
 6116SOL    HW219248   3.684   1.339   6.105
 6117SOL     OW19249   1.689   1.945   3.282
 6117SOL    HW119250   1.594   1.974   3.270
 6117SOL    HW219251   1.746   1.988   3.211
 6118SOL     OW19252   5.905   1.074   1.692
 6118SOL    HW119253   5.840   1.147   1.669
 6118SOL    HW219254   5.986   1.081   1.634
 6119SOL     OW19255   1.204   3.649   0.545
 6119SOL    HW119256   1.248   3.729   0.504
 6119SOL    HW219257   1.198   3.661   0.644
 6120SOL     OW19258   1.726   6.119   5.713
 6120SOL    HW119259   1.632   6.150   5.700
 6120SOL    HW219260   1.766   6.096   5.624
 6121SOL     OW19261   1.261   3.746   5.627
 6121SOL    HW119262   1.230   3.841   5.619
 6121SOL    HW219263   1.212   3.701   5.701
 6122SOL     OW19264   4.771   5.432   6.993
 6122SOL    HW119265   4.856   5.472   6.958
 6122SOL    HW219266   4.720   5.392   6.917
 6123SOL     OW19267   4.785   6.829   5.606
 6123SOL    HW119268   4.767   6.824   5.704
 6123SOL    HW219269   4.699   6.841   5.557
 6124SOL     OW19270   0.612   6.799   6.046
 6124SOL    HW119271   0.659   6.847   5.972
 6124SOL    HW219272   0.648   6.706   6.054
 6125SOL     OW19273   2.377   4.329   6.959
 6125SOL    HW119274   2.467   4.357   6.926
 6125SOL    HW219275   2.373   4.229   6.962
 6126SOL     OW19276   0.218   1.155   5.119
 6126SOL    HW119277   0.239   1.139   5.216
 6126SOL    HW219278   0.119   1.152   5.105
 6127SOL     OW19279   4.173   6.926   1.918
 6127SOL    HW119280   4.235   6.988   1.965
 6127SOL    HW219281   4.200   6.919   1.822
 6128SOL     OW19282   5.562   5.577   0.713
 6128SOL    HW119283   5.641   5.587   0.773
 6128SOL    HW219284   5.490   5.528   0.761
 6129SOL     OW19285   0.762   3.556   3.097
 6129SOL    HW119286   0.794   3.476   3.148
 6129SOL    HW219287   0.839   3.615   3.074
 6130SOL     OW19288   5.141   2.566   2.752
 6130SOL    HW119289   5.076   2.493   2.772
 6130SOL    HW219290   5.091   2.649   2.728
 6131SOL     OW19291   0.721   1.535   3.301
 6131SOL    HW119292   0.737   1.461   3.366
 6131SOL    HW219293   0.647   1.511   3.239
 6132SOL     OW19294   3.641   2.128   6.743
 6132SOL    HW119295   3.621   2.041   6.699
 6132SOL    HW219296   3.560   2.186   6.739
 6133SOL     OW19297   2.135   3.304   3.214
 6133SOL    HW119298   2.171   3.306   3.121
 6133SOL    HW219299   2.139   3.396   3.253
 6134SOL     OW19300   4.297   6.679   0.065
 6134SOL    HW119301   4.343   6.668   7.002
 6134SOL    HW219302   4.272   6.590   0.102
 6135SOL     OW19303   0.466   5.549   1.575
 6135SOL    HW119304   0.517   5.481   1.522
 6135SOL    HW219305   0.381   5.572   1.527
 6136SOL     OW19306   1.251   2.727   1.567
 6136SOL    HW119307   1.280   2.653   1.508
 6136SOL    HW219308   1.183   2.693   1.632
 6137SOL     OW19309   0.311   4.283   2.371
 6137SOL    HW119310   0.238   4.315   2.311
 6137SOL    HW219311   0.314   4.183   2.370
 6138SOL     OW19312   3.581   0.036   3.741
 6138SOL    HW119313   3.605   0.107   3.675
 6138SOL    HW219314   3.569   6.974   3.693
 6139SOL     OW19315   0.798   6.618   5.679
 6139SOL    HW119316   0.722   6.682   5.691
 6139SOL    HW219317   0.784   6.566   5.595
 6140SOL     OW19318   0.650   0.554   2.121
 6140SOL    HW119319   0.639   0.478   2.186
 6140SOL    HW219320   0.561   0.582   2.087
 6141SOL     OW19321   0.130   0.102   6.346
 6141SOL    HW119322   0.177   0.014   6.353
 6141SOL    HW219323   0.032   0.086   6.333
 6142SOL     OW19324   0.529   5.655   6.182
 6142SOL    HW119325   0.541   5.561   6.214
 6142SOL    HW219326   0.479   5.707   6.251
 6143SOL     OW19327   7.019   4.169   0.927
 6143SOL    HW119328   7.007   4.229   1.006
 6143SOL    HW219329   0.076   4.195   0.877
 6144SOL     OW19330   5.104   4.946   3.755
 6144SOL    HW119331   5.023   4.982   3.802
 6144SOL    HW219332   5.095   4.964   3.657
 6145SOL     OW19333   5.201   4.939   4.074
 6145SOL    HW119334   5.220   4.996   4.155
 6145SOL    HW219335   5.269   4.959   4.003
 6146SOL     OW19336   3.239   5.985   3.188
 6146SOL    HW119337   3.317   6.033   3.147
 6146SOL    HW219338   3.250   5.984   3.287
 6147SOL     OW19339   1.857   2.470   5.075
 6147SOL    HW119340   1.875   2.412   4.995
 6147SOL    HW219341   1.767   2.513   5.066
 6148SOL     OW19342   4.211   5.748   5.842
 6148SOL    HW119343   4.163   5.737   5.929
 6148SOL    HW219344   4.264   5.833   5.844
 6149SOL     OW19345   2.720   6.844   1.878
 6149SOL    HW119346   2.671   6.767   1.918
 6149SOL    HW219347   2.792   6.874   1.940
 6150SOL     OW19348   5.972   4.114   6.622
 6150SOL    HW119349   5.996   4.207   6.650
 6150SOL    HW219350   5.926   4.067   6.698
 6151SOL     OW19351   5.857   4.824   5.297
 6151SOL    HW119352   5.767   4.837   5.256
 6151SOL    HW219353   5.870   4.891   5.370
 6152SOL     OW19354   0.568   5.471   4.701
 6152SOL    HW119355   0.574   5.443   4.797
 6152SOL    HW219356   0.561   5.389   4.643
 6153SOL     OW19357   5.653   5.069   1.363
 6153SOL    HW119358   5.728   5.025   1.313
 6153SOL    HW219359   5.566   5.047   1.318
 6154SOL     OW19360   5.647   3.394   2.466
 6154SOL    HW119361   5.730   3.429   2.422
 6154SOL    HW219362   5.672   3.343   2.548
 6155SOL     OW19363   3.014   0.888   3.044
 6155SOL    HW119364   2.978   0.804   3.002
 6155SOL    HW219365   3.030   0.957   2.973
 6156SOL     OW19366   4.684   4.939   1.268
 6156SOL    HW119367   4.780   4.967   1.278
 6156SOL    HW219368   4.680   4.847   1.229
 6157SOL     OW19369   0.839   2.104   2.898
 6157SOL    HW119370   0.879   2.168   2.965
 6157SOL    HW219371   0.876   2.124   2.807
 6158SOL     OW19372   3.798   2.522   0.030
 6158SOL    HW119373   3.707   2.535   0.069
 6158SOL    HW219374   3.810   2.426   0.003
 6159SOL     OW19375   4.195   2.409   0.627
 6159SOL    HW119376   4.251   2.478   0.581
 6159SOL    HW219377   4.181   2.331   0.566
 6160SOL     OW19378   5.992   0.116   6.590
 6160SOL    HW119379   5.988   0.019   6.613
 6160SOL    HW219380   5.900   0.152   6.576
 6161SOL     OW19381   5.609   1.549   0.320
 6161SOL    HW119382   5.620   1.491   0.401
 6161SOL    HW219383   5.659   1.508   0.243
 6162SOL     OW19384   6.029   6.306   3.935
 6162SOL    HW119385   6.033   6.348   4.025
 6162SOL    HW219386   6.098   6.349   3.876
 6163SOL     OW19387   5.052   6.033   2.121
 6163SOL    HW119388   5.063   6.107   2.054
 6163SOL    HW219389   4.955   6.018   2.140
 6164SOL     OW19390   3.491   4.164   4.706
 6164SOL    HW119391   3.398   4.145   4.676
 6164SOL    HW219392   3.493   4.177   4.805
 6165SOL     OW19393   4.457   1.654   6.123
 6165SOL    HW119394   4.368   1.649   6.168
 6165SOL    HW219395   4.450   1.712   6.042
 6166SOL     OW19396   6.022   1.738   0.753
 6166SOL    HW119397   6.023   1.789   0.667
 6166SOL    HW219398   5.977   1.793   0.823
 6167SOL     OW19399   0.887   4.963   2.673
 6167SOL    HW119400   0.891   4.863   2.674
 6167SOL    HW219401   0.850   4.993   2.585
 6168SOL     OW19402   0.293   3.179   3.363
 6168SOL    HW119403   0.389   3.162   3.384
 6168SOL    HW219404   0.257   3.249   3.424
 6169SOL     OW19405   1.186   1.918   0.188
 6169SOL    HW119406   1.273   1.904   0.141
 6169SOL    HW219407   1.202   1.924   0.286
 6170SOL     OW19408   2.955   4.164   5.268
 6170SOL    HW119409   2.886   4.095   5.244
 6170SOL    HW219410   3.046   4.125   5.257
 6171SOL     OW19411   1.706   3.337   1.380
 6171SOL    HW119412   1.667   3.306   1.467
 6171SOL    HW219413   1.633   3.344   1.312
 6172SOL     OW19414   1.192   0.762   3.297
 6172SOL    HW119415   1.144   0.844   3.267
 6172SOL    HW219416   1.235   0.780   3.386
 6173SOL     OW19417   6.753   4.873   2.433
 6173SOL    HW119418   6.699   4.916   2.506
 6173SOL    HW219419   6.720   4.904   2.344
 6174SOL     OW19420   6.060   5.152   2.936
 6174SOL    HW119421   5.960   5.156   2.931
 6174SOL    HW219422   6.088   5.066   2.978
 6175SOL     OW19423   5.117   0.403   3.720
 6175SOL    HW119424   5.081   0.445   3.637
 6175SOL    HW219425   5.119   0.471   3.794
 6176SOL     OW19426   6.507   2.814   0.433
 6176SOL    HW119427   6.514   2.732   0.377
 6176SOL    HW219428   6.449   2.796   0.512
 6177SOL     OW19429   6.594   1.905   1.327
 6177SOL    HW119430   6.572   1.985   1.383
 6177SOL    HW219431   6.584   1.822   1.382
 6178SOL     OW19432   4.618   5.132   2.470
 6178SOL    HW119433   4.535   5.079   2.451
 6178SOL    HW219434   4.592   5.220   2.510
 6179SOL     OW19435   6.605   5.050   4.526
 6179SOL    HW119436   6.683   4.990   4.513
 6179SOL    HW219437   6.533   5.002   4.577
 6180SOL     OW19438   3.523   6.041   6.518
 6180SOL    HW119439   3.544   5.962   6.576
 6180SOL    HW219440   3.526   6.014   6.422
 6181SOL     OW19441   4.308   6.536   1.209
 6181SOL    HW119442   4.369   6.459   1.226
 6181SOL    HW219443   4.353   6.621   1.238
 6182SOL     OW19444   5.577   3.618   5.362
 6182SOL    HW119445   5.559   3.537   5.306
 6182SOL    HW219446   5.491   3.666   5.379
 6183SOL     OW19447   3.082   0.119   2.879
 6183SOL    HW119448   3.059   0.022   2.872
 6183SOL    HW219449   3.170   0.136   2.834
 6184SOL     OW19450   1.519   6.781   6.187
 6184SOL    HW119451   1.514   6.714   6.262
 6184SOL    HW219452   1.429   6.823   6.175
 6185SOL     OW19453   0.792   4.538   6.325
 6185SOL    HW119454   0.841   4.607   6.273
 6185SOL    HW219455   0.758   4.578   6.410
 6186SOL     OW19456   5.933   0.451   4.903
 6186SOL    HW119457   5.878   0.519   4.854
 6186SOL    HW219458   5.875   0.403   4.969
 6187SOL     OW19459   4.452   4.736   4.097
 6187SOL    HW119460   4.524   4.785   4.048
 6187SOL    HW219461   4.474   4.734   4.194
 6188SOL     OW19462   2.000   6.883   0.842
 6188SOL    HW119463   1.946   6.802   0.864
 6188SOL    HW219464   2.066   6.861   0.771
 6189SOL     OW19465   4.704   4.191   4.129
 6189SOL    HW119466   4.685   4.097   4.154
 6189SOL    HW219467   4.670   4.253   4.200
 6190SOL     OW19468   6.578   3.806   6.454
 6190SOL    HW119469   6.554   3.761   6.368
 6190SOL    HW219470   6.656   3.867   6.438
 6191SOL     OW19471   4.347   2.999   0.104
 6191SOL    HW119472   4.415   2.970   0.172
 6191SOL    HW219473   4.383   2.983   0.012
 6192SOL     OW19474   3.313   3.215   6.657
 6192SOL    HW119475   3.387   3.260   6.606
 6192SOL    HW219476   3.225   3.243   6.619
 6193SOL     OW19477   5.106   0.856   2.516
 6193SOL    HW119478   5.129   0.801   2.435
 6193SOL    HW219479   5.039   0.925   2.491
 6194SOL     OW19480   0.878   6.855   0.476
 6194SOL    HW119481   0.873   6.834   0.379
 6194SOL    HW219482   0.882   6.770   0.528
 6195SOL     OW19483   3.884   5.718   5.771
 6195SOL    HW119484   3.877   5.618   5.762
 6195SOL    HW219485   3.921   5.756   5.686
 6196SOL     OW19486   6.000   2.270   1.509
 6196SOL    HW119487   5.999   2.311   1.600
 6196SOL    HW219488   5.976   2.339   1.441
 6197SOL     OW19489   3.996   3.961   0.400
 6197SOL    HW119490   4.033   4.003   0.317
 6197SOL    HW219491   3.926   4.021   0.439
 6198SOL     OW19492   3.260   5.235   2.276
 6198SOL    HW119493   3.307   5.146   2.270
 6198SOL    HW219494   3.311   5.303   2.223
 6199SOL     OW19495   0.907   7.000   1.108
 6199SOL    HW119496   0.893   6.934   1.182
 6199SOL    HW219497   0.868   6.963   1.023
 6200SOL     OW19498   1.733   0.827   5.492
 6200SOL    HW119499   1.708   0.914   5.450
 6200SOL    HW219500   1.651   0.776   5.516
 6201SOL     OW19501   1.644   3.859   5.283
 6201SOL    HW119502   1.675   3.906   5.200
 6201SOL    HW219503   1.622   3.764   5.261
 6202SOL     OW19504   3.943   1.902   1.483
 6202SOL    HW119505   3.998   1.822   1.461
 6202SOL    HW219506   3.966   1.977   1.420
 6203SOL     OW19507   5.579   6.590   3.128
 6203SOL    HW119508   5.499   6.588   3.067
 6203SOL    HW219509   5.623   6.501   3.128
 6204SOL     OW19510   0.559   5.420   4.971
 6204SOL    HW119511   0.466   5.409   5.004
 6204SOL    HW219512   0.624   5.401   5.045
 6205SOL     OW19513   6.184   6.449   6.993
 6205SOL    HW119514   6.129   6.397   6.928
 6205SOL    HW219515   6.224   6.386   0.035
 6206SOL     OW19516   6.574   0.650   2.888
 6206SOL    HW119517   6.620   0.561   2.890
 6206SOL    HW219518   6.497   0.649   2.953
 6207SOL     OW19519   1.715   4.332   4.357
 6207SOL    HW119520   1.785   4.393   4.321
 6207SOL    HW219521   1.625   4.363   4.328
 6208SOL     OW19522   6.104   1.766   6.573
 6208SOL    HW119523   6.135   1.796   6.664
 6208SOL    HW219524   6.014   1.804   6.554
 6209SOL     OW19525   4.781   5.594   0.339
 6209SOL    HW119526   4.787   5.654   0.419
 6209SOL    HW219527   4.853   5.619   0.273
 6210SOL     OW19528   5.905   4.599   3.919
 6210SOL    HW119529   5.994   4.560   3.895
 6210SOL    HW219530   5.912   4.699   3.920
 6211SOL     OW19531   3.126   6.193   4.856
 6211SOL    HW119532   3.046   6.252   4.866
 6211SOL    HW219533   3.142   6.143   4.941
 6212SOL     OW19534   2.084   5.245   3.267
 6212SOL    HW119535   2.021   5.255   3.344
 6212SOL    HW219536   2.126   5.333   3.246
 6213SOL     OW19537   5.071   0.519   6.980
 6213SOL    HW119538   4.977   0.485   6.991
 6213SOL    HW219539   5.070   0.602   6.925
 6214SOL     OW19540   4.422   5.027   3.699
 6214SOL    HW119541   4.441   4.929   3.688
 6214SOL    HW219542   4.376   5.042   3.786
 6215SOL     OW19543   4.017   1.968   0.611
 6215SOL    HW119544   3.943   2.035   0.620
 6215SOL    HW219545   4.085   2.002   0.546
 6216SOL     OW19546   6.350   2.185   2.433
 6216SOL    HW119547   6.258   2.188   2.393
 6216SOL    HW219548   6.360   2.101   2.487
 6217SOL     OW19549   0.088   2.965   3.009
 6217SOL    HW119550   0.124   2.885   3.057
 6217SOL    HW219551   0.032   2.936   2.932
 6218SOL     OW19552   3.134   4.977   5.609
 6218SOL    HW119553   3.148   5.017   5.518
 6218SOL    HW219554   3.099   5.047   5.671
 6219SOL     OW19555   1.131   2.027   4.328
 6219SOL    HW119556   1.069   1.963   4.282
 6219SOL    HW219557   1.116   2.023   4.427
 6220SOL     OW19558   1.648   3.298   5.294
 6220SOL    HW119559   1.707   3.377   5.280
 6220SOL    HW219560   1.668   3.228   5.225
 6221SOL     OW19561   6.170   5.787   6.735
 6221SOL    HW119562   6.102   5.831   6.676
 6221SOL    HW219563   6.262   5.807   6.700
 6222SOL     OW19564   1.409   6.476   1.243
 6222SOL    HW119565   1.341   6.409   1.273
 6222SOL    HW219566   1.405   6.557   1.302
 6223SOL     OW19567   0.325   4.562   4.789
 6223SOL    HW119568   0.408   4.547   4.735
 6223SOL    HW219569   0.322   4.657   4.820
 6224SOL     OW19570   2.595   2.130   6.127
 6224SOL    HW119571   2.631   2.051   6.175
 6224SOL    HW219572   2.617   2.122   6.029
 6225SOL     OW19573   3.479   3.262   0.925
 6225SOL    HW119574   3.544   3.320   0.876
 6225SOL    HW219575   3.387   3.299   0.913
 6226SOL     OW19576   5.735   1.792   5.424
 6226SOL    HW119577   5.820   1.741   5.408
 6226SOL    HW219578   5.714   1.848   5.344
 6227SOL     OW19579   3.893   5.451   5.696
 6227SOL    HW119580   3.796   5.433   5.678
 6227SOL    HW219581   3.941   5.365   5.713
 6228SOL     OW19582   1.332   2.498   2.975
 6228SOL    HW119583   1.416   2.534   3.014
 6228SOL    HW219584   1.343   2.486   2.877
 6229SOL     OW19585   0.816   2.820   2.481
 6229SOL    HW119586   0.790   2.861   2.568
 6229SOL    HW219587   0.739   2.827   2.417
 6230SOL     OW19588   1.199   1.435   4.075
 6230SOL    HW119589   1.166   1.518   4.121
 6230SOL    HW219590   1.159   1.355   4.118
 6231SOL     OW19591   6.705   4.863   1.243
 6231SOL    HW119592   6.615   4.821   1.257
 6231SOL    HW219593   6.700   4.961   1.260
 6232SOL     OW19594   6.218   1.709   1.049
 6232SOL    HW119595   6.235   1.643   1.122
 6232SOL    HW219596   6.212   1.661   0.962
 6233SOL     OW19597   6.034   0.871   0.184
 6233SOL    HW119598   6.122   0.826   0.201
 6233SOL    HW219599   6.050   0.969   0.172
 6234SOL     OW19600   6.387   2.003   5.622
 6234SOL    HW119601   6.405   2.091   5.578
 6234SOL    HW219602   6.473   1.967   5.661
 6235SOL     OW19603   1.528   0.140   1.600
 6235SOL    HW119604   1.616   0.187   1.607
 6235SOL    HW219605   1.463   0.181   1.664
 6236SOL     OW19606   0.454   4.047   0.258
 6236SOL    HW119607   0.398   3.997   0.193
 6236SOL    HW219608   0.542   4.070   0.216
 6237SOL     OW19609   3.604   5.820   6.670
 6237SOL    HW119610   3.611   5.739   6.612
 6237SOL    HW219611   3.554   5.796   6.754
 6238SOL     OW19612   3.927   4.948   3.193
 6238SOL    HW119613   3.927   4.910   3.286
 6238SOL    HW219614   3.946   5.046   3.197
 6239SOL     OW19615   3.416   6.050   1.839
 6239SOL    HW119616   3.498   6.032   1.786
 6239SOL    HW219617   3.349   5.978   1.822
 6240SOL     OW19618   2.777   3.292   6.477
 6240SOL    HW119619   2.848   3.224   6.458
 6240SOL    HW219620   2.791   3.330   6.568
 6241SOL     OW19621   3.272   6.971   1.629
 6241SOL    HW119622   3.255   0.030   1.578
 6241SOL    HW219623   3.187   6.939   1.672
 6242SOL     OW19624   5.293   1.206   3.710
 6242SOL    HW119625   5.219   1.232   3.647
 6242SOL    HW219626   5.293   1.107   3.722
 6243SOL     OW19627   6.126   6.704   3.697
 6243SOL    HW119628   6.038   6.686   3.653
 6243SOL    HW219629   6.170   6.781   3.651
 6244SOL     OW19630   1.067   2.137   2.325
 6244SOL    HW119631   1.066   2.063   2.393
 6244SOL    HW219632   1.036   2.102   2.237
 6245SOL     OW19633   1.768   3.941   0.348
 6245SOL    HW119634   1.783   4.036   0.375
 6245SOL    HW219635   1.670   3.927   0.330
 6246SOL     OW19636   1.962   2.639   5.466
 6246SOL    HW119637   1.903   2.569   5.505
 6246SOL    HW219638   1.906   2.705   5.415
 6247SOL     OW19639   1.295   6.790   3.874
 6247SOL    HW119640   1.315   6.696   3.846
 6247SOL    HW219641   1.379   6.844   3.873
 6248SOL     OW19642   2.964   4.006   0.727
 6248SOL    HW119643   2.957   4.047   0.636
 6248SOL    HW219644   2.924   4.068   0.795
 6249SOL     OW19645   0.802   4.056   0.418
 6249SOL    HW119646   0.865   4.006   0.358
 6249SOL    HW219647   0.788   4.005   0.502
 6250SOL     OW19648   0.179   5.946   0.906
 6250SOL    HW119649   0.142   6.035   0.877
 6250SOL    HW219650   0.106   5.879   0.909
 6251SOL     OW19651   3.568   5.239   6.656
 6251SOL    HW119652   3.519   5.269   6.738
 6251SOL    HW219653   3.541   5.145   6.634
 6252SOL     OW19654   1.111   6.380   5.982
 6252SOL    HW119655   1.127   6.302   6.041
 6252SOL    HW219656   1.132   6.464   6.031
 6253SOL     OW19657   2.089   3.953   2.832
 6253SOL    HW119658   2.027   4.031   2.829
 6253SOL    HW219659   2.114   3.933   2.927
 6254SOL     OW19660   4.888   1.032   0.698
 6254SOL    HW119661   4.810   0.980   0.732
 6254SOL    HW219662   4.885   1.035   0.598
 6255SOL     OW19663   2.775   0.659   1.187
 6255SOL    HW119664   2.729   0.615   1.264
 6255SOL    HW219665   2.707   0.703   1.128
 6256SOL     OW19666   3.456   4.902   2.707
 6256SOL    HW119667   3.413   4.990   2.726
 6256SOL    HW219668   3.528   4.915   2.638
 6257SOL     OW19669   5.116   2.419   0.589
 6257SOL    HW119670   5.117   2.319   0.595
 6257SOL    HW219671   5.158   2.458   0.671
 6258SOL     OW19672   4.486   0.068   3.988
 6258SOL    HW119673   4.451   7.000   4.002
 6258SOL    HW219674   4.473   0.121   4.072
 6259SOL     OW19675   2.639   2.743   0.631
 6259SOL    HW119676   2.693   2.787   0.559
 6259SOL    HW219677   2.588   2.813   0.681
 6260SOL     OW19678   3.211   5.288   0.187
 6260SOL    HW119679   3.244   5.230   0.113
 6260SOL    HW219680   3.113   5.271   0.201
 6261SOL     OW19681   3.794   6.994   6.336
 6261SOL    HW119682   3.772   6.905   6.295
 6261SOL    HW219683   3.845   6.980   6.421
 6262SOL     OW19684   1.692   4.899   0.468
 6262SOL    HW119685   1.677   4.829   0.399
 6262SOL    HW219686   1.728   4.857   0.551
 6263SOL     OW19687   6.983   0.242   5.264
 6263SOL    HW119688   0.038   0.266   5.209
 6263SOL    HW219689   7.012   0.185   5.341
 6264SOL     OW19690   1.401   0.168   1.939
 6264SOL    HW119691   1.487   0.119   1.955
 6264SOL    HW219692   1.327   0.102   1.925
 6265SOL     OW19693   2.887   4.117   0.474
 6265SOL    HW119694   2.802   4.102   0.525
 6265SOL    HW219695   2.919   4.210   0.489
 6266SOL     OW19696   3.964   7.008   4.912
 6266SOL    HW119697   4.007   0.049   4.850
 6266SOL    HW219698   4.001   6.917   4.894
 6267SOL     OW19699   2.738   0.630   6.880
 6267SOL    HW119700   2.749   0.679   6.794
 6267SOL    HW219701   2.812   0.564   6.892
 6268SOL     OW19702   3.645   6.645   3.362
 6268SOL    HW119703   3.550   6.626   3.334
 6268SOL    HW219704   3.706   6.626   3.285
 6269SOL     OW19705   6.605   5.484   1.923
 6269SOL    HW119706   6.702   5.474   1.903
 6269SOL    HW219707   6.593   5.534   2.009
 6270SOL     OW19708   1.878   0.598   5.511
 6270SOL    HW119709   1.835   0.681   5.477
 6270SOL    HW219710   1.823   0.559   5.584
 6271SOL     OW19711   5.635   2.383   6.015
 6271SOL    HW119712   5.540   2.391   6.046
 6271SOL    HW219713   5.663   2.467   5.970
 6272SOL     OW19714   0.609   2.295   6.483
 6272SOL    HW119715   0.693   2.242   6.498
 6272SOL    HW219716   0.582   2.289   6.387
 6273SOL     OW19717   1.746   6.626   3.160
 6273SOL    HW119718   1.680   6.691   3.122
 6273SOL    HW219719   1.820   6.675   3.205
 6274SOL     OW19720   2.060   5.262   6.048
 6274SOL    HW119721   2.113   5.179   6.066
 6274SOL    HW219722   2.037   5.267   5.951
 6275SOL     OW19723   2.034   5.980   5.075
 6275SOL    HW119724   2.087   5.919   5.016
 6275SOL    HW219725   1.978   5.926   5.138
 6276SOL     OW19726   1.876   4.844   2.953
 6276SOL    HW119727   1.948   4.843   2.884
 6276SOL    HW219728   1.839   4.936   2.962
 6277SOL     OW19729   5.678   3.506   1.732
 6277SOL    HW119730   5.699   3.499   1.830
 6277SOL    HW219731   5.752   3.463   1.679
 6278SOL     OW19732   5.187   6.804   4.790
 6278SOL    HW119733   5.192   6.714   4.834
 6278SOL    HW219734   5.098   6.815   4.747
 6279SOL     OW19735   3.751   0.535   6.368
 6279SOL    HW119736   3.661   0.550   6.408
 6279SOL    HW219737   3.809   0.485   6.432
 6280SOL     OW19738   0.639   2.022   5.073
 6280SOL    HW119739   0.566   1.967   5.031
 6280SOL    HW219740   0.715   2.031   5.009
 6281SOL     OW19741   1.546   5.034   3.606
 6281SOL    HW119742   1.618   4.995   3.663
 6281SOL    HW219743   1.468   5.060   3.664
 6282SOL     OW19744   1.490   7.007   4.852
 6282SOL    HW119745   1.401   0.027   4.851
 6282SOL    HW219746   1.561   0.050   4.872
 6283SOL     OW19747   6.765   2.923   6.099
 6283SOL    HW119748   6.790   2.864   6.023
 6283SOL    HW219749   6.822   3.005   6.099
 6284SOL     OW19750   1.908   5.182   4.678
 6284SOL    HW119751   1.890   5.084   4.685
 6284SOL    HW219752   1.841   5.224   4.616
 6285SOL     OW19753   0.983   3.460   3.793
 6285SOL    HW119754   1.068   3.412   3.812
 6285SOL    HW219755   0.906   3.405   3.825
 6286SOL     OW19756   6.442   1.730   3.994
 6286SOL    HW119757   6.414   1.791   3.920
 6286SOL    HW219758   6.538   1.704   3.982
 6287SOL     OW19759   3.797   5.078   4.013
 6287SOL    HW119760   3.714   5.128   4.037
 6287SOL    HW219761   3.802   5.067   3.913
 6288SOL     OW19762   5.494   4.794   2.684
 6288SOL    HW119763   5.455   4.772   2.594
 6288SOL    HW219764   5.420   4.808   2.749
 6289SOL     OW19765   1.483   4.748   1.851
 6289SOL    HW119766   1.550   4.683   1.815
 6289SOL    HW219767   1.398   4.701   1.872
 6290SOL     OW19768   5.800   3.820   4.247
 6290SOL    HW119769   5.881   3.869   4.214
 6290SOL    HW219770   5.722   3.882   4.250
 6291SOL     OW19771   3.509   2.911   4.914
 6291SOL    HW119772   3.606   2.903   4.894
 6291SOL    HW219773   3.494   2.897   5.012
 6292SOL     OW19774   1.610   2.212   3.657
 6292SOL    HW119775   1.612   2.112   3.652
 6292SOL    HW219776   1.573   2.240   3.745
 6293SOL     OW19777   3.501   0.079   0.083
 6293SOL    HW119778   3.585   0.086   0.135
 6293SOL    HW219779   3.461   0.171   0.073
 6294SOL     OW19780   3.619   5.088   4.454
 6294SOL    HW119781   3.532   5.048   4.427
 6294SOL    HW219782   3.611   5.188   4.457
 6295SOL     OW19783   5.202   5.301   5.627
 6295SOL    HW119784   5.229   5.209   5.656
 6295SOL    HW219785   5.239   5.369   5.690
 6296SOL     OW19786   0.153   6.705   5.278
 6296SOL    HW119787   0.082   6.694   5.208
 6296SOL    HW219788   0.110   6.713   5.368
 6297SOL     OW19789   4.747   6.830   4.778
 6297SOL    HW119790   4.697   6.765   4.835
 6297SOL    HW219791   4.683   6.895   4.737
 6298SOL     OW19792   1.435   2.717   5.824
 6298SOL    HW119793   1.368   2.767   5.879
 6298SOL    HW219794   1.499   2.781   5.783
 6299SOL     OW19795   5.336   1.633   0.281
 6299SOL    HW119796   5.328   1.683   0.195
 6299SOL    HW219797   5.427   1.590   0.286
 6300SOL     OW19798   5.281   0.357   7.015
 6300SOL    HW119799   5.195   0.407   7.006
 6300SOL    HW219800   5.261   0.259   0.001
 6301SOL     OW19801   3.570   0.542   1.098
 6301SOL    HW119802   3.552   0.639   1.114
 6301SOL    HW219803   3.649   0.514   1.152
 6302SOL     OW19804   1.937   1.056   3.910
 6302SOL    HW119805   2.003   1.014   3.973
 6302SOL    HW219806   1.913   1.147   3.944
 6303SOL     OW19807   2.040   1.033   4.714
 6303SOL    HW119808   1.975   1.070   4.780
 6303SOL    HW219809   2.102   1.105   4.683
 6304SOL     OW19810   2.311   1.179   1.300
 6304SOL    HW119811   2.262   1.217   1.379
 6304SOL    HW219812   2.338   1.253   1.238
 6305SOL     OW19813   6.178   0.016   1.826
 6305SOL    HW119814   6.237   0.030   1.906
 6305SOL    HW219815   6.092   0.066   1.838
 6306SOL     OW19816   1.315   3.224   4.346
 6306SOL    HW119817   1.311   3.323   4.332
 6306SOL    HW219818   1.288   3.203   4.440
 6307SOL     OW19819   3.992   4.534   5.565
 6307SOL    HW119820   4.038   4.477   5.497
 6307SOL    HW219821   3.893   4.524   5.556
 6308SOL     OW19822   2.011   2.005   4.708
 6308SOL    HW119823   1.945   2.062   4.659
 6308SOL    HW219824   2.065   1.952   4.643
 6309SOL     OW19825   5.286   4.286   4.325
 6309SOL    HW119826   5.357   4.283   4.395
 6309SOL    HW219827   5.313   4.227   4.248
 6310SOL     OW19828   2.023   5.736   3.204
 6310SOL    HW119829   2.064   5.775   3.121
 6310SOL    HW219830   1.967   5.805   3.249
 6311SOL     OW19831   5.307   0.644   5.634
 6311SOL    HW119832   5.342   0.609   5.547
 6311SOL    HW219833   5.384   0.658   5.697
 6312SOL     OW19834   6.255   5.372   5.890
 6312SOL    HW119835   6.335   5.334   5.845
 6312SOL    HW219836   6.174   5.358   5.833
 6313SOL     OW19837   1.376   6.545   3.776
 6313SOL    HW119838   1.334   6.472   3.723
 6313SOL    HW219839   1.462   6.512   3.815
 6314SOL     OW19840   4.104   6.578   1.730
 6314SOL    HW119841   4.078   6.481   1.728
 6314SOL    HW219842   4.097   6.616   1.638
 6315SOL     OW19843   3.584   3.097   6.292
 6315SOL    HW119844   3.593   3.136   6.201
 6315SOL    HW219845   3.584   2.997   6.286
 6316SOL     OW19846   4.517   1.851   6.727
 6316SOL    HW119847   4.443   1.810   6.780
 6316SOL    HW219848   4.581   1.780   6.697
 6317SOL     OW19849   4.793   5.647   2.802
 6317SOL    HW119850   4.849   5.720   2.764
 6317SOL    HW219851   4.701   5.651   2.762
 6318SOL     OW19852   2.862   2.092   4.871
 6318SOL    HW119853   2.957   2.091   4.840
 6318SOL    HW219854   2.821   2.002   4.858
 6319SOL     OW19855   6.939   2.258   3.953
 6319SOL    HW119856   6.890   2.195   3.892
 6319SOL    HW219857   6.895   2.348   3.950
 6320SOL     OW19858   5.890   5.431   4.873
 6320SOL    HW119859   5.806   5.460   4.829
 6320SOL    HW219860   5.883   5.335   4.899
 6321SOL     OW19861   2.965   3.678   1.179
 6321SOL    HW119862   2.935   3.773   1.181
 6321SOL    HW219863   3.046   3.670   1.120
 6322SOL     OW19864   2.156   2.198   0.109
 6322SOL    HW119865   2.190   2.184   0.202
 6322SOL    HW219866   2.101   2.281   0.106
 6323SOL     OW19867   3.066   2.723   1.353
 6323SOL    HW119868   3.023   2.753   1.437
 6323SOL    HW219869   3.000   2.672   1.297
 6324SOL     OW19870   5.399   0.206   6.301
 6324SOL    HW119871   5.369   0.226   6.208
 6324SOL    HW219872   5.450   0.283   6.338
 6325SOL     OW19873   2.196   2.024   2.542
 6325SOL    HW119874   2.105   2.064   2.537
 6325SOL    HW219875   2.238   2.025   2.451
 6326SOL     OW19876   5.172   5.535   1.420
 6326SOL    HW119877   5.135   5.444   1.438
 6326SOL    HW219878   5.225   5.566   1.498
 6327SOL     OW19879   0.174   0.326   5.091
 6327SOL    HW119880   0.183   0.401   5.156
 6327SOL    HW219881   0.169   0.363   4.998
 6328SOL     OW19882   1.946   4.125   0.686
 6328SOL    HW119883   2.031   4.165   0.721
 6328SOL    HW219884   1.942   4.029   0.712
 6329SOL     OW19885   2.211   2.707   3.193
 6329SOL    HW119886   2.270   2.711   3.275
 6329SOL    HW219887   2.237   2.628   3.138
 6330SOL     OW19888   4.795   1.081   1.032
 6330SOL    HW119889   4.831   1.017   0.964
 6330SOL    HW219890   4.702   1.108   1.007
 6331SOL     OW19891   6.394   2.068   6.971
 6331SOL    HW119892   6.398   2.164   6.944
 6331SOL    HW219893   6.328   2.056   0.019
 6332SOL     OW19894   6.235   3.614   1.889
 6332SOL    HW119895   6.200   3.624   1.982
 6332SOL    HW219896   6.246   3.704   1.847
 6333SOL     OW19897   4.240   5.430   4.790
 6333SOL    HW119898   4.241   5.517   4.741
 6333SOL    HW219899   4.273   5.444   4.883
 6334SOL     OW19900   3.412   0.000   1.859
 6334SOL    HW119901   3.374   6.997   1.771
 6334SOL    HW219902   3.397   6.953   1.926
 6335SOL     OW19903   4.688   1.037   0.267
 6335SOL    HW119904   4.768   1.060   0.322
 6335SOL    HW219905   4.605   1.054   0.319
 6336SOL     OW19906   0.736   1.795   6.261
 6336SOL    HW119907   0.824   1.838   6.283
 6336SOL    HW219908   0.707   1.738   6.338
 6337SOL     OW19909   4.698   4.615   5.975
 6337SOL    HW119910   4.652   4.695   6.014
 6337SOL    HW219911   4.792   4.639   5.952
 6338SOL     OW19912   3.172   1.973   3.355
 6338SOL    HW119913   3.246   2.028   3.316
 6338SOL    HW219914   3.188   1.876   3.335
 6339SOL     OW19915   1.442   2.959   2.537
 6339SOL    HW119916   1.413   3.054   2.554
 6339SOL    HW219917   1.486   2.922   2.620
 6340SOL     OW19918   1.542   4.826   2.750
 6340SOL    HW119919   1.490   4.745   2.726
 6340SOL    HW219920   1.496   4.874   2.826
 6341SOL     OW19921   0.849   4.228   4.181
 6341SOL    HW119922   0.779   4.263   4.117
 6341SOL    HW219923   0.893   4.305   4.226
 6342SOL     OW19924   2.609   1.929   1.886
 6342SOL    HW119925   2.660   1.996   1.941
 6342SOL    HW219926   2.640   1.932   1.791
 6343SOL     OW19927   4.878   2.138   6.639
 6343SOL    HW119928   4.917   2.227   6.661
 6343SOL    HW219929   4.858   2.133   6.541
 6344SOL     OW19930   5.772   3.436   5.073
 6344SOL    HW119931   5.739   3.373   5.144
 6344SOL    HW219932   5.746   3.402   4.983
 6345SOL     OW19933   4.978   1.739   2.236
 6345SOL    HW119934   5.057   1.737   2.175
 6345SOL    HW219935   4.910   1.803   2.200
 6346SOL     OW19936   6.881   4.625   4.081
 6346SOL    HW119937   6.945   4.632   4.004
 6346SOL    HW219938   6.848   4.531   4.088
 6347SOL     OW19939   1.953   0.074   1.569
 6347SOL    HW119940   2.043   0.092   1.531
 6347SOL    HW219941   1.906   0.160   1.587
 6348SOL     OW19942   1.570   4.044   4.940
 6348SOL    HW119943   1.662   4.062   4.975
 6348SOL    HW219944   1.524   3.978   4.999
 6349SOL     OW19945   3.352   0.181   1.259
 6349SOL    HW119946   3.345   0.228   1.171
 6349SOL    HW219947   3.411   0.234   1.320
 6350SOL     OW19948   2.474   4.652   3.969
 6350SOL    HW119949   2.502   4.570   3.920
 6350SOL    HW219950   2.537   4.727   3.949
 6351SOL     OW19951   6.097   3.662   3.222
 6351SOL    HW119952   6.150   3.597   3.168
 6351SOL    HW219953   6.001   3.635   3.223
 6352SOL     OW19954   2.952   5.243   4.859
 6352SOL    HW119955   3.017   5.231   4.934
 6352SOL    HW219956   2.879   5.176   4.867
 6353SOL     OW19957   0.349   0.989   6.088
 6353SOL    HW119958   0.446   0.999   6.069
 6353SOL    HW219959   0.303   0.954   6.006
 6354SOL     OW19960   2.177   6.054   3.221
 6354SOL    HW119961   2.221   6.014   3.301
 6354SOL    HW219962   2.101   6.113   3.251
 6355SOL     OW19963   1.159   5.316   6.222
 6355SOL    HW119964   1.135   5.222   6.197
 6355SOL    HW219965   1.089   5.354   6.283
 6356SOL     OW19966   3.662   4.900   2.293
 6356SOL    HW119967   3.685   4.960   2.216
 6356SOL    HW219968   3.723   4.822   2.294
 6357SOL     OW19969   5.128   3.139   2.386
 6357SOL    HW119970   5.031   3.162   2.389
 6357SOL    HW219971   5.165   3.138   2.479
 6358SOL     OW19972   1.280   2.056   6.255
 6358SOL    HW119973   1.258   2.126   6.324
 6358SOL    HW219974   1.376   2.066   6.227
 6359SOL     OW19975   6.174   6.873   5.728
 6359SOL    HW119976   6.155   6.950   5.666
 6359SOL    HW219977   6.225   6.803   5.678
 6360SOL     OW19978   1.551   4.085   3.779
 6360SOL    HW119979   1.526   4.089   3.876
 6360SOL    HW219980   1.505   4.008   3.736
 6361SOL     OW19981   6.121   0.434   0.466
 6361SOL    HW119982   6.068   0.496   0.408
 6361SOL    HW219983   6.154   0.485   0.546
 6362SOL     OW19984   0.007   6.015   0.576
 6362SOL    HW119985   7.018   5.917   0.559
 6362SOL    HW219986   7.003   6.067   0.496
 6363SOL     OW19987   2.145   4.061   3.346
 6363SOL    HW119988   2.203   4.133   3.385
 6363SOL    HW219989   2.084   4.102   3.278
 6364SOL     OW19990   3.137   1.504   5.903
 6364SOL    HW119991   3.059   1.450   5.935
 6364SOL    HW219992   3.109   1.560   5.825
 6365SOL     OW19993   5.568   0.084   4.151
 6365SOL    HW119994   5.563   0.091   4.251
 6365SOL    HW219995   5.577   7.012   4.126
 6366SOL     OW19996   0.987   5.409   6.405
 6366SOL    HW119997   1.063   5.451   6.454
 6366SOL    HW219998   0.911   5.474   6.401
 6367SOL     OW19999   3.990   6.965   4.445
 6367SOL    HW120000   3.899   6.942   4.410
 6367SOL    HW220001   4.049   6.885   4.436
 6368SOL     OW20002   3.265   5.949   3.458
 6368SOL    HW120003   3.312   6.030   3.493
 6368SOL    HW220004   3.274   5.874   3.524
 6369SOL     OW20005   1.944   4.447   4.277
 6369SOL    HW120006   2.011   4.392   4.327
 6369SOL    HW220007   1.992   4.505   4.210
 6370SOL     OW20008   0.483   3.681   2.378
 6370SOL    HW120009   0.517   3.772   2.401
 6370SOL    HW220010   0.455   3.679   2.283
 6371SOL     OW20011   5.225   3.595   4.248
 6371SOL    HW120012   5.245   3.498   4.260
 6371SOL    HW220013   5.153   3.607   4.181
 6372SOL     OW20014   3.615   0.140   2.058
 6372SOL    HW120015   3.524   0.123   2.021
 6372SOL    HW220016   3.681   0.144   1.984
 6373SOL     OW20017   5.596   4.479   3.558
 6373SOL    HW120018   5.559   4.540   3.628
 6373SOL    HW220019   5.654   4.531   3.496
 6374SOL     OW20020   3.291   3.783   4.638
 6374SOL    HW120021   3.199   3.752   4.661
 6374SOL    HW220022   3.295   3.804   4.540
 6375SOL     OW20023   0.001   1.549   4.389
 6375SOL    HW120024   6.962   1.603   4.335
 6375SOL    HW220025   0.002   1.455   4.354
 6376SOL     OW20026   6.155   2.613   5.276
 6376SOL    HW120027   6.150   2.563   5.190
 6376SOL    HW220028   6.146   2.549   5.353
 6377SOL     OW20029   6.207   1.786   5.660
 6377SOL    HW120030   6.162   1.809   5.574
 6377SOL    HW220031   6.253   1.867   5.696
 6378SOL     OW20032   5.020   5.391   3.654
 6378SOL    HW120033   5.077   5.463   3.613
 6378SOL    HW220034   4.991   5.328   3.583
 6379SOL     OW20035   2.329   4.286   4.096
 6379SOL    HW120036   2.274   4.207   4.071
 6379SOL    HW220037   2.289   4.331   4.176
 6380SOL     OW20038   0.891   1.480   6.430
 6380SOL    HW120039   0.870   1.386   6.403
 6380SOL    HW220040   0.814   1.518   6.481
 6381SOL     OW20041   4.149   3.263   1.816
 6381SOL    HW120042   4.235   3.224   1.783
 6381SOL    HW220043   4.086   3.273   1.739
 6382SOL     OW20044   0.904   2.210   0.576
 6382SOL    HW120045   0.854   2.196   0.661
 6382SOL    HW220046   0.839   2.224   0.501
 6383SOL     OW20047   1.918   2.025   3.100
 6383SOL    HW120048   1.923   2.104   3.040
 6383SOL    HW220049   1.915   1.941   3.045
 6384SOL     OW20050   5.454   4.436   1.261
 6384SOL    HW120051   5.515   4.369   1.219
 6384SOL    HW220052   5.360   4.417   1.233
 6385SOL     OW20053   0.069   5.357   3.934
 6385SOL    HW120054   0.109   5.309   3.856
 6385SOL    HW220055   0.073   5.298   4.015
 6386SOL     OW20056   2.172   4.762   6.622
 6386SOL    HW120057   2.229   4.715   6.555
 6386SOL    HW220058   2.228   4.823   6.678
 6387SOL     OW20059   1.045   1.721   6.485
 6387SOL    HW120060   1.028   1.623   6.476
 6387SOL    HW220061   1.141   1.740   6.462
 6388SOL     OW20062   4.392   4.725   1.195
 6388SOL    HW120063   4.359   4.815   1.224
 6388SOL    HW220064   4.356   4.656   1.257
 6389SOL     OW20065   1.191   6.411   2.843
 6389SOL    HW120066   1.221   6.443   2.932
 6389SOL    HW220067   1.124   6.475   2.805
 6390SOL     OW20068   0.823   1.667   4.830
 6390SOL    HW120069   0.729   1.640   4.808
 6390SOL    HW220070   0.861   1.719   4.753
 6391SOL     OW20071   2.744   6.792   5.642
 6391SOL    HW120072   2.667   6.819   5.699
 6391SOL    HW220073   2.730   6.824   5.548
 6392SOL     OW20074   2.337   6.989   3.605
 6392SOL    HW120075   2.261   6.925   3.614
 6392SOL    HW220076   2.357   7.004   3.508
 6393SOL     OW20077   5.901   7.023   1.345
 6393SOL    HW120078   5.868   0.013   1.438
 6393SOL    HW220079   5.885   6.928   1.318
 6394SOL     OW20080   2.109   4.744   0.866
 6394SOL    HW120081   2.083   4.837   0.892
 6394SOL    HW220082   2.208   4.740   0.851
 6395SOL     OW20083   6.295   2.912   2.154
 6395SOL    HW120084   6.212   2.861   2.130
 6395SOL    HW220085   6.368   2.848   2.177
 6396SOL     OW20086   5.161   3.281   6.342
 6396SOL    HW120087   5.168   3.295   6.441
 6396SOL    HW220088   5.219   3.348   6.295
 6397SOL     OW20089   5.730   2.683   6.225
 6397SOL    HW120090   5.776   2.600   6.192
 6397SOL    HW220091   5.634   2.679   6.197
 6398SOL     OW20092   3.433   0.886   0.909
 6398SOL    HW120093   3.368   0.833   0.854
 6398SOL    HW220094   3.401   0.980   0.919
 6399SOL     OW20095   1.236   5.329   6.920
 6399SOL    HW120096   1.229   5.245   6.975
 6399SOL    HW220097   1.247   5.304   6.823
 6400SOL     OW20098   2.309   6.541   2.502
 6400SOL    HW120099   2.320   6.453   2.455
 6400SOL    HW220100   2.289   6.524   2.599
 6401SOL     OW20101   0.694   4.732   3.624
 6401SOL    HW120102   0.671   4.830   3.625
 6401SOL    HW220103   0.774   4.718   3.566
 6402SOL     OW20104   4.328   1.036   2.812
 6402SOL    HW120105   4.285   1.122   2.841
 6402SOL    HW220106   4.282   0.959   2.857
 6403SOL     OW20107   7.018   6.328   6.689
 6403SOL    HW120108   6.957   6.342   6.767
 6403SOL    HW220109   0.013   6.415   6.645
 6404SOL     OW20110   4.003   1.336   2.796
 6404SOL    HW120111   4.020   1.314   2.700
 6404SOL    HW220112   3.905   1.345   2.811
 6405SOL     OW20113   2.420   0.519   3.496
 6405SOL    HW120114   2.342   0.467   3.462
 6405SOL    HW220115   2.465   0.469   3.570
 6406SOL     OW20116   1.534   2.518   3.769
 6406SOL    HW120117   1.445   2.476   3.779
 6406SOL    HW220118   1.582   2.517   3.857
 6407SOL     OW20119   3.018   6.994   3.815
 6407SOL    HW120120   3.081   6.992   3.892
 6407SOL    HW220121   2.936   0.019   3.840
 6408SOL     OW20122   6.177   2.266   0.321
 6408SOL    HW120123   6.224   2.256   0.409
 6408SOL    HW220124   6.078   2.260   0.336
 6409SOL     OW20125   0.542   4.678   3.210
 6409SOL    HW120126   0.557   4.767   3.254
 6409SOL    HW220127   0.546   4.606   3.279
 6410SOL     OW20128   2.087   1.463   0.530
 6410SOL    HW120129   2.167   1.403   0.541
 6410SOL    HW220130   2.100   1.546   0.583
 6411SOL     OW20131   0.359   2.703   3.351
 6411SOL    HW120132   0.341   2.800   3.363
 6411SOL    HW220133   0.311   2.650   3.421
 6412SOL     OW20134   0.480   2.845   5.202
 6412SOL    HW120135   0.539   2.792   5.141
 6412SOL    HW220136   0.387   2.849   5.163
 6413SOL     OW20137   4.274   4.669   3.032
 6413SOL    HW120138   4.324   4.638   3.113
 6413SOL    HW220139   4.335   4.721   2.972
 6414SOL     OW20140   5.965   0.724   1.234
 6414SOL    HW120141   5.893   0.694   1.297
 6414SOL    HW220142   5.978   0.823   1.244
 6415SOL     OW20143   1.851   2.514   3.034
 6415SOL    HW120144   1.803   2.533   3.119
 6415SOL    HW220145   1.877   2.600   2.989
 6416SOL     OW20146   1.103   1.031   6.308
 6416SOL    HW120147   1.182   1.056   6.364
 6416SOL    HW220148   1.119   1.059   6.213
 6417SOL     OW20149   6.682   4.332   1.830
 6417SOL    HW120150   6.583   4.320   1.828
 6417SOL    HW220151   6.721   4.284   1.908
 6418SOL     OW20152   4.866   4.605   1.556
 6418SOL    HW120153   4.929   4.680   1.574
 6418SOL    HW220154   4.882   4.569   1.464
 6419SOL     OW20155   2.439   4.431   2.742
 6419SOL    HW120156   2.431   4.351   2.801
 6419SOL    HW220157   2.448   4.401   2.647
 6420SOL     OW20158   2.924   3.860   5.468
 6420SOL    HW120159   2.971   3.774   5.491
 6420SOL    HW220160   2.955   3.932   5.530
 6421SOL     OW20161   5.734   1.281   2.308
 6421SOL    HW120162   5.637   1.294   2.285
 6421SOL    HW220163   5.770   1.363   2.351
 6422SOL     OW20164   0.118   0.228   4.429
 6422SOL    HW120165   0.216   0.210   4.428
 6422SOL    HW220166   0.100   0.318   4.389
 6423SOL     OW20167   4.752   4.904   2.543
 6423SOL    HW120168   4.755   4.871   2.449
 6423SOL    HW220169   4.713   4.996   2.545
 6424SOL     OW20170   6.407   5.941   5.267
 6424SOL    HW120171   6.404   6.018   5.330
 6424SOL    HW220172   6.479   5.956   5.200
 6425SOL     OW20173   6.418   5.844   3.281
 6425SOL    HW120174   6.370   5.759   3.258
 6425SOL    HW220175   6.439   5.895   3.197
 6426SOL     OW20176   0.680   4.937   3.297
 6426SOL    HW120177   0.755   4.937   3.362
 6426SOL    HW220178   0.608   4.998   3.330
 6427SOL     OW20179   2.336   3.209   6.024
 6427SOL    HW120180   2.272   3.143   6.063
 6427SOL    HW220181   2.341   3.289   6.084
 6428SOL     OW20182   6.650   2.864   6.765
 6428SOL    HW120183   6.651   2.910   6.676
 6428SOL    HW220184   6.696   2.922   6.832
 6429SOL     OW20185   0.870   1.778   5.691
 6429SOL    HW120186   0.805   1.787   5.615
 6429SOL    HW220187   0.831   1.822   5.772
 6430SOL     OW20188   5.308   0.997   2.193
 6430SOL    HW120189   5.315   1.002   2.094
 6430SOL    HW220190   5.213   1.009   2.221
 6431SOL     OW20191   5.576   6.618   3.607
 6431SOL    HW120192   5.540   6.532   3.642
 6431SOL    HW220193   5.666   6.602   3.566
 6432SOL     OW20194   4.455   3.816   6.839
 6432SOL    HW120195   4.508   3.859   6.766
 6432SOL    HW220196   4.384   3.758   6.800
 6433SOL     OW20197   3.622   4.491   0.610
 6433SOL    HW120198   3.606   4.407   0.559
 6433SOL    HW220199   3.585   4.482   0.703
 6434SOL     OW20200   1.838   3.564   0.417
 6434SOL    HW120201   1.888   3.646   0.389
 6434SOL    HW220202   1.759   3.590   0.473
 6435SOL     OW20203   4.060   6.227   6.967
 6435SOL    HW120204   4.153   6.217   6.931
 6435SOL    HW220205   3.994   6.201   6.897
 6436SOL     OW20206   2.222   3.059   3.272
 6436SOL    HW120207   2.153   3.029   3.338
 6436SOL    HW220208   2.205   3.154   3.246
 6437SOL     OW20209   2.509   1.055   1.022
 6437SOL    HW120210   2.560   0.970   1.008
 6437SOL    HW220211   2.556   1.111   1.090
 6438SOL     OW20212   0.665   4.663   6.516
 6438SOL    HW120213   0.688   4.701   6.605
 6438SOL    HW220214   0.593   4.595   6.527
 6439SOL     OW20215   6.350   0.764   1.390
 6439SOL    HW120216   6.400   0.831   1.444
 6439SOL    HW220217   6.271   0.731   1.442
 6440SOL     OW20218   2.234   1.914   0.822
 6440SOL    HW120219   2.282   1.911   0.910
 6440SOL    HW220220   2.216   1.820   0.791
 6441SOL     OW20221   1.257   6.643   2.307
 6441SOL    HW120222   1.189   6.631   2.235
 6441SOL    HW220223   1.219   6.701   2.379
 6442SOL     OW20224   2.783   1.030   3.851
 6442SOL    HW120225   2.855   1.089   3.888
 6442SOL    HW220226   2.773   1.047   3.753
 6443SOL     OW20227   4.145   2.511   6.229
 6443SOL    HW120228   4.087   2.557   6.161
 6443SOL    HW220229   4.227   2.476   6.184
 6444SOL     OW20230   0.073   2.591   3.740
 6444SOL    HW120231   0.092   2.690   3.742
 6444SOL    HW220232   0.148   2.542   3.786
 6445SOL     OW20233   4.873   3.066   5.802
 6445SOL    HW120234   4.926   3.077   5.886
 6445SOL    HW220235   4.789   3.119   5.808
 6446SOL     OW20236   1.009   0.588   6.179
 6446SOL    HW120237   1.005   0.633   6.090
 6446SOL    HW220238   1.099   0.604   6.220
 6447SOL     OW20239   0.127   5.614   2.750
 6447SOL    HW120240   0.153   5.519   2.768
 6447SOL    HW220241   0.210   5.670   2.739
 6448SOL     OW20242   4.910   4.923   2.970
 6448SOL    HW120243   4.811   4.940   2.974
 6448SOL    HW220244   4.927   4.825   2.977
 6449SOL     OW20245   2.792   4.552   0.213
 6449SOL    HW120246   2.739   4.609   0.149
 6449SOL    HW220247   2.733   4.525   0.289
 6450SOL     OW20248   0.098   3.770   1.229
 6450SOL    HW120249   0.019   3.826   1.253
 6450SOL    HW220250   0.095   3.684   1.279
 6451SOL     OW20251   2.527   6.661   5.343
 6451SOL    HW120252   2.489   6.754   5.340
 6451SOL    HW220253   2.485   6.610   5.418
 6452SOL     OW20254   3.406   6.310   4.551
 6452SOL    HW120255   3.465   6.355   4.485
 6452SOL    HW220256   3.418   6.211   4.544
 6453SOL     OW20257   1.204   6.863   0.540
 6453SOL    HW120258   1.109   6.830   0.538
 6453SOL    HW220259   1.222   6.907   0.628
 6454SOL     OW20260   3.295   1.722   3.308
 6454SOL    HW120261   3.383   1.726   3.261
 6454SOL    HW220262   3.258   1.630   3.303
 6455SOL     OW20263   0.145   2.151   4.031
 6455SOL    HW120264   0.124   2.061   4.071
 6455SOL    HW220265   0.060   2.194   4.001
 6456SOL     OW20266   1.763   0.781   3.769
 6456SOL    HW120267   1.774   0.868   3.817
 6456SOL    HW220268   1.825   0.778   3.690
 6457SOL     OW20269   4.887   1.501   0.834
 6457SOL    HW120270   4.915   1.426   0.894
 6457SOL    HW220271   4.931   1.586   0.862
 6458SOL     OW20272   0.859   0.225   3.245
 6458SOL    HW120273   0.905   0.147   3.289
 6458SOL    HW220274   0.859   0.212   3.146
 6459SOL     OW20275   5.856   5.098   0.487
 6459SOL    HW120276   5.839   5.193   0.459
 6459SOL    HW220277   5.933   5.096   0.551
 6460SOL     OW20278   4.667   5.200   5.646
 6460SOL    HW120279   4.659   5.235   5.740
 6460SOL    HW220280   4.750   5.145   5.638
 6461SOL     OW20281   2.711   4.900   5.128
 6461SOL    HW120282   2.617   4.905   5.161
 6461SOL    HW220283   2.739   4.805   5.121
 6462SOL     OW20284   2.331   2.706   5.093
 6462SOL    HW120285   2.238   2.680   5.121
 6462SOL    HW220286   2.333   2.803   5.071
 6463SOL     OW20287   1.009   3.872   6.786
 6463SOL    HW120288   0.983   3.776   6.796
 6463SOL    HW220289   0.959   3.912   6.710
 6464SOL     OW20290   0.973   5.438   4.709
 6464SOL    HW120291   0.970   5.525   4.758
 6464SOL    HW220292   1.021   5.370   4.764
 6465SOL     OW20293   6.306   2.399   3.699
 6465SOL    HW120294   6.380   2.401   3.632
 6465SOL    HW220295   6.302   2.486   3.747
 6466SOL     OW20296   1.093   1.337   6.616
 6466SOL    HW120297   1.030   1.397   6.568
 6466SOL    HW220298   1.186   1.374   6.609
 6467SOL     OW20299   3.001   0.779   0.101
 6467SOL    HW120300   3.016   0.875   0.124
 6467SOL    HW220301   3.046   0.758   0.014
 6468SOL     OW20302   4.346   6.680   1.780
 6468SOL    HW120303   4.333   6.759   1.719
 6468SOL    HW220304   4.257   6.642   1.805
 6469SOL     OW20305   4.298   0.993   5.583
 6469SOL    HW120306   4.393   1.021   5.569
 6469SOL    HW220307   4.267   1.022   5.673
 6470SOL     OW20308   6.222   5.507   6.793
 6470SOL    HW120309   6.163   5.445   6.742
 6470SOL    HW220310   6.193   5.601   6.777
 6471SOL     OW20311   6.529   6.462   5.765
 6471SOL    HW120312   6.477   6.546   5.783
 6471SOL    HW220313   6.575   6.433   5.849
 6472SOL     OW20314   0.564   4.331   1.506
 6472SOL    HW120315   0.493   4.379   1.557
 6472SOL    HW220316   0.554   4.232   1.520
 6473SOL     OW20317   2.250   1.509   4.351
 6473SOL    HW120318   2.236   1.528   4.448
 6473SOL    HW220319   2.179   1.554   4.298
 6474SOL     OW20320   2.036   3.671   6.005
 6474SOL    HW120321   2.059   3.725   5.924
 6474SOL    HW220322   2.057   3.575   5.987
 6475SOL     OW20323   0.068   5.448   4.459
 6475SOL    HW120324   0.012   5.365   4.461
 6475SOL    HW220325   0.022   5.520   4.512
 6476SOL     OW20326   4.738   3.500   1.186
 6476SOL    HW120327   4.689   3.584   1.164
 6476SOL    HW220328   4.680   3.442   1.244
 6477SOL     OW20329   0.015   5.161   1.174
 6477SOL    HW120330   6.970   5.209   1.227
 6477SOL    HW220331   6.999   5.124   1.090
 6478SOL     OW20332   3.816   5.807   2.474
 6478SOL    HW120333   3.820   5.708   2.469
 6478SOL    HW220334   3.875   5.839   2.548
 6479SOL     OW20335   3.963   5.501   3.400
 6479SOL    HW120336   4.019   5.451   3.333
 6479SOL    HW220337   3.998   5.482   3.492
 6480SOL     OW20338   3.100   2.089   5.754
 6480SOL    HW120339   3.061   2.106   5.844
 6480SOL    HW220340   3.074   2.163   5.691
 6481SOL     OW20341   3.272   2.118   2.444
 6481SOL    HW120342   3.207   2.119   2.520
 6481SOL    HW220343   3.348   2.180   2.465
 6482SOL     OW20344   0.369   0.709   6.240
 6482SOL    HW120345   0.347   0.777   6.170
 6482SOL    HW220346   0.457   0.731   6.281
 6483SOL     OW20347   2.137   6.161   1.761
 6483SOL    HW120348   2.120   6.140   1.857
 6483SOL    HW220349   2.212   6.226   1.754
 6484SOL     OW20350   4.030   0.855   2.481
 6484SOL    HW120351   3.979   0.883   2.399
 6484SOL    HW220352   4.121   0.825   2.454
 6485SOL     OW20353   1.880   3.638   3.011
 6485SOL    HW120354   1.828   3.553   3.001
 6485SOL    HW220355   1.953   3.640   2.943
 6486SOL     OW20356   1.791   4.320   4.614
 6486SOL    HW120357   1.885   4.351   4.624
 6486SOL    HW220358   1.770   4.308   4.516
 6487SOL     OW20359   6.612   5.842   5.425
 6487SOL    HW120360   6.551   5.872   5.352
 6487SOL    HW220361   6.704   5.827   5.388
 6488SOL     OW20362   2.988   5.890   5.468
 6488SOL    HW120363   3.017   5.979   5.432
 6488SOL    HW220364   2.925   5.903   5.545
 6489SOL     OW20365   2.625   3.488   6.417
 6489SOL    HW120366   2.670   3.401   6.441
 6489SOL    HW220367   2.550   3.471   6.354
 6490SOL     OW20368   4.155   1.838   6.423
 6490SOL    HW120369   4.077   1.824   6.484
 6490SOL    HW220370   4.224   1.895   6.468
 6491SOL     OW20371   3.946   1.217   6.853
 6491SOL    HW120372   3.973   1.164   6.773
 6491SOL    HW220373   3.918   1.155   6.926
 6492SOL     OW20374   5.503   5.850   0.159
 6492SOL    HW120375   5.496   5.903   0.075
 6492SOL    HW220376   5.550   5.764   0.140
 6493SOL     OW20377   1.422   5.672   4.465
 6493SOL    HW120378   1.337   5.660   4.413
 6493SOL    HW220379   1.409   5.742   4.535
 6494SOL     OW20380   0.627   1.186   3.151
 6494SOL    HW120381   0.606   1.103   3.202
 6494SOL    HW220382   0.630   1.166   3.053
 6495SOL     OW20383   4.544   6.001   4.360
 6495SOL    HW120384   4.600   5.952   4.427
 6495SOL    HW220385   4.598   6.018   4.278
 6496SOL     OW20386   0.163   0.124   1.850
 6496SOL    HW120387   0.120   0.034   1.837
 6496SOL    HW220388   0.114   0.174   1.921
 6497SOL     OW20389   2.794   3.705   6.993
 6497SOL    HW120390   2.827   3.792   6.957
 6497SOL    HW220391   2.732   3.663   6.927
 6498SOL     OW20392   2.176   4.236   3.656
 6498SOL    HW120393   2.244   4.271   3.721
 6498SOL    HW220394   2.136   4.152   3.692
 6499SOL     OW20395   5.539   2.252   5.126
 6499SOL    HW120396   5.580   2.334   5.087
 6499SOL    HW220397   5.451   2.275   5.169
 6500SOL     OW20398   6.692   4.832   4.047
 6500SOL    HW120399   6.779   4.783   4.053
 6500SOL    HW220400   6.623   4.773   4.003
 6501SOL     OW20401   6.390   2.887   6.459
 6501SOL    HW120402   6.371   2.965   6.518
 6501SOL    HW220403   6.423   2.919   6.371
 6502SOL     OW20404   6.263   3.946   2.047
 6502SOL    HW120405   6.173   3.983   2.022
 6502SOL    HW220406   6.300   3.894   1.971
 6503SOL     OW20407   5.320   0.279   3.879
 6503SOL    HW120408   5.254   0.309   3.810
 6503SOL    HW220409   5.376   0.356   3.909
 6504SOL     OW20410   5.213   6.567   6.274
 6504SOL    HW120411   5.187   6.642   6.213
 6504SOL    HW220412   5.228   6.484   6.220
 6505SOL     OW20413   5.270   5.037   1.514
 6505SOL    HW120414   5.320   5.024   1.429
 6505SOL    HW220415   5.295   4.966   1.579
 6506SOL     OW20416   6.389   3.460   1.736
 6506SOL    HW120417   6.341   3.509   1.809
 6506SOL    HW220418   6.486   3.453   1.759
 6507SOL     OW20419   1.376   5.544   5.698
 6507SOL    HW120420   1.404   5.576   5.608
 6507SOL    HW220421   1.455   5.509   5.748
 6508SOL     OW20422   2.711   1.031   3.565
 6508SOL    HW120423   2.754   1.036   3.475
 6508SOL    HW220424   2.655   1.112   3.580
 6509SOL     OW20425   2.692   2.122   4.024
 6509SOL    HW120426   2.711   2.025   4.015
 6509SOL    HW220427   2.708   2.167   3.936
 6510SOL     OW20428   6.658   4.373   6.806
 6510SOL    HW120429   6.651   4.284   6.760
 6510SOL    HW220430   6.755   4.394   6.821
 6511SOL     OW20431   4.948   0.861   5.122
 6511SOL    HW120432   5.048   0.867   5.114
 6511SOL    HW220433   4.914   0.938   5.176
 6512SOL     OW20434   4.928   0.227   1.727
 6512SOL    HW120435   4.872   0.214   1.809
 6512SOL    HW220436   4.963   0.321   1.725
 6513SOL     OW20437   3.369   5.208   3.036
 6513SOL    HW120438   3.313   5.284   3.069
 6513SOL    HW220439   3.343   5.187   2.941
 6514SOL     OW20440   5.929   0.020   3.392
 6514SOL    HW120441   5.843   0.003   3.441
 6514SOL    HW220442   5.937   0.117   3.373
 6515SOL     OW20443   0.694   4.905   4.019
 6515SOL    HW120444   0.657   4.982   4.071
 6515SOL    HW220445   0.783   4.930   3.981
 6516SOL     OW20446   0.507   3.335   1.303
 6516SOL    HW120447   0.605   3.322   1.292
 6516SOL    HW220448   0.462   3.335   1.213
 6517SOL     OW20449   6.662   1.360   0.787
 6517SOL    HW120450   6.674   1.453   0.751
 6517SOL    HW220451   6.626   1.366   0.880
 6518SOL     OW20452   0.137   0.285   0.041
 6518SOL    HW120453   0.196   0.268   0.119
 6518SOL    HW220454   0.124   0.200   7.014
 6519SOL     OW20455   2.509   1.514   3.566
 6519SOL    HW120456   2.564   1.450   3.620
 6519SOL    HW220457   2.482   1.591   3.623
 6520SOL     OW20458   5.462   5.634   2.344
 6520SOL    HW120459   5.375   5.594   2.315
 6520SOL    HW220460   5.474   5.620   2.443
 6521SOL     OW20461   1.444   2.212   4.322
 6521SOL    HW120462   1.354   2.169   4.335
 6521SOL    HW220463   1.451   2.243   4.227
 6522SOL     OW20464   3.459   4.347   6.836
 6522SOL    HW120465   3.511   4.320   6.754
 6522SOL    HW220466   3.458   4.447   6.844
 6523SOL     OW20467   3.160   0.710   6.912
 6523SOL    HW120468   3.256   0.703   6.941
 6523SOL    HW220469   3.139   0.637   6.847
 6524SOL     OW20470   2.952   3.235   2.335
 6524SOL    HW120471   3.014   3.207   2.262
 6524SOL    HW220472   2.858   3.233   2.300
 6525SOL     OW20473   1.617   3.265   2.739
 6525SOL    HW120474   1.678   3.332   2.698
 6525SOL    HW220475   1.543   3.243   2.675
 6526SOL     OW20476   2.350   0.058   5.846
 6526SOL    HW120477   2.252   0.056   5.865
 6526SOL    HW220478   2.366   0.104   5.758
 6527SOL     OW20479   0.595   1.541   4.506
 6527SOL    HW120480   0.538   1.550   4.424
 6527SOL    HW220481   0.691   1.547   4.480
 6528SOL     OW20482   0.048   0.933   3.686
 6528SOL    HW120483   0.116   0.904   3.753
 6528SOL    HW220484   6.990   0.879   3.698
 6529SOL     OW20485   6.799   1.588   3.424
 6529SOL    HW120486   6.783   1.597   3.326
 6529SOL    HW220487   6.766   1.498   3.455
 6530SOL     OW20488   6.689   3.436   1.734
 6530SOL    HW120489   6.747   3.516   1.754
 6530SOL    HW220490   6.712   3.362   1.798
 6531SOL     OW20491   5.536   3.910   4.856
 6531SOL    HW120492   5.582   3.870   4.935
 6531SOL    HW220493   5.553   4.008   4.853
 6532SOL     OW20494   6.404   0.758   7.000
 6532SOL    HW120495   6.379   0.756   0.072
 6532SOL    HW220496   6.363   0.680   6.954
 6533SOL     OW20497   4.620   6.051   1.293
 6533SOL    HW120498   4.545   6.067   1.357
 6533SOL    HW220499   4.674   5.973   1.324
 6534SOL     OW20500   3.219   4.411   1.501
 6534SOL    HW120501   3.135   4.358   1.488
 6534SOL    HW220502   3.270   4.415   1.415
 6535SOL     OW20503   0.030   3.306   4.080
 6535SOL    HW120504   7.016   3.367   4.010
 6535SOL    HW220505   7.010   3.325   4.168
 6536SOL     OW20506   0.495   2.722   5.448
 6536SOL    HW120507   0.562   2.650   5.430
 6536SOL    HW220508   0.464   2.761   5.361
 6537SOL     OW20509   5.584   5.549   0.154
 6537SOL    HW120510   5.578   5.573   0.057
 6537SOL    HW220511   5.633   5.463   0.164
 6538SOL     OW20512   3.535   4.382   0.105
 6538SOL    HW120513   3.538   4.437   0.021
 6538SOL    HW220514   3.440   4.371   0.134
 6539SOL     OW20515   3.144   1.054   6.409
 6539SOL    HW120516   3.187   1.116   6.344
 6539SOL    HW220517   3.119   0.969   6.363
 6540SOL     OW20518   4.749   1.663   5.406
 6540SOL    HW120519   4.773   1.647   5.310
 6540SOL    HW220520   4.826   1.708   5.452
 6541SOL     OW20521   4.026   1.745   5.286
 6541SOL    HW120522   3.997   1.818   5.348
 6541SOL    HW220523   3.998   1.657   5.322
 6542SOL     OW20524   6.845   5.037   3.817
 6542SOL    HW120525   6.852   4.937   3.817
 6542SOL    HW220526   6.821   5.069   3.908
 6543SOL     OW20527   6.339   3.960   6.908
 6543SOL    HW120528   6.311   3.956   7.004
 6543SOL    HW220529   6.291   4.035   6.863
 6544SOL     OW20530   0.094   6.182   2.830
 6544SOL    HW120531   0.138   6.158   2.744
 6544SOL    HW220532   0.067   6.279   2.828
 6545SOL     OW20533   5.451   2.112   6.778
 6545SOL    HW120534   5.402   2.143   6.859
 6545SOL    HW220535   5.404   2.031   6.740
 6546SOL     OW20536   4.481   4.172   6.556
 6546SOL    HW120537   4.431   4.246   6.602
 6546SOL    HW220538   4.499   4.198   6.461
 6547SOL     OW20539   4.809   1.586   5.896
 6547SOL    HW120540   4.764   1.627   5.817
 6547SOL    HW220541   4.857   1.656   5.948
 6548SOL     OW20542   0.815   3.323   6.988
 6548SOL    HW120543   0.895   3.275   6.951
 6548SOL    HW220544   0.800   3.294   0.058
 6549SOL     OW20545   4.183   1.152   0.672
 6549SOL    HW120546   4.133   1.207   0.605
 6549SOL    HW220547   4.170   1.191   0.763
 6550SOL     OW20548   0.110   6.609   3.572
 6550SOL    HW120549   0.161   6.689   3.603
 6550SOL    HW220550   0.012   6.627   3.578
 6551SOL     OW20551   1.946   4.337   1.875
 6551SOL    HW120552   1.994   4.312   1.791
 6551SOL    HW220553   1.982   4.424   1.910
 6552SOL     OW20554   2.243   7.000   5.206
 6552SOL    HW120555   2.300   6.946   5.267
 6552SOL    HW220556   2.147   6.983   5.226
 6553SOL     OW20557   0.539   1.708   2.647
 6553SOL    HW120558   0.539   1.683   2.550
 6553SOL    HW220559   0.628   1.686   2.687
 6554SOL     OW20560   6.451   1.697   5.443
 6554SOL    HW120561   6.454   1.778   5.502
 6554SOL    HW220562   6.437   1.616   5.500
 6555SOL     OW20563   1.214   2.293   1.618
 6555SOL    HW120564   1.160   2.327   1.695
 6555SOL    HW220565   1.251   2.202   1.640
 6556SOL     OW20566   4.531   4.794   5.068
 6556SOL    HW120567   4.476   4.864   5.114
 6556SOL    HW220568   4.520   4.803   4.969
 6557SOL     OW20569   4.408   5.395   1.365
 6557SOL    HW120570   4.483   5.371   1.304
 6557SOL    HW220571   4.382   5.491   1.350
 6558SOL     OW20572   6.492   5.640   0.524
 6558SOL    HW120573   6.575   5.696   0.529
 6558SOL    HW220574   6.438   5.668   0.444
 6559SOL     OW20575   6.950   3.900   0.003
 6559SOL    HW120576   6.959   3.940   6.936
 6559SOL    HW220577   6.853   3.889   0.025
 6560SOL     OW20578   3.648   3.476   0.815
 6560SOL    HW120579   3.613   3.569   0.816
 6560SOL    HW220580   3.686   3.456   0.724
 6561SOL     OW20581   3.629   3.843   2.248
 6561SOL    HW120582   3.584   3.854   2.337
 6561SOL    HW220583   3.586   3.904   2.182
 6562SOL     OW20584   5.884   4.878   6.738
 6562SOL    HW120585   5.850   4.922   6.655
 6562SOL    HW220586   5.975   4.915   6.759
 6563SOL     OW20587   0.378   6.256   0.078
 6563SOL    HW120588   0.457   6.211   0.035
 6563SOL    HW220589   0.341   6.196   0.149
 6564SOL     OW20590   6.715   4.174   2.623
 6564SOL    HW120591   6.742   4.269   2.635
 6564SOL    HW220592   6.756   4.118   2.694
 6565SOL     OW20593   6.035   2.542   4.198
 6565SOL    HW120594   5.976   2.599   4.254
 6565SOL    HW220595   6.041   2.581   4.106
 6566SOL     OW20596   3.198   0.149   1.467
 6566SOL    HW120597   3.112   0.105   1.441
 6566SOL    HW220598   3.261   0.150   1.389
 6567SOL     OW20599   4.197   2.436   1.414
 6567SOL    HW120600   4.206   2.392   1.503
 6567SOL    HW220601   4.270   2.405   1.353
 6568SOL     OW20602   5.022   6.251   3.007
 6568SOL    HW120603   5.063   6.305   3.081
 6568SOL    HW220604   4.943   6.200   3.043
 6569SOL     OW20605   3.475   3.980   0.578
 6569SOL    HW120606   3.423   3.944   0.500
 6569SOL    HW220607   3.420   3.972   0.661
 6570SOL     OW20608   4.735   6.659   1.697
 6570SOL    HW120609   4.807   6.632   1.761
 6570SOL    HW220610   4.684   6.578   1.668
 6571SOL     OW20611   3.057   6.273   1.978
 6571SOL    HW120612   3.048   6.346   2.045
 6571SOL    HW220613   3.154   6.248   1.969
 6572SOL     OW20614   6.617   5.424   5.626
 6572SOL    HW120615   6.580   5.517   5.628
 6572SOL    HW220616   6.559   5.366   5.570
 6573SOL     OW20617   2.650   0.754   3.137
 6573SOL    HW120618   2.583   0.732   3.207
 6573SOL    HW220619   2.712   0.824   3.171
 6574SOL     OW20620   2.858   6.074   2.076
 6574SOL    HW120621   2.900   6.147   2.022
 6574SOL    HW220622   2.891   5.985   2.044
 6575SOL     OW20623   0.964   1.387   1.850
 6575SOL    HW120624   0.915   1.301   1.841
 6575SOL    HW220625   0.982   1.425   1.759
 6576SOL     OW20626   1.324   6.657   6.824
 6576SOL    HW120627   1.356   6.630   6.915
 6576SOL    HW220628   1.396   6.707   6.776
 6577SOL     OW20629   0.284   2.050   3.368
 6577SOL    HW120630   0.314   1.982   3.301
 6577SOL    HW220631   0.188   2.072   3.353
 6578SOL     OW20632   0.370   4.370   2.629
 6578SOL    HW120633   0.372   4.470   2.617
 6578SOL    HW220634   0.366   4.326   2.539
 6579SOL     OW20635   0.145   4.005   4.513
 6579SOL    HW120636   0.160   4.046   4.423
 6579SOL    HW220637   0.214   4.040   4.577
 6580SOL     OW20638   0.021   1.136   1.498
 6580SOL    HW120639   6.956   1.096   1.480
 6580SOL    HW220640   0.061   1.093   1.579
 6581SOL     OW20641   3.287   1.475   6.736
 6581SOL    HW120642   3.303   1.574   6.730
 6581SOL    HW220643   3.326   1.431   6.655
 6582SOL     OW20644   1.846   0.688   2.277
 6582SOL    HW120645   1.910   0.612   2.266
 6582SOL    HW220646   1.877   0.747   2.351
 6583SOL     OW20647   4.390   0.274   5.435
 6583SOL    HW120648   4.299   0.296   5.471
 6583SOL    HW220649   4.425   0.352   5.383
 6584SOL     OW20650   5.320   1.794   0.035
 6584SOL    HW120651   5.231   1.830   0.007
 6584SOL    HW220652   5.347   1.721   6.998
 6585SOL     OW20653   6.953   1.019   0.463
 6585SOL    HW120654   6.898   1.053   0.539
 6585SOL    HW220655   6.917   1.056   0.376
 6586SOL     OW20656   6.406   2.659   6.061
 6586SOL    HW120657   6.399   2.635   6.157
 6586SOL    HW220658   6.400   2.758   6.051
 6587SOL     OW20659   2.718   5.596   4.709
 6587SOL    HW120660   2.733   5.660   4.634
 6587SOL    HW220661   2.621   5.597   4.735
 6588SOL     OW20662   1.968   3.843   1.653
 6588SOL    HW120663   1.893   3.865   1.589
 6588SOL    HW220664   2.029   3.776   1.611
 6589SOL     OW20665   4.918   0.299   6.401
 6589SOL    HW120666   5.012   0.291   6.432
 6589SOL    HW220667   4.887   0.393   6.410
 6590SOL     OW20668   0.817   1.281   5.896
 6590SOL    HW120669   0.856   1.354   5.840
 6590SOL    HW220670   0.876   1.262   5.974
 6591SOL     OW20671   5.031   6.127   2.685
 6591SOL    HW120672   5.043   6.109   2.587
 6591SOL    HW220673   4.957   6.192   2.698
 6592SOL     OW20674   5.969   6.754   3.967
 6592SOL    HW120675   5.963   6.789   3.874
 6592SOL    HW220676   5.882   6.712   3.992
 6593SOL     OW20677   2.267   1.801   3.573
 6593SOL    HW120678   2.336   1.770   3.638
 6593SOL    HW220679   2.187   1.741   3.578
 6594SOL     OW20680   4.041   1.557   0.363
 6594SOL    HW120681   4.047   1.500   0.444
 6594SOL    HW220682   4.007   1.648   0.388
 6595SOL     OW20683   0.756   3.470   0.949
 6595SOL    HW120684   0.835   3.439   1.001
 6595SOL    HW220685   0.787   3.513   0.864
 6596SOL     OW20686   3.388   6.801   4.599
 6596SOL    HW120687   3.308   6.747   4.575
 6596SOL    HW220688   3.378   6.894   4.564
 6597SOL     OW20689   1.500   6.506   3.229
 6597SOL    HW120690   1.589   6.552   3.237
 6597SOL    HW220691   1.503   6.443   3.151
 6598SOL     OW20692   0.555   7.023   4.250
 6598SOL    HW120693   0.546   6.952   4.320
 6598SOL    HW220694   0.651   0.006   4.222
 6599SOL     OW20695   3.220   5.772   5.567
 6599SOL    HW120696   3.301   5.827   5.587
 6599SOL    HW220697   3.156   5.826   5.512
 6600SOL     OW20698   4.739   4.969   5.965
 6600SOL    HW120699   4.789   4.980   6.051
 6600SOL    HW220700   4.789   5.014   5.892
 6601SOL     OW20701   0.679   1.144   6.817
 6601SOL    HW120702   0.764   1.117   6.772
 6601SOL    HW220703   0.688   1.237   6.852
 6602SOL     OW20704   6.776   1.152   2.063
 6602SOL    HW120705   6.740   1.225   2.121
 6602SOL    HW220706   6.876   1.160   2.057
 6603SOL     OW20707   0.858   2.811   4.057
 6603SOL    HW120708   0.879   2.842   4.150
 6603SOL    HW220709   0.813   2.884   4.006
 6604SOL     OW20710   2.197   6.534   0.836
 6604SOL    HW120711   2.196   6.463   0.906
 6604SOL    HW220712   2.120   6.519   0.773
 6605SOL     OW20713   5.809   4.503   0.574
 6605SOL    HW120714   5.731   4.563   0.589
 6605SOL    HW220715   5.881   4.553   0.525
 6606SOL     OW20716   5.493   0.280   2.514
 6606SOL    HW120717   5.440   0.338   2.451
 6606SOL    HW220718   5.483   0.314   2.607
 6607SOL     OW20719   1.570   2.420   1.364
 6607SOL    HW120720   1.582   2.322   1.380
 6607SOL    HW220721   1.659   2.464   1.354
 6608SOL     OW20722   4.877   6.110   1.907
 6608SOL    HW120723   4.966   6.103   1.861
 6608SOL    HW220724   4.830   6.192   1.875
 6609SOL     OW20725   4.413   0.830   5.948
 6609SOL    HW120726   4.382   0.761   6.014
 6609SOL    HW220727   4.424   0.918   5.994
 6610SOL     OW20728   2.483   1.060   6.272
 6610SOL    HW120729   2.430   0.975   6.281
 6610SOL    HW220730   2.560   1.044   6.210
 6611SOL     OW20731   6.331   2.841   3.291
 6611SOL    HW120732   6.332   2.932   3.249
 6611SOL    HW220733   6.253   2.789   3.256
 6612SOL     OW20734   0.254   2.716   6.981
 6612SOL    HW120735   0.157   2.698   6.999
 6612SOL    HW220736   0.277   2.690   6.887
 6613SOL     OW20737   5.611   6.068   4.469
 6613SOL    HW120738   5.683   6.000   4.458
 6613SOL    HW220739   5.546   6.061   4.393
 6614SOL     OW20740   5.497   6.249   0.086
 6614SOL    HW120741   5.415   6.256   0.029
 6614SOL    HW220742   5.571   6.208   0.033
 6615SOL     OW20743   0.992   4.449   3.802
 6615SOL    HW120744   0.936   4.483   3.877
 6615SOL    HW220745   0.939   4.383   3.749
 6616SOL     OW20746   4.256   1.114   6.392
 6616SOL    HW120747   4.206   1.029   6.376
 6616SOL    HW220748   4.354   1.095   6.399
 6617SOL     OW20749   2.890   5.954   3.143
 6617SOL    HW120750   2.979   5.925   3.108
 6617SOL    HW220751   2.820   5.939   3.074
 6618SOL     OW20752   1.295   3.200   3.132
 6618SOL    HW120753   1.374   3.206   3.070
 6618SOL    HW220754   1.291   3.283   3.188
 6619SOL     OW20755   6.790   6.723   4.476
 6619SOL    HW120756   6.850   6.707   4.398
 6619SOL    HW220757   6.845   6.748   4.556
 6620SOL     OW20758   2.637   2.760   5.334
 6620SOL    HW120759   2.537   2.755   5.333
 6620SOL    HW220760   2.671   2.765   5.239
 6621SOL     OW20761   2.223   3.309   6.806
 6621SOL    HW120762   2.314   3.312   6.765
 6621SOL    HW220763   2.175   3.227   6.773
 6622SOL     OW20764   5.804   5.921   1.534
 6622SOL    HW120765   5.760   5.890   1.450
 6622SOL    HW220766   5.842   6.013   1.520
 6623SOL     OW20767   2.752   3.646   0.985
 6623SOL    HW120768   2.828   3.631   1.048
 6623SOL    HW220769   2.688   3.712   1.026
 6624SOL     OW20770   1.600   0.627   4.531
 6624SOL    HW120771   1.515   0.601   4.576
 6624SOL    HW220772   1.609   0.578   4.445
 6625SOL     OW20773   5.150   1.920   5.971
 6625SOL    HW120774   5.249   1.910   5.979
 6625SOL    HW220775   5.129   2.010   5.935
 6626SOL     OW20776   3.972   4.779   5.129
 6626SOL    HW120777   3.934   4.862   5.170
 6626SOL    HW220778   3.932   4.765   5.038
 6627SOL     OW20779   2.352   0.755   5.811
 6627SOL    HW120780   2.374   0.660   5.834
 6627SOL    HW220781   2.253   0.768   5.817
 6628SOL     OW20782   4.756   4.907   4.172
 6628SOL    HW120783   4.759   5.002   4.201
 6628SOL    HW220784   4.767   4.847   4.252
 6629SOL     OW20785   2.579   5.813   6.686
 6629SOL    HW120786   2.566   5.739   6.752
 6629SOL    HW220787   2.517   5.888   6.708
 6630SOL     OW20788   3.122   1.462   1.644
 6630SOL    HW120789   3.167   1.436   1.559
 6630SOL    HW220790   3.093   1.379   1.692
 6631SOL     OW20791   3.957   0.229   2.286
 6631SOL    HW120792   3.859   0.232   2.270
 6631SOL    HW220793   4.002   0.305   2.239
 6632SOL     OW20794   0.715   0.369   1.916
 6632SOL    HW120795   0.625   0.349   1.954
 6632SOL    HW220796   0.723   0.468   1.898
 6633SOL     OW20797   1.183   4.322   5.565
 6633SOL    HW120798   1.178   4.338   5.467
 6633SOL    HW220799   1.278   4.329   5.595
 6634SOL     OW20800   5.810   2.998   5.027
 6634SOL    HW120801   5.852   2.909   5.044
 6634SOL    HW220802   5.878   3.070   5.035
 6635SOL     OW20803   3.969   5.232   3.601
 6635SOL    HW120804   4.058   5.244   3.644
 6635SOL    HW220805   3.979   5.180   3.516
 6636SOL     OW20806   3.636   1.884   6.109
 6636SOL    HW120807   3.591   1.798   6.133
 6636SOL    HW220808   3.622   1.951   6.181
 6637SOL     OW20809   1.787   0.274   5.929
 6637SOL    HW120810   1.744   0.186   5.905
 6637SOL    HW220811   1.720   0.331   5.975
 6638SOL     OW20812   3.585   4.296   5.201
 6638SOL    HW120813   3.522   4.373   5.216
 6638SOL    HW220814   3.674   4.330   5.171
 6639SOL     OW20815   5.544   5.440   0.414
 6639SOL    HW120816   5.496   5.458   0.500
 6639SOL    HW220817   5.514   5.505   0.345
 6640SOL     OW20818   0.267   2.026   5.071
 6640SOL    HW120819   0.353   1.975   5.065
 6640SOL    HW220820   0.193   1.970   5.033
 6641SOL     OW20821   2.326   2.233   6.919
 6641SOL    HW120822   2.349   2.327   6.944
 6641SOL    HW220823   2.250   2.201   6.975
 6642SOL     OW20824   2.664   5.638   0.298
 6642SOL    HW120825   2.648   5.717   0.358
 6642SOL    HW220826   2.657   5.554   0.352
 6643SOL     OW20827   6.755   5.060   6.751
 6643SOL    HW120828   6.772   5.102   6.840
 6643SOL    HW220829   6.674   5.002   6.756
 6644SOL     OW20830   2.800   4.658   1.664
 6644SOL    HW120831   2.802   4.589   1.591
 6644SOL    HW220832   2.810   4.612   1.753
 6645SOL     OW20833   0.009   4.962   0.110
 6645SOL    HW120834   0.069   4.920   0.042
 6645SOL    HW220835   0.063   5.019   0.172
 6646SOL     OW20836   3.736   6.930   4.375
 6646SOL    HW120837   3.678   6.998   4.419
 6646SOL    HW220838   3.704   6.838   4.398
 6647SOL     OW20839   3.923   0.914   2.218
 6647SOL    HW120840   3.997   0.878   2.160
 6647SOL    HW220841   3.927   1.014   2.219
 6648SOL     OW20842   3.474   5.667   2.344
 6648SOL    HW120843   3.496   5.695   2.437
 6648SOL    HW220844   3.475   5.746   2.284
 6649SOL     OW20845   4.906   1.522   0.201
 6649SOL    HW120846   4.897   1.613   0.242
 6649SOL    HW220847   4.870   1.454   0.265
 6650SOL     OW20848   3.777   1.166   5.231
 6650SOL    HW120849   3.813   1.153   5.324
 6650SOL    HW220850   3.677   1.161   5.234
 6651SOL     OW20851   1.986   1.508   6.971
 6651SOL    HW120852   1.926   1.563   0.004
 6651SOL    HW220853   2.074   1.554   6.960
 6652SOL     OW20854   6.916   5.258   0.386
 6652SOL    HW120855   6.906   5.201   0.305
 6652SOL    HW220856   6.861   5.341   0.376
 6653SOL     OW20857   3.178   3.301   2.138
 6653SOL    HW120858   3.163   3.261   2.047
 6653SOL    HW220859   3.255   3.255   2.182
 6654SOL     OW20860   1.645   3.150   0.985
 6654SOL    HW120861   1.663   3.059   1.023
 6654SOL    HW220862   1.548   3.156   0.961
 6655SOL     OW20863   3.410   6.687   1.422
 6655SOL    HW120864   3.428   6.779   1.458
 6655SOL    HW220865   3.437   6.682   1.326
 6656SOL     OW20866   6.306   1.854   2.296
 6656SOL    HW120867   6.311   1.754   2.298
 6656SOL    HW220868   6.329   1.890   2.387
 6657SOL     OW20869   5.285   6.041   6.390
 6657SOL    HW120870   5.359   6.099   6.355
 6657SOL    HW220871   5.246   6.083   6.472
 6658SOL     OW20872   5.867   1.707   4.832
 6658SOL    HW120873   5.881   1.664   4.743
 6658SOL    HW220874   5.946   1.764   4.854
 6659SOL     OW20875   2.174   2.255   0.807
 6659SOL    HW120876   2.233   2.242   0.727
 6659SOL    HW220877   2.118   2.173   0.821
 6660SOL     OW20878   0.656   6.097   1.161
 6660SOL    HW120879   0.739   6.042   1.166
 6660SOL    HW220880   0.577   6.038   1.144
 6661SOL     OW20881   0.603   6.151   3.462
 6661SOL    HW120882   0.658   6.087   3.408
 6661SOL    HW220883   0.555   6.214   3.401
 6662SOL     OW20884   1.254   0.743   6.786
 6662SOL    HW120885   1.307   0.673   6.834
 6662SOL    HW220886   1.235   0.819   6.848
 6663SOL     OW20887   0.110   5.346   2.846
 6663SOL    HW120888   0.063   5.298   2.772
 6663SOL    HW220889   0.046   5.367   2.919
 6664SOL     OW20890   1.700   7.005   0.732
 6664SOL    HW120891   1.785   0.033   0.725
 6664SOL    HW220892   1.676   6.992   0.828
 6665SOL     OW20893   1.773   0.015   3.560
 6665SOL    HW120894   1.806   6.969   3.498
 6665SOL    HW220895   1.796   7.014   3.654
 6666SOL     OW20896   5.877   0.824   6.382
 6666SOL    HW120897   5.812   0.850   6.311
 6666SOL    HW220898   5.836   0.839   6.472
 6667SOL     OW20899   0.072   4.978   5.506
 6667SOL    HW120900   0.168   4.986   5.533
 6667SOL    HW220901   0.044   5.063   5.461
 6668SOL     OW20902   5.959   5.865   2.001
 6668SOL    HW120903   5.908   5.889   1.918
 6668SOL    HW220904   5.981   5.768   2.000
 6669SOL     OW20905   2.318   2.829   3.679
 6669SOL    HW120906   2.354   2.804   3.769
 6669SOL    HW220907   2.246   2.898   3.690
 6670SOL     OW20908   3.640   2.511   5.643
 6670SOL    HW120909   3.594   2.428   5.675
 6670SOL    HW220910   3.581   2.560   5.580
 6671SOL     OW20911   5.018   5.689   1.252
 6671SOL    HW120912   5.083   5.643   1.313
 6671SOL    HW220913   5.063   5.710   1.166
 6672SOL     OW20914   0.919   1.943   5.341
 6672SOL    HW120915   0.837   1.903   5.301
 6672SOL    HW220916   0.997   1.882   5.328
 6673SOL     OW20917   5.397   6.249   3.288
 6673SOL    HW120918   5.401   6.286   3.381
 6673SOL    HW220919   5.321   6.292   3.239
 6674SOL     OW20920   0.417   4.937   5.935
 6674SOL    HW120921   0.506   4.982   5.932
 6674SOL    HW220922   0.418   4.864   6.004
 6675SOL     OW20923   4.300   4.255   1.660
 6675SOL    HW120924   4.205   4.227   1.671
 6675SOL    HW220925   4.357   4.207   1.726
 6676SOL     OW20926   0.798   4.433   5.454
 6676SOL    HW120927   0.710   4.431   5.501
 6676SOL    HW220928   0.784   4.409   5.358
 6677SOL     OW20929   0.957   2.224   6.768
 6677SOL    HW120930   0.991   2.318   6.765
 6677SOL    HW220931   0.886   2.217   6.838
 6678SOL     OW20932   2.339   2.556   0.410
 6678SOL    HW120933   2.411   2.502   0.454
 6678SOL    HW220934   2.346   2.652   0.439
 6679SOL     OW20935   2.706   1.548   4.272
 6679SOL    HW120936   2.763   1.630   4.272
 6679SOL    HW220937   2.620   1.566   4.223
 6680SOL     OW20938   4.569   6.530   6.608
 6680SOL    HW120939   4.563   6.621   6.566
 6680SOL    HW220940   4.481   6.483   6.600
 6681SOL     OW20941   4.947   4.908   0.276
 6681SOL    HW120942   4.949   4.983   0.210
 6681SOL    HW220943   5.041   4.879   0.294
 6682SOL     OW20944   1.545   4.460   2.447
 6682SOL    HW120945   1.503   4.536   2.396
 6682SOL    HW220946   1.473   4.409   2.494
 6683SOL     OW20947   4.812   2.642   5.753
 6683SOL    HW120948   4.788   2.715   5.689
 6683SOL    HW220949   4.863   2.571   5.705
 6684SOL     OW20950   2.141   6.764   0.642
 6684SOL    HW120951   2.110   6.669   0.642
 6684SOL    HW220952   2.164   6.792   0.549
 6685SOL     OW20953   5.652   3.262   5.293
 6685SOL    HW120954   5.563   3.301   5.268
 6685SOL    HW220955   5.658   3.168   5.258
 6686SOL     OW20956   5.014   5.958   3.975
 6686SOL    HW120957   4.997   5.883   3.911
 6686SOL    HW220958   5.097   5.939   4.027
 6687SOL     OW20959   0.188   2.235   1.362
 6687SOL    HW120960   0.281   2.200   1.377
 6687SOL    HW220961   0.124   2.158   1.362
 6688SOL     OW20962   6.581   3.995   2.014
 6688SOL    HW120963   6.657   4.058   1.997
 6688SOL    HW220964   6.577   3.974   2.112
 6689SOL     OW20965   4.318   3.168   0.373
 6689SOL    HW120966   4.392   3.101   0.372
 6689SOL    HW220967   4.282   3.180   0.281
 6690SOL     OW20968   2.055   0.979   2.051
 6690SOL    HW120969   2.077   0.986   1.954
 6690SOL    HW220970   2.139   0.984   2.105
 6691SOL     OW20971   3.047   6.274   1.669
 6691SOL    HW120972   2.972   6.276   1.735
 6691SOL    HW220973   3.134   6.293   1.715
 6692SOL     OW20974   2.789   4.565   5.466
 6692SOL    HW120975   2.738   4.488   5.503
 6692SOL    HW220976   2.862   4.531   5.407
 6693SOL     OW20977   4.018   3.435   5.889
 6693SOL    HW120978   3.960   3.399   5.962
 6693SOL    HW220979   4.068   3.515   5.922
 6694SOL     OW20980   5.169   6.265   0.296
 6694SOL    HW120981   5.181   6.359   0.264
 6694SOL    HW220982   5.251   6.212   0.275
 6695SOL     OW20983   2.244   2.075   5.559
 6695SOL    HW120984   2.326   2.131   5.570
 6695SOL    HW220985   2.222   2.032   5.646
 6696SOL     OW20986   1.871   2.546   0.089
 6696SOL    HW120987   1.873   2.526   0.186
 6696SOL    HW220988   1.784   2.589   0.065
 6697SOL     OW20989   5.117   2.742   3.483
 6697SOL    HW120990   5.122   2.805   3.405
 6697SOL    HW220991   5.089   2.652   3.451
 6698SOL     OW20992   2.974   2.780   0.467
 6698SOL    HW120993   2.915   2.700   0.476
 6698SOL    HW220994   3.047   2.761   0.402
 6699SOL     OW20995   3.318   4.857   6.470
 6699SOL    HW120996   3.346   4.913   6.391
 6699SOL    HW220997   3.252   4.908   6.525
 6700SOL     OW20998   0.337   6.322   1.407
 6700SOL    HW120999   0.337   6.411   1.362
 6700SOL    HW221000   0.426   6.279   1.396
 6701SOL     OW21001   5.240   2.943   1.316
 6701SOL    HW121002   5.278   2.855   1.347
 6701SOL    HW221003   5.140   2.938   1.314
 6702SOL     OW21004   2.372   2.817   0.466
 6702SOL    HW121005   2.354   2.777   0.556
 6702SOL    HW221006   2.470   2.835   0.457
 6703SOL     OW21007   6.531   1.497   0.042
 6703SOL    HW121008   6.441   1.501   7.023
 6703SOL    HW221009   6.597   1.548   7.012
 6704SOL     OW21010   4.435   2.195   2.502
 6704SOL    HW121011   4.366   2.238   2.444
 6704SOL    HW221012   4.463   2.259   2.574
 6705SOL     OW21013   0.013   2.170   1.981
 6705SOL    HW121014   0.054   2.238   2.042
 6705SOL    HW221015   7.023   2.085   2.031
 6706SOL     OW21016   1.149   3.940   1.131
 6706SOL    HW121017   1.120   4.031   1.159
 6706SOL    HW221018   1.174   3.941   1.034
 6707SOL     OW21019   0.355   5.628   4.659
 6707SOL    HW121020   0.306   5.542   4.644
 6707SOL    HW221021   0.453   5.610   4.665
 6708SOL     OW21022   1.231   5.160   2.568
 6708SOL    HW121023   1.241   5.235   2.503
 6708SOL    HW221024   1.320   5.118   2.585
 6709SOL     OW21025   3.081   5.538   2.056
 6709SOL    HW121026   3.178   5.542   2.077
 6709SOL    HW221027   3.028   5.559   2.139
 6710SOL     OW21028   2.887   1.603   6.044
 6710SOL    HW121029   2.898   1.642   6.136
 6710SOL    HW221030   2.928   1.664   5.977
 6711SOL     OW21031   5.637   4.683   6.760
 6711SOL    HW121032   5.706   4.754   6.773
 6711SOL    HW221033   5.554   4.707   6.811
 6712SOL     OW21034   4.591   5.470   0.167
 6712SOL    HW121035   4.659   5.469   0.094
 6712SOL    HW221036   4.631   5.512   0.249
 6713SOL     OW21037   1.764   2.136   1.361
 6713SOL    HW121038   1.823   2.159   1.438
 6713SOL    HW221039   1.814   2.145   1.276
 6714SOL     OW21040   5.258   0.722   6.124
 6714SOL    HW121041   5.212   0.645   6.078
 6714SOL    HW221042   5.356   0.718   6.106
 6715SOL     OW21043   0.160   0.600   6.915
 6715SOL    HW121044   0.233   0.600   6.847
 6715SOL    HW221045   0.147   0.693   6.951
 6716SOL     OW21046   1.007   5.551   2.170
 6716SOL    HW121047   0.909   5.555   2.192
 6716SOL    HW221048   1.023   5.478   2.104
 6717SOL     OW21049   3.937   3.059   1.107
 6717SOL    HW121050   3.962   2.962   1.103
 6717SOL    HW221051   3.840   3.069   1.087
 6718SOL     OW21052   3.948   6.162   6.417
 6718SOL    HW121053   3.868   6.176   6.359
 6718SOL    HW221054   4.013   6.102   6.370
 6719SOL     OW21055   0.371   6.959   5.983
 6719SOL    HW121056   0.408   0.023   6.009
 6719SOL    HW221057   0.446   6.897   5.959
 6720SOL     OW21058   1.236   6.237   2.085
 6720SOL    HW121059   1.295   6.308   2.123
 6720SOL    HW221060   1.230   6.160   2.149
 6721SOL     OW21061   5.663   6.682   4.461
 6721SOL    HW121062   5.664   6.710   4.557
 6721SOL    HW221063   5.735   6.730   4.412
 6722SOL     OW21064   5.407   3.233   1.471
 6722SOL    HW121065   5.489   3.226   1.415
 6722SOL    HW221066   5.335   3.177   1.432
 6723SOL     OW21067   2.193   6.635   3.107
 6723SOL    HW121068   2.202   6.551   3.159
 6723SOL    HW221069   2.099   6.642   3.072
 6724SOL     OW21070   1.231   3.595   6.205
 6724SOL    HW121071   1.266   3.669   6.263
 6724SOL    HW221072   1.157   3.630   6.147
 6725SOL     OW21073   0.569   4.302   1.974
 6725SOL    HW121074   0.652   4.276   1.925
 6725SOL    HW221075   0.516   4.367   1.919
 6726SOL     OW21076   0.768   1.958   4.372
 6726SOL    HW121077   0.708   1.961   4.452
 6726SOL    HW221078   0.800   2.050   4.351
 6727SOL     OW21079   6.514   3.597   5.763
 6727SOL    HW121080   6.516   3.684   5.713
 6727SOL    HW221081   6.602   3.551   5.753
 6728SOL     OW21082   4.796   1.797   4.742
 6728SOL    HW121083   4.746   1.856   4.679
 6728SOL    HW221084   4.741   1.781   4.823
 6729SOL     OW21085   6.769   1.564   2.225
 6729SOL    HW121086   6.737   1.618   2.303
 6729SOL    HW221087   6.692   1.544   2.164
 6730SOL     OW21088   1.932   6.624   6.583
 6730SOL    HW121089   1.891   6.597   6.670
 6730SOL    HW221090   1.973   6.544   6.539
 6731SOL     OW21091   1.842   4.788   1.152
 6731SOL    HW121092   1.936   4.813   1.176
 6731SOL    HW221093   1.781   4.865   1.171
 6732SOL     OW21094   4.255   5.478   6.096
 6732SOL    HW121095   4.291   5.464   6.003
 6732SOL    HW221096   4.318   5.437   6.162
 6733SOL     OW21097   4.440   5.262   6.734
 6733SOL    HW121098   4.397   5.252   6.823
 6733SOL    HW221099   4.370   5.283   6.665
 6734SOL     OW21100   1.132   3.205   5.345
 6734SOL    HW121101   1.139   3.188   5.444
 6734SOL    HW221102   1.129   3.118   5.297
 6735SOL     OW21103   0.779   5.858   4.742
 6735SOL    HW121104   0.737   5.796   4.809
 6735SOL    HW221105   0.813   5.804   4.664
 6736SOL     OW21106   1.702   3.312   0.531
 6736SOL    HW121107   1.745   3.366   0.458
 6736SOL    HW221108   1.607   3.339   0.540
 6737SOL     OW21109   2.087   2.857   0.853
 6737SOL    HW121110   1.995   2.876   0.816
 6737SOL    HW221111   2.089   2.880   0.950
 6738SOL     OW21112   2.069   3.253   2.152
 6738SOL    HW121113   2.138   3.324   2.137
 6738SOL    HW221114   2.112   3.173   2.194
 6739SOL     OW21115   3.139   5.264   5.777
 6739SOL    HW121116   3.169   5.184   5.829
 6739SOL    HW221117   3.096   5.330   5.839
 6740SOL     OW21118   2.149   1.653   4.566
 6740SOL    HW121119   2.156   1.636   4.664
 6740SOL    HW221120   2.073   1.714   4.547
 6741SOL     OW21121   4.387   1.428   5.782
 6741SOL    HW121122   4.318   1.422   5.855
 6741SOL    HW221123   4.342   1.448   5.695
 6742SOL     OW21124   0.522   5.735   3.011
 6742SOL    HW121125   0.436   5.760   3.055
 6742SOL    HW221126   0.553   5.647   3.045
 6743SOL     OW21127   3.959   4.484   6.752
 6743SOL    HW121128   3.941   4.386   6.748
 6743SOL    HW221129   4.058   4.500   6.744
 6744SOL     OW21130   4.385   5.392   5.851
 6744SOL    HW121131   4.397   5.294   5.835
 6744SOL    HW221132   4.474   5.437   5.850
 6745SOL     OW21133   1.241   6.091   2.508
 6745SOL    HW121134   1.297   6.173   2.496
 6745SOL    HW221135   1.161   6.113   2.564
 6746SOL     OW21136   0.450   1.102   2.876
 6746SOL    HW121137   0.409   1.019   2.915
 6746SOL    HW221138   0.400   1.126   2.792
 6747SOL     OW21139   5.357   6.446   4.679
 6747SOL    HW121140   5.299   6.471   4.602
 6747SOL    HW221141   5.447   6.417   4.646
 6748SOL     OW21142   1.635   0.369   2.847
 6748SOL    HW121143   1.564   0.438   2.860
 6748SOL    HW221144   1.615   0.313   2.767
 6749SOL     OW21145   3.045   6.463   6.613
 6749SOL    HW121146   3.135   6.501   6.633
 6749SOL    HW221147   3.007   6.508   6.532
 6750SOL     OW21148   3.821   1.669   4.728
 6750SOL    HW121149   3.800   1.766   4.741
 6750SOL    HW221150   3.889   1.658   4.656
 6751SOL     OW21151   3.748   1.673   3.646
 6751SOL    HW121152   3.659   1.645   3.610
 6751SOL    HW221153   3.792   1.735   3.581
 6752SOL     OW21154   6.023   3.115   2.418
 6752SOL    HW121155   6.083   3.049   2.464
 6752SOL    HW221156   6.020   3.200   2.471
 6753SOL     OW21157   4.630   1.240   6.386
 6753SOL    HW121158   4.562   1.171   6.412
 6753SOL    HW221159   4.586   1.329   6.377
 6754SOL     OW21160   6.430   2.227   5.457
 6754SOL    HW121161   6.510   2.213   5.399
 6754SOL    HW221162   6.354   2.263   5.403
 6755SOL     OW21163   4.913   1.799   4.109
 6755SOL    HW121164   4.881   1.705   4.110
 6755SOL    HW221165   4.985   1.811   4.178
 6756SOL     OW21166   4.629   4.432   4.256
 6756SOL    HW121167   4.549   4.465   4.306
 6756SOL    HW221168   4.659   4.502   4.192
 6757SOL     OW21169   4.739   6.245   0.961
 6757SOL    HW121170   4.727   6.343   0.949
 6757SOL    HW221171   4.649   6.200   0.958
 6758SOL     OW21172   5.494   3.849   2.082
 6758SOL    HW121173   5.417   3.785   2.077
 6758SOL    HW221174   5.460   3.943   2.079
 6759SOL     OW21175   1.209   3.733   4.218
 6759SOL    HW121176   1.251   3.793   4.150
 6759SOL    HW221177   1.111   3.726   4.200
 6760SOL     OW21178   6.404   5.256   4.671
 6760SOL    HW121179   6.365   5.267   4.762
 6760SOL    HW221180   6.461   5.173   4.669
 6761SOL     OW21181   5.347   2.467   5.979
 6761SOL    HW121182   5.360   2.408   5.900
 6761SOL    HW221183   5.316   2.558   5.949
 6762SOL     OW21184   6.998   5.439   3.058
 6762SOL    HW121185   6.979   5.535   3.041
 6762SOL    HW221186   6.980   5.418   3.154
 6763SOL     OW21187   6.279   6.024   4.167
 6763SOL    HW121188   6.191   6.025   4.121
 6763SOL    HW221189   6.289   6.107   4.223
 6764SOL     OW21190   2.972   4.431   6.505
 6764SOL    HW121191   3.008   4.466   6.419
 6764SOL    HW221192   2.877   4.462   6.517
 6765SOL     OW21193   6.117   5.009   3.649
 6765SOL    HW121194   6.061   4.929   3.632
 6765SOL    HW221195   6.063   5.092   3.635
 6766SOL     OW21196   2.893   6.902   6.238
 6766SOL    HW121197   2.794   6.906   6.225
 6766SOL    HW221198   2.938   6.916   6.150
 6767SOL     OW21199   0.531   3.038   1.024
 6767SOL    HW121200   0.510   2.942   1.006
 6767SOL    HW221201   0.627   3.057   1.002
 6768SOL     OW21202   0.944   0.500   3.622
 6768SOL    HW121203   0.887   0.468   3.546
 6768SOL    HW221204   0.885   0.536   3.694
 6769SOL     OW21205   3.203   1.413   5.277
 6769SOL    HW121206   3.251   1.336   5.235
 6769SOL    HW221207   3.117   1.429   5.229
 6770SOL     OW21208   0.018   2.196   4.420
 6770SOL    HW121209   6.968   2.197   4.354
 6770SOL    HW221210   7.006   2.183   4.512
 6771SOL     OW21211   3.481   2.136   3.414
 6771SOL    HW121212   3.567   2.177   3.444
 6771SOL    HW221213   3.450   2.070   3.483
 6772SOL     OW21214   5.560   1.852   2.494
 6772SOL    HW121215   5.543   1.805   2.580
 6772SOL    HW221216   5.556   1.787   2.419
 6773SOL     OW21217   6.699   6.774   1.460
 6773SOL    HW121218   6.706   6.842   1.533
 6773SOL    HW221219   6.710   6.819   1.371
 6774SOL     OW21220   2.100   1.699   5.495
 6774SOL    HW121221   2.053   1.763   5.556
 6774SOL    HW221222   2.175   1.656   5.544
 6775SOL     OW21223   1.237   1.976   3.728
 6775SOL    HW121224   1.240   1.902   3.796
 6775SOL    HW221225   1.299   1.954   3.653
 6776SOL     OW21226   3.547   3.723   1.703
 6776SOL    HW121227   3.493   3.806   1.717
 6776SOL    HW221228   3.511   3.650   1.762
 6777SOL     OW21229   4.136   5.315   1.301
 6777SOL    HW121230   4.084   5.359   1.227
 6777SOL    HW221231   4.232   5.308   1.275
 6778SOL     OW21232   5.467   3.956   2.421
 6778SOL    HW121233   5.396   3.967   2.352
 6778SOL    HW221234   5.541   4.022   2.405
 6779SOL     OW21235   6.556   4.454   6.018
 6779SOL    HW121236   6.519   4.431   6.108
 6779SOL    HW221237   6.492   4.514   5.970
 6780SOL     OW21238   2.252   2.967   2.738
 6780SOL    HW121239   2.186   3.035   2.706
 6780SOL    HW221240   2.251   2.964   2.838
 6781SOL     OW21241   6.580   0.965   4.119
 6781SOL    HW121242   6.570   0.900   4.195
 6781SOL    HW221243   6.490   0.995   4.089
 6782SOL     OW21244   0.139   1.499   3.585
 6782SOL    HW121245   0.115   1.525   3.491
 6782SOL    HW221246   0.192   1.414   3.584
 6783SOL     OW21247   1.272   4.087   5.196
 6783SOL    HW121248   1.199   4.110   5.131
 6783SOL    HW221249   1.323   4.008   5.161
 6784SOL     OW21250   2.156   3.227   1.883
 6784SOL    HW121251   2.107   3.224   1.970
 6784SOL    HW221252   2.210   3.311   1.878
 6785SOL     OW21253   5.805   4.320   5.085
 6785SOL    HW121254   5.811   4.223   5.104
 6785SOL    HW221255   5.719   4.356   5.121
 6786SOL     OW21256   6.468   3.065   0.362
 6786SOL    HW121257   6.495   2.972   0.389
 6786SOL    HW221258   6.420   3.108   0.438
 6787SOL     OW21259   3.356   2.271   0.724
 6787SOL    HW121260   3.311   2.352   0.760
 6787SOL    HW221261   3.448   2.295   0.691
 6788SOL     OW21262   0.757   3.614   2.411
 6788SOL    HW121263   0.659   3.618   2.395
 6788SOL    HW221264   0.800   3.556   2.342
 6789SOL     OW21265   6.456   4.338   4.103
 6789SOL    HW121266   6.455   4.437   4.098
 6789SOL    HW221267   6.433   4.308   4.195
 6790SOL     OW21268   0.786   4.727   5.750
 6790SOL    HW121269   0.826   4.644   5.788
 6790SOL    HW221270   0.786   4.722   5.650
 6791SOL     OW21271   4.598   1.381   3.473
 6791SOL    HW121272   4.590   1.481   3.474
 6791SOL    HW221273   4.627   1.350   3.564
 6792SOL     OW21274   4.101   6.603   5.315
 6792SOL    HW121275   4.142   6.512   5.312
 6792SOL    HW221276   4.013   6.602   5.268
 6793SOL     OW21277   2.906   2.424   6.993
 6793SOL    HW121278   2.991   2.474   7.010
 6793SOL    HW221279   2.919   2.362   6.916
 6794SOL     OW21280   4.612   1.307   5.879
 6794SOL    HW121281   4.643   1.339   5.968
 6794SOL    HW221282   4.539   1.366   5.845
 6795SOL     OW21283   1.236   0.622   1.428
 6795SOL    HW121284   1.200   0.634   1.520
 6795SOL    HW221285   1.171   0.569   1.373
 6796SOL     OW21286   6.165   0.955   1.966
 6796SOL    HW121287   6.067   0.966   1.945
 6796SOL    HW221288   6.204   0.886   1.905
 6797SOL     OW21289   6.763   2.545   1.968
 6797SOL    HW121290   6.862   2.540   1.955
 6797SOL    HW221291   6.737   2.490   2.047
 6798SOL     OW21292   5.279   0.383   1.549
 6798SOL    HW121293   5.367   0.350   1.515
 6798SOL    HW221294   5.254   0.333   1.632
 6799SOL     OW21295   5.798   6.735   3.257
 6799SOL    HW121296   5.869   6.756   3.191
 6799SOL    HW221297   5.719   6.696   3.210
 6800SOL     OW21298   1.137   1.139   1.036
 6800SOL    HW121299   1.199   1.193   1.093
 6800SOL    HW221300   1.095   1.067   1.091
 6801SOL     OW21301   1.180   6.475   4.663
 6801SOL    HW121302   1.118   6.531   4.608
 6801SOL    HW221303   1.128   6.406   4.713
 6802SOL     OW21304   3.057   6.380   1.080
 6802SOL    HW121305   3.126   6.432   1.130
 6802SOL    HW221306   3.017   6.437   1.008
 6803SOL     OW21307   4.952   4.430   6.863
 6803SOL    HW121308   4.919   4.340   6.890
 6803SOL    HW221309   5.042   4.421   6.821
 6804SOL     OW21310   2.839   5.018   2.808
 6804SOL    HW121311   2.783   4.936   2.794
 6804SOL    HW221312   2.890   5.009   2.893
 6805SOL     OW21313   0.340   4.912   5.580
 6805SOL    HW121314   0.428   4.947   5.549
 6805SOL    HW221315   0.353   4.827   5.630
 6806SOL     OW21316   6.816   0.553   3.879
 6806SOL    HW121317   6.894   0.502   3.916
 6806SOL    HW221318   6.734   0.532   3.932
 6807SOL     OW21319   3.530   3.944   3.465
 6807SOL    HW121320   3.577   4.003   3.531
 6807SOL    HW221321   3.432   3.961   3.470
 6808SOL     OW21322   5.141   1.111   5.185
 6808SOL    HW121323   5.160   1.081   5.091
 6808SOL    HW221324   5.211   1.176   5.214
 6809SOL     OW21325   5.984   4.690   1.649
 6809SOL    HW121326   6.033   4.660   1.731
 6809SOL    HW221327   5.922   4.618   1.619
 6810SOL     OW21328   3.375   1.095   3.274
 6810SOL    HW121329   3.463   1.075   3.316
 6810SOL    HW221330   3.335   1.011   3.237
 6811SOL     OW21331   6.563   1.769   2.667
 6811SOL    HW121332   6.522   1.709   2.736
 6811SOL    HW221333   6.633   1.826   2.710
 6812SOL     OW21334   3.566   3.504   4.984
 6812SOL    HW121335   3.583   3.406   4.970
 6812SOL    HW221336   3.481   3.530   4.939
 6813SOL     OW21337   5.010   3.265   1.291
 6813SOL    HW121338   5.035   3.209   1.370
 6813SOL    HW221339   4.974   3.207   1.219
 6814SOL     OW21340   4.193   1.463   6.045
 6814SOL    HW121341   4.123   1.395   6.067
 6814SOL    HW221342   4.166   1.552   6.084
 6815SOL     OW21343   1.831   5.040   6.703
 6815SOL    HW121344   1.830   5.133   6.738
 6815SOL    HW221345   1.838   5.042   6.603
 6816SOL     OW21346   6.653   1.801   4.554
 6816SOL    HW121347   6.623   1.851   4.472
 6816SOL    HW221348   6.577   1.748   4.591
 6817SOL     OW21349   2.540   2.358   3.173
 6817SOL    HW121350   2.511   2.434   3.232
 6817SOL    HW221351   2.616   2.310   3.217
 6818SOL     OW21352   1.865   5.992   6.161
 6818SOL    HW121353   1.960   5.979   6.190
 6818SOL    HW221354   1.836   6.086   6.183
 6819SOL     OW21355   4.976   5.371   2.939
 6819SOL    HW121356   4.919   5.318   2.876
 6819SOL    HW221357   5.051   5.414   2.888
 6820SOL     OW21358   1.631   6.789   1.203
 6820SOL    HW121359   1.552   6.845   1.179
 6820SOL    HW221360   1.697   6.845   1.253
 6821SOL     OW21361   4.122   2.405   5.469
 6821SOL    HW121362   4.165   2.462   5.539
 6821SOL    HW221363   4.026   2.431   5.459
 6822SOL     OW21364   6.881   2.748   5.896
 6822SOL    HW121365   6.948   2.700   5.951
 6822SOL    HW221366   6.791   2.706   5.908
 6823SOL     OW21367   5.490   3.510   0.004
 6823SOL    HW121368   5.465   3.535   6.935
 6823SOL    HW221369   5.469   3.587   0.065
 6824SOL     OW21370   1.611   1.727   6.984
 6824SOL    HW121371   1.635   1.820   6.956
 6824SOL    HW221372   1.617   1.666   6.905
 6825SOL     OW21373   6.803   5.921   1.294
 6825SOL    HW121374   6.813   5.997   1.230
 6825SOL    HW221375   6.842   5.947   1.383
 6826SOL     OW21376   0.712   3.528   2.811
 6826SOL    HW121377   0.686   3.606   2.755
 6826SOL    HW221378   0.711   3.554   2.908
 6827SOL     OW21379   4.818   5.554   5.445
 6827SOL    HW121380   4.793   5.584   5.538
 6827SOL    HW221381   4.861   5.465   5.450
 6828SOL     OW21382   3.727   1.369   2.798
 6828SOL    HW121383   3.663   1.293   2.786
 6828SOL    HW221384   3.683   1.443   2.849
 6829SOL     OW21385   5.690   0.322   5.055
 6829SOL    HW121386   5.700   0.389   5.129
 6829SOL    HW221387   5.620   0.255   5.081
 6830SOL     OW21388   6.077   1.088   3.082
 6830SOL    HW121389   6.138   1.127   3.014
 6830SOL    HW221390   6.040   1.161   3.140
 6831SOL     OW21391   1.506   1.642   5.732
 6831SOL    HW121392   1.509   1.559   5.676
 6831SOL    HW221393   1.430   1.700   5.702
 6832SOL     OW21394   2.880   2.316   0.632
 6832SOL    HW121395   2.815   2.392   0.639
 6832SOL    HW221396   2.914   2.312   0.538
 6833SOL     OW21397   3.345   5.495   6.197
 6833SOL    HW121398   3.266   5.506   6.258
 6833SOL    HW221399   3.387   5.405   6.213
 6834SOL     OW21400   5.389   0.137   0.615
 6834SOL    HW121401   5.462   0.074   0.587
 6834SOL    HW221402   5.301   0.103   0.581
 6835SOL     OW21403   3.364   1.900   3.920
 6835SOL    HW121404   3.463   1.896   3.924
 6835SOL    HW221405   3.334   1.995   3.907
 6836SOL     OW21406   1.698   4.660   6.076
 6836SOL    HW121407   1.700   4.757   6.100
 6836SOL    HW221408   1.654   4.608   6.149
 6837SOL     OW21409   1.412   0.783   2.205
 6837SOL    HW121410   1.409   0.815   2.300
 6837SOL    HW221411   1.319   0.772   2.170
 6838SOL     OW21412   2.610   4.597   5.261
 6838SOL    HW121413   2.639   4.577   5.168
 6838SOL    HW221414   2.691   4.605   5.320
 6839SOL     OW21415   5.148   1.892   4.228
 6839SOL    HW121416   5.143   1.852   4.320
 6839SOL    HW221417   5.109   1.984   4.230
 6840SOL     OW21418   2.834   6.886   4.660
 6840SOL    HW121419   2.757   6.948   4.674
 6840SOL    HW221420   2.874   6.902   4.570
 6841SOL     OW21421   3.863   5.263   1.540
 6841SOL    HW121422   3.950   5.306   1.565
 6841SOL    HW221423   3.789   5.306   1.591
 6842SOL     OW21424   0.561   2.983   6.814
 6842SOL    HW121425   0.569   3.083   6.814
 6842SOL    HW221426   0.650   2.942   6.834
 6843SOL     OW21427   4.727   1.877   2.215
 6843SOL    HW121428   4.698   1.972   2.206
 6843SOL    HW221429   4.674   1.833   2.288
 6844SOL     OW21430   4.566   5.634   4.525
 6844SOL    HW121431   4.612   5.545   4.516
 6844SOL    HW221432   4.628   5.707   4.496
 6845SOL     OW21433   4.430   4.852   2.884
 6845SOL    HW121434   4.512   4.812   2.841
 6845SOL    HW221435   4.391   4.921   2.824
 6846SOL     OW21436   3.629   3.685   1.421
 6846SOL    HW121437   3.567   3.707   1.497
 6846SOL    HW221438   3.723   3.684   1.455
 6847SOL     OW21439   4.752   3.577   1.706
 6847SOL    HW121440   4.794   3.488   1.722
 6847SOL    HW221441   4.653   3.571   1.723
 6848SOL     OW21442   0.657   4.708   4.477
 6848SOL    HW121443   0.654   4.650   4.395
 6848SOL    HW221444   0.677   4.802   4.450
 6849SOL     OW21445   3.734   5.632   4.226
 6849SOL    HW121446   3.675   5.665   4.152
 6849SOL    HW221447   3.809   5.578   4.187
 6850SOL     OW21448   6.136   1.903   3.762
 6850SOL    HW121449   6.116   1.999   3.783
 6850SOL    HW221450   6.232   1.894   3.737
 6851SOL     OW21451   0.865   4.884   5.412
 6851SOL    HW121452   0.915   4.933   5.341
 6851SOL    HW221453   0.913   4.799   5.436
 6852SOL     OW21454   0.834   3.975   1.769
 6852SOL    HW121455   0.837   4.075   1.777
 6852SOL    HW221456   0.831   3.935   1.861
 6853SOL     OW21457   0.407   5.509   5.966
 6853SOL    HW121458   0.474   5.436   5.977
 6853SOL    HW221459   0.421   5.578   6.038
 6854SOL     OW21460   6.496   1.826   5.989
 6854SOL    HW121461   6.581   1.790   6.028
 6854SOL    HW221462   6.441   1.867   6.062
 6855SOL     OW21463   3.604   6.841   2.685
 6855SOL    HW121464   3.662   6.857   2.765
 6855SOL    HW221465   3.638   6.894   2.608
 6856SOL     OW21466   6.421   4.136   5.116
 6856SOL    HW121467   6.368   4.181   5.189
 6856SOL    HW221468   6.391   4.042   5.107
 6857SOL     OW21469   3.359   1.324   6.516
 6857SOL    HW121470   3.355   1.293   6.421
 6857SOL    HW221471   3.349   1.246   6.577
 6858SOL     OW21472   3.958   3.103   3.948
 6858SOL    HW121473   3.946   3.061   4.038
 6858SOL    HW221474   4.017   3.184   3.956
 6859SOL     OW21475   2.431   7.009   0.759
 6859SOL    HW121476   2.398   6.915   0.752
 6859SOL    HW221477   2.514   7.011   0.814
 6860SOL     OW21478   5.766   4.869   1.792
 6860SOL    HW121479   5.693   4.888   1.726
 6860SOL    HW221480   5.829   4.801   1.753
 6861SOL     OW21481   5.786   4.934   0.807
 6861SOL    HW121482   5.800   4.835   0.796
 6861SOL    HW221483   5.821   4.982   0.727
 6862SOL     OW21484   2.391   4.923   4.856
 6862SOL    HW121485   2.305   4.905   4.903
 6862SOL    HW221486   2.453   4.845   4.871
 6863SOL     OW21487   6.119   1.136   4.466
 6863SOL    HW121488   6.173   1.126   4.550
 6863SOL    HW221489   6.180   1.164   4.391
 6864SOL     OW21490   3.443   5.725   3.675
 6864SOL    HW121491   3.536   5.706   3.705
 6864SOL    HW221492   3.410   5.649   3.619
 6865SOL     OW21493   6.487   4.618   4.093
 6865SOL    HW121494   6.471   4.700   4.147
 6865SOL    HW221495   6.451   4.631   4.000
 6866SOL     OW21496   6.329   4.004   2.315
 6866SOL    HW121497   6.350   4.101   2.330
 6866SOL    HW221498   6.328   3.985   2.217
 6867SOL     OW21499   1.589   4.034   1.526
 6867SOL    HW121500   1.505   3.981   1.533
 6867SOL    HW221501   1.575   4.109   1.461
 6868SOL     OW21502   1.575   6.199   4.795
 6868SOL    HW121503   1.545   6.135   4.865
 6868SOL    HW221504   1.528   6.286   4.806
 6869SOL     OW21505   6.108   3.345   4.798
 6869SOL    HW121506   6.050   3.271   4.763
 6869SOL    HW221507   6.193   3.348   4.745
 6870SOL     OW21508   5.463   3.635   3.108
 6870SOL    HW121509   5.369   3.658   3.082
 6870SOL    HW221510   5.513   3.719   3.132
 6871SOL     OW21511   6.326   4.988   1.647
 6871SOL    HW121512   6.359   4.906   1.695
 6871SOL    HW221513   6.310   4.966   1.551
 6872SOL     OW21514   1.974   3.535   0.931
 6872SOL    HW121515   1.896   3.531   0.869
 6872SOL    HW221516   1.979   3.451   0.984
 6873SOL     OW21517   6.022   3.153   6.210
 6873SOL    HW121518   5.971   3.068   6.206
 6873SOL    HW221519   6.094   3.152   6.141
 6874SOL     OW21520   0.206   4.080   3.573
 6874SOL    HW121521   0.112   4.077   3.607
 6874SOL    HW221522   0.205   4.085   3.473
 6875SOL     OW21523   1.424   1.920   3.532
 6875SOL    HW121524   1.506   1.949   3.581
 6875SOL    HW221525   1.450   1.867   3.451
 6876SOL     OW21526   3.592   5.581   6.531
 6876SOL    HW121527   3.556   5.576   6.438
 6876SOL    HW221528   3.658   5.507   6.545
 6877SOL     OW21529   2.654   4.414   6.943
 6877SOL    HW121530   2.692   4.335   6.992
 6877SOL    HW221531   2.624   4.483   7.009
 6878SOL     OW21532   2.196   1.877   6.121
 6878SOL    HW121533   2.144   1.902   6.203
 6878SOL    HW221534   2.230   1.960   6.076
 6879SOL     OW21535   0.348   1.999   0.452
 6879SOL    HW121536   0.435   1.965   0.418
 6879SOL    HW221537   0.333   2.092   0.419
 6880SOL     OW21538   2.116   3.588   4.846
 6880SOL    HW121539   2.052   3.664   4.852
 6880SOL    HW221540   2.204   3.621   4.812
 6881SOL     OW21541   6.828   4.536   1.979
 6881SOL    HW121542   6.762   4.492   1.918
 6881SOL    HW221543   6.918   4.536   1.936
 6882SOL     OW21544   2.338   0.440   5.516
 6882SOL    HW121545   2.343   0.363   5.451
 6882SOL    HW221546   2.426   0.450   5.562
 6883SOL     OW21547   3.396   0.332   1.046
 6883SOL    HW121548   3.461   0.407   1.057
 6883SOL    HW221549   3.424   0.273   0.971
 6884SOL     OW21550   2.280   4.412   3.851
 6884SOL    HW121551   2.366   4.437   3.807
 6884SOL    HW221552   2.296   4.393   3.948
 6885SOL     OW21553   2.581   5.383   3.474
 6885SOL    HW121554   2.524   5.341   3.404
 6885SOL    HW221555   2.675   5.391   3.439
 6886SOL     OW21556   5.627   1.371   1.963
 6886SOL    HW121557   5.668   1.450   2.008
 6886SOL    HW221558   5.698   1.315   1.922
 6887SOL     OW21559   5.616   0.791   5.051
 6887SOL    HW121560   5.532   0.749   5.017
 6887SOL    HW221561   5.593   0.859   5.121
 6888SOL     OW21562   5.883   0.081   5.671
 6888SOL    HW121563   5.866   0.152   5.740
 6888SOL    HW221564   5.796   0.038   5.646
 6889SOL     OW21565   1.090   3.133   5.628
 6889SOL    HW121566   1.174   3.080   5.636
 6889SOL    HW221567   1.019   3.077   5.586
 6890SOL     OW21568   2.135   0.487   0.765
 6890SOL    HW121569   2.038   0.487   0.740
 6890SOL    HW221570   2.190   0.502   0.683
 6891SOL     OW21571   2.039   3.459   4.501
 6891SOL    HW121572   2.057   3.386   4.566
 6891SOL    HW221573   2.076   3.546   4.535
 6892SOL     OW21574   4.129   0.327   4.058
 6892SOL    HW121575   4.094   0.381   3.982
 6892SOL    HW221576   4.108   0.230   4.043
 6893SOL     OW21577   5.394   6.245   2.159
 6893SOL    HW121578   5.362   6.267   2.251
 6893SOL    HW221579   5.386   6.325   2.100
 6894SOL     OW21580   6.441   5.407   0.648
 6894SOL    HW121581   6.456   5.500   0.617
 6894SOL    HW221582   6.354   5.374   0.612
 6895SOL     OW21583   3.061   4.695   6.716
 6895SOL    HW121584   3.005   4.658   6.790
 6895SOL    HW221585   3.018   4.675   6.629
 6896SOL     OW21586   4.025   0.149   3.474
 6896SOL    HW121587   3.933   0.189   3.472
 6896SOL    HW221588   4.038   0.101   3.561
 6897SOL     OW21589   2.557   3.574   0.159
 6897SOL    HW121590   2.578   3.670   0.174
 6897SOL    HW221591   2.463   3.556   0.186
 6898SOL     OW21592   4.578   1.387   2.090
 6898SOL    HW121593   4.543   1.468   2.042
 6898SOL    HW221594   4.520   1.308   2.068
 6899SOL     OW21595   5.087   6.916   6.745
 6899SOL    HW121596   5.074   7.011   6.774
 6899SOL    HW221597   5.136   6.915   6.658
 6900SOL     OW21598   6.118   0.769   6.469
 6900SOL    HW121599   6.167   0.843   6.423
 6900SOL    HW221600   6.021   0.773   6.442
 6901SOL     OW21601   0.214   0.346   6.392
 6901SOL    HW121602   0.142   0.414   6.405
 6901SOL    HW221603   0.174   0.257   6.372
 6902SOL     OW21604   0.467   6.636   0.285
 6902SOL    HW121605   0.451   6.733   0.303
 6902SOL    HW221606   0.565   6.621   0.271
 6903SOL     OW21607   3.459   3.463   0.214
 6903SOL    HW121608   3.509   3.497   0.294
 6903SOL    HW221609   3.448   3.537   0.148
 6904SOL     OW21610   6.536   1.290   3.734
 6904SOL    HW121611   6.600   1.239   3.791
 6904SOL    HW221612   6.453   1.236   3.720
 6905SOL     OW21613   6.027   6.209   0.177
 6905SOL    HW121614   6.104   6.202   0.113
 6905SOL    HW221615   6.060   6.239   0.266
 6906SOL     OW21616   3.752   1.399   4.532
 6906SOL    HW121617   3.751   1.402   4.632
 6906SOL    HW221618   3.683   1.462   4.496
 6907SOL     OW21619   3.707   2.148   0.915
 6907SOL    HW121620   3.677   2.184   1.004
 6907SOL    HW221621   3.648   2.071   0.889
 6908SOL     OW21622   1.363   0.075   5.615
 6908SOL    HW121623   1.450   0.094   5.569
 6908SOL    HW221624   1.288   0.110   5.560
 6909SOL     OW21625   4.734   4.498   0.823
 6909SOL    HW121626   4.740   4.473   0.726
 6909SOL    HW221627   4.698   4.591   0.831
 6910SOL     OW21628   6.390   1.985   2.998
 6910SOL    HW121629   6.388   1.886   2.987
 6910SOL    HW221630   6.298   2.022   2.985
 6911SOL     OW21631   4.300   0.214   3.467
 6911SOL    HW121632   4.204   0.200   3.442
 6911SOL    HW221633   4.307   0.297   3.523
 6912SOL     OW21634   4.971   4.793   1.251
 6912SOL    HW121635   4.952   4.773   1.155
 6912SOL    HW221636   5.021   4.717   1.292
 6913SOL     OW21637   5.460   4.182   5.627
 6913SOL    HW121638   5.496   4.210   5.537
 6913SOL    HW221639   5.366   4.215   5.636
 6914SOL     OW21640   5.571   5.603   6.880
 6914SOL    HW121641   5.596   5.694   6.848
 6914SOL    HW221642   5.513   5.558   6.812
 6915SOL     OW21643   0.279   5.032   1.893
 6915SOL    HW121644   0.312   4.951   1.843
 6915SOL    HW221645   0.180   5.039   1.883
 6916SOL     OW21646   6.630   4.150   6.655
 6916SOL    HW121647   6.569   4.202   6.596
 6916SOL    HW221648   6.640   4.057   6.620
 6917SOL     OW21649   4.671   5.111   6.728
 6917SOL    HW121650   4.588   5.165   6.740
 6917SOL    HW221651   4.666   5.029   6.784
 6918SOL     OW21652   0.559   4.043   4.213
 6918SOL    HW121653   0.606   4.006   4.132
 6918SOL    HW221654   0.588   4.138   4.228
 6919SOL     OW21655   1.880   5.522   2.314
 6919SOL    HW121656   1.957   5.485   2.365
 6919SOL    HW221657   1.829   5.448   2.271
 6920SOL     OW21658   5.066   5.345   5.956
 6920SOL    HW121659   5.109   5.265   5.998
 6920SOL    HW221660   5.033   5.407   6.027
 6921SOL     OW21661   5.733   5.894   3.259
 6921SOL    HW121662   5.762   5.837   3.336
 6921SOL    HW221663   5.813   5.920   3.205
 6922SOL     OW21664   1.804   5.937   0.119
 6922SOL    HW121665   1.745   5.894   0.051
 6922SOL    HW221666   1.889   5.885   0.128
 6923SOL     OW21667   4.978   6.578   3.787
 6923SOL    HW121668   4.998   6.655   3.846
 6923SOL    HW221669   4.952   6.499   3.843
 6924SOL     OW21670   0.538   3.911   0.509
 6924SOL    HW121671   0.482   3.834   0.477
 6924SOL    HW221672   0.558   3.971   0.432
 6925SOL     OW21673   3.922   6.147   3.881
 6925SOL    HW121674   3.874   6.201   3.811
 6925SOL    HW221675   3.953   6.061   3.841
 6926SOL     OW21676   3.611   3.543   2.822
 6926SOL    HW121677   3.538   3.606   2.847
 6926SOL    HW221678   3.608   3.526   2.724
 6927SOL     OW21679   5.346   3.332   5.662
 6927SOL    HW121680   5.270   3.381   5.621
 6927SOL    HW221681   5.325   3.235   5.668
 6928SOL     OW21682   4.558   0.065   6.755
 6928SOL    HW121683   4.629   0.135   6.744
 6928SOL    HW221684   4.600   7.000   6.758
 6929SOL     OW21685   4.346   6.069   0.212
 6929SOL    HW121686   4.304   5.984   0.181
 6929SOL    HW221687   4.445   6.056   0.219
 6930SOL     OW21688   0.390   6.654   1.588
 6930SOL    HW121689   0.405   6.701   1.501
 6930SOL    HW221690   0.298   6.675   1.622
 6931SOL     OW21691   0.876   0.717   1.673
 6931SOL    HW121692   0.942   0.783   1.706
 6931SOL    HW221693   0.923   0.636   1.637
 6932SOL     OW21694   3.061   1.007   0.310
 6932SOL    HW121695   3.136   0.941   0.309
 6932SOL    HW221696   3.072   1.071   0.234
 6933SOL     OW21697   3.588   5.611   4.818
 6933SOL    HW121698   3.620   5.691   4.869
 6933SOL    HW221699   3.623   5.616   4.724
 6934SOL     OW21700   5.590   3.748   6.350
 6934SOL    HW121701   5.538   3.790   6.424
 6934SOL    HW221702   5.679   3.792   6.342
 6935SOL     OW21703   4.222   6.331   2.900
 6935SOL    HW121704   4.245   6.321   2.803
 6935SOL    HW221705   4.207   6.428   2.921
 6936SOL     OW21706   6.822   2.190   2.805
 6936SOL    HW121707   6.889   2.201   2.732
 6936SOL    HW221708   6.780   2.099   2.799
 6937SOL     OW21709   5.378   6.691   6.973
 6937SOL    HW121710   5.393   6.682   6.875
 6937SOL    HW221711   5.430   6.769   7.008
 6938SOL     OW21712   4.908   3.962   5.307
 6938SOL    HW121713   4.979   4.032   5.308
 6938SOL    HW221714   4.943   3.880   5.261
 6939SOL     OW21715   6.860   5.050   3.084
 6939SOL    HW121716   6.834   5.106   3.005
 6939SOL    HW221717   6.955   5.021   3.075
 6940SOL     OW21718   4.154   0.982   0.868
 6940SOL    HW121719   4.159   1.039   0.787
 6940SOL    HW221720   4.135   1.039   0.948
 6941SOL     OW21721   4.106   3.418   2.089
 6941SOL    HW121722   4.139   3.349   2.024
 6941SOL    HW221723   4.119   3.385   2.182
 6942SOL     OW21724   0.346   2.904   1.227
 6942SOL    HW121725   0.309   2.952   1.147
 6942SOL    HW221726   0.408   2.832   1.196
 6943SOL     OW21727   5.010   6.669   6.778
 6943SOL    HW121728   5.024   6.639   6.684
 6943SOL    HW221729   5.038   6.764   6.787
 6944SOL     OW21730   1.313   5.335   5.214
 6944SOL    HW121731   1.391   5.326   5.153
 6944SOL    HW221732   1.244   5.394   5.172
 6945SOL     OW21733   6.251   2.954   0.033
 6945SOL    HW121734   6.266   3.019   6.983
 6945SOL    HW221735   6.314   2.975   0.108
 6946SOL     OW21736   6.027   5.375   2.468
 6946SOL    HW121737   6.062   5.286   2.440
 6946SOL    HW221738   6.073   5.447   2.416
 6947SOL     OW21739   4.187   0.117   4.486
 6947SOL    HW121740   4.115   0.073   4.432
 6947SOL    HW221741   4.263   0.052   4.500
 6948SOL     OW21742   5.689   0.355   0.430
 6948SOL    HW121743   5.749   0.434   0.441
 6948SOL    HW221744   5.705   0.291   0.504
 6949SOL     OW21745   4.728   6.441   3.327
 6949SOL    HW121746   4.649   6.471   3.380
 6949SOL    HW221747   4.810   6.485   3.363
 6950SOL     OW21748   2.608   0.083   3.229
 6950SOL    HW121749   2.578   0.151   3.296
 6950SOL    HW221750   2.691   0.115   3.184
 6951SOL     OW21751   6.160   6.801   5.994
 6951SOL    HW121752   6.244   6.819   6.045
 6951SOL    HW221753   6.176   6.820   5.897
 6952SOL     OW21754   7.024   4.959   3.496
 6952SOL    HW121755   7.014   5.041   3.553
 6952SOL    HW221756   6.941   4.945   3.443
 6953SOL     OW21757   5.139   0.495   5.975
 6953SOL    HW121758   5.096   0.448   5.898
 6953SOL    HW221759   5.228   0.452   5.994
 6954SOL     OW21760   1.271   3.918   4.012
 6954SOL    HW121761   1.348   3.964   4.056
 6954SOL    HW221762   1.220   3.984   3.957
 6955SOL     OW21763   6.935   0.328   1.919
 6955SOL    HW121764   6.946   0.340   1.821
 6955SOL    HW221765   6.910   0.233   1.939
 6956SOL     OW21766   3.965   5.978   2.638
 6956SOL    HW121767   3.932   6.050   2.577
 6956SOL    HW221768   3.995   6.018   2.724
 6957SOL     OW21769   6.944   4.699   1.370
 6957SOL    HW121770   6.934   4.612   1.321
 6957SOL    HW221771   6.928   4.775   1.307
 6958SOL     OW21772   2.665   3.429   5.724
 6958SOL    HW121773   2.748   3.374   5.733
 6958SOL    HW221774   2.618   3.406   5.639
 6959SOL     OW21775   1.786   1.218   4.833
 6959SOL    HW121776   1.748   1.306   4.806
 6959SOL    HW221777   1.794   1.215   4.933
 6960SOL     OW21778   0.572   5.294   0.379
 6960SOL    HW121779   0.558   5.393   0.376
 6960SOL    HW221780   0.615   5.269   0.466
 6961SOL     OW21781   0.574   2.553   4.183
 6961SOL    HW121782   0.563   2.566   4.084
 6961SOL    HW221783   0.484   2.549   4.226
 6962SOL     OW21784   5.407   5.622   2.977
 6962SOL    HW121785   5.471   5.698   2.993
 6962SOL    HW221786   5.400   5.605   2.879
 6963SOL     OW21787   0.084   5.612   0.972
 6963SOL    HW121788   0.032   5.527   0.964
 6963SOL    HW221789   0.181   5.591   0.986
 6964SOL     OW21790   4.924   4.842   5.083
 6964SOL    HW121791   4.962   4.819   5.172
 6964SOL    HW221792   4.824   4.845   5.089
 6965SOL     OW21793   0.429   3.689   6.252
 6965SOL    HW121794   0.462   3.755   6.319
 6965SOL    HW221795   0.502   3.625   6.229
 6966SOL     OW21796   5.598   2.618   2.879
 6966SOL    HW121797   5.608   2.694   2.944
 6966SOL    HW221798   5.539   2.647   2.803
 6967SOL     OW21799   1.556   1.649   5.232
 6967SOL    HW121800   1.632   1.588   5.210
 6967SOL    HW221801   1.586   1.744   5.222
 6968SOL     OW21802   3.840   6.335   1.471
 6968SOL    HW121803   3.933   6.348   1.437
 6968SOL    HW221804   3.775   6.376   1.407
 6969SOL     OW21805   4.193   1.860   2.108
 6969SOL    HW121806   4.119   1.883   2.172
 6969SOL    HW221807   4.156   1.849   2.016
 6970SOL     OW21808   4.125   3.877   0.623
 6970SOL    HW121809   4.072   3.908   0.545
 6970SOL    HW221810   4.069   3.880   0.705
 6971SOL     OW21811   6.204   3.435   2.378
 6971SOL    HW121812   6.278   3.395   2.323
 6971SOL    HW221813   6.239   3.516   2.426
 6972SOL     OW21814   5.879   4.922   4.387
 6972SOL    HW121815   5.810   4.989   4.363
 6972SOL    HW221816   5.969   4.956   4.360
 6973SOL     OW21817   1.394   4.669   4.707
 6973SOL    HW121818   1.345   4.588   4.675
 6973SOL    HW221819   1.344   4.708   4.785
 6974SOL     OW21820   3.750   3.091   3.453
 6974SOL    HW121821   3.800   3.141   3.524
 6974SOL    HW221822   3.801   3.094   3.368
 6975SOL     OW21823   3.111   6.145   5.747
 6975SOL    HW121824   3.089   6.067   5.806
 6975SOL    HW221825   3.029   6.175   5.699
 6976SOL     OW21826   3.856   4.262   5.900
 6976SOL    HW121827   3.817   4.237   5.989
 6976SOL    HW221828   3.785   4.300   5.841
 6977SOL     OW21829   5.463   2.306   1.543
 6977SOL    HW121830   5.534   2.294   1.612
 6977SOL    HW221831   5.497   2.367   1.471
 6978SOL     OW21832   6.158   1.298   1.518
 6978SOL    HW121833   6.173   1.391   1.552
 6978SOL    HW221834   6.115   1.302   1.427
 6979SOL     OW21835   1.727   4.971   1.838
 6979SOL    HW121836   1.662   5.008   1.771
 6979SOL    HW221837   1.717   5.021   1.924
 6980SOL     OW21838   1.696   0.623   4.229
 6980SOL    HW121839   1.705   0.591   4.135
 6980SOL    HW221840   1.734   0.715   4.237
 6981SOL     OW21841   2.481   3.757   6.544
 6981SOL    HW121842   2.534   3.692   6.490
 6981SOL    HW221843   2.507   3.850   6.520
 6982SOL     OW21844   1.359   1.756   3.890
 6982SOL    HW121845   1.335   1.660   3.877
 6982SOL    HW221846   1.458   1.765   3.896
 6983SOL     OW21847   6.968   1.834   3.848
 6983SOL    HW121848   6.910   1.784   3.784
 6983SOL    HW221849   0.039   1.823   3.821
 6984SOL     OW21850   2.917   1.346   5.200
 6984SOL    HW121851   2.840   1.396   5.238
 6984SOL    HW221852   2.902   1.333   5.102
 6985SOL     OW21853   3.438   5.226   2.503
 6985SOL    HW121854   3.397   5.276   2.580
 6985SOL    HW221855   3.401   5.262   2.417
 6986SOL     OW21856   1.848   5.868   5.903
 6986SOL    HW121857   1.846   5.894   5.999
 6986SOL    HW221858   1.771   5.911   5.855
 6987SOL     OW21859   1.000   1.948   6.252
 6987SOL    HW121860   1.098   1.968   6.263
 6987SOL    HW221861   0.951   2.033   6.234
 6988SOL     OW21862   6.089   0.995   5.144
 6988SOL    HW121863   6.090   0.937   5.063
 6988SOL    HW221864   6.153   1.071   5.131
 6989SOL     OW21865   1.088   2.209   3.283
 6989SOL    HW121866   1.084   2.294   3.334
 6989SOL    HW221867   1.135   2.139   3.337
 6990SOL     OW21868   5.153   1.904   0.299
 6990SOL    HW121869   5.223   1.832   0.295
 6990SOL    HW221870   5.064   1.862   0.320
 6991SOL     OW21871   2.537   4.666   4.890
 6991SOL    HW121872   2.506   4.579   4.851
 6991SOL    HW221873   2.626   4.653   4.933
 6992SOL     OW21874   5.706   5.913   5.351
 6992SOL    HW121875   5.664   5.872   5.432
 6992SOL    HW221876   5.661   6.000   5.330
 6993SOL     OW21877   5.968   6.485   2.976
 6993SOL    HW121878   5.930   6.577   2.969
 6993SOL    HW221879   5.955   6.450   3.068
 6994SOL     OW21880   0.588   3.102   4.833
 6994SOL    HW121881   0.626   3.095   4.925
 6994SOL    HW221882   0.593   3.196   4.801
 6995SOL     OW21883   6.196   5.266   4.474
 6995SOL    HW121884   6.284   5.227   4.503
 6995SOL    HW221885   6.155   5.316   4.550
 6996SOL     OW21886   2.417   1.171   5.294
 6996SOL    HW121887   2.374   1.183   5.383
 6996SOL    HW221888   2.510   1.136   5.307
 6997SOL     OW21889   4.754   6.045   5.586
 6997SOL    HW121890   4.693   5.975   5.548
 6997SOL    HW221891   4.743   6.048   5.685
 6998SOL     OW21892   1.808   2.526   1.334
 6998SOL    HW121893   1.865   2.601   1.368
 6998SOL    HW221894   1.841   2.498   1.243
 6999SOL     OW21895   2.271   1.735   6.818
 6999SOL    HW121896   2.271   1.651   6.873
 6999SOL    HW221897   2.360   1.746   6.774
 7000SOL     OW21898   0.190   6.449   2.737
 7000SOL    HW121899   0.266   6.462   2.672
 7000SOL    HW221900   0.225   6.453   2.830
 7001SOL     OW21901   2.704   2.878   5.614
 7001SOL    HW121902   2.719   2.783   5.589
 7001SOL    HW221903   2.673   2.930   5.534
 7002SOL     OW21904   2.285   4.641   2.673
 7002SOL    HW121905   2.352   4.567   2.677
 7002SOL    HW221906   2.296   4.691   2.587
 7003SOL     OW21907   3.405   6.746   6.919
 7003SOL    HW121908   3.356   6.793   6.993
 7003SOL    HW221909   3.501   6.774   6.919
 7004SOL     OW21910   2.044   5.228   1.869
 7004SOL    HW121911   2.024   5.197   1.962
 7004SOL    HW221912   1.959   5.261   1.826
 7005SOL     OW21913   0.345   6.119   5.580
 7005SOL    HW121914   0.295   6.175   5.514
 7005SOL    HW221915   0.315   6.023   5.572
 7006SOL     OW21916   5.368   5.256   4.990
 7006SOL    HW121917   5.356   5.164   5.027
 7006SOL    HW221918   5.279   5.300   4.979
 7007SOL     OW21919   5.408   6.640   3.395
 7007SOL    HW121920   5.424   6.551   3.351
 7007SOL    HW221921   5.492   6.670   3.440
 7008SOL     OW21922   2.589   5.156   3.904
 7008SOL    HW121923   2.505   5.135   3.955
 7008SOL    HW221924   2.655   5.198   3.966
 7009SOL     OW21925   6.304   5.313   2.249
 7009SOL    HW121926   6.295   5.395   2.306
 7009SOL    HW221927   6.245   5.241   2.285
 7010SOL     OW21928   4.703   4.397   6.133
 7010SOL    HW121929   4.723   4.493   6.112
 7010SOL    HW221930   4.786   4.343   6.125
 7011SOL     OW21931   1.565   0.390   6.090
 7011SOL    HW121932   1.545   0.292   6.089
 7011SOL    HW221933   1.528   0.431   6.173
 7012SOL     OW21934   1.920   0.960   2.384
 7012SOL    HW121935   1.904   0.970   2.482
 7012SOL    HW221936   1.928   1.050   2.341
 7013SOL     OW21937   0.200   6.823   0.286
 7013SOL    HW121938   0.186   6.750   0.352
 7013SOL    HW221939   0.213   6.910   0.334
 7014SOL     OW21940   4.757   3.929   1.271
 7014SOL    HW121941   4.720   3.879   1.193
 7014SOL    HW221942   4.682   3.958   1.331
 7015SOL     OW21943   5.457   4.337   2.005
 7015SOL    HW121944   5.552   4.330   2.038
 7015SOL    HW221945   5.425   4.431   2.019
 7016SOL     OW21946   3.440   4.938   2.012
 7016SOL    HW121947   3.393   4.888   2.085
 7016SOL    HW221948   3.525   4.890   1.990
 7017SOL     OW21949   2.703   0.426   1.930
 7017SOL    HW121950   2.660   0.480   1.857
 7017SOL    HW221951   2.745   0.488   1.996
 7018SOL     OW21952   6.640   4.574   4.611
 7018SOL    HW121953   6.694   4.623   4.681
 7018SOL    HW221954   6.679   4.592   4.521
 7019SOL     OW21955   2.924   4.394   6.216
 7019SOL    HW121956   2.849   4.453   6.185
 7019SOL    HW221957   2.924   4.310   6.163
 7020SOL     OW21958   6.296   6.693   7.021
 7020SOL    HW121959   6.323   6.702   0.092
 7020SOL    HW221960   6.247   6.608   7.008
 7021SOL     OW21961   2.674   0.738   5.588
 7021SOL    HW121962   2.602   0.789   5.541
 7021SOL    HW221963   2.739   0.702   5.521
 7022SOL     OW21964   5.171   4.337   0.347
 7022SOL    HW121965   5.113   4.256   0.358
 7022SOL    HW221966   5.217   4.333   0.258
 7023SOL     OW21967   0.381   2.338   3.468
 7023SOL    HW121968   0.441   2.359   3.390
 7023SOL    HW221969   0.344   2.246   3.457
 7024SOL     OW21970   1.301   5.761   6.038
 7024SOL    HW121971   1.214   5.806   6.058
 7024SOL    HW221972   1.370   5.793   6.102
 7025SOL     OW21973   3.674   1.534   0.319
 7025SOL    HW121974   3.586   1.509   0.280
 7025SOL    HW221975   3.669   1.528   0.419
 7026SOL     OW21976   2.870   1.281   2.173
 7026SOL    HW121977   2.840   1.186   2.178
 7026SOL    HW221978   2.898   1.303   2.080
 7027SOL     OW21979   2.954   5.539   2.330
 7027SOL    HW121980   2.888   5.468   2.305
 7027SOL    HW221981   2.906   5.612   2.379
 7028SOL     OW21982   5.625   6.271   4.656
 7028SOL    HW121983   5.724   6.280   4.667
 7028SOL    HW221984   5.605   6.196   4.593
 7029SOL     OW21985   3.740   6.794   6.900
 7029SOL    HW121986   3.718   6.817   6.994
 7029SOL    HW221987   3.837   6.771   6.893
 7030SOL     OW21988   0.189   2.747   5.593
 7030SOL    HW121989   0.175   2.841   5.627
 7030SOL    HW221990   0.200   2.750   5.494
 7031SOL     OW21991   1.901   5.936   3.343
 7031SOL    HW121992   1.924   5.882   3.424
 7031SOL    HW221993   1.811   5.908   3.309
 7032SOL     OW21994   3.599   6.803   4.094
 7032SOL    HW121995   3.530   6.771   4.159
 7032SOL    HW221996   3.690   6.792   4.133
 7033SOL     OW21997   6.828   1.715   4.268
 7033SOL    HW121998   6.787   1.789   4.215
 7033SOL    HW221999   6.764   1.639   4.275
 7034SOL     OW22000   6.104   0.824   3.038
 7034SOL    HW122001   6.019   0.775   3.018
 7034SOL    HW222002   6.087   0.922   3.036
 7035SOL     OW22003   0.707   6.726   1.978
 7035SOL    HW122004   0.737   6.737   2.073
 7035SOL    HW222005   0.787   6.720   1.918
 7036SOL     OW22006   6.621   6.539   1.849
 7036SOL    HW122007   6.574   6.616   1.892
 7036SOL    HW222008   6.615   6.459   1.908
 7037SOL     OW22009   0.195   6.876   6.321
 7037SOL    HW122010   0.295   6.875   6.310
 7037SOL    HW222011   0.152   6.855   6.233
 7038SOL     OW22012   2.094   3.740   4.529
 7038SOL    HW122013   2.111   3.820   4.587
 7038SOL    HW222014   2.012   3.756   4.474
 7039SOL     OW22015   2.803   6.318   0.333
 7039SOL    HW122016   2.837   6.227   0.313
 7039SOL    HW222017   2.706   6.313   0.358
 7040SOL     OW22018   4.472   2.542   5.358
 7040SOL    HW122019   4.434   2.566   5.448
 7040SOL    HW222020   4.509   2.449   5.362
 7041SOL     OW22021   0.794   1.750   3.665
 7041SOL    HW122022   0.696   1.743   3.645
 7041SOL    HW222023   0.839   1.803   3.593
 7042SOL     OW22024   5.252   5.208   6.805
 7042SOL    HW122025   5.218   5.155   6.883
 7042SOL    HW222026   5.337   5.167   6.772
 7043SOL     OW22027   2.142   2.718   2.822
 7043SOL    HW122028   2.189   2.791   2.772
 7043SOL    HW222029   2.044   2.735   2.823
 7044SOL     OW22030   4.579   4.373   2.946
 7044SOL    HW122031   4.494   4.374   2.999
 7044SOL    HW222032   4.627   4.287   2.961
 7045SOL     OW22033   4.512   6.355   1.915
 7045SOL    HW122034   4.488   6.401   2.001
 7045SOL    HW222035   4.506   6.420   1.840
 7046SOL     OW22036   3.467   2.163   3.757
 7046SOL    HW122037   3.396   2.189   3.823
 7046SOL    HW222038   3.427   2.106   3.686
 7047SOL     OW22039   0.927   2.570   2.945
 7047SOL    HW122040   0.994   2.566   2.871
 7047SOL    HW222041   0.911   2.666   2.970
 7048SOL     OW22042   0.594   6.098   1.423
 7048SOL    HW122043   0.596   6.121   1.325
 7048SOL    HW222044   0.665   6.031   1.442
 7049SOL     OW22045   2.119   0.961   0.392
 7049SOL    HW122046   2.116   0.862   0.408
 7049SOL    HW222047   2.143   1.008   0.477
 7050SOL     OW22048   3.749   4.083   3.891
 7050SOL    HW122049   3.840   4.041   3.895
 7050SOL    HW222050   3.711   4.089   3.983
 7051SOL     OW22051   0.664   0.504   1.020
 7051SOL    HW122052   0.682   0.543   0.929
 7051SOL    HW222053   0.747   0.462   1.055
 7052SOL     OW22054   6.463   2.748   4.588
 7052SOL    HW122055   6.393   2.763   4.518
 7052SOL    HW222056   6.427   2.774   4.678
 7053SOL     OW22057   0.600   3.006   5.387
 7053SOL    HW122058   0.583   2.939   5.315
 7053SOL    HW222059   0.588   2.962   5.476
 7054SOL     OW22060   1.256   6.265   1.338
 7054SOL    HW122061   1.318   6.203   1.386
 7054SOL    HW222062   1.171   6.274   1.390
 7055SOL     OW22063   3.578   6.294   5.110
 7055SOL    HW122064   3.620   6.231   5.045
 7055SOL    HW222065   3.649   6.350   5.153
 7056SOL     OW22066   5.522   5.123   3.510
 7056SOL    HW122067   5.455   5.077   3.452
 7056SOL    HW222068   5.513   5.091   3.604
 7057SOL     OW22069   1.255   4.257   4.363
 7057SOL    HW122070   1.235   4.263   4.266
 7057SOL    HW222071   1.305   4.171   4.382
 7058SOL     OW22072   6.632   5.533   5.895
 7058SOL    HW122073   6.628   5.519   5.796
 7058SOL    HW222074   6.628   5.444   5.941
 7059SOL     OW22075   0.616   6.927   2.894
 7059SOL    HW122076   0.713   6.948   2.903
 7059SOL    HW222077   0.578   6.907   2.984
 7060SOL     OW22078   3.223   0.359   1.665
 7060SOL    HW122079   3.208   0.452   1.632
 7060SOL    HW222080   3.227   0.296   1.588
 7061SOL     OW22081   0.358   2.074   3.897
 7061SOL    HW122082   0.291   2.101   3.965
 7061SOL    HW222083   0.317   2.079   3.805
 7062SOL     OW22084   5.622   1.281   6.064
 7062SOL    HW122085   5.577   1.364   6.029
 7062SOL    HW222086   5.591   1.262   6.157
 7063SOL     OW22087   0.952   0.221   0.837
 7063SOL    HW122088   1.032   0.273   0.810
 7063SOL    HW222089   0.871   0.255   0.789
 7064SOL     OW22090   4.016   2.135   1.882
 7064SOL    HW122091   3.953   2.102   1.952
 7064SOL    HW222092   3.965   2.188   1.814
 7065SOL     OW22093   4.474   3.638   0.893
 7065SOL    HW122094   4.423   3.588   0.962
 7065SOL    HW222095   4.438   3.615   0.802
 7066SOL     OW22096   4.108   0.538   0.740
 7066SOL    HW122097   4.043   0.560   0.813
 7066SOL    HW222098   4.167   0.463   0.770
 7067SOL     OW22099   1.605   1.914   5.182
 7067SOL    HW122100   1.582   1.968   5.101
 7067SOL    HW222101   1.678   1.959   5.234
 7068SOL     OW22102   0.730   4.186   3.300
 7068SOL    HW122103   0.692   4.263   3.249
 7068SOL    HW222104   0.674   4.168   3.381
 7069SOL     OW22105   6.324   2.546   4.271
 7069SOL    HW122106   6.263   2.471   4.244
 7069SOL    HW222107   6.294   2.584   4.359
 7070SOL     OW22108   6.544   6.357   5.165
 7070SOL    HW122109   6.507   6.449   5.164
 7070SOL    HW222110   6.469   6.291   5.171
 7071SOL     OW22111   0.451   6.612   5.839
 7071SOL    HW122112   0.475   6.633   5.933
 7071SOL    HW222113   0.433   6.514   5.831
 7072SOL     OW22114   6.403   6.852   6.122
 7072SOL    HW122115   6.464   6.930   6.138
 7072SOL    HW222116   6.372   6.816   6.210
 7073SOL     OW22117   6.156   0.450   4.364
 7073SOL    HW122118   6.215   0.380   4.323
 7073SOL    HW222119   6.102   0.408   4.437
 7074SOL     OW22120   3.958   3.277   1.603
 7074SOL    HW122121   3.945   3.320   1.514
 7074SOL    HW222122   3.909   3.190   1.605
 7075SOL     OW22123   0.854   6.668   4.758
 7075SOL    HW122124   0.951   6.691   4.756
 7075SOL    HW222125   0.840   6.578   4.717
 7076SOL     OW22126   4.098   2.484   6.928
 7076SOL    HW122127   4.108   2.467   6.830
 7076SOL    HW222128   4.005   2.517   6.947
 7077SOL     OW22129   1.979   5.093   5.479
 7077SOL    HW122130   1.917   5.114   5.555
 7077SOL    HW222131   1.956   5.150   5.400
 7078SOL     OW22132   6.200   0.410   1.803
 7078SOL    HW122133   6.169   0.317   1.819
 7078SOL    HW222134   6.168   0.469   1.878
 7079SOL     OW22135   6.946   6.139   5.519
 7079SOL    HW122136   6.875   6.142   5.449
 7079SOL    HW222137   6.928   6.207   5.589
 7080SOL     OW22138   4.064   2.123   3.831
 7080SOL    HW122139   3.976   2.162   3.806
 7080SOL    HW222140   4.124   2.194   3.866
 7081SOL     OW22141   3.408   0.229   5.928
 7081SOL    HW122142   3.394   0.139   5.968
 7081SOL    HW222143   3.436   0.219   5.832
 7082SOL     OW22144   5.867   6.161   6.761
 7082SOL    HW122145   5.911   6.250   6.764
 7082SOL    HW222146   5.781   6.167   6.711
 7083SOL     OW22147   3.090   1.317   6.839
 7083SOL    HW122148   3.057   1.346   6.929
 7083SOL    HW222149   3.173   1.369   6.817
 7084SOL     OW22150   6.794   7.006   5.598
 7084SOL    HW122151   6.771   6.915   5.631
 7084SOL    HW222152   6.881   0.010   5.636
 7085SOL     OW22153   2.476   0.728   3.344
 7085SOL    HW122154   2.457   0.648   3.401
 7085SOL    HW222155   2.478   0.810   3.402
 7086SOL     OW22156   4.851   1.114   5.938
 7086SOL    HW122157   4.812   1.121   6.030
 7086SOL    HW222158   4.834   1.199   5.889
 7087SOL     OW22159   6.253   4.270   3.584
 7087SOL    HW122160   6.261   4.251   3.682
 7087SOL    HW222161   6.267   4.186   3.532
 7088SOL     OW22162   5.171   2.711   3.895
 7088SOL    HW122163   5.177   2.617   3.861
 7088SOL    HW222164   5.231   2.770   3.841
 7089SOL     OW22165   3.028   2.147   5.998
 7089SOL    HW122166   2.982   2.236   5.994
 7089SOL    HW222167   3.096   2.148   6.071
 7090SOL     OW22168   3.146   1.522   6.274
 7090SOL    HW122169   3.213   1.503   6.202
 7090SOL    HW222170   3.102   1.610   6.256
 7091SOL     OW22171   7.008   2.317   6.927
 7091SOL    HW122172   6.988   2.219   6.922
 7091SOL    HW222173   6.928   2.369   6.898
 7092SOL     OW22174   4.448   2.710   6.088
 7092SOL    HW122175   4.448   2.610   6.094
 7092SOL    HW222176   4.489   2.738   6.001
 7093SOL     OW22177   3.045   3.941   3.782
 7093SOL    HW122178   3.033   3.924   3.685
 7093SOL    HW222179   2.981   3.884   3.834
 7094SOL     OW22180   0.835   5.937   5.897
 7094SOL    HW122181   0.783   6.013   5.858
 7094SOL    HW222182   0.784   5.896   5.972
 7095SOL     OW22183   2.630   3.002   0.043
 7095SOL    HW122184   2.698   2.937   0.077
 7095SOL    HW222185   2.539   2.960   0.048
 7096SOL     OW22186   6.076   0.990   3.830
 7096SOL    HW122187   5.977   1.006   3.830
 7096SOL    HW222188   6.099   0.922   3.761
 7097SOL     OW22189   6.595   0.550   1.846
 7097SOL    HW122190   6.562   0.561   1.752
 7097SOL    HW222191   6.519   0.523   1.905
 7098SOL     OW22192   1.038   6.628   4.484
 7098SOL    HW122193   0.964   6.568   4.455
 7098SOL    HW222194   1.105   6.637   4.411
 7099SOL     OW22195   2.360   0.420   4.648
 7099SOL    HW122196   2.297   0.497   4.663
 7099SOL    HW222197   2.355   0.357   4.725
 7100SOL     OW22198   5.446   3.292   1.137
 7100SOL    HW122199   5.462   3.216   1.200
 7100SOL    HW222200   5.402   3.258   1.054
 7101SOL     OW22201   1.919   6.928   5.001
 7101SOL    HW122202   1.861   7.008   5.010
 7101SOL    HW222203   1.870   6.847   5.033
 7102SOL     OW22204   4.672   0.705   1.130
 7102SOL    HW122205   4.733   0.704   1.050
 7102SOL    HW222206   4.614   0.786   1.125
 7103SOL     OW22207   4.015   5.423   0.535
 7103SOL    HW122208   4.016   5.522   0.548
 7103SOL    HW222209   4.107   5.387   0.549
 7104SOL     OW22210   1.267   2.893   4.506
 7104SOL    HW122211   1.347   2.932   4.552
 7104SOL    HW222212   1.194   2.962   4.501
 7105SOL     OW22213   2.970   2.629   5.387
 7105SOL    HW122214   2.991   2.576   5.469
 7105SOL    HW222215   2.895   2.586   5.337
 7106SOL     OW22216   3.466   2.933   3.174
 7106SOL    HW122217   3.493   2.873   3.098
 7106SOL    HW222218   3.367   2.951   3.167
 7107SOL     OW22219   2.966   0.932   0.693
 7107SOL    HW122220   2.946   0.932   0.595
 7107SOL    HW222221   3.053   0.884   0.710
 7108SOL     OW22222   3.880   6.071   1.507
 7108SOL    HW122223   3.938   6.048   1.585
 7108SOL    HW222224   3.859   6.168   1.508
 7109SOL     OW22225   3.510   6.994   6.531
 7109SOL    HW122226   3.600   6.974   6.492
 7109SOL    HW222227   3.517   6.998   6.631
 7110SOL     OW22228   4.864   5.690   3.820
 7110SOL    HW122229   4.822   5.768   3.866
 7110SOL    HW222230   4.952   5.718   3.781
 7111SOL     OW22231   1.847   2.227   4.628
 7111SOL    HW122232   1.882   2.264   4.542
 7111SOL    HW222233   1.772   2.164   4.610
 7112SOL     OW22234   2.247   5.716   3.690
 7112SOL    HW122235   2.274   5.642   3.629
 7112SOL    HW222236   2.256   5.686   3.785
 7113SOL     OW22237   3.061   4.025   4.894
 7113SOL    HW122238   2.961   4.029   4.898
 7113SOL    HW222239   3.100   4.091   4.958
 7114SOL     OW22240   4.042   6.986   2.347
 7114SOL    HW122241   3.958   6.932   2.345
 7114SOL    HW222242   4.023   0.053   2.310
 7115SOL     OW22243   4.965   2.813   1.947
 7115SOL    HW122244   5.023   2.841   2.024
 7115SOL    HW222245   4.876   2.859   1.954
 7116SOL     OW22246   5.625   3.145   3.526
 7116SOL    HW122247   5.641   3.161   3.428
 7116SOL    HW222248   5.649   3.227   3.578
 7117SOL     OW22249   0.179   6.916   4.357
 7117SOL    HW122250   0.222   7.005   4.375
 7117SOL    HW222251   0.239   6.843   4.389
 7118SOL     OW22252   3.652   3.800   0.686
 7118SOL    HW122253   3.718   3.747   0.633
 7118SOL    HW222254   3.620   3.878   0.633
 7119SOL     OW22255   5.218   1.678   3.376
 7119SOL    HW122256   5.259   1.678   3.467
 7119SOL    HW222257   5.154   1.754   3.368
 7120SOL     OW22258   4.131   1.723   2.893
 7120SOL    HW122259   4.163   1.688   2.805
 7120SOL    HW222260   4.160   1.661   2.966
 7121SOL     OW22261   3.234   6.958   2.361
 7121SOL    HW122262   3.196   6.901   2.287
 7121SOL    HW222263   3.186   0.021   2.362
 7122SOL     OW22264   6.732   1.315   6.390
 7122SOL    HW122265   6.749   1.337   6.294
 7122SOL    HW222266   6.803   1.254   6.423
 7123SOL     OW22267   2.819   4.749   1.354
 7123SOL    HW122268   2.752   4.820   1.376
 7123SOL    HW222269   2.911   4.780   1.381
 7124SOL     OW22270   0.814   3.507   0.367
 7124SOL    HW122271   0.885   3.527   0.435
 7124SOL    HW222272   0.725   3.536   0.402
 7125SOL     OW22273   6.629   6.507   1.517
 7125SOL    HW122274   6.613   6.497   1.615
 7125SOL    HW222275   6.650   6.602   1.496
 7126SOL     OW22276   2.979   4.793   6.447
 7126SOL    HW122277   3.014   4.748   6.365
 7126SOL    HW222278   3.034   4.874   6.466
 7127SOL     OW22279   2.620   5.782   4.296
 7127SOL    HW122280   2.651   5.817   4.385
 7127SOL    HW222281   2.564   5.852   4.251
 7128SOL     OW22282   2.425   5.473   0.069
 7128SOL    HW122283   2.465   5.385   0.044
 7128SOL    HW222284   2.452   5.542   0.001
 7129SOL     OW22285   3.435   0.410   0.490
 7129SOL    HW122286   3.381   0.455   0.561
 7129SOL    HW222287   3.389   0.327   0.460
 7130SOL     OW22288   3.208   4.957   4.974
 7130SOL    HW122289   3.302   4.962   4.939
 7130SOL    HW222290   3.174   5.050   4.989
 7131SOL     OW22291   3.059   1.299   0.630
 7131SOL    HW122292   3.041   1.258   0.719
 7131SOL    HW222293   2.998   1.259   0.561
 7132SOL     OW22294   2.906   4.179   0.962
 7132SOL    HW122295   2.886   4.250   0.895
 7132SOL    HW222296   2.903   4.218   1.054
 7133SOL     OW22297   4.761   5.426   3.833
 7133SOL    HW122298   4.833   5.496   3.840
 7133SOL    HW222299   4.800   5.343   3.791
 7134SOL     OW22300   6.402   5.793   2.344
 7134SOL    HW122301   6.374   5.801   2.248
 7134SOL    HW222302   6.349   5.857   2.400
 7135SOL     OW22303   1.711   1.664   3.244
 7135SOL    HW122304   1.715   1.762   3.262
 7135SOL    HW222305   1.682   1.648   3.149
 7136SOL     OW22306   1.686   2.899   1.095
 7136SOL    HW122307   1.602   2.850   1.119
 7136SOL    HW222308   1.723   2.862   1.009
 7137SOL     OW22309   4.877   0.506   6.222
 7137SOL    HW122310   4.813   0.460   6.160
 7137SOL    HW222311   4.859   0.605   6.220
 7138SOL     OW22312   2.277   2.720   0.695
 7138SOL    HW122313   2.262   2.793   0.762
 7138SOL    HW222314   2.212   2.647   0.710
 7139SOL     OW22315   4.956   3.724   2.489
 7139SOL    HW122316   4.964   3.671   2.405
 7139SOL    HW222317   4.932   3.663   2.565
 7140SOL     OW22318   6.204   3.154   4.485
 7140SOL    HW122319   6.202   3.054   4.484
 7140SOL    HW222320   6.203   3.188   4.391
 7141SOL     OW22321   3.058   6.332   0.745
 7141SOL    HW122322   3.012   6.248   0.774
 7141SOL    HW222323   3.061   6.335   0.645
 7142SOL     OW22324   4.297   6.672   3.258
 7142SOL    HW122325   4.376   6.689   3.199
 7142SOL    HW222326   4.322   6.691   3.353
 7143SOL     OW22327   1.615   2.568   5.978
 7143SOL    HW122328   1.709   2.600   5.980
 7143SOL    HW222329   1.561   2.624   5.914
 7144SOL     OW22330   1.914   1.475   3.820
 7144SOL    HW122331   1.832   1.471   3.876
 7144SOL    HW222332   1.890   1.458   3.724
 7145SOL     OW22333   4.554   6.317   5.838
 7145SOL    HW122334   4.649   6.340   5.817
 7145SOL    HW222335   4.507   6.285   5.756
 7146SOL     OW22336   2.093   0.308   6.986
 7146SOL    HW122337   2.132   0.398   6.962
 7146SOL    HW222338   2.160   0.237   6.964
 7147SOL     OW22339   6.456   6.059   3.102
 7147SOL    HW122340   6.411   6.142   3.134
 7147SOL    HW222341   6.548   6.054   3.141
 7148SOL     OW22342   6.844   6.175   1.640
 7148SOL    HW122343   6.942   6.154   1.634
 7148SOL    HW222344   6.815   6.222   1.557
 7149SOL     OW22345   6.446   6.878   3.452
 7149SOL    HW122346   6.536   6.922   3.448
 7149SOL    HW222347   6.387   6.915   3.381
 7150SOL     OW22348   4.614   2.316   1.597
 7150SOL    HW122349   4.606   2.340   1.693
 7150SOL    HW222350   4.602   2.398   1.541
 7151SOL     OW22351   1.297   5.804   0.775
 7151SOL    HW122352   1.325   5.867   0.846
 7151SOL    HW222353   1.288   5.712   0.813
 7152SOL     OW22354   0.548   2.438   5.155
 7152SOL    HW122355   0.475   2.471   5.214
 7152SOL    HW222356   0.593   2.516   5.111
 7153SOL     OW22357   3.471   6.211   3.410
 7153SOL    HW122358   3.427   6.246   3.492
 7153SOL    HW222359   3.413   6.230   3.330
 7154SOL     OW22360   3.952   6.606   5.066
 7154SOL    HW122361   3.999   6.603   4.978
 7154SOL    HW222362   3.855   6.583   5.053
 7155SOL     OW22363   2.364   5.758   1.738
 7155SOL    HW122364   2.359   5.694   1.660
 7155SOL    HW222365   2.323   5.715   1.819
 7156SOL     OW22366   0.539   4.476   4.650
 7156SOL    HW122367   0.597   4.524   4.584
 7156SOL    HW222368   0.465   4.429   4.602
 7157SOL     OW22369   6.354   4.220   0.952
 7157SOL    HW122370   6.325   4.126   0.933
 7157SOL    HW222371   6.398   4.258   0.871
 7158SOL     OW22372   0.912   0.234   2.981
 7158SOL    HW122373   0.934   0.189   2.895
 7158SOL    HW222374   0.858   0.316   2.963
 7159SOL     OW22375   0.121   4.526   2.755
 7159SOL    HW122376   0.076   4.472   2.684
 7159SOL    HW222377   0.196   4.474   2.794
 7160SOL     OW22378   6.175   6.995   3.005
 7160SOL    HW122379   6.093   0.018   2.975
 7160SOL    HW222380   6.207   0.009   3.091
 7161SOL     OW22381   3.248   4.096   5.086
 7161SOL    HW122382   3.329   4.095   5.028
 7161SOL    HW222383   3.257   4.170   5.154
 7162SOL     OW22384   2.723   6.105   6.073
 7162SOL    HW122385   2.723   6.175   6.144
 7162SOL    HW222386   2.732   6.147   5.984
 7163SOL     OW22387   2.841   6.442   3.739
 7163SOL    HW122388   2.837   6.525   3.683
 7163SOL    HW222389   2.876   6.366   3.685
 7164SOL     OW22390   1.970   1.728   3.433
 7164SOL    HW122391   2.002   1.734   3.339
 7164SOL    HW222392   1.994   1.638   3.471
 7165SOL     OW22393   6.755   1.333   1.272
 7165SOL    HW122394   6.743   1.430   1.296
 7165SOL    HW222395   6.807   1.288   1.344
 7166SOL     OW22396   5.221   3.091   0.245
 7166SOL    HW122397   5.220   3.034   0.327
 7166SOL    HW222398   5.129   3.097   0.207
 7167SOL     OW22399   5.339   3.619   4.978
 7167SOL    HW122400   5.279   3.545   5.010
 7167SOL    HW222401   5.329   3.629   4.879
 7168SOL     OW22402   1.079   2.373   3.950
 7168SOL    HW122403   1.092   2.352   4.047
 7168SOL    HW222404   1.004   2.438   3.939
 7169SOL     OW22405   0.721   3.406   5.225
 7169SOL    HW122406   0.650   3.473   5.248
 7169SOL    HW222407   0.806   3.454   5.202
 7170SOL     OW22408   4.908   6.206   4.067
 7170SOL    HW122409   4.892   6.206   4.165
 7170SOL    HW222410   4.946   6.118   4.039
 7171SOL     OW22411   5.688   4.203   6.419
 7171SOL    HW122412   5.733   4.272   6.476
 7171SOL    HW222413   5.711   4.220   6.323
 7172SOL     OW22414   1.478   0.392   5.828
 7172SOL    HW122415   1.396   0.431   5.870
 7172SOL    HW222416   1.497   0.302   5.867
 7173SOL     OW22417   6.930   4.890   5.292
 7173SOL    HW122418   7.022   4.907   5.326
 7173SOL    HW222419   6.914   4.942   5.209
 7174SOL     OW22420   0.872   5.183   6.482
 7174SOL    HW122421   0.932   5.259   6.458
 7174SOL    HW222422   0.865   5.176   6.582
 7175SOL     OW22423   5.674   3.579   0.392
 7175SOL    HW122424   5.592   3.584   0.336
 7175SOL    HW222425   5.683   3.486   0.430
 7176SOL     OW22426   0.546   5.422   3.179
 7176SOL    HW122427   0.578   5.347   3.121
 7176SOL    HW222428   0.476   5.388   3.242
 7177SOL     OW22429   2.413   0.148   4.097
 7177SOL    HW122430   2.479   0.073   4.103
 7177SOL    HW222431   2.400   0.173   4.001
 7178SOL     OW22432   2.530   3.167   5.736
 7178SOL    HW122433   2.510   3.196   5.643
 7178SOL    HW222434   2.611   3.108   5.736
 7179SOL     OW22435   1.495   3.097   4.912
 7179SOL    HW122436   1.575   3.152   4.937
 7179SOL    HW222437   1.446   3.070   4.996
 7180SOL     OW22438   1.282   4.853   6.584
 7180SOL    HW122439   1.204   4.897   6.539
 7180SOL    HW222440   1.351   4.828   6.516
 7181SOL     OW22441   2.444   6.114   0.880
 7181SOL    HW122442   2.524   6.103   0.820
 7181SOL    HW222443   2.473   6.151   0.968
 7182SOL     OW22444   2.063   3.425   5.053
 7182SOL    HW122445   2.124   3.476   4.992
 7182SOL    HW222446   2.117   3.367   5.113
 7183SOL     OW22447   1.374   5.316   1.070
 7183SOL    HW122448   1.291   5.260   1.069
 7183SOL    HW222449   1.399   5.336   1.164
 7184SOL     OW22450   0.990   0.506   3.143
 7184SOL    HW122451   0.957   0.525   3.050
 7184SOL    HW222452   0.982   0.408   3.161
 7185SOL     OW22453   5.183   1.653   5.641
 7185SOL    HW122454   5.230   1.598   5.572
 7185SOL    HW222455   5.250   1.703   5.695
 7186SOL     OW22456   6.861   0.117   6.387
 7186SOL    HW122457   6.822   0.052   6.322
 7186SOL    HW222458   6.836   0.089   6.480
 7187SOL     OW22459   2.394   4.767   0.864
 7187SOL    HW122460   2.464   4.722   0.919
 7187SOL    HW222461   2.403   4.867   0.873
 7188SOL     OW22462   5.317   6.822   0.564
 7188SOL    HW122463   5.318   6.910   0.610
 7188SOL    HW222464   5.409   6.798   0.534
 7189SOL     OW22465   6.478   1.673   6.438
 7189SOL    HW122466   6.379   1.673   6.425
 7189SOL    HW222467   6.521   1.622   6.365
 7190SOL     OW22468   5.618   3.843   3.207
 7190SOL    HW122469   5.711   3.807   3.216
 7190SOL    HW222470   5.623   3.937   3.173
 7191SOL     OW22471   0.109   4.786   2.660
 7191SOL    HW122472   0.187   4.848   2.659
 7191SOL    HW222473   0.138   4.697   2.694
 7192SOL     OW22474   2.382   5.388   4.831
 7192SOL    HW122475   2.445   5.318   4.866
 7192SOL    HW222476   2.292   5.347   4.816
 7193SOL     OW22477   2.920   1.468   3.217
 7193SOL    HW122478   2.890   1.556   3.255
 7193SOL    HW222479   2.901   1.395   3.283
 7194SOL     OW22480   2.616   2.440   0.926
 7194SOL    HW122481   2.674   2.411   1.002
 7194SOL    HW222482   2.556   2.515   0.956
 7195SOL     OW22483   0.631   5.150   6.349
 7195SOL    HW122484   0.717   5.162   6.399
 7195SOL    HW222485   0.617   5.227   6.288
 7196SOL     OW22486   3.361   4.084   2.090
 7196SOL    HW122487   3.279   4.028   2.080
 7196SOL    HW222488   3.363   4.152   2.016
 7197SOL     OW22489   0.230   2.357   5.993
 7197SOL    HW122490   0.317   2.405   5.996
 7197SOL    HW222491   0.187   2.371   5.904
 7198SOL     OW22492   0.967   1.079   5.765
 7198SOL    HW122493   0.948   1.094   5.668
 7198SOL    HW222494   0.900   1.130   5.820
 7199SOL     OW22495   2.504   0.603   2.190
 7199SOL    HW122496   2.603   0.591   2.196
 7199SOL    HW222497   2.458   0.516   2.209
 7200SOL     OW22498   2.374   1.470   0.549
 7200SOL    HW122499   2.383   1.531   0.471
 7200SOL    HW222500   2.430   1.504   0.625
 7201SOL     OW22501   1.696   5.569   3.752
 7201SOL    HW122502   1.640   5.612   3.823
 7201SOL    HW222503   1.711   5.635   3.678
 7202SOL     OW22504   4.162   0.121   5.810
 7202SOL    HW122505   4.215   0.191   5.856
 7202SOL    HW222506   4.195   0.030   5.837
 7203SOL     OW22507   0.114   1.060   1.019
 7203SOL    HW122508   0.118   1.147   0.969
 7203SOL    HW222509   0.172   1.065   1.100
 7204SOL     OW22510   6.546   6.633   5.027
 7204SOL    HW122511   6.526   6.549   4.976
 7204SOL    HW222512   6.462   6.687   5.036
 7205SOL     OW22513   2.190   5.862   3.017
 7205SOL    HW122514   2.272   5.806   3.027
 7205SOL    HW222515   2.181   5.922   3.097
 7206SOL     OW22516   1.745   0.520   1.620
 7206SOL    HW122517   1.649   0.509   1.597
 7206SOL    HW222518   1.755   0.597   1.684
 7207SOL     OW22519   3.530   6.678   1.171
 7207SOL    HW122520   3.541   6.774   1.148
 7207SOL    HW222521   3.462   6.636   1.111
 7208SOL     OW22522   4.268   6.489   4.343
 7208SOL    HW122523   4.274   6.526   4.250
 7208SOL    HW222524   4.321   6.405   4.349
 7209SOL     OW22525   2.977   3.540   2.762
 7209SOL    HW122526   3.051   3.562   2.699
 7209SOL    HW222527   2.984   3.600   2.842
 7210SOL     OW22528   4.684   6.917   4.102
 7210SOL    HW122529   4.726   6.947   4.187
 7210SOL    HW222530   4.737   6.950   4.024
 7211SOL     OW22531   2.283   5.653   3.939
 7211SOL    HW122532   2.294   5.566   3.987
 7211SOL    HW222533   2.364   5.710   3.954
 7212SOL     OW22534   0.921   6.048   3.214
 7212SOL    HW122535   0.832   6.018   3.180
 7212SOL    HW222536   0.907   6.103   3.297
 7213SOL     OW22537   5.785   0.646   6.941
 7213SOL    HW122538   5.695   0.632   6.899
 7213SOL    HW222539   5.853   0.661   6.870
 7214SOL     OW22540   1.934   5.425   4.464
 7214SOL    HW122541   1.836   5.437   4.451
 7214SOL    HW222542   1.958   5.329   4.447
 7215SOL     OW22543   0.723   3.366   3.918
 7215SOL    HW122544   0.784   3.354   3.996
 7215SOL    HW222545   0.639   3.313   3.932
 7216SOL     OW22546   2.108   5.749   6.879
 7216SOL    HW122547   2.133   5.658   6.846
 7216SOL    HW222548   2.190   5.795   6.914
 7217SOL     OW22549   2.389   4.147   1.844
 7217SOL    HW122550   2.331   4.092   1.783
 7217SOL    HW222551   2.478   4.103   1.854
 7218SOL     OW22552   4.444   2.837   5.340
 7218SOL    HW122553   4.432   2.742   5.312
 7218SOL    HW222554   4.524   2.876   5.294
 7219SOL     OW22555   5.444   5.631   4.041
 7219SOL    HW122556   5.527   5.598   4.088
 7219SOL    HW222557   5.372   5.646   4.109
 7220SOL     OW22558   0.496   5.565   4.008
 7220SOL    HW122559   0.410   5.517   3.990
 7220SOL    HW222560   0.501   5.590   4.105
 7221SOL     OW22561   5.158   4.906   5.318
 7221SOL    HW122562   5.217   4.981   5.346
 7221SOL    HW222563   5.185   4.822   5.365
 7222SOL     OW22564   6.218   6.785   1.636
 7222SOL    HW122565   6.195   6.778   1.539
 7222SOL    HW222566   6.222   6.882   1.662
 7223SOL     OW22567   2.662   1.991   1.629
 7223SOL    HW122568   2.712   2.068   1.588
 7223SOL    HW222569   2.709   1.906   1.608
 7224SOL     OW22570   5.785   2.211   4.412
 7224SOL    HW122571   5.838   2.131   4.442
 7224SOL    HW222572   5.688   2.193   4.425
 7225SOL     OW22573   1.121   6.596   6.157
 7225SOL    HW122574   1.172   6.682   6.155
 7225SOL    HW222575   1.092   6.578   6.251
 7226SOL     OW22576   1.054   0.251   0.526
 7226SOL    HW122577   0.979   0.185   0.527
 7226SOL    HW222578   1.074   0.277   0.431
 7227SOL     OW22579   0.532   2.646   1.233
 7227SOL    HW122580   0.474   2.571   1.266
 7227SOL    HW222581   0.574   2.692   1.312
 7228SOL     OW22582   0.173   1.349   2.219
 7228SOL    HW122583   0.222   1.285   2.277
 7228SOL    HW222584   0.237   1.398   2.161
 7229SOL     OW22585   1.149   0.748   3.626
 7229SOL    HW122586   1.222   0.723   3.689
 7229SOL    HW222587   1.062   0.710   3.658
 7230SOL     OW22588   4.673   6.072   4.743
 7230SOL    HW122589   4.593   6.130   4.759
 7230SOL    HW222590   4.754   6.116   4.780
 7231SOL     OW22591   4.657   0.129   0.162
 7231SOL    HW122592   4.749   0.158   0.138
 7231SOL    HW222593   4.657   0.033   0.189
 7232SOL     OW22594   3.765   4.886   3.426
 7232SOL    HW122595   3.720   4.832   3.497
 7232SOL    HW222596   3.710   4.884   3.342
 7233SOL     OW22597   0.340   2.762   4.499
 7233SOL    HW122598   0.434   2.777   4.530
 7233SOL    HW222599   0.330   2.669   4.464
 7234SOL     OW22600   5.914   2.776   2.622
 7234SOL    HW122601   5.980   2.783   2.548
 7234SOL    HW222602   5.825   2.749   2.585
 7235SOL     OW22603   6.490   4.503   2.821
 7235SOL    HW122604   6.589   4.509   2.831
 7235SOL    HW222605   6.449   4.594   2.833
 7236SOL     OW22606   2.940   1.694   2.691
 7236SOL    HW122607   2.964   1.599   2.712
 7236SOL    HW222608   2.841   1.701   2.678
 7237SOL     OW22609   6.579   6.654   5.324
 7237SOL    HW122610   6.561   6.752   5.327
 7237SOL    HW222611   6.577   6.623   5.229
 7238SOL     OW22612   2.284   2.223   1.078
 7238SOL    HW122613   2.265   2.272   0.993
 7238SOL    HW222614   2.220   2.254   1.149
 7239SOL     OW22615   2.750   1.712   3.776
 7239SOL    HW122616   2.650   1.704   3.771
 7239SOL    HW222617   2.779   1.799   3.738
 7240SOL     OW22618   2.629   4.191   6.556
 7240SOL    HW122619   2.718   4.156   6.585
 7240SOL    HW222620   2.626   4.290   6.571
 7241SOL     OW22621   2.939   0.451   6.907
 7241SOL    HW122622   3.037   0.447   6.887
 7241SOL    HW222623   2.895   0.367   6.875
 7242SOL     OW22624   6.520   4.885   6.706
 7242SOL    HW122625   6.499   4.895   6.609
 7242SOL    HW222626   6.530   4.788   6.729
 7243SOL     OW22627   0.689   4.767   6.769
 7243SOL    HW122628   0.682   4.865   6.789
 7243SOL    HW222629   0.662   4.714   6.849
 7244SOL     OW22630   4.365   0.518   1.321
 7244SOL    HW122631   4.338   0.612   1.345
 7244SOL    HW222632   4.351   0.503   1.224
 7245SOL     OW22633   0.502   2.385   4.879
 7245SOL    HW122634   0.467   2.328   4.954
 7245SOL    HW222635   0.539   2.469   4.917
 7246SOL     OW22636   6.384   6.938   4.918
 7246SOL    HW122637   6.308   6.959   4.857
 7246SOL    HW222638   6.354   6.872   4.987
 7247SOL     OW22639   2.830   6.650   2.940
 7247SOL    HW122640   2.777   6.681   3.018
 7247SOL    HW222641   2.899   6.584   2.971
 7248SOL     OW22642   3.689   1.130   3.779
 7248SOL    HW122643   3.729   1.051   3.826
 7248SOL    HW222644   3.713   1.127   3.683
 7249SOL     OW22645   5.745   5.117   1.947
 7249SOL    HW122646   5.677   5.097   2.017
 7249SOL    HW222647   5.758   5.037   1.889
 7250SOL     OW22648   3.028   4.972   6.133
 7250SOL    HW122649   2.953   4.982   6.068
 7250SOL    HW222650   2.994   4.987   6.226
 7251SOL     OW22651   0.019   6.665   5.530
 7251SOL    HW122652   6.978   6.619   5.471
 7251SOL    HW222653   6.995   6.715   5.602
 7252SOL     OW22654   3.146   2.989   4.403
 7252SOL    HW122655   3.121   2.914   4.343
 7252SOL    HW222656   3.216   2.958   4.467
 7253SOL     OW22657   1.094   6.793   0.260
 7253SOL    HW122658   1.024   6.856   0.223
 7253SOL    HW222659   1.147   6.841   0.330
 7254SOL     OW22660   4.044   5.376   5.114
 7254SOL    HW122661   4.107   5.337   5.047
 7254SOL    HW222662   4.054   5.327   5.201
 7255SOL     OW22663   3.381   3.781   2.169
 7255SOL    HW122664   3.479   3.780   2.191
 7255SOL    HW222665   3.338   3.696   2.199
 7256SOL     OW22666   4.930   4.857   4.688
 7256SOL    HW122667   4.878   4.906   4.759
 7256SOL    HW222668   5.019   4.903   4.676
 7257SOL     OW22669   5.901   3.039   3.259
 7257SOL    HW122670   5.840   3.116   3.277
 7257SOL    HW222671   5.980   3.045   3.320
 7258SOL     OW22672   4.612   0.047   4.462
 7258SOL    HW122673   4.697   0.012   4.422
 7258SOL    HW222674   4.591   0.136   4.422
 7259SOL     OW22675   3.158   4.139   1.267
 7259SOL    HW122676   3.228   4.178   1.207
 7259SOL    HW222677   3.176   4.042   1.281
 7260SOL     OW22678   3.675   2.060   3.080
 7260SOL    HW122679   3.693   2.003   3.000
 7260SOL    HW222680   3.738   2.138   3.081
 7261SOL     OW22681   3.270   2.625   1.700
 7261SOL    HW122682   3.363   2.590   1.688
 7261SOL    HW222683   3.209   2.585   1.632
 7262SOL     OW22684   6.018   2.168   3.860
 7262SOL    HW122685   5.957   2.239   3.895
 7262SOL    HW222686   6.112   2.187   3.887
 7263SOL     OW22687   0.801   5.589   1.891
 7263SOL    HW122688   0.858   5.508   1.900
 7263SOL    HW222689   0.706   5.566   1.911
 7264SOL     OW22690   0.106   2.077   6.798
 7264SOL    HW122691   0.014   2.043   6.815
 7264SOL    HW222692   0.167   2.001   6.774
 7265SOL     OW22693   5.543   5.107   6.209
 7265SOL    HW122694   5.462   5.067   6.253
 7265SOL    HW222695   5.544   5.080   6.113
 7266SOL     OW22696   4.282   0.494   1.063
 7266SOL    HW122697   4.260   0.588   1.037
 7266SOL    HW222698   4.273   0.435   0.983
 7267SOL     OW22699   6.464   4.870   5.418
 7267SOL    HW122700   6.564   4.867   5.420
 7267SOL    HW222701   6.434   4.909   5.331
 7268SOL     OW22702   4.058   4.842   2.989
 7268SOL    HW122703   4.129   4.773   2.995
 7268SOL    HW222704   4.001   4.840   3.072
 7269SOL     OW22705   0.330   6.008   1.791
 7269SOL    HW122706   0.421   6.030   1.756
 7269SOL    HW222707   0.305   6.073   1.864
 7270SOL     OW22708   2.112   1.841   3.217
 7270SOL    HW122709   2.026   1.891   3.231
 7270SOL    HW222710   2.183   1.904   3.185
 7271SOL     OW22711   0.621   4.359   3.130
 7271SOL    HW122712   0.697   4.421   3.148
 7271SOL    HW222713   0.598   4.362   3.032
 7272SOL     OW22714   5.428   2.938   2.795
 7272SOL    HW122715   5.400   2.845   2.772
 7272SOL    HW222716   5.494   2.971   2.728
 7273SOL     OW22717   5.838   4.454   1.533
 7273SOL    HW122718   5.882   4.431   1.446
 7273SOL    HW222719   5.770   4.385   1.556
 7274SOL     OW22720   6.879   5.595   6.298
 7274SOL    HW122721   6.949   5.639   6.241
 7274SOL    HW222722   6.827   5.664   6.347
 7275SOL     OW22723   5.939   0.844   0.469
 7275SOL    HW122724   6.016   0.858   0.531
 7275SOL    HW222725   5.965   0.873   0.376
 7276SOL     OW22726   3.182   1.404   3.711
 7276SOL    HW122727   3.246   1.398   3.634
 7276SOL    HW222728   3.228   1.375   3.795
 7277SOL     OW22729   5.005   1.004   5.557
 7277SOL    HW122730   5.062   0.936   5.511
 7277SOL    HW222731   4.964   0.964   5.639
 7278SOL     OW22732   3.927   2.193   3.078
 7278SOL    HW122733   4.011   2.243   3.101
 7278SOL    HW222734   3.948   2.124   3.009
 7279SOL     OW22735   4.335   4.145   0.722
 7279SOL    HW122736   4.377   4.140   0.813
 7279SOL    HW222737   4.314   4.053   0.690
 7280SOL     OW22738   5.341   2.359   5.268
 7280SOL    HW122739   5.349   2.450   5.308
 7280SOL    HW222740   5.249   2.346   5.232
 7281SOL     OW22741   3.078   0.058   0.936
 7281SOL    HW122742   3.150   7.014   0.941
 7281SOL    HW222743   3.046   0.079   1.029
 7282SOL     OW22744   6.583   5.748   1.522
 7282SOL    HW122745   6.662   5.795   1.560
 7282SOL    HW222746   6.503   5.764   1.581
 7283SOL     OW22747   3.246   6.568   1.886
 7283SOL    HW122748   3.287   6.488   1.842
 7283SOL    HW222749   3.316   6.638   1.901
 7284SOL     OW22750   6.620   2.714   3.843
 7284SOL    HW122751   6.538   2.657   3.843
 7284SOL    HW222752   6.595   2.808   3.863
 7285SOL     OW22753   4.987   2.690   1.430
 7285SOL    HW122754   4.997   2.779   1.385
 7285SOL    HW222755   5.069   2.669   1.483
 7286SOL     OW22756   1.099   1.214   0.387
 7286SOL    HW122757   1.015   1.264   0.369
 7286SOL    HW222758   1.080   1.116   0.388
 7287SOL     OW22759   0.104   2.856   3.773
 7287SOL    HW122760   0.058   2.869   3.686
 7287SOL    HW222761   0.122   2.944   3.816
 7288SOL     OW22762   2.225   2.398   2.718
 7288SOL    HW122763   2.180   2.479   2.755
 7288SOL    HW222764   2.296   2.367   2.780
 7289SOL     OW22765   5.386   2.661   2.136
 7289SOL    HW122766   5.298   2.671   2.181
 7289SOL    HW222767   5.373   2.618   2.047
 7290SOL     OW22768   3.974   0.895   5.429
 7290SOL    HW122769   3.925   0.978   5.454
 7290SOL    HW222770   4.004   0.848   5.512
 7291SOL     OW22771   3.306   6.888   0.084
 7291SOL    HW122772   3.345   6.979   0.099
 7291SOL    HW222773   3.208   6.897   0.066
 7292SOL     OW22774   1.741   6.694   3.734
 7292SOL    HW122775   1.735   6.676   3.636
 7292SOL    HW222776   1.835   6.679   3.765
 7293SOL     OW22777   1.153   1.570   5.883
 7293SOL    HW122778   1.057   1.555   5.858
 7293SOL    HW222779   1.159   1.589   5.981
 7294SOL     OW22780   3.084   4.561   1.667
 7294SOL    HW122781   3.013   4.510   1.716
 7294SOL    HW222782   3.147   4.496   1.625
 7295SOL     OW22783   6.315   4.940   1.375
 7295SOL    HW122784   6.230   4.992   1.366
 7295SOL    HW222785   6.383   4.978   1.312
 7296SOL     OW22786   3.691   4.999   2.578
 7296SOL    HW122787   3.750   4.968   2.652
 7296SOL    HW222788   3.721   4.957   2.492
 7297SOL     OW22789   3.303   6.302   1.766
 7297SOL    HW122790   3.345   6.349   1.688
 7297SOL    HW222791   3.365   6.231   1.799
 7298SOL     OW22792   4.449   6.293   6.906
 7298SOL    HW122793   4.383   6.223   6.881
 7298SOL    HW222794   4.539   6.271   6.867
 7299SOL     OW22795   1.164   2.330   0.220
 7299SOL    HW122796   1.209   2.244   0.246
 7299SOL    HW222797   1.104   2.360   0.293
 7300SOL     OW22798   0.939   5.076   1.879
 7300SOL    HW122799   0.959   5.068   1.977
 7300SOL    HW222800   0.840   5.073   1.865
 7301SOL     OW22801   6.954   0.571   5.921
 7301SOL    HW122802   6.999   0.483   5.914
 7301SOL    HW222803   6.857   0.561   5.897
 7302SOL     OW22804   5.847   2.916   6.182
 7302SOL    HW122805   5.780   2.991   6.182
 7302SOL    HW222806   5.800   2.830   6.202
 7303SOL     OW22807   3.215   1.522   0.551
 7303SOL    HW122808   3.153   1.594   0.519
 7303SOL    HW222809   3.162   1.443   0.581
 7304SOL     OW22810   2.514   5.277   1.814
 7304SOL    HW122811   2.464   5.194   1.838
 7304SOL    HW222812   2.509   5.341   1.891
 7305SOL     OW22813   5.627   2.806   0.498
 7305SOL    HW122814   5.709   2.787   0.554
 7305SOL    HW222815   5.649   2.790   0.402
 7306SOL     OW22816   3.340   1.537   1.261
 7306SOL    HW122817   3.329   1.629   1.298
 7306SOL    HW222818   3.433   1.505   1.277
 7307SOL     OW22819   3.782   6.235   1.793
 7307SOL    HW122820   3.702   6.292   1.775
 7307SOL    HW222821   3.770   6.186   1.879
 7308SOL     OW22822   6.191   0.898   2.258
 7308SOL    HW122823   6.282   0.893   2.298
 7308SOL    HW222824   6.196   0.944   2.170
 7309SOL     OW22825   2.623   5.926   2.992
 7309SOL    HW122826   2.575   5.840   2.976
 7309SOL    HW222827   2.578   5.976   3.066
 7310SOL     OW22828   1.275   2.829   0.313
 7310SOL    HW122829   1.316   2.746   0.275
 7310SOL    HW222830   1.189   2.848   0.266
 7311SOL     OW22831   1.101   0.316   0.260
 7311SOL    HW122832   1.080   0.378   0.185
 7311SOL    HW222833   1.200   0.302   0.265
 7312SOL     OW22834   0.295   1.633   5.113
 7312SOL    HW122835   0.212   1.597   5.155
 7312SOL    HW222836   0.355   1.557   5.089
 7313SOL     OW22837   2.724   0.879   0.805
 7313SOL    HW122838   2.742   0.791   0.849
 7313SOL    HW222839   2.807   0.911   0.758
 7314SOL     OW22840   0.159   4.019   0.060
 7314SOL    HW122841   0.070   3.976   0.044
 7314SOL    HW222842   0.231   3.953   0.038
 7315SOL     OW22843   6.443   5.539   2.420
 7315SOL    HW122844   6.419   5.631   2.390
 7315SOL    HW222845   6.513   5.501   2.359
 7316SOL     OW22846   3.129   2.031   6.418
 7316SOL    HW122847   3.179   2.116   6.407
 7316SOL    HW222848   3.077   2.033   6.504
 7317SOL     OW22849   3.298   1.738   2.026
 7317SOL    HW122850   3.245   1.675   2.082
 7317SOL    HW222851   3.329   1.814   2.082
 7318SOL     OW22852   3.950   6.730   2.499
 7318SOL    HW122853   3.891   6.800   2.539
 7318SOL    HW222854   4.011   6.693   2.568
 7319SOL     OW22855   6.873   3.491   6.623
 7319SOL    HW122856   6.781   3.491   6.582
 7319SOL    HW222857   6.937   3.447   6.560
 7320SOL     OW22858   6.758   3.742   1.091
 7320SOL    HW122859   6.798   3.669   1.146
 7320SOL    HW222860   6.824   3.774   1.024
 7321SOL     OW22861   1.711   6.155   6.388
 7321SOL    HW122862   1.719   6.065   6.431
 7321SOL    HW222863   1.802   6.194   6.376
 7322SOL     OW22864   0.964   1.728   3.284
 7322SOL    HW122865   0.936   1.650   3.228
 7322SOL    HW222866   0.942   1.813   3.236
 7323SOL     OW22867   2.218   1.305   1.974
 7323SOL    HW122868   2.293   1.332   1.914
 7323SOL    HW222869   2.145   1.374   1.970
 7324SOL     OW22870   5.908   4.428   2.069
 7324SOL    HW122871   6.001   4.395   2.052
 7324SOL    HW222872   5.906   4.476   2.157
 7325SOL     OW22873   3.610   0.516   5.918
 7325SOL    HW122874   3.640   0.476   5.831
 7325SOL    HW222875   3.511   0.504   5.926
 7326SOL     OW22876   3.358   0.804   6.438
 7326SOL    HW122877   3.292   0.800   6.513
 7326SOL    HW222878   3.329   0.874   6.373
 7327SOL     OW22879   5.903   3.929   3.047
 7327SOL    HW122880   5.995   3.890   3.048
 7327SOL    HW222881   5.896   4.000   3.116
 7328SOL     OW22882   3.996   5.162   5.721
 7328SOL    HW122883   3.977   5.120   5.809
 7328SOL    HW222884   4.053   5.100   5.666
 7329SOL     OW22885   1.041   2.558   7.014
 7329SOL    HW122886   1.116   2.612   6.977
 7329SOL    HW222887   1.053   2.462   6.990
 7330SOL     OW22888   2.871   3.026   1.098
 7330SOL    HW122889   2.874   3.122   1.071
 7330SOL    HW222890   2.862   2.968   1.016
 7331SOL     OW22891   4.701   0.320   1.894
 7331SOL    HW122892   4.729   0.415   1.906
 7331SOL    HW222893   4.605   0.310   1.918
 7332SOL     OW22894   3.887   4.189   0.201
 7332SOL    HW122895   3.933   4.152   0.120
 7332SOL    HW222896   3.891   4.289   0.199
 7333SOL     OW22897   5.840   3.553   3.221
 7333SOL    HW122898   5.845   3.520   3.126
 7333SOL    HW222899   5.746   3.549   3.253
 7334SOL     OW22900   3.046   6.428   6.127
 7334SOL    HW122901   3.016   6.481   6.048
 7334SOL    HW222902   3.063   6.490   6.204
 7335SOL     OW22903   6.616   3.342   3.035
 7335SOL    HW122904   6.668   3.292   2.967
 7335SOL    HW222905   6.519   3.342   3.010
 7336SOL     OW22906   1.513   6.317   0.991
 7336SOL    HW122907   1.588   6.269   0.946
 7336SOL    HW222908   1.538   6.333   1.087
 7337SOL     OW22909   3.498   2.551   1.537
 7337SOL    HW122910   3.591   2.586   1.524
 7337SOL    HW222911   3.502   2.452   1.551
 7338SOL     OW22912   5.567   2.539   1.410
 7338SOL    HW122913   5.656   2.568   1.444
 7338SOL    HW222914   5.563   2.553   1.311
 7339SOL     OW22915   0.031   6.137   5.074
 7339SOL    HW122916   0.089   6.127   5.155
 7339SOL    HW222917   0.064   6.077   5.002
 7340SOL     OW22918   3.348   1.136   0.030
 7340SOL    HW122919   3.346   1.065   6.986
 7340SOL    HW222920   3.400   1.215   7.021
 7341SOL     OW22921   0.962   4.955   4.297
 7341SOL    HW122922   1.058   4.957   4.324
 7341SOL    HW222923   0.939   5.040   4.248
 7342SOL     OW22924   6.764   0.671   0.791
 7342SOL    HW122925   6.688   0.707   0.846
 7342SOL    HW222926   6.769   0.721   0.705
 7343SOL     OW22927   5.998   3.508   1.763
 7343SOL    HW122928   5.944   3.588   1.740
 7343SOL    HW222929   6.084   3.537   1.805
 7344SOL     OW22930   1.600   6.714   6.672
 7344SOL    HW122931   1.576   6.769   6.752
 7344SOL    HW222932   1.699   6.718   6.657
 7345SOL     OW22933   4.591   4.924   5.754
 7345SOL    HW122934   4.625   4.953   5.843
 7345SOL    HW222935   4.563   4.828   5.758
 7346SOL     OW22936   3.492   4.100   1.001
 7346SOL    HW122937   3.485   4.105   1.100
 7346SOL    HW222938   3.417   4.151   0.959
 7347SOL     OW22939   6.087   2.499   2.188
 7347SOL    HW122940   6.148   2.548   2.250
 7347SOL    HW222941   5.992   2.519   2.213
 7348SOL     OW22942   1.373   3.265   4.046
 7348SOL    HW122943   1.434   3.338   4.016
 7348SOL    HW222944   1.359   3.272   4.145
 7349SOL     OW22945   3.666   1.782   1.368
 7349SOL    HW122946   3.593   1.742   1.423
 7349SOL    HW222947   3.705   1.861   1.415
 7350SOL     OW22948   0.300   2.941   3.479
 7350SOL    HW122949   0.318   3.016   3.416
 7350SOL    HW222950   0.201   2.925   3.485
 7351SOL     OW22951   4.226   4.518   6.681
 7351SOL    HW122952   4.276   4.600   6.654
 7351SOL    HW222953   4.287   4.457   6.731
 7352SOL     OW22954   1.327   1.543   3.441
 7352SOL    HW122955   1.308   1.445   3.451
 7352SOL    HW222956   1.261   1.595   3.495
 7353SOL     OW22957   0.116   1.860   5.308
 7353SOL    HW122958   0.079   1.854   5.215
 7353SOL    HW222959   0.173   1.779   5.326
 7354SOL     OW22960   6.609   1.157   5.941
 7354SOL    HW122961   6.671   1.086   5.974
 7354SOL    HW222962   6.571   1.207   6.019
 7355SOL     OW22963   1.730   5.415   1.512
 7355SOL    HW122964   1.825   5.422   1.541
 7355SOL    HW222965   1.708   5.491   1.450
 7356SOL     OW22966   5.564   2.321   6.599
 7356SOL    HW122967   5.511   2.249   6.642
 7356SOL    HW222968   5.523   2.410   6.620
 7357SOL     OW22969   5.031   0.854   1.276
 7357SOL    HW122970   4.954   0.917   1.289
 7357SOL    HW222971   5.044   0.836   1.179
 7358SOL     OW22972   2.981   1.890   2.939
 7358SOL    HW122973   2.990   1.944   2.855
 7358SOL    HW222974   2.953   1.797   2.915
 7359SOL     OW22975   3.338   2.638   1.266
 7359SOL    HW122976   3.251   2.685   1.284
 7359SOL    HW222977   3.387   2.626   1.352
 7360SOL     OW22978   1.349   2.640   5.160
 7360SOL    HW122979   1.316   2.548   5.182
 7360SOL    HW222980   1.356   2.649   5.061
 7361SOL     OW22981   5.165   0.163   1.017
 7361SOL    HW122982   5.156   0.253   0.973
 7361SOL    HW222983   5.122   0.093   0.959
 7362SOL     OW22984   0.743   0.073   5.380
 7362SOL    HW122985   0.765   0.159   5.335
 7362SOL    HW222986   0.657   0.037   5.342
 7363SOL     OW22987   5.410   2.199   0.723
 7363SOL    HW122988   5.466   2.190   0.640
 7363SOL    HW222989   5.394   2.295   0.742
 7364SOL     OW22990   4.093   6.358   1.361
 7364SOL    HW122991   4.074   6.372   1.264
 7364SOL    HW222992   4.192   6.353   1.375
 7365SOL     OW22993   3.195   6.545   2.350
 7365SOL    HW122994   3.231   6.456   2.325
 7365SOL    HW222995   3.266   6.599   2.394
 7366SOL     OW22996   0.875   5.288   0.261
 7366SOL    HW122997   0.895   5.324   0.352
 7366SOL    HW222998   0.830   5.359   0.206
 7367SOL     OW22999   4.287   4.083   1.390
 7367SOL    HW123000   4.273   4.175   1.426
 7367SOL    HW223001   4.212   4.060   1.328
 7368SOL     OW23002   3.068   3.154   4.207
 7368SOL    HW123003   3.043   3.241   4.249
 7368SOL    HW223004   3.119   3.099   4.273
 7369SOL     OW23005   4.837   3.109   1.142
 7369SOL    HW123006   4.827   3.201   1.104
 7369SOL    HW223007   4.748   3.078   1.176
 7370SOL     OW23008   1.854   0.822   6.556
 7370SOL    HW123009   1.756   0.834   6.540
 7370SOL    HW223010   1.875   0.843   6.651
 7371SOL     OW23011   3.008   5.425   4.077
 7371SOL    HW123012   3.066   5.503   4.057
 7371SOL    HW223013   2.986   5.423   4.175
 7372SOL     OW23014   3.335   0.076   5.477
 7372SOL    HW123015   3.241   0.110   5.476
 7372SOL    HW223016   3.335   7.002   5.486
 7373SOL     OW23017   4.859   1.274   3.306
 7373SOL    HW123018   4.837   1.254   3.402
 7373SOL    HW223019   4.886   1.370   3.299
 7374SOL     OW23020   2.233   2.580   5.398
 7374SOL    HW123021   2.162   2.597   5.467
 7374SOL    HW223022   2.266   2.668   5.362
 7375SOL     OW23023   1.631   1.777   3.892
 7375SOL    HW123024   1.689   1.818   3.963
 7375SOL    HW223025   1.648   1.679   3.888
 7376SOL     OW23026   3.113   2.601   6.899
 7376SOL    HW123027   3.057   2.654   6.837
 7376SOL    HW223028   3.201   2.646   6.913
 7377SOL     OW23029   4.657   5.511   1.987
 7377SOL    HW123030   4.733   5.571   2.012
 7377SOL    HW223031   4.676   5.470   1.898
 7378SOL     OW23032   6.549   1.917   4.302
 7378SOL    HW123033   6.511   1.967   4.224
 7378SOL    HW223034   6.506   1.827   4.308
 7379SOL     OW23035   4.367   1.026   2.533
 7379SOL    HW123036   4.430   1.103   2.530
 7379SOL    HW223037   4.314   1.028   2.618
 7380SOL     OW23038   0.167   3.380   6.130
 7380SOL    HW123039   0.243   3.316   6.127
 7380SOL    HW223040   0.081   3.330   6.139
 7381SOL     OW23041   4.711   2.736   2.778
 7381SOL    HW123042   4.747   2.687   2.699
 7381SOL    HW223043   4.648   2.676   2.829
 7382SOL     OW23044   0.033   5.067   4.655
 7382SOL    HW123045   0.041   4.969   4.676
 7382SOL    HW223046   6.966   5.098   4.679
 7383SOL     OW23047   6.587   6.633   2.481
 7383SOL    HW123048   6.686   6.624   2.475
 7383SOL    HW223049   6.560   6.725   2.454
 7384SOL     OW23050   5.456   1.075   1.920
 7384SOL    HW123051   5.454   1.053   1.822
 7384SOL    HW223052   5.417   1.167   1.933
 7385SOL     OW23053   4.359   5.415   2.393
 7385SOL    HW123054   4.295   5.342   2.370
 7385SOL    HW223055   4.308   5.498   2.419
 7386SOL     OW23056   0.838   2.760   5.373
 7386SOL    HW123057   0.861   2.778   5.277
 7386SOL    HW223058   0.872   2.670   5.399
 7387SOL     OW23059   4.189   6.308   4.569
 7387SOL    HW123060   4.211   6.385   4.509
 7387SOL    HW223061   4.160   6.230   4.514
 7388SOL     OW23062   6.681   5.929   4.195
 7388SOL    HW123063   6.679   5.983   4.111
 7388SOL    HW223064   6.662   5.833   4.174
 7389SOL     OW23065   1.402   4.385   6.800
 7389SOL    HW123066   1.418   4.389   6.899
 7389SOL    HW223067   1.407   4.477   6.762
 7390SOL     OW23068   1.628   1.799   6.396
 7390SOL    HW123069   1.642   1.898   6.401
 7390SOL    HW223070   1.534   1.780   6.367
 7391SOL     OW23071   4.671   4.103   5.159
 7391SOL    HW123072   4.604   4.057   5.217
 7391SOL    HW223073   4.763   4.074   5.185
 7392SOL     OW23074   2.506   5.647   5.725
 7392SOL    HW123075   2.555   5.615   5.643
 7392SOL    HW223076   2.467   5.737   5.707
 7393SOL     OW23077   5.839   5.572   1.732
 7393SOL    HW123078   5.776   5.622   1.791
 7393SOL    HW223079   5.905   5.635   1.692
 7394SOL     OW23080   3.456   2.972   5.960
 7394SOL    HW123081   3.490   2.938   5.872
 7394SOL    HW223082   3.533   2.999   6.017
 7395SOL     OW23083   0.733   0.747   6.970
 7395SOL    HW123084   0.633   0.748   6.974
 7395SOL    HW223085   0.763   0.681   6.902
 7396SOL     OW23086   1.571   0.949   6.695
 7396SOL    HW123087   1.490   0.999   6.725
 7396SOL    HW223088   1.647   0.968   6.758
 7397SOL     OW23089   6.533   5.121   4.282
 7397SOL    HW123090   6.559   5.117   4.379
 7397SOL    HW223091   6.473   5.044   4.260
 7398SOL     OW23092   3.544   5.377   4.494
 7398SOL    HW123093   3.508   5.367   4.586
 7398SOL    HW223094   3.611   5.452   4.492
 7399SOL     OW23095   0.335   4.289   5.678
 7399SOL    HW123096   0.261   4.304   5.612
 7399SOL    HW223097   0.321   4.202   5.724
 7400SOL     OW23098   3.228   4.412   6.951
 7400SOL    HW123099   3.170   4.347   7.000
 7400SOL    HW223100   3.307   4.364   6.913
 7401SOL     OW23101   0.483   1.501   3.177
 7401SOL    HW123102   0.438   1.538   3.095
 7401SOL    HW223103   0.429   1.524   3.258
 7402SOL     OW23104   2.012   6.910   4.051
 7402SOL    HW123105   2.062   6.824   4.061
 7402SOL    HW223106   2.053   6.979   4.112
 7403SOL     OW23107   2.219   2.956   3.004
 7403SOL    HW123108   2.260   3.025   3.064
 7403SOL    HW223109   2.191   2.877   3.059
 7404SOL     OW23110   2.172   0.284   1.220
 7404SOL    HW123111   2.214   0.194   1.208
 7404SOL    HW223112   2.111   0.302   1.142
 7405SOL     OW23113   1.173   4.571   4.247
 7405SOL    HW123114   1.233   4.647   4.273
 7405SOL    HW223115   1.089   4.607   4.206
 7406SOL     OW23116   1.410   3.527   2.652
 7406SOL    HW123117   1.319   3.505   2.689
 7406SOL    HW223118   1.454   3.594   2.712
 7407SOL     OW23119   0.327   6.115   4.654
 7407SOL    HW123120   0.300   6.194   4.709
 7407SOL    HW223121   0.425   6.118   4.636
 7408SOL     OW23122   1.500   4.219   5.236
 7408SOL    HW123123   1.538   4.265   5.156
 7408SOL    HW223124   1.414   4.175   5.212
 7409SOL     OW23125   0.747   1.028   4.606
 7409SOL    HW123126   0.714   1.121   4.617
 7409SOL    HW223127   0.670   0.966   4.596
 7410SOL     OW23128   6.892   4.767   1.073
 7410SOL    HW123129   6.826   4.801   1.139
 7410SOL    HW223130   6.932   4.843   1.022
 7411SOL     OW23131   2.454   0.130   4.418
 7411SOL    HW123132   2.507   0.214   4.429
 7411SOL    HW223133   2.514   0.055   4.392
 7412SOL     OW23134   3.208   1.193   1.165
 7412SOL    HW123135   3.299   1.232   1.151
 7412SOL    HW223136   3.138   1.259   1.135
 7413SOL     OW23137   0.575   4.501   3.782
 7413SOL    HW123138   0.484   4.459   3.776
 7413SOL    HW223139   0.598   4.543   3.695
 7414SOL     OW23140   0.084   0.506   2.577
 7414SOL    HW123141   0.021   0.483   2.651
 7414SOL    HW223142   0.171   0.538   2.615
 7415SOL     OW23143   0.505   3.501   3.289
 7415SOL    HW123144   0.566   3.577   3.309
 7415SOL    HW223145   0.422   3.536   3.245
 7416SOL     OW23146   3.752   0.934   3.969
 7416SOL    HW123147   3.678   0.867   3.974
 7416SOL    HW223148   3.752   0.990   4.051
 7417SOL     OW23149   1.271   0.090   5.877
 7417SOL    HW123150   1.328   0.093   5.795
 7417SOL    HW223151   1.177   0.069   5.852
 7418SOL     OW23152   3.534   4.436   0.871
 7418SOL    HW123153   3.443   4.434   0.913
 7418SOL    HW223154   3.574   4.527   0.885
 7419SOL     OW23155   6.107   2.274   4.854
 7419SOL    HW123156   6.108   2.261   4.754
 7419SOL    HW223157   6.042   2.210   4.894
 7420SOL     OW23158   6.153   6.489   2.519
 7420SOL    HW123159   6.248   6.464   2.538
 7420SOL    HW223160   6.095   6.458   2.594
 7421SOL     OW23161   2.608   2.957   1.155
 7421SOL    HW123162   2.704   2.972   1.136
 7421SOL    HW223163   2.598   2.916   1.246
 7422SOL     OW23164   0.031   3.418   2.198
 7422SOL    HW123165   0.090   3.348   2.239
 7422SOL    HW223166   0.010   3.489   2.266
 7423SOL     OW23167   0.317   4.403   6.089
 7423SOL    HW123168   0.381   4.328   6.074
 7423SOL    HW223169   0.287   4.439   6.001
 7424SOL     OW23170   6.010   1.340   4.161
 7424SOL    HW123171   5.973   1.373   4.074
 7424SOL    HW223172   6.025   1.241   4.155
 7425SOL     OW23173   4.109   5.054   6.971
 7425SOL    HW123174   4.144   4.987   0.012
 7425SOL    HW223175   4.041   5.011   6.913
 7426SOL     OW23176   0.551   2.020   6.673
 7426SOL    HW123177   0.508   2.062   6.753
 7426SOL    HW223178   0.495   2.036   6.592
 7427SOL     OW23179   3.061   5.874   4.746
 7427SOL    HW123180   2.981   5.934   4.748
 7427SOL    HW223181   3.085   5.848   4.839
 7428SOL     OW23182   3.780   1.509   5.581
 7428SOL    HW123183   3.731   1.578   5.528
 7428SOL    HW223184   3.745   1.507   5.674
 7429SOL     OW23185   6.231   0.313   2.842
 7429SOL    HW123186   6.188   0.368   2.770
 7429SOL    HW223187   6.169   0.310   2.921
 7430SOL     OW23188   0.119   4.672   5.642
 7430SOL    HW123189   0.049   4.609   5.675
 7430SOL    HW223190   0.090   4.766   5.657
 7431SOL     OW23191   0.585   4.057   2.101
 7431SOL    HW123192   0.586   4.154   2.079
 7431SOL    HW223193   0.663   4.011   2.057
 7432SOL     OW23194   0.168   6.586   4.015
 7432SOL    HW123195   0.236   6.658   4.017
 7432SOL    HW223196   0.183   6.528   3.935
 7433SOL     OW23197   6.755   5.392   0.601
 7433SOL    HW123198   6.665   5.363   0.633
 7433SOL    HW223199   6.745   5.465   0.533
 7434SOL     OW23200   3.637   0.850   6.891
 7434SOL    HW123201   3.562   0.831   6.954
 7434SOL    HW223202   3.641   0.779   6.821
 7435SOL     OW23203   3.488   6.318   6.550
 7435SOL    HW123204   3.497   6.219   6.542
 7435SOL    HW223205   3.398   6.346   6.515
 7436SOL     OW23206   6.701   3.003   6.525
 7436SOL    HW123207   6.775   2.971   6.465
 7436SOL    HW223208   6.615   2.961   6.496
 7437SOL     OW23209   6.867   5.627   6.946
 7437SOL    HW123210   6.812   5.545   6.934
 7437SOL    HW223211   6.810   5.700   6.983
 7438SOL     OW23212   1.398   4.038   1.251
 7438SOL    HW123213   1.400   4.050   1.151
 7438SOL    HW223214   1.333   3.966   1.275
 7439SOL     OW23215   2.585   6.538   4.038
 7439SOL    HW123216   2.546   6.543   4.130
 7439SOL    HW223217   2.643   6.456   4.031
 7440SOL     OW23218   0.799   3.023   4.501
 7440SOL    HW123219   0.793   2.959   4.578
 7440SOL    HW223220   0.752   3.108   4.525
 7441SOL     OW23221   5.599   6.438   4.387
 7441SOL    HW123222   5.590   6.530   4.424
 7441SOL    HW223223   5.674   6.390   4.433
 7442SOL     OW23224   1.230   0.677   6.296
 7442SOL    HW123225   1.310   0.700   6.351
 7442SOL    HW223226   1.227   0.736   6.215
 7443SOL     OW23227   0.345   1.571   1.083
 7443SOL    HW123228   0.392   1.484   1.066
 7443SOL    HW223229   0.412   1.645   1.083
 7444SOL     OW23230   0.551   3.464   5.963
 7444SOL    HW123231   0.606   3.393   5.918
 7444SOL    HW223232   0.555   3.452   6.062
 7445SOL     OW23233   4.048   1.427   1.592
 7445SOL    HW123234   3.999   1.405   1.676
 7445SOL    HW223235   4.143   1.398   1.600
 7446SOL     OW23236   5.775   4.869   0.263
 7446SOL    HW123237   5.724   4.821   0.335
 7446SOL    HW223238   5.870   4.880   0.291
 7447SOL     OW23239   2.673   3.739   6.265
 7447SOL    HW123240   2.663   3.647   6.302
 7447SOL    HW223241   2.644   3.739   6.169
 7448SOL     OW23242   5.477   6.657   5.811
 7448SOL    HW123243   5.425   6.742   5.823
 7448SOL    HW223244   5.446   6.610   5.728
 7449SOL     OW23245   4.871   2.603   2.579
 7449SOL    HW123246   4.958   2.588   2.532
 7449SOL    HW223247   4.799   2.621   2.512
 7450SOL     OW23248   5.112   2.834   4.446
 7450SOL    HW123249   5.111   2.770   4.523
 7450SOL    HW223250   5.196   2.888   4.448
 7451SOL     OW23251   1.419   0.675   3.747
 7451SOL    HW123252   1.418   0.604   3.676
 7451SOL    HW223253   1.462   0.639   3.830
 7452SOL     OW23254   1.453   0.321   4.735
 7452SOL    HW123255   1.455   0.352   4.830
 7452SOL    HW223256   1.390   0.378   4.683
 7453SOL     OW23257   5.202   5.790   5.376
 7453SOL    HW123258   5.298   5.789   5.404
 7453SOL    HW223259   5.189   5.855   5.301
 7454SOL     OW23260   1.058   3.274   2.185
 7454SOL    HW123261   1.020   3.237   2.100
 7454SOL    HW223262   1.132   3.215   2.217
 7455SOL     OW23263   0.071   1.010   1.731
 7455SOL    HW123264   0.092   0.913   1.727
 7455SOL    HW223265   7.010   1.025   1.779
 7456SOL     OW23266   1.500   1.879   4.712
 7456SOL    HW123267   1.419   1.905   4.764
 7456SOL    HW223268   1.479   1.799   4.655
 7457SOL     OW23269   4.559   0.446   6.390
 7457SOL    HW123270   4.569   0.357   6.346
 7457SOL    HW223271   4.473   0.449   6.441
 7458SOL     OW23272   1.496   6.968   6.848
 7458SOL    HW123273   1.513   7.017   6.934
 7458SOL    HW223274   1.572   6.984   6.785
 7459SOL     OW23275   4.278   0.021   0.269
 7459SOL    HW123276   4.313   0.109   0.238
 7459SOL    HW223277   4.306   6.975   0.205
 7460SOL     OW23278   1.942   4.884   0.073
 7460SOL    HW123279   2.015   4.906   0.009
 7460SOL    HW223280   1.964   4.919   0.164
 7461SOL     OW23281   5.192   1.426   5.392
 7461SOL    HW123282   5.151   1.352   5.447
 7461SOL    HW223283   5.280   1.452   5.431
 7462SOL     OW23284   1.668   2.670   2.210
 7462SOL    HW123285   1.596   2.740   2.214
 7462SOL    HW223286   1.693   2.643   2.303
 7463SOL     OW23287   3.511   3.667   1.157
 7463SOL    HW123288   3.549   3.673   1.249
 7463SOL    HW223289   3.573   3.712   1.093
 7464SOL     OW23290   4.029   6.102   6.715
 7464SOL    HW123291   4.006   6.154   6.633
 7464SOL    HW223292   4.002   6.006   6.702
 7465SOL     OW23293   1.759   0.224   1.158
 7465SOL    HW123294   1.817   0.144   1.154
 7465SOL    HW223295   1.685   0.210   1.224
 7466SOL     OW23296   0.376   0.685   6.774
 7466SOL    HW123297   0.393   0.605   6.716
 7466SOL    HW223298   0.402   0.768   6.725
 7467SOL     OW23299   6.152   2.234   1.057
 7467SOL    HW123300   6.094   2.312   1.082
 7467SOL    HW223301   6.143   2.163   1.126
 7468SOL     OW23302   5.051   2.137   2.449
 7468SOL    HW123303   5.135   2.098   2.412
 7468SOL    HW223304   4.983   2.064   2.460
 7469SOL     OW23305   0.875   0.190   0.170
 7469SOL    HW123306   0.906   0.197   0.076
 7469SOL    HW223307   0.942   0.233   0.231
 7470SOL     OW23308   0.342   3.221   3.707
 7470SOL    HW123309   0.422   3.198   3.652
 7470SOL    HW223310   0.275   3.269   3.651
 7471SOL     OW23311   6.023   6.960   4.184
 7471SOL    HW123312   5.974   6.924   4.105
 7471SOL    HW223313   6.115   6.921   4.188
 7472SOL     OW23314   5.299   6.682   4.142
 7472SOL    HW123315   5.334   6.636   4.061
 7472SOL    HW223316   5.369   6.742   4.180
 7473SOL     OW23317   6.996   4.724   2.925
 7473SOL    HW123318   0.048   4.763   2.974
 7473SOL    HW223319   0.001   4.644   2.872
 7474SOL     OW23320   2.881   0.801   4.636
 7474SOL    HW123321   2.954   0.802   4.568
 7474SOL    HW223322   2.909   0.853   4.717
 7475SOL     OW23323   4.357   1.323   2.776
 7475SOL    HW123324   4.386   1.340   2.870
 7475SOL    HW223325   4.260   1.343   2.766
 7476SOL     OW23326   3.845   6.491   4.236
 7476SOL    HW123327   3.926   6.511   4.181
 7476SOL    HW223328   3.783   6.432   4.183
 7477SOL     OW23329   5.003   0.971   3.791
 7477SOL    HW123330   4.945   1.006   3.865
 7477SOL    HW223331   4.975   0.878   3.768
 7478SOL     OW23332   3.702   3.622   6.373
 7478SOL    HW123333   3.689   3.560   6.451
 7478SOL    HW223334   3.751   3.573   6.300
 7479SOL     OW23335   3.754   2.086   0.604
 7479SOL    HW123336   3.688   2.134   0.546
 7479SOL    HW223337   3.707   2.017   0.659
 7480SOL     OW23338   5.995   5.526   1.358
 7480SOL    HW123339   6.054   5.467   1.413
 7480SOL    HW223340   6.030   5.620   1.360
 7481SOL     OW23341   5.410   5.673   1.549
 7481SOL    HW123342   5.404   5.654   1.647
 7481SOL    HW223343   5.431   5.770   1.535
 7482SOL     OW23344   4.630   1.484   2.337
 7482SOL    HW123345   4.604   1.477   2.241
 7482SOL    HW223346   4.553   1.459   2.395
 7483SOL     OW23347   4.195   1.948   4.649
 7483SOL    HW123348   4.293   1.939   4.661
 7483SOL    HW223349   4.152   1.969   4.737
 7484SOL     OW23350   6.764   0.101   1.928
 7484SOL    HW123351   6.670   0.136   1.919
 7484SOL    HW223352   6.762   0.004   1.952
 7485SOL     OW23353   2.678   6.321   4.849
 7485SOL    HW123354   2.643   6.291   4.760
 7485SOL    HW223355   2.606   6.314   4.917
 7486SOL     OW23356   2.178   6.786   5.748
 7486SOL    HW123357   2.166   6.782   5.649
 7486SOL    HW223358   2.145   6.874   5.782
 7487SOL     OW23359   2.340   6.566   2.788
 7487SOL    HW123360   2.426   6.597   2.747
 7487SOL    HW223361   2.275   6.641   2.792
 7488SOL     OW23362   1.858   6.631   5.395
 7488SOL    HW123363   1.938   6.622   5.336
 7488SOL    HW223364   1.775   6.624   5.340
 7489SOL     OW23365   4.914   2.666   4.877
 7489SOL    HW123366   4.872   2.757   4.872
 7489SOL    HW223367   4.886   2.621   4.962
 7490SOL     OW23368   1.031   1.449   1.029
 7490SOL    HW123369   1.082   1.372   0.991
 7490SOL    HW223370   0.960   1.415   1.091
 7491SOL     OW23371   0.477   5.068   6.560
 7491SOL    HW123372   0.465   5.148   6.618
 7491SOL    HW223373   0.539   5.089   6.486
 7492SOL     OW23374   2.847   1.312   4.938
 7492SOL    HW123375   2.812   1.403   4.916
 7492SOL    HW223376   2.928   1.293   4.882
 7493SOL     OW23377   6.098   4.589   6.363
 7493SOL    HW123378   6.159   4.555   6.435
 7493SOL    HW223379   6.133   4.675   6.327
 7494SOL     OW23380   5.987   1.235   2.498
 7494SOL    HW123381   6.002   1.311   2.434
 7494SOL    HW223382   5.914   1.260   2.562
 7495SOL     OW23383   2.530   1.080   1.466
 7495SOL    HW123384   2.442   1.110   1.432
 7495SOL    HW223385   2.594   1.071   1.390
 7496SOL     OW23386   0.559   3.844   6.421
 7496SOL    HW123387   0.652   3.823   6.391
 7496SOL    HW223388   0.548   3.814   6.516
 7497SOL     OW23389   3.241   4.742   1.250
 7497SOL    HW123390   3.213   4.762   1.156
 7497SOL    HW223391   3.162   4.754   1.311
 7498SOL     OW23392   2.361   0.867   3.865
 7498SOL    HW123393   2.414   0.785   3.845
 7498SOL    HW223394   2.367   0.888   3.963
 7499SOL     OW23395   6.232   1.182   3.427
 7499SOL    HW123396   6.213   1.269   3.383
 7499SOL    HW223397   6.177   1.110   3.384
 7500SOL     OW23398   4.075   6.081   2.907
 7500SOL    HW123399   4.132   6.008   2.947
 7500SOL    HW223400   4.133   6.159   2.883
 7501SOL     OW23401   6.502   4.492   4.334
 7501SOL    HW123402   6.481   4.544   4.417
 7501SOL    HW223403   6.519   4.555   4.258
 7502SOL     OW23404   1.272   1.308   5.202
 7502SOL    HW123405   1.296   1.286   5.107
 7502SOL    HW223406   1.271   1.408   5.213
 7503SOL     OW23407   2.602   1.113   6.891
 7503SOL    HW123408   2.662   1.121   6.970
 7503SOL    HW223409   2.608   1.020   6.854
 7504SOL     OW23410   3.521   6.818   3.618
 7504SOL    HW123411   3.578   6.782   3.544
 7504SOL    HW223412   3.427   6.827   3.585
 7505SOL     OW23413   2.566   0.818   5.076
 7505SOL    HW123414   2.665   0.831   5.083
 7505SOL    HW223415   2.540   0.735   5.127
 7506SOL     OW23416   4.067   0.149   2.803
 7506SOL    HW123417   4.009   0.146   2.721
 7506SOL    HW223418   4.159   0.118   2.779
 7507SOL     OW23419   0.229   6.951   0.706
 7507SOL    HW123420   0.131   6.966   0.702
 7507SOL    HW223421   0.253   6.905   0.791
 7508SOL     OW23422   5.528   6.923   2.501
 7508SOL    HW123423   5.431   6.901   2.508
 7508SOL    HW223424   5.562   6.953   2.590
 7509SOL     OW23425   5.471   4.492   0.621
 7509SOL    HW123426   5.542   4.484   0.551
 7509SOL    HW223427   5.514   4.495   0.712
 7510SOL     OW23428   2.651   4.203   5.329
 7510SOL    HW123429   2.715   4.268   5.287
 7510SOL    HW223430   2.643   4.123   5.270
 7511SOL     OW23431   1.674   0.947   2.968
 7511SOL    HW123432   1.648   0.954   3.065
 7511SOL    HW223433   1.739   0.873   2.957
 7512SOL     OW23434   2.999   4.294   1.435
 7512SOL    HW123435   2.900   4.303   1.448
 7512SOL    HW223436   3.019   4.207   1.390
 7513SOL     OW23437   1.726   2.283   0.652
 7513SOL    HW123438   1.806   2.224   0.641
 7513SOL    HW223439   1.751   2.378   0.635
 7514SOL     OW23440   3.088   6.034   2.400
 7514SOL    HW123441   3.134   6.049   2.312
 7514SOL    HW223442   3.072   5.936   2.413
 7515SOL     OW23443   1.511   6.656   2.405
 7515SOL    HW123444   1.420   6.665   2.363
 7515SOL    HW223445   1.580   6.685   2.338
 7516SOL     OW23446   7.021   5.667   4.596
 7516SOL    HW123447   6.965   5.687   4.676
 7516SOL    HW223448   0.083   5.717   4.603
 7517SOL     OW23449   6.795   3.236   1.869
 7517SOL    HW123450   6.806   3.139   1.850
 7517SOL    HW223451   6.747   3.249   1.956
 7518SOL     OW23452   3.793   5.642   3.858
 7518SOL    HW123453   3.858   5.704   3.814
 7518SOL    HW223454   3.811   5.548   3.829
 7519SOL     OW23455   0.235   6.847   3.675
 7519SOL    HW123456   0.289   6.868   3.757
 7519SOL    HW223457   0.289   6.871   3.594
 7520SOL     OW23458   3.171   0.203   1.902
 7520SOL    HW123459   3.235   0.129   1.918
 7520SOL    HW223460   3.208   0.264   1.832
 7521SOL     OW23461   4.643   4.641   5.303
 7521SOL    HW123462   4.671   4.737   5.314
 7521SOL    HW223463   4.636   4.598   5.393
 7522SOL     OW23464   2.729   0.782   6.630
 7522SOL    HW123465   2.759   0.876   6.643
 7522SOL    HW223466   2.705   0.768   6.533
 7523SOL     OW23467   5.197   1.204   5.833
 7523SOL    HW123468   5.155   1.292   5.810
 7523SOL    HW223469   5.132   1.149   5.884
 7524SOL     OW23470   0.582   2.397   5.740
 7524SOL    HW123471   0.545   2.489   5.732
 7524SOL    HW223472   0.640   2.378   5.660
 7525SOL     OW23473   2.739   6.598   6.315
 7525SOL    HW123474   2.763   6.650   6.233
 7525SOL    HW223475   2.654   6.548   6.300
 7526SOL     OW23476   3.708   3.136   2.352
 7526SOL    HW123477   3.746   3.118   2.442
 7526SOL    HW223478   3.679   3.050   2.309
 7527SOL     OW23479   4.594   5.292   3.205
 7527SOL    HW123480   4.693   5.297   3.193
 7527SOL    HW223481   4.572   5.213   3.262
 7528SOL     OW23482   4.285   2.672   6.950
 7528SOL    HW123483   4.364   2.640   7.002
 7528SOL    HW223484   4.218   2.598   6.941
 7529SOL     OW23485   5.525   1.236   4.516
 7529SOL    HW123486   5.549   1.196   4.428
 7529SOL    HW223487   5.586   1.313   4.535
 7530SOL     OW23488   5.893   3.454   2.341
 7530SOL    HW123489   5.911   3.537   2.393
 7530SOL    HW223490   5.943   3.457   2.255
 7531SOL     OW23491   4.265   2.344   3.853
 7531SOL    HW123492   4.334   2.280   3.886
 7531SOL    HW223493   4.302   2.397   3.777
 7532SOL     OW23494   5.377   5.651   1.818
 7532SOL    HW123495   5.318   5.727   1.845
 7532SOL    HW223496   5.344   5.567   1.862
 7533SOL     OW23497   2.431   0.941   3.509
 7533SOL    HW123498   2.379   1.019   3.476
 7533SOL    HW223499   2.522   0.970   3.536
 7534SOL     OW23500   3.540   6.821   4.807
 7534SOL    HW123501   3.474   6.780   4.744
 7534SOL    HW223502   3.625   6.842   4.758
 7535SOL     OW23503   2.853   0.950   5.754
 7535SOL    HW123504   2.859   0.983   5.660
 7535SOL    HW223505   2.781   0.881   5.761
 7536SOL     OW23506   5.472   4.908   4.694
 7536SOL    HW123507   5.499   4.988   4.640
 7536SOL    HW223508   5.482   4.825   4.638
 7537SOL     OW23509   1.993   4.445   4.953
 7537SOL    HW123510   2.050   4.377   4.997
 7537SOL    HW223511   2.051   4.517   4.915
 7538SOL     OW23512   2.913   3.341   2.057
 7538SOL    HW123513   3.007   3.330   2.089
 7538SOL    HW223514   2.887   3.437   2.063
 7539SOL     OW23515   2.697   2.294   4.858
 7539SOL    HW123516   2.692   2.320   4.955
 7539SOL    HW223517   2.771   2.228   4.845
 7540SOL     OW23518   3.244   0.952   5.863
 7540SOL    HW123519   3.251   1.044   5.823
 7540SOL    HW223520   3.160   0.945   5.917
 7541SOL     OW23521   6.743   3.680   4.971
 7541SOL    HW123522   6.682   3.602   4.953
 7541SOL    HW223523   6.738   3.705   5.068
 7542SOL     OW23524   0.028   6.529   6.534
 7542SOL    HW123525   0.127   6.540   6.534
 7542SOL    HW223526   7.022   6.497   6.444
 7543SOL     OW23527   4.182   1.866   1.044
 7543SOL    HW123528   4.175   1.939   0.977
 7543SOL    HW223529   4.226   1.900   1.127
 7544SOL     OW23530   0.541   2.374   3.670
 7544SOL    HW123531   0.597   2.427   3.607
 7544SOL    HW223532   0.472   2.322   3.619
 7545SOL     OW23533   5.381   6.767   2.892
 7545SOL    HW123534   5.363   6.677   2.931
 7545SOL    HW223535   5.294   6.813   2.872
 7546SOL     OW23536   4.252   0.756   1.354
 7546SOL    HW123537   4.259   0.830   1.421
 7546SOL    HW223538   4.162   0.713   1.362
 7547SOL     OW23539   3.682   6.157   0.270
 7547SOL    HW123540   3.696   6.254   0.291
 7547SOL    HW223541   3.683   6.144   0.171
 7548SOL     OW23542   2.787   2.023   0.574
 7548SOL    HW123543   2.870   1.977   0.606
 7548SOL    HW223544   2.805   2.120   0.561
 7549SOL     OW23545   5.898   2.004   1.489
 7549SOL    HW123546   5.903   1.961   1.579
 7549SOL    HW223547   5.920   2.101   1.497
 7550SOL     OW23548   2.550   4.913   1.931
 7550SOL    HW123549   2.580   4.828   1.974
 7550SOL    HW223550   2.627   4.977   1.925
 7551SOL     OW23551   4.673   4.125   7.013
 7551SOL    HW123552   4.635   4.071   0.063
 7551SOL    HW223553   4.632   4.095   6.927
 7552SOL     OW23554   1.799   5.820   4.060
 7552SOL    HW123555   1.807   5.837   4.158
 7552SOL    HW223556   1.861   5.746   4.033
 7553SOL     OW23557   3.772   5.071   5.614
 7553SOL    HW123558   3.845   5.129   5.650
 7553SOL    HW223559   3.810   4.986   5.579
 7554SOL     OW23560   5.161   0.965   0.493
 7554SOL    HW123561   5.234   1.027   0.463
 7554SOL    HW223562   5.198   0.873   0.506
 7555SOL     OW23563   1.138   5.198   4.716
 7555SOL    HW123564   1.232   5.178   4.742
 7555SOL    HW223565   1.075   5.144   4.772
 7556SOL     OW23566   0.700   2.078   5.715
 7556SOL    HW123567   0.649   2.007   5.667
 7556SOL    HW223568   0.726   2.046   5.806
 7557SOL     OW23569   5.498   3.311   6.150
 7557SOL    HW123570   5.568   3.353   6.092
 7557SOL    HW223571   5.414   3.364   6.144
 7558SOL     OW23572   2.522   2.597   3.886
 7558SOL    HW123573   2.457   2.537   3.933
 7558SOL    HW223574   2.502   2.692   3.910
 7559SOL     OW23575   6.435   5.415   1.207
 7559SOL    HW123576   6.479   5.436   1.120
 7559SOL    HW223577   6.486   5.456   1.282
 7560SOL     OW23578   5.694   6.628   6.829
 7560SOL    HW123579   5.743   6.562   6.886
 7560SOL    HW223580   5.665   6.705   6.886
 7561SOL     OW23581   0.823   3.240   0.271
 7561SOL    HW123582   0.793   3.325   0.315
 7561SOL    HW223583   0.758   3.167   0.294
 7562SOL     OW23584   4.365   6.417   4.949
 7562SOL    HW123585   4.411   6.503   4.926
 7562SOL    HW223586   4.285   6.436   5.006
 7563SOL     OW23587   2.797   0.038   0.498
 7563SOL    HW123588   2.777   0.108   0.429
 7563SOL    HW223589   2.720   7.000   0.505
 7564SOL     OW23590   4.613   0.978   2.763
 7564SOL    HW123591   4.519   1.004   2.785
 7564SOL    HW223592   4.614   0.926   2.678
 7565SOL     OW23593   4.960   4.171   6.478
 7565SOL    HW123594   4.998   4.120   6.401
 7565SOL    HW223595   4.900   4.243   6.444
 7566SOL     OW23596   0.839   4.995   3.507
 7566SOL    HW123597   0.854   5.086   3.546
 7566SOL    HW223598   0.922   4.964   3.460
 7567SOL     OW23599   1.732   2.417   5.337
 7567SOL    HW123600   1.695   2.505   5.307
 7567SOL    HW223601   1.766   2.426   5.431
 7568SOL     OW23602   5.873   5.744   4.092
 7568SOL    HW123603   5.926   5.765   4.174
 7568SOL    HW223604   5.931   5.696   4.026
 7569SOL     OW23605   4.170   4.879   6.090
 7569SOL    HW123606   4.076   4.906   6.068
 7569SOL    HW223607   4.172   4.836   6.180
 7570SOL     OW23608   5.227   4.652   5.443
 7570SOL    HW123609   5.320   4.617   5.440
 7570SOL    HW223610   5.211   4.701   5.528
 7571SOL     OW23611   5.635   4.814   2.302
 7571SOL    HW123612   5.557   4.760   2.335
 7571SOL    HW223613   5.655   4.789   2.207
 7572SOL     OW23614   4.992   0.873   3.465
 7572SOL    HW123615   4.894   0.882   3.484
 7572SOL    HW223616   5.015   0.777   3.453
 7573SOL     OW23617   5.803   5.826   4.576
 7573SOL    HW123618   5.863   5.887   4.626
 7573SOL    HW223619   5.846   5.736   4.569
 7574SOL     OW23620   6.559   0.952   4.783
 7574SOL    HW123621   6.577   0.970   4.880
 7574SOL    HW223622   6.509   1.029   4.744
 7575SOL     OW23623   4.531   0.202   5.707
 7575SOL    HW123624   4.433   0.191   5.691
 7575SOL    HW223625   4.557   0.297   5.690
 7576SOL     OW23626   6.297   5.777   0.379
 7576SOL    HW123627   6.271   5.871   0.400
 7576SOL    HW223628   6.251   5.748   0.295
 7577SOL     OW23629   6.838   6.938   5.341
 7577SOL    HW123630   6.830   6.990   5.426
 7577SOL    HW223631   6.886   6.994   5.273
 7578SOL     OW23632   2.009   6.171   3.692
 7578SOL    HW123633   1.944   6.170   3.617
 7578SOL    HW223634   2.030   6.078   3.720
 7579SOL     OW23635   4.347   1.543   2.447
 7579SOL    HW123636   4.342   1.586   2.358
 7579SOL    HW223637   4.327   1.610   2.519
 7580SOL     OW23638   1.483   4.058   4.087
 7580SOL    HW123639   1.479   4.157   4.076
 7580SOL    HW223640   1.578   4.029   4.094
 7581SOL     OW23641   4.831   1.039   1.295
 7581SOL    HW123642   4.835   1.052   1.196
 7581SOL    HW223643   4.736   1.036   1.325
 7582SOL     OW23644   3.782   0.929   0.313
 7582SOL    HW123645   3.703   0.954   0.369
 7582SOL    HW223646   3.751   0.880   0.231
 7583SOL     OW23647   5.926   3.767   1.740
 7583SOL    HW123648   5.876   3.794   1.822
 7583SOL    HW223649   5.989   3.840   1.713
 7584SOL     OW23650   3.376   6.641   0.952
 7584SOL    HW123651   3.335   6.551   0.935
 7584SOL    HW223652   3.399   6.684   0.865
 7585SOL     OW23653   1.926   2.831   5.702
 7585SOL    HW123654   1.935   2.806   5.606
 7585SOL    HW223655   1.918   2.930   5.710
 7586SOL     OW23656   3.615   0.603   3.471
 7586SOL    HW123657   3.686   0.549   3.516
 7586SOL    HW223658   3.589   0.680   3.530
 7587SOL     OW23659   3.374   1.638   6.394
 7587SOL    HW123660   3.407   1.650   6.487
 7587SOL    HW223661   3.277   1.611   6.396
 7588SOL     OW23662   0.501   3.062   2.307
 7588SOL    HW123663   0.429   3.097   2.248
 7588SOL    HW223664   0.578   3.032   2.251
 7589SOL     OW23665   6.107   0.109   0.673
 7589SOL    HW123666   6.047   0.031   0.658
 7589SOL    HW223667   6.052   0.192   0.687
 7590SOL     OW23668   2.728   2.097   6.642
 7590SOL    HW123669   2.649   2.062   6.592
 7590SOL    HW223670   2.697   2.141   6.727
 7591SOL     OW23671   0.120   5.074   0.617
 7591SOL    HW123672   0.162   5.048   0.704
 7591SOL    HW223673   0.171   5.031   0.542
 7592SOL     OW23674   0.348   4.679   6.451
 7592SOL    HW123675   0.416   4.727   6.396
 7592SOL    HW223676   0.302   4.745   6.511
 7593SOL     OW23677   5.506   2.585   0.616
 7593SOL    HW123678   5.581   2.522   0.596
 7593SOL    HW223679   5.537   2.679   0.606
 7594SOL     OW23680   6.775   4.186   2.057
 7594SOL    HW123681   6.757   4.239   2.139
 7594SOL    HW223682   6.865   4.144   2.063
 7595SOL     OW23683   0.309   2.392   5.564
 7595SOL    HW123684   0.391   2.339   5.545
 7595SOL    HW223685   0.333   2.488   5.578
 7596SOL     OW23686   4.480   5.230   2.967
 7596SOL    HW123687   4.404   5.168   2.985
 7596SOL    HW223688   4.511   5.271   3.053
 7597SOL     OW23689   2.993   5.564   1.773
 7597SOL    HW123690   2.909   5.510   1.778
 7597SOL    HW223691   3.039   5.563   1.862
 7598SOL     OW23692   6.868   1.130   3.055
 7598SOL    HW123693   6.885   1.137   2.957
 7598SOL    HW223694   6.796   1.194   3.082
 7599SOL     OW23695   5.482   1.384   3.612
 7599SOL    HW123696   5.463   1.463   3.670
 7599SOL    HW223697   5.415   1.312   3.630
 7600SOL     OW23698   2.107   0.448   2.838
 7600SOL    HW123699   2.195   0.493   2.827
 7600SOL    HW223700   2.042   0.486   2.772
 7601SOL     OW23701   2.220   5.637   2.647
 7601SOL    HW123702   2.313   5.605   2.664
 7601SOL    HW223703   2.203   5.720   2.700
 7602SOL     OW23704   2.115   3.543   5.705
 7602SOL    HW123705   2.169   3.460   5.723
 7602SOL    HW223706   2.174   3.613   5.664
 7603SOL     OW23707   1.110   5.775   6.366
 7603SOL    HW123708   1.088   5.858   6.417
 7603SOL    HW223709   1.048   5.766   6.288
 7604SOL     OW23710   2.159   5.220   4.113
 7604SOL    HW123711   2.194   5.312   4.126
 7604SOL    HW223712   2.085   5.203   4.178
 7605SOL     OW23713   1.374   6.093   0.747
 7605SOL    HW123714   1.455   6.117   0.800
 7605SOL    HW223715   1.372   5.994   0.732
 7606SOL     OW23716   6.865   2.615   2.898
 7606SOL    HW123717   6.944   2.578   2.947
 7606SOL    HW223718   6.795   2.544   2.891
 7607SOL     OW23719   4.121   6.207   0.239
 7607SOL    HW123720   4.083   6.231   0.149
 7607SOL    HW223721   4.210   6.163   0.227
 7608SOL     OW23722   3.410   3.708   3.047
 7608SOL    HW123723   3.370   3.619   3.027
 7608SOL    HW223724   3.449   3.708   3.139
 7609SOL     OW23725   0.134   4.505   3.499
 7609SOL    HW123726   0.139   4.481   3.402
 7609SOL    HW223727   0.045   4.479   3.535
 7610SOL     OW23728   6.096   0.608   6.987
 7610SOL    HW123729   6.058   0.587   6.897
 7610SOL    HW223730   6.029   0.587   0.033
 7611SOL     OW23731   0.906   2.197   0.016
 7611SOL    HW123732   0.986   2.212   6.982
 7611SOL    HW223733   0.916   2.109   0.063
 7612SOL     OW23734   4.532   2.576   4.670
 7612SOL    HW123735   4.527   2.574   4.770
 7612SOL    HW223736   4.457   2.632   4.634
 7613SOL     OW23737   4.999   2.022   1.939
 7613SOL    HW123738   5.060   2.052   1.866
 7613SOL    HW223739   5.034   1.937   1.979
 7614SOL     OW23740   4.686   2.848   1.449
 7614SOL    HW123741   4.777   2.861   1.412
 7614SOL    HW223742   4.690   2.847   1.549
 7615SOL     OW23743   5.294   4.023   5.881
 7615SOL    HW123744   5.252   4.078   5.808
 7615SOL    HW223745   5.244   4.037   5.966
 7616SOL     OW23746   6.862   4.260   4.509
 7616SOL    HW123747   6.938   4.234   4.570
 7616SOL    HW223748   6.776   4.257   4.560
 7617SOL     OW23749   3.090   5.669   2.686
 7617SOL    HW123750   3.091   5.721   2.772
 7617SOL    HW223751   3.008   5.691   2.634
 7618SOL     OW23752   0.764   2.812   6.885
 7618SOL    HW123753   0.853   2.799   6.842
 7618SOL    HW223754   0.774   2.816   6.984
 7619SOL     OW23755   5.878   3.663   4.823
 7619SOL    HW123756   5.924   3.675   4.910
 7619SOL    HW223757   5.841   3.751   4.793
 7620SOL     OW23758   3.854   5.247   0.237
 7620SOL    HW123759   3.868   5.150   0.256
 7620SOL    HW223760   3.843   5.260   0.138
 7621SOL     OW23761   0.793   1.308   0.734
 7621SOL    HW123762   0.828   1.402   0.736
 7621SOL    HW223763   0.731   1.298   0.656
 7622SOL     OW23764   5.032   4.804   1.640
 7622SOL    HW123765   5.128   4.785   1.621
 7622SOL    HW223766   5.022   4.900   1.667
 7623SOL     OW23767   4.782   4.387   6.469
 7623SOL    HW123768   4.804   4.469   6.416
 7623SOL    HW223769   4.727   4.413   6.549
 7624SOL     OW23770   6.964   3.015   4.470
 7624SOL    HW123771   0.034   2.990   4.489
 7624SOL    HW223772   6.961   3.104   4.425
 7625SOL     OW23773   4.207   0.402   1.880
 7625SOL    HW123774   4.148   0.441   1.951
 7625SOL    HW223775   4.245   0.476   1.825
 7626SOL     OW23776   6.979   6.429   4.722
 7626SOL    HW123777   6.989   6.528   4.713
 7626SOL    HW223778   6.965   6.406   4.818
 7627SOL     OW23779   5.635   3.339   0.147
 7627SOL    HW123780   5.583   3.406   0.095
 7627SOL    HW223781   5.587   3.251   0.146
 7628SOL     OW23782   2.862   0.638   1.532
 7628SOL    HW123783   2.866   0.573   1.456
 7628SOL    HW223784   2.815   0.721   1.502
 7629SOL     OW23785   6.427   6.665   2.797
 7629SOL    HW123786   6.352   6.645   2.859
 7629SOL    HW223787   6.500   6.598   2.809
 7630SOL     OW23788   5.227   6.962   2.087
 7630SOL    HW123789   5.232   0.000   2.164
 7630SOL    HW223790   5.166   6.886   2.111
 7631SOL     OW23791   0.569   1.096   5.325
 7631SOL    HW123792   0.590   1.028   5.396
 7631SOL    HW223793   0.654   1.137   5.293
 7632SOL     OW23794   3.555   2.296   1.606
 7632SOL    HW123795   3.620   2.234   1.561
 7632SOL    HW223796   3.560   2.282   1.705
 7633SOL     OW23797   4.501   2.773   0.168
 7633SOL    HW123798   4.456   2.783   0.256
 7633SOL    HW223799   4.594   2.810   0.174
 7634SOL     OW23800   1.514   1.554   2.171
 7634SOL    HW123801   1.503   1.515   2.080
 7634SOL    HW223802   1.610   1.577   2.187
 7635SOL     OW23803   2.836   5.601   5.121
 7635SOL    HW123804   2.881   5.570   5.037
 7635SOL    HW223805   2.766   5.669   5.097
 7636SOL     OW23806   1.440   1.405   3.167
 7636SOL    HW123807   1.450   1.402   3.267
 7636SOL    HW223808   1.430   1.500   3.138
 7637SOL     OW23809   2.933   6.712   2.288
 7637SOL    HW123810   2.964   6.802   2.317
 7637SOL    HW223811   3.001   6.643   2.316
 7638SOL     OW23812   4.322   6.036   2.056
 7638SOL    HW123813   4.263   6.023   2.136
 7638SOL    HW223814   4.364   5.948   2.031
 7639SOL     OW23815   1.506   2.276   0.802
 7639SOL    HW123816   1.522   2.266   0.900
 7639SOL    HW223817   1.593   2.275   0.753
 7640SOL     OW23818   3.159   2.042   0.384
 7640SOL    HW123819   3.071   2.021   0.340
 7640SOL    HW223820   3.217   1.960   0.383
 7641SOL     OW23821   0.735   4.548   1.797
 7641SOL    HW123822   0.659   4.530   1.735
 7641SOL    HW223823   0.733   4.644   1.825
 7642SOL     OW23824   2.752   1.315   3.038
 7642SOL    HW123825   2.807   1.393   3.068
 7642SOL    HW223826   2.789   1.281   2.951
 7643SOL     OW23827   4.941   2.598   4.232
 7643SOL    HW123828   4.926   2.612   4.134
 7643SOL    HW223829   5.039   2.605   4.251
 7644SOL     OW23830   6.280   2.637   2.732
 7644SOL    HW123831   6.359   2.576   2.729
 7644SOL    HW223832   6.225   2.624   2.649
 7645SOL     OW23833   4.410   4.128   5.324
 7645SOL    HW123834   4.317   4.105   5.294
 7645SOL    HW223835   4.423   4.096   5.418
 7646SOL     OW23836   2.101   2.400   2.360
 7646SOL    HW123837   2.138   2.307   2.354
 7646SOL    HW223838   2.133   2.442   2.445
 7647SOL     OW23839   0.729   2.941   1.716
 7647SOL    HW123840   0.694   2.986   1.634
 7647SOL    HW223841   0.668   2.959   1.793
 7648SOL     OW23842   3.803   1.931   3.539
 7648SOL    HW123843   3.778   1.966   3.630
 7648SOL    HW223844   3.829   2.007   3.480
 7649SOL     OW23845   1.064   1.134   2.861
 7649SOL    HW123846   1.004   1.205   2.896
 7649SOL    HW223847   1.057   1.131   2.761
 7650SOL     OW23848   5.238   2.747   1.618
 7650SOL    HW123849   5.217   2.649   1.621
 7650SOL    HW223850   5.326   2.764   1.663
 7651SOL     OW23851   2.805   6.601   4.663
 7651SOL    HW123852   2.843   6.692   4.680
 7651SOL    HW223853   2.710   6.599   4.692
 7652SOL     OW23854   0.321   4.132   3.982
 7652SOL    HW123855   0.241   4.117   3.925
 7652SOL    HW223856   0.375   4.047   3.988
 7653SOL     OW23857   2.680   1.844   0.795
 7653SOL    HW123858   2.713   1.892   0.876
 7653SOL    HW223859   2.684   1.904   0.716
 7654SOL     OW23860   4.983   3.487   3.971
 7654SOL    HW123861   5.023   3.407   3.927
 7654SOL    HW223862   4.935   3.542   3.903
 7655SOL     OW23863   3.608   0.075   3.459
 7655SOL    HW123864   3.519   0.108   3.490
 7655SOL    HW223865   3.673   0.152   3.458
 7656SOL     OW23866   1.386   5.213   6.429
 7656SOL    HW123867   1.460   5.148   6.448
 7656SOL    HW223868   1.405   5.260   6.343
 7657SOL     OW23869   2.496   2.554   3.358
 7657SOL    HW123870   2.468   2.646   3.334
 7657SOL    HW223871   2.539   2.555   3.448
 7658SOL     OW23872   4.075   6.154   5.847
 7658SOL    HW123873   4.035   6.077   5.897
 7658SOL    HW223874   4.124   6.120   5.766
 7659SOL     OW23875   5.218   5.740   6.706
 7659SOL    HW123876   5.120   5.748   6.726
 7659SOL    HW223877   5.253   5.655   6.743
 7660SOL     OW23878   6.209   6.506   4.365
 7660SOL    HW123879   6.225   6.409   4.380
 7660SOL    HW223880   6.286   6.559   4.401
 7661SOL     OW23881   5.909   2.396   4.585
 7661SOL    HW123882   5.849   2.335   4.534
 7661SOL    HW223883   5.997   2.351   4.601
 7662SOL     OW23884   0.743   2.392   2.650
 7662SOL    HW123885   0.664   2.354   2.698
 7662SOL    HW223886   0.819   2.326   2.654
 7663SOL     OW23887   6.598   0.062   6.544
 7663SOL    HW123888   6.528   0.019   6.602
 7663SOL    HW223889   6.677   0.001   6.536
 7664SOL     OW23890   3.857   1.172   2.441
 7664SOL    HW123891   3.758   1.189   2.444
 7664SOL    HW223892   3.897   1.222   2.364
 7665SOL     OW23893   4.352   6.935   4.524
 7665SOL    HW123894   4.358   6.893   4.615
 7665SOL    HW223895   4.441   6.974   4.499
 7666SOL     OW23896   0.842   6.790   1.288
 7666SOL    HW123897   0.823   6.754   1.197
 7666SOL    HW223898   0.756   6.815   1.332
 7667SOL     OW23899   4.449   5.922   1.620
 7667SOL    HW123900   4.456   5.827   1.589
 7667SOL    HW223901   4.516   5.938   1.693
 7668SOL     OW23902   2.821   4.300   1.190
 7668SOL    HW123903   2.729   4.273   1.162
 7668SOL    HW223904   2.817   4.348   1.277
 7669SOL     OW23905   5.426   2.205   5.832
 7669SOL    HW123906   5.346   2.230   5.777
 7669SOL    HW223907   5.506   2.254   5.797
 7670SOL     OW23908   1.486   5.278   6.171
 7670SOL    HW123909   1.478   5.220   6.090
 7670SOL    HW223910   1.450   5.369   6.149
 7671SOL     OW23911   4.335   0.863   5.132
 7671SOL    HW123912   4.311   0.824   5.043
 7671SOL    HW223913   4.432   0.846   5.150
 7672SOL     OW23914   5.790   6.282   3.811
 7672SOL    HW123915   5.877   6.272   3.859
 7672SOL    HW223916   5.714   6.269   3.875
 7673SOL     OW23917   2.064   5.361   0.219
 7673SOL    HW123918   1.965   5.370   0.210
 7673SOL    HW223919   2.104   5.451   0.236
 7674SOL     OW23920   6.340   2.769   4.061
 7674SOL    HW123921   6.313   2.693   4.120
 7674SOL    HW223922   6.411   2.823   4.107
 7675SOL     OW23923   4.778   0.974   2.993
 7675SOL    HW123924   4.736   0.987   3.083
 7675SOL    HW223925   4.707   0.962   2.924
 7676SOL     OW23926   1.539   2.403   0.289
 7676SOL    HW123927   1.636   2.405   0.311
 7676SOL    HW223928   1.485   2.415   0.372
 7677SOL     OW23929   0.018   4.052   2.139
 7677SOL    HW123930   0.055   4.142   2.162
 7677SOL    HW223931   0.074   3.980   2.182
 7678SOL     OW23932   1.936   1.238   5.802
 7678SOL    HW123933   2.028   1.274   5.816
 7678SOL    HW223934   1.896   1.216   5.891
 7679SOL     OW23935   1.796   5.977   5.495
 7679SOL    HW123936   1.845   5.981   5.409
 7679SOL    HW223937   1.815   5.890   5.541
 7680SOL     OW23938   2.049   2.790   0.061
 7680SOL    HW123939   2.027   2.876   0.107
 7680SOL    HW223940   1.977   2.723   0.080
 7681SOL     OW23941   2.892   6.588   0.069
 7681SOL    HW123942   2.953   6.626   7.025
 7681SOL    HW223943   2.889   6.649   0.148
 7682SOL     OW23944   3.490   0.391   1.733
 7682SOL    HW123945   3.474   0.438   1.820
 7682SOL    HW223946   3.403   0.366   1.692
 7683SOL     OW23947   0.018   1.917   4.341
 7683SOL    HW123948   6.951   1.893   4.373
 7683SOL    HW223949   0.030   2.016   4.345
 7684SOL     OW23950   4.503   1.950   0.543
 7684SOL    HW123951   4.524   1.958   0.446
 7684SOL    HW223952   4.454   2.032   0.574
 7685SOL     OW23953   3.235   3.262   6.917
 7685SOL    HW123954   3.265   3.229   6.828
 7685SOL    HW223955   3.143   3.228   6.937
 7686SOL     OW23956   5.151   0.289   3.223
 7686SOL    HW123957   5.199   0.221   3.278
 7686SOL    HW223958   5.074   0.326   3.277
 7687SOL     OW23959   5.881   5.035   5.504
 7687SOL    HW123960   5.820   5.033   5.584
 7687SOL    HW223961   5.973   5.060   5.534
 7688SOL     OW23962   0.488   0.348   5.814
 7688SOL    HW123963   0.481   0.406   5.733
 7688SOL    HW223964   0.584   0.322   5.828
 7689SOL     OW23965   5.209   5.866   3.283
 7689SOL    HW123966   5.295   5.909   3.311
 7689SOL    HW223967   5.229   5.783   3.231
 7690SOL     OW23968   6.383   5.040   0.937
 7690SOL    HW123969   6.388   4.946   0.971
 7690SOL    HW223970   6.306   5.087   0.979
 7691SOL     OW23971   5.508   3.002   4.220
 7691SOL    HW123972   5.436   3.068   4.197
 7691SOL    HW223973   5.492   2.966   4.312
 7692SOL     OW23974   0.947   6.774   1.826
 7692SOL    HW123975   0.959   6.873   1.811
 7692SOL    HW223976   1.002   6.724   1.759
 7693SOL     OW23977   4.111   6.799   1.148
 7693SOL    HW123978   4.066   6.728   1.094
 7693SOL    HW223979   4.206   6.773   1.164
 7694SOL     OW23980   6.771   4.383   4.086
 7694SOL    HW123981   6.714   4.345   4.014
 7694SOL    HW223982   6.801   4.311   4.148
 7695SOL     OW23983   3.504   6.487   0.195
 7695SOL    HW123984   3.483   6.579   0.229
 7695SOL    HW223985   3.422   6.430   0.198
 7696SOL     OW23986   6.688   1.309   4.740
 7696SOL    HW123987   6.591   1.284   4.737
 7696SOL    HW223988   6.724   1.313   4.647
 7697SOL     OW23989   3.133   0.695   2.684
 7697SOL    HW123990   3.195   0.616   2.683
 7697SOL    HW223991   3.070   0.687   2.762
 7698SOL     OW23992   0.079   2.721   4.567
 7698SOL    HW123993   0.017   2.655   4.524
 7698SOL    HW223994   0.173   2.702   4.539
 7699SOL     OW23995   4.076   5.497   6.997
 7699SOL    HW123996   4.110   5.532   0.059
 7699SOL    HW223997   4.098   5.399   6.989
 7700SOL     OW23998   4.453   6.322   5.295
 7700SOL    HW123999   4.445   6.275   5.207
 7700SOL    HW224000   4.548   6.321   5.325
 7701SOL     OW24001   6.733   1.905   6.316
 7701SOL    HW124002   6.765   1.999   6.317
 7701SOL    HW224003   6.640   1.900   6.354
 7702SOL     OW24004   3.210   6.246   5.996
 7702SOL    HW124005   3.178   6.215   5.906
 7702SOL    HW224006   3.131   6.273   6.051
 7703SOL     OW24007   6.832   0.931   4.529
 7703SOL    HW124008   6.760   0.996   4.505
 7703SOL    HW224009   6.794   0.839   4.532
 7704SOL     OW24010   5.147   4.554   5.198
 7704SOL    HW124011   5.221   4.486   5.199
 7704SOL    HW224012   5.132   4.588   5.291
 7705SOL     OW24013   3.980   5.207   6.186
 7705SOL    HW124014   3.983   5.289   6.127
 7705SOL    HW224015   3.961   5.127   6.130
 7706SOL     OW24016   4.620   1.616   5.690
 7706SOL    HW124017   4.674   1.567   5.621
 7706SOL    HW224018   4.551   1.554   5.728
 7707SOL     OW24019   1.099   6.182   6.180
 7707SOL    HW124020   1.167   6.134   6.237
 7707SOL    HW224021   1.015   6.194   6.232
 7708SOL     OW24022   4.951   6.095   5.329
 7708SOL    HW124023   5.045   6.127   5.318
 7708SOL    HW224024   4.930   6.087   5.427
 7709SOL     OW24025   5.602   4.011   1.384
 7709SOL    HW124026   5.520   4.033   1.437
 7709SOL    HW224027   5.615   3.911   1.383
 7710SOL     OW24028   3.485   0.805   1.165
 7710SOL    HW124029   3.456   0.835   1.073
 7710SOL    HW224030   3.512   0.885   1.218
 7711SOL     OW24031   6.088   6.359   5.214
 7711SOL    HW124032   5.996   6.350   5.252
 7711SOL    HW224033   6.146   6.410   5.277
 7712SOL     OW24034   5.881   4.093   1.323
 7712SOL    HW124035   5.890   4.191   1.305
 7712SOL    HW224036   5.786   4.065   1.311
 7713SOL     OW24037   1.601   4.472   0.234
 7713SOL    HW124038   1.617   4.535   0.159
 7713SOL    HW224039   1.664   4.395   0.228
 7714SOL     OW24040   6.217   5.499   5.305
 7714SOL    HW124041   6.139   5.512   5.243
 7714SOL    HW224042   6.234   5.584   5.355
 7715SOL     OW24043   4.623   1.553   1.000
 7715SOL    HW124044   4.709   1.528   0.954
 7715SOL    HW224045   4.594   1.644   0.971
 7716SOL     OW24046   6.308   4.041   3.425
 7716SOL    HW124047   6.286   3.967   3.362
 7716SOL    HW224048   6.321   4.004   3.517
 7717SOL     OW24049   2.352   1.057   5.055
 7717SOL    HW124050   2.376   1.102   5.140
 7717SOL    HW224051   2.417   0.984   5.035
 7718SOL     OW24052   1.853   1.816   2.928
 7718SOL    HW124053   1.771   1.759   2.936
 7718SOL    HW224054   1.934   1.758   2.935
 7719SOL     OW24055   0.072   4.254   4.182
 7719SOL    HW124056   0.123   4.177   4.219
 7719SOL    HW224057   7.006   4.255   4.223
 7720SOL     OW24058   6.981   0.143   0.509
 7720SOL    HW124059   6.932   0.206   0.449
 7720SOL    HW224060   6.956   0.162   0.604
 7721SOL     OW24061   1.334   4.928   2.348
 7721SOL    HW124062   1.295   4.903   2.436
 7721SOL    HW224063   1.275   4.994   2.301
 7722SOL     OW24064   0.260   5.676   2.450
 7722SOL    HW124065   0.312   5.615   2.510
 7722SOL    HW224066   0.243   5.630   2.363
 7723SOL     OW24067   6.714   3.679   0.048
 7723SOL    HW124068   6.771   3.640   7.000
 7723SOL    HW224069   6.761   3.670   0.136
 7724SOL     OW24070   2.292   4.375   1.970
 7724SOL    HW124071   2.342   4.306   1.918
 7724SOL    HW224072   2.223   4.331   2.027
 7725SOL     OW24073   5.051   2.930   3.661
 7725SOL    HW124074   5.051   2.840   3.619
 7725SOL    HW224075   5.079   2.999   3.594
 7726SOL     OW24076   0.529   5.534   4.309
 7726SOL    HW124077   0.461   5.470   4.346
 7726SOL    HW224078   0.607   5.482   4.275
 7727SOL     OW24079   6.693   0.962   3.197
 7727SOL    HW124080   6.702   0.994   3.292
 7727SOL    HW224081   6.776   0.985   3.146
 7728SOL     OW24082   0.859   4.482   3.151
 7728SOL    HW124083   0.919   4.437   3.218
 7728SOL    HW224084   0.910   4.497   3.066
 7729SOL     OW24085   5.941   3.144   1.352
 7729SOL    HW124086   5.925   3.188   1.263
 7729SOL    HW224087   5.994   3.205   1.410
 7730SOL     OW24088   5.965   5.549   1.972
 7730SOL    HW124089   5.878   5.542   2.019
 7730SOL    HW224090   5.950   5.543   1.873
 7731SOL     OW24091   6.816   1.086   0.688
 7731SOL    HW124092   6.768   1.007   0.726
 7731SOL    HW224093   6.792   1.168   0.740
 7732SOL     OW24094   4.545   6.016   0.994
 7732SOL    HW124095   4.604   6.019   1.074
 7732SOL    HW224096   4.499   5.927   0.989
 7733SOL     OW24097   4.124   6.618   2.297
 7733SOL    HW124098   4.064   6.649   2.371
 7733SOL    HW224099   4.208   6.673   2.298
 7734SOL     OW24100   2.318   4.247   3.419
 7734SOL    HW124101   2.291   4.254   3.515
 7734SOL    HW224102   2.345   4.337   3.386
 7735SOL     OW24103   4.253   5.924   6.468
 7735SOL    HW124104   4.278   6.002   6.525
 7735SOL    HW224105   4.299   5.931   6.379
 7736SOL     OW24106   4.637   4.013   6.734
 7736SOL    HW124107   4.580   4.066   6.672
 7736SOL    HW224108   4.732   4.015   6.703
 7737SOL     OW24109   4.054   0.668   1.516
 7737SOL    HW124110   4.013   0.759   1.523
 7737SOL    HW224111   3.997   0.602   1.566
 7738SOL     OW24112   1.686   5.389   6.607
 7738SOL    HW124113   1.645   5.447   6.536
 7738SOL    HW224114   1.734   5.445   6.674
 7739SOL     OW24115   0.608   1.498   1.783
 7739SOL    HW124116   0.658   1.472   1.866
 7739SOL    HW224117   0.572   1.416   1.739
 7740SOL     OW24118   1.531   0.606   3.069
 7740SOL    HW124119   1.556   0.676   3.136
 7740SOL    HW224120   1.603   0.598   3.000
 7741SOL     OW24121   1.455   6.200   4.221
 7741SOL    HW124122   1.374   6.141   4.216
 7741SOL    HW224123   1.439   6.274   4.286
 7742SOL     OW24124   6.230   2.021   3.311
 7742SOL    HW124125   6.172   2.079   3.255
 7742SOL    HW224126   6.318   2.066   3.327
 7743SOL     OW24127   4.606   2.411   6.303
 7743SOL    HW124128   4.693   2.376   6.269
 7743SOL    HW224129   4.620   2.499   6.347
 7744SOL     OW24130   0.206   6.042   3.783
 7744SOL    HW124131   0.146   6.119   3.764
 7744SOL    HW224132   0.289   6.051   3.728
 7745SOL     OW24133   3.502   1.213   5.965
 7745SOL    HW124134   3.498   1.160   6.050
 7745SOL    HW224135   3.592   1.203   5.923
 7746SOL     OW24136   2.255   6.696   6.696
 7746SOL    HW124137   2.348   6.707   6.730
 7746SOL    HW224138   2.258   6.682   6.596
 7747SOL     OW24139   4.317   5.833   1.104
 7747SOL    HW124140   4.286   5.915   1.153
 7747SOL    HW224141   4.264   5.823   1.020
 7748SOL     OW24142   3.478   4.160   6.077
 7748SOL    HW124143   3.501   4.071   6.037
 7748SOL    HW224144   3.493   4.232   6.010
 7749SOL     OW24145   3.320   3.345   5.588
 7749SOL    HW124146   3.238   3.290   5.572
 7749SOL    HW224147   3.401   3.291   5.569
 7750SOL     OW24148   0.110   5.958   1.640
 7750SOL    HW124149   0.089   6.044   1.594
 7750SOL    HW224150   0.189   5.972   1.701
 7751SOL     OW24151   1.713   1.224   2.410
 7751SOL    HW124152   1.787   1.207   2.344
 7751SOL    HW224153   1.747   1.210   2.503
 7752SOL     OW24154   5.305   0.261   5.553
 7752SOL    HW124155   5.345   0.309   5.631
 7752SOL    HW224156   5.251   0.326   5.498
 7753SOL     OW24157   2.343   1.781   4.855
 7753SOL    HW124158   2.272   1.711   4.862
 7753SOL    HW224159   2.323   1.841   4.777
 7754SOL     OW24160   3.720   5.874   1.841
 7754SOL    HW124161   3.674   5.918   1.764
 7754SOL    HW224162   3.807   5.920   1.859
 7755SOL     OW24163   1.289   2.934   6.184
 7755SOL    HW124164   1.231   2.935   6.266
 7755SOL    HW224165   1.364   2.999   6.196
 7756SOL     OW24166   3.384   6.230   1.258
 7756SOL    HW124167   3.358   6.190   1.170
 7756SOL    HW224168   3.384   6.159   1.328
 7757SOL     OW24169   0.053   4.788   1.786
 7757SOL    HW124170   0.015   4.842   1.862
 7757SOL    HW224171   0.028   4.832   1.700
 7758SOL     OW24172   1.485   6.284   6.453
 7758SOL    HW124173   1.559   6.220   6.432
 7758SOL    HW224174   1.407   6.266   6.393
 7759SOL     OW24175   2.968   1.703   5.767
 7759SOL    HW124176   2.949   1.784   5.822
 7759SOL    HW224177   2.941   1.719   5.673
 7760SOL     OW24178   4.912   2.308   2.093
 7760SOL    HW124179   5.011   2.298   2.106
 7760SOL    HW224180   4.885   2.266   2.007
 7761SOL     OW24181   6.068   5.926   4.771
 7761SOL    HW124182   6.145   5.971   4.816
 7761SOL    HW224183   6.037   5.849   4.827
 7762SOL     OW24184   1.669   0.513   3.828
 7762SOL    HW124185   1.700   0.599   3.788
 7762SOL    HW224186   1.656   0.445   3.756
 7763SOL     OW24187   2.234   6.687   6.132
 7763SOL    HW124188   2.140   6.682   6.099
 7763SOL    HW224189   2.297   6.675   6.054
 7764SOL     OW24190   2.879   4.652   6.109
 7764SOL    HW124191   2.952   4.649   6.178
 7764SOL    HW224192   2.854   4.747   6.091
 7765SOL     OW24193   6.581   3.319   4.288
 7765SOL    HW124194   6.484   3.310   4.264
 7765SOL    HW224195   6.638   3.292   4.211
 7766SOL     OW24196   0.299   4.130   0.469
 7766SOL    HW124197   0.233   4.160   0.400
 7766SOL    HW224198   0.379   4.090   0.424
 7767SOL     OW24199   4.376   6.622   2.686
 7767SOL    HW124200   4.397   6.568   2.604
 7767SOL    HW224201   4.458   6.632   2.742
 7768SOL     OW24202   4.770   4.667   3.510
 7768SOL    HW124203   4.697   4.701   3.450
 7768SOL    HW224204   4.859   4.688   3.469
 7769SOL     OW24205   3.813   1.798   5.121
 7769SOL    HW124206   3.808   1.728   5.050
 7769SOL    HW224207   3.898   1.787   5.173
 7770SOL     OW24208   0.046   3.594   4.770
 7770SOL    HW124209   0.042   3.687   4.804
 7770SOL    HW224210   0.132   3.551   4.799
 7771SOL     OW24211   2.742   1.911   6.202
 7771SOL    HW124212   2.690   1.831   6.230
 7771SOL    HW224213   2.809   1.886   6.132
 7772SOL     OW24214   5.149   1.007   0.790
 7772SOL    HW124215   5.182   0.979   0.700
 7772SOL    HW224216   5.049   1.013   0.788
 7773SOL     OW24217   2.454   5.756   6.081
 7773SOL    HW124218   2.478   5.810   6.161
 7773SOL    HW224219   2.530   5.693   6.060
 7774SOL     OW24220   4.747   2.311   4.814
 7774SOL    HW124221   4.673   2.244   4.817
 7774SOL    HW224222   4.739   2.366   4.730
 7775SOL     OW24223   3.735   6.855   0.153
 7775SOL    HW124224   3.775   6.791   0.219
 7775SOL    HW224225   3.721   6.943   0.198
 7776SOL     OW24226   0.067   6.660   5.973
 7776SOL    HW124227   0.067   6.757   5.947
 7776SOL    HW224228   0.013   6.608   5.906
 7777SOL     OW24229   6.548   5.687   4.857
 7777SOL    HW124230   6.455   5.685   4.892
 7777SOL    HW224231   6.546   5.704   4.758
 7778SOL     OW24232   5.600   4.549   2.210
 7778SOL    HW124233   5.682   4.554   2.154
 7778SOL    HW224234   5.519   4.551   2.151
 7779SOL     OW24235   3.291   0.388   2.781
 7779SOL    HW124236   3.356   0.326   2.737
 7779SOL    HW224237   3.315   0.397   2.878
 7780SOL     OW24238   6.801   6.424   5.615
 7780SOL    HW124239   6.822   6.454   5.522
 7780SOL    HW224240   6.702   6.420   5.627
 7781SOL     OW24241   1.521   4.180   0.497
 7781SOL    HW124242   1.490   4.248   0.430
 7781SOL    HW224243   1.614   4.203   0.527
 7782SOL     OW24244   5.777   5.133   3.401
 7782SOL    HW124245   5.690   5.152   3.447
 7782SOL    HW224246   5.846   5.111   3.470
 7783SOL     OW24247   0.757   0.093   6.085
 7783SOL    HW124248   0.788   0.180   6.046
 7783SOL    HW224249   0.729   0.032   6.011
 7784SOL     OW24250   3.070   2.460   1.604
 7784SOL    HW124251   3.110   2.372   1.579
 7784SOL    HW224252   3.035   2.456   1.697
 7785SOL     OW24253   1.430   6.698   3.533
 7785SOL    HW124254   1.396   6.675   3.624
 7785SOL    HW224255   1.362   6.675   3.464
 7786SOL     OW24256   4.341   0.859   0.094
 7786SOL    HW124257   4.288   0.786   0.051
 7786SOL    HW224258   4.306   0.876   0.186
 7787SOL     OW24259   2.520   2.979   0.692
 7787SOL    HW124260   2.453   3.021   0.753
 7787SOL    HW224261   2.541   3.041   0.617
 7788SOL     OW24262   1.707   6.781   2.079
 7788SOL    HW124263   1.674   6.699   2.032
 7788SOL    HW224264   1.709   6.765   2.177
 7789SOL     OW24265   3.171   0.156   6.404
 7789SOL    HW124266   3.229   0.124   6.329
 7789SOL    HW224267   3.200   0.248   6.431
 7790SOL     OW24268   6.632   5.110   2.536
 7790SOL    HW124269   6.620   5.103   2.437
 7790SOL    HW224270   6.622   5.206   2.563
 7791SOL     OW24271   2.539   5.439   2.037
 7791SOL    HW124272   2.594   5.357   2.051
 7791SOL    HW224273   2.595   5.521   2.050
 7792SOL     OW24274   0.633   0.728   2.782
 7792SOL    HW124275   0.724   0.718   2.743
 7792SOL    HW224276   0.593   0.815   2.753
 7793SOL     OW24277   4.874   0.573   6.588
 7793SOL    HW124278   4.894   0.647   6.652
 7793SOL    HW224279   4.947   0.566   6.521
 7794SOL     OW24280   0.467   5.765   2.125
 7794SOL    HW124281   0.401   5.808   2.186
 7794SOL    HW224282   0.418   5.712   2.055
 7795SOL     OW24283   3.308   5.592   5.412
 7795SOL    HW124284   3.274   5.659   5.477
 7795SOL    HW224285   3.408   5.591   5.413
 7796SOL     OW24286   3.608   3.093   5.700
 7796SOL    HW124287   3.690   3.037   5.703
 7796SOL    HW224288   3.618   3.164   5.631
 7797SOL     OW24289   1.335   5.051   1.282
 7797SOL    HW124290   1.388   5.130   1.313
 7797SOL    HW224291   1.290   5.073   1.196
 7798SOL     OW24292   1.277   1.673   2.531
 7798SOL    HW124293   1.376   1.659   2.525
 7798SOL    HW224294   1.246   1.728   2.454
 7799SOL     OW24295   2.752   5.955   2.726
 7799SOL    HW124296   2.690   5.940   2.803
 7799SOL    HW224297   2.772   6.052   2.718
 7800SOL     OW24298   0.775   5.970   2.373
 7800SOL    HW124299   0.817   6.030   2.304
 7800SOL    HW224300   0.745   6.024   2.451
 7801SOL     OW24301   1.647   1.616   2.986
 7801SOL    HW124302   1.668   1.552   2.913
 7801SOL    HW224303   1.549   1.638   2.984
 7802SOL     OW24304   6.940   4.337   6.814
 7802SOL    HW124305   6.962   4.362   6.908
 7802SOL    HW224306   6.975   4.408   6.752
 7803SOL     OW24307   4.936   2.134   6.992
 7803SOL    HW124308   5.020   2.080   6.985
 7803SOL    HW224309   4.862   2.086   6.944
 7804SOL     OW24310   3.646   1.608   4.324
 7804SOL    HW124311   3.696   1.620   4.238
 7804SOL    HW224312   3.598   1.693   4.347
 7805SOL     OW24313   4.854   3.169   2.429
 7805SOL    HW124314   4.821   3.094   2.371
 7805SOL    HW224315   4.840   3.146   2.525
 7806SOL     OW24316   6.574   2.411   6.198
 7806SOL    HW124317   6.482   2.400   6.159
 7806SOL    HW224318   6.642   2.376   6.134
 7807SOL     OW24319   1.492   4.274   5.564
 7807SOL    HW124320   1.543   4.250   5.647
 7807SOL    HW224321   1.494   4.197   5.500
 7808SOL     OW24322   4.877   4.242   2.313
 7808SOL    HW124323   4.857   4.151   2.276
 7808SOL    HW224324   4.975   4.253   2.324
 7809SOL     OW24325   5.197   4.976   4.712
 7809SOL    HW124326   5.293   4.949   4.708
 7809SOL    HW224327   5.178   5.020   4.799
 7810SOL     OW24328   3.773   6.946   4.657
 7810SOL    HW124329   3.846   6.929   4.592
 7810SOL    HW224330   3.767   0.020   4.676
 7811SOL     OW24331   1.349   5.609   3.185
 7811SOL    HW124332   1.415   5.632   3.114
 7811SOL    HW224333   1.368   5.518   3.221
 7812SOL     OW24334   2.277   3.253   5.216
 7812SOL    HW124335   2.334   3.335   5.222
 7812SOL    HW224336   2.335   3.172   5.212
 7813SOL     OW24337   4.401   2.823   1.439
 7813SOL    HW124338   4.499   2.831   1.456
 7813SOL    HW224339   4.351   2.853   1.520
 7814SOL     OW24340   6.555   3.329   2.693
 7814SOL    HW124341   6.529   3.236   2.666
 7814SOL    HW224342   6.649   3.327   2.729
 7815SOL     OW24343   5.659   2.198   5.369
 7815SOL    HW124344   5.612   2.213   5.282
 7815SOL    HW224345   5.592   2.170   5.438
 7816SOL     OW24346   0.383   1.621   5.993
 7816SOL    HW124347   0.419   1.528   5.985
 7816SOL    HW224348   0.459   1.686   5.992
 7817SOL     OW24349   4.198   3.848   5.702
 7817SOL    HW124350   4.144   3.809   5.628
 7817SOL    HW224351   4.186   3.948   5.704
 7818SOL     OW24352   4.989   1.303   2.353
 7818SOL    HW124353   4.937   1.252   2.421
 7818SOL    HW224354   4.927   1.364   2.303
 7819SOL     OW24355   0.137   3.798   4.076
 7819SOL    HW124356   0.071   3.756   4.138
 7819SOL    HW224357   0.089   3.856   4.010
 7820SOL     OW24358   1.811   1.271   5.564
 7820SOL    HW124359   1.821   1.366   5.534
 7820SOL    HW224360   1.842   1.263   5.658
 7821SOL     OW24361   5.960   5.780   0.495
 7821SOL    HW124362   5.863   5.791   0.476
 7821SOL    HW224363   6.013   5.841   0.435
 7822SOL     OW24364   1.123   1.710   6.127
 7822SOL    HW124365   1.098   1.754   6.041
 7822SOL    HW224366   1.078   1.757   6.203
 7823SOL     OW24367   1.107   4.159   6.343
 7823SOL    HW124368   1.138   4.074   6.385
 7823SOL    HW224369   1.160   4.178   6.261
 7824SOL     OW24370   6.082   0.591   4.049
 7824SOL    HW124371   6.044   0.653   3.980
 7824SOL    HW224372   6.181   0.598   4.049
 7825SOL     OW24373   2.194   2.665   1.559
 7825SOL    HW124374   2.286   2.666   1.597
 7825SOL    HW224375   2.131   2.710   1.622
 7826SOL     OW24376   5.312   2.252   6.983
 7826SOL    HW124377   5.293   2.240   0.056
 7826SOL    HW224378   5.375   2.330   6.971
 7827SOL     OW24379   3.652   4.850   1.167
 7827SOL    HW124380   3.692   4.846   1.259
 7827SOL    HW224381   3.566   4.900   1.170
 7828SOL     OW24382   0.582   5.437   0.700
 7828SOL    HW124383   0.482   5.433   0.693
 7828SOL    HW224384   0.621   5.346   0.686
 7829SOL     OW24385   2.559   3.215   1.585
 7829SOL    HW124386   2.623   3.140   1.569
 7829SOL    HW224387   2.503   3.228   1.503
 7830SOL     OW24388   5.744   4.253   6.155
 7830SOL    HW124389   5.782   4.337   6.116
 7830SOL    HW224390   5.676   4.215   6.092
 7831SOL     OW24391   0.783   4.736   0.024
 7831SOL    HW124392   0.776   4.836   0.035
 7831SOL    HW224393   0.867   4.704   0.066
 7832SOL     OW24394   3.656   1.076   4.859
 7832SOL    HW124395   3.626   1.161   4.816
 7832SOL    HW224396   3.584   1.044   4.921
 7833SOL     OW24397   1.014   0.945   0.396
 7833SOL    HW124398   1.080   0.899   0.455
 7833SOL    HW224399   0.931   0.965   0.448
 7834SOL     OW24400   0.221   1.393   1.936
 7834SOL    HW124401   0.230   1.346   1.849
 7834SOL    HW224402   0.134   1.368   1.979
 7835SOL     OW24403   2.426   2.618   4.620
 7835SOL    HW124404   2.347   2.567   4.654
 7835SOL    HW224405   2.410   2.645   4.525
 7836SOL     OW24406   3.156   0.873   6.708
 7836SOL    HW124407   3.148   0.818   6.792
 7836SOL    HW224408   3.094   0.836   6.639
 7837SOL     OW24409   5.874   6.199   1.788
 7837SOL    HW124410   5.831   6.112   1.811
 7837SOL    HW224411   5.967   6.200   1.825
 7838SOL     OW24412   4.831   6.467   6.080
 7838SOL    HW124413   4.892   6.398   6.040
 7838SOL    HW224414   4.804   6.438   6.172
 7839SOL     OW24415   6.455   4.202   4.822
 7839SOL    HW124416   6.436   4.259   4.902
 7839SOL    HW224417   6.494   4.115   4.851
 7840SOL     OW24418   5.403   3.240   3.866
 7840SOL    HW124419   5.487   3.267   3.914
 7840SOL    HW224420   5.427   3.197   3.778
 7841SOL     OW24421   5.592   1.760   6.340
 7841SOL    HW124422   5.508   1.745   6.392
 7841SOL    HW224423   5.585   1.846   6.291
 7842SOL     OW24424   1.319   0.941   3.506
 7842SOL    HW124425   1.317   1.039   3.525
 7842SOL    HW224426   1.261   0.893   3.572
 7843SOL     OW24427   5.954   4.357   1.279
 7843SOL    HW124428   5.893   4.374   1.202
 7843SOL    HW224429   6.037   4.411   1.268
 7844SOL     OW24430   4.655   0.768   3.976
 7844SOL    HW124431   4.626   0.689   3.922
 7844SOL    HW224432   4.720   0.739   4.046
 7845SOL     OW24433   0.588   0.861   3.999
 7845SOL    HW124434   0.622   0.847   3.906
 7845SOL    HW224435   0.655   0.826   4.064
 7846SOL     OW24436   2.359   0.943   1.643
 7846SOL    HW124437   2.283   0.999   1.674
 7846SOL    HW224438   2.436   1.001   1.618
 7847SOL     OW24439   0.677   1.518   1.054
 7847SOL    HW124440   0.611   1.445   1.039
 7847SOL    HW224441   0.737   1.494   1.131
 7848SOL     OW24442   3.288   4.383   0.995
 7848SOL    HW124443   3.225   4.306   0.985
 7848SOL    HW224444   3.235   4.469   0.999
 7849SOL     OW24445   5.433   3.835   4.095
 7849SOL    HW124446   5.372   3.909   4.067
 7849SOL    HW224447   5.421   3.816   4.192
 7850SOL     OW24448   0.255   0.830   3.841
 7850SOL    HW124449   0.269   0.732   3.827
 7850SOL    HW224450   0.292   0.856   3.930
 7851SOL     OW24451   6.186   6.769   0.788
 7851SOL    HW124452   6.285   6.755   0.792
 7851SOL    HW224453   6.149   6.718   0.710
 7852SOL     OW24454   3.025   6.616   6.393
 7852SOL    HW124455   3.048   6.714   6.394
 7852SOL    HW224456   2.931   6.605   6.361
 7853SOL     OW24457   3.848   1.380   0.730
 7853SOL    HW124458   3.846   1.413   0.825
 7853SOL    HW224459   3.831   1.281   0.729
 7854SOL     OW24460   3.672   4.189   0.841
 7854SOL    HW124461   3.622   4.273   0.818
 7854SOL    HW224462   3.617   4.134   0.905
 7855SOL     OW24463   4.566   5.792   6.523
 7855SOL    HW124464   4.535   5.792   6.428
 7855SOL    HW224465   4.666   5.781   6.526
 7856SOL     OW24466   6.325   4.922   4.259
 7856SOL    HW124467   6.289   4.875   4.179
 7856SOL    HW224468   6.250   4.972   4.305
 7857SOL     OW24469   7.005   2.535   5.602
 7857SOL    HW124470   6.930   2.548   5.538
 7857SOL    HW224471   0.049   2.605   5.588
 7858SOL     OW24472   5.362   4.972   3.354
 7858SOL    HW124473   5.441   4.937   3.305
 7858SOL    HW224474   5.282   4.971   3.295
 7859SOL     OW24475   0.184   4.030   6.236
 7859SOL    HW124476   0.223   3.983   6.156
 7859SOL    HW224477   0.185   3.968   6.314
 7860SOL     OW24478   3.987   6.358   2.659
 7860SOL    HW124479   4.083   6.332   2.648
 7860SOL    HW224480   3.932   6.309   2.593
 7861SOL     OW24481   4.258   5.539   1.729
 7861SOL    HW124482   4.338   5.592   1.701
 7861SOL    HW224483   4.271   5.505   1.822
 7862SOL     OW24484   3.048   4.231   1.716
 7862SOL    HW124485   2.991   4.288   1.775
 7862SOL    HW224486   3.028   4.251   1.620
 7863SOL     OW24487   6.710   6.062   3.243
 7863SOL    HW124488   6.734   5.965   3.242
 7863SOL    HW224489   6.746   6.104   3.326
 7864SOL     OW24490   6.913   5.964   5.721
 7864SOL    HW124491   6.827   5.921   5.748
 7864SOL    HW224492   6.898   6.023   5.642
 7865SOL     OW24493   4.360   6.478   4.041
 7865SOL    HW124494   4.326   6.478   3.947
 7865SOL    HW224495   4.451   6.437   4.045
 7866SOL     OW24496   2.429   1.416   1.831
 7866SOL    HW124497   2.458   1.508   1.806
 7866SOL    HW224498   2.486   1.349   1.785
 7867SOL     OW24499   5.563   5.061   2.772
 7867SOL    HW124500   5.579   4.984   2.711
 7867SOL    HW224501   5.478   5.107   2.747
 7868SOL     OW24502   4.986   0.079   2.553
 7868SOL    HW124503   4.986   7.020   2.498
 7868SOL    HW224504   5.047   0.146   2.511
 7869SOL     OW24505   6.298   3.433   0.933
 7869SOL    HW124506   6.396   3.443   0.953
 7869SOL    HW224507   6.287   3.383   0.847
 7870SOL     OW24508   5.619   5.367   3.873
 7870SOL    HW124509   5.526   5.342   3.846
 7870SOL    HW224510   5.665   5.410   3.796
 7871SOL     OW24511   5.648   4.090   3.107
 7871SOL    HW124512   5.680   4.120   3.018
 7871SOL    HW224513   5.722   4.095   3.173
 7872SOL     OW24514   0.658   4.476   2.161
 7872SOL    HW124515   0.626   4.402   2.102
 7872SOL    HW224516   0.747   4.508   2.130
 7873SOL     OW24517   6.568   0.935   5.496
 7873SOL    HW124518   6.586   0.839   5.514
 7873SOL    HW224519   6.553   0.983   5.583
 7874SOL     OW24520   6.606   1.858   6.615
 7874SOL    HW124521   6.547   1.932   6.649
 7874SOL    HW224522   6.554   1.797   6.556
 7875SOL     OW24523   4.401   3.615   6.564
 7875SOL    HW124524   4.447   3.676   6.500
 7875SOL    HW224525   4.338   3.555   6.514
 7876SOL     OW24526   6.965   6.977   5.094
 7876SOL    HW124527   0.028   6.987   5.047
 7876SOL    HW224528   6.891   6.978   5.028
 7877SOL     OW24529   0.169   2.836   2.621
 7877SOL    HW124530   0.102   2.857   2.692
 7877SOL    HW224531   0.257   2.878   2.643
 7878SOL     OW24532   5.097   5.361   3.267
 7878SOL    HW124533   5.053   5.275   3.241
 7878SOL    HW224534   5.027   5.425   3.299
 7879SOL     OW24535   4.496   5.974   3.197
 7879SOL    HW124536   4.542   6.062   3.208
 7879SOL    HW224537   4.564   5.902   3.184
 7880SOL     OW24538   0.365   6.302   0.910
 7880SOL    HW124539   0.294   6.321   0.978
 7880SOL    HW224540   0.360   6.206   0.883
 7881SOL     OW24541   6.913   3.924   4.653
 7881SOL    HW124542   6.936   3.929   4.750
 7881SOL    HW224543   6.979   3.978   4.600
 7882SOL     OW24544   1.975   2.261   2.941
 7882SOL    HW124545   1.958   2.241   2.845
 7882SOL    HW224546   1.935   2.350   2.965
 7883SOL     OW24547   1.748   0.832   1.580
 7883SOL    HW124548   1.811   0.786   1.643
 7883SOL    HW224549   1.762   0.795   1.488
 7884SOL     OW24550   1.269   4.018   2.839
 7884SOL    HW124551   1.342   4.046   2.901
 7884SOL    HW224552   1.308   3.980   2.755
 7885SOL     OW24553   5.793   5.636   2.874
 7885SOL    HW124554   5.835   5.632   2.784
 7885SOL    HW224555   5.731   5.714   2.877
 7886SOL     OW24556   6.043   3.992   1.134
 7886SOL    HW124557   6.044   4.041   1.047
 7886SOL    HW224558   5.962   4.019   1.186
 7887SOL     OW24559   3.431   2.920   5.172
 7887SOL    HW124560   3.392   3.001   5.216
 7887SOL    HW224561   3.364   2.846   5.173
 7888SOL     OW24562   0.128   0.603   4.539
 7888SOL    HW124563   0.059   0.549   4.587
 7888SOL    HW224564   0.187   0.541   4.487
 7889SOL     OW24565   0.526   5.537   6.915
 7889SOL    HW124566   0.471   5.504   6.838
 7889SOL    HW224567   0.620   5.504   6.905
 7890SOL     OW24568   1.618   2.822   4.079
 7890SOL    HW124569   1.624   2.912   4.037
 7890SOL    HW224570   1.522   2.793   4.083
 7891SOL     OW24571   0.628   3.052   4.281
 7891SOL    HW124572   0.575   2.970   4.261
 7891SOL    HW224573   0.700   3.031   4.346
 7892SOL     OW24574   1.058   2.087   3.999
 7892SOL    HW124575   1.012   2.058   3.915
 7892SOL    HW224576   1.058   2.187   4.004
 7893SOL     OW24577   5.945   6.348   2.168
 7893SOL    HW124578   5.965   6.440   2.134
 7893SOL    HW224579   5.847   6.338   2.183
 7894SOL     OW24580   2.904   1.154   0.834
 7894SOL    HW124581   2.926   1.083   0.768
 7894SOL    HW224582   2.916   1.119   0.927
 7895SOL     OW24583   3.715   6.205   4.720
 7895SOL    HW124584   3.711   6.281   4.655
 7895SOL    HW224585   3.745   6.122   4.672
 7896SOL     OW24586   5.148   2.992   1.688
 7896SOL    HW124587   5.168   2.896   1.670
 7896SOL    HW224588   5.183   3.017   1.778
 7897SOL     OW24589   3.301   3.731   6.508
 7897SOL    HW124590   3.293   3.732   6.408
 7897SOL    HW224591   3.218   3.694   6.548
 7898SOL     OW24592   4.791   0.278   4.017
 7898SOL    HW124593   4.701   0.303   3.982
 7898SOL    HW224594   4.828   0.201   3.965
 7899SOL     OW24595   5.376   6.502   2.033
 7899SOL    HW124596   5.311   6.567   2.072
 7899SOL    HW224597   5.469   6.538   2.041
 7900SOL     OW24598   0.873   3.554   0.707
 7900SOL    HW124599   0.824   3.617   0.647
 7900SOL    HW224600   0.874   3.463   0.665
 7901SOL     OW24601   5.262   1.596   6.254
 7901SOL    HW124602   5.206   1.638   6.183
 7901SOL    HW224603   5.304   1.667   6.310
 7902SOL     OW24604   6.914   6.457   3.337
 7902SOL    HW124605   6.832   6.460   3.394
 7902SOL    HW224606   6.980   6.392   3.377
 7903SOL     OW24607   4.255   1.693   3.506
 7903SOL    HW124608   4.156   1.697   3.500
 7903SOL    HW224609   4.283   1.607   3.548
 7904SOL     OW24610   6.139   6.867   3.319
 7904SOL    HW124611   6.205   6.933   3.282
 7904SOL    HW224612   6.050   6.913   3.333
 7905SOL     OW24613   5.385   1.191   0.531
 7905SOL    HW124614   5.315   1.227   0.469
 7905SOL    HW224615   5.461   1.256   0.536
 7906SOL     OW24616   1.368   5.263   0.449
 7906SOL    HW124617   1.385   5.359   0.426
 7906SOL    HW224618   1.450   5.223   0.488
 7907SOL     OW24619   6.226   1.260   2.900
 7907SOL    HW124620   6.305   1.302   2.943
 7907SOL    HW224621   6.233   1.269   2.800
 7908SOL     OW24622   1.226   1.983   6.591
 7908SOL    HW124623   1.266   1.999   6.681
 7908SOL    HW224624   1.170   2.062   6.565
 7909SOL     OW24625   5.056   4.538   3.477
 7909SOL    HW124626   5.038   4.444   3.508
 7909SOL    HW224627   5.062   4.539   3.377
 7910SOL     OW24628   1.511   3.019   1.480
 7910SOL    HW124629   1.506   3.116   1.501
 7910SOL    HW224630   1.433   2.993   1.423
 7911SOL     OW24631   0.943   3.985   1.377
 7911SOL    HW124632   0.893   4.071   1.392
 7911SOL    HW224633   0.895   3.930   1.308
 7912SOL     OW24634   5.205   4.506   0.568
 7912SOL    HW124635   5.198   4.412   0.534
 7912SOL    HW224636   5.301   4.526   0.590
 7913SOL     OW24637   1.667   4.600   0.960
 7913SOL    HW124638   1.630   4.631   1.048
 7913SOL    HW224639   1.714   4.676   0.915
 7914SOL     OW24640   7.013   4.374   0.039
 7914SOL    HW124641   7.020   4.474   0.047
 7914SOL    HW224642   0.076   4.337   0.008
 7915SOL     OW24643   4.574   1.278   2.616
 7915SOL    HW124644   4.491   1.296   2.668
 7915SOL    HW224645   4.635   1.358   2.621
 7916SOL     OW24646   0.933   0.571   5.057
 7916SOL    HW124647   1.012   0.612   5.010
 7916SOL    HW224648   0.849   0.600   5.013
 7917SOL     OW24649   3.876   2.407   5.742
 7917SOL    HW124650   3.887   2.319   5.696
 7917SOL    HW224651   3.803   2.459   5.699
 7918SOL     OW24652   0.865   1.424   5.453
 7918SOL    HW124653   0.812   1.445   5.371
 7918SOL    HW224654   0.945   1.368   5.429
 7919SOL     OW24655   1.179   5.144   2.252
 7919SOL    HW124656   1.220   5.209   2.316
 7919SOL    HW224657   1.216   5.160   2.161
 7920SOL     OW24658   4.868   1.080   2.045
 7920SOL    HW124659   4.829   1.071   1.954
 7920SOL    HW224660   4.832   1.007   2.104
 7921SOL     OW24661   5.707   0.926   1.285
 7921SOL    HW124662   5.767   0.975   1.222
 7921SOL    HW224663   5.612   0.949   1.264
 7922SOL     OW24664   0.417   6.184   6.665
 7922SOL    HW124665   0.318   6.192   6.674
 7922SOL    HW224666   0.443   6.197   6.569
 7923SOL     OW24667   3.098   1.675   6.850
 7923SOL    HW124668   3.037   1.617   6.795
 7923SOL    HW224669   3.152   1.734   6.790
 7924SOL     OW24670   4.953   6.987   1.202
 7924SOL    HW124671   4.984   0.057   1.202
 7924SOL    HW224672   5.009   6.934   1.138
 7925SOL     OW24673   1.540   6.569   0.716
 7925SOL    HW124674   1.510   6.478   0.686
 7925SOL    HW224675   1.469   6.610   0.773
 7926SOL     OW24676   5.407   1.635   6.852
 7926SOL    HW124677   5.361   1.589   6.776
 7926SOL    HW224678   5.491   1.585   6.875
 7927SOL     OW24679   5.235   0.200   1.794
 7927SOL    HW124680   5.176   0.127   1.830
 7927SOL    HW224681   5.329   0.185   1.825
 7928SOL     OW24682   7.015   1.096   3.455
 7928SOL    HW124683   0.018   1.047   3.537
 7928SOL    HW224684   0.040   1.182   3.447
 7929SOL     OW24685   4.286   3.729   6.231
 7929SOL    HW124686   4.306   3.771   6.143
 7929SOL    HW224687   4.189   3.708   6.237
 7930SOL     OW24688   3.708   5.567   6.138
 7930SOL    HW124689   3.704   5.611   6.048
 7930SOL    HW224690   3.652   5.619   6.203
 7931SOL     OW24691   3.920   2.957   0.380
 7931SOL    HW124692   4.005   2.962   0.327
 7931SOL    HW224693   3.891   3.049   0.405
 7932SOL     OW24694   0.647   5.077   1.589
 7932SOL    HW124695   0.648   5.134   1.672
 7932SOL    HW224696   0.739   5.074   1.550
 7933SOL     OW24697   6.897   0.844   5.830
 7933SOL    HW124698   6.866   0.893   5.912
 7933SOL    HW224699   6.961   0.772   5.857
 7934SOL     OW24700   1.393   4.750   0.366
 7934SOL    HW124701   1.476   4.786   0.324
 7934SOL    HW224702   1.372   4.660   0.327
 7935SOL     OW24703   5.315   5.127   2.636
 7935SOL    HW124704   5.216   5.142   2.629
 7935SOL    HW224705   5.350   5.095   2.548
 7936SOL     OW24706   2.992   5.610   3.324
 7936SOL    HW124707   2.971   5.676   3.397
 7936SOL    HW224708   3.090   5.614   3.303
 7937SOL     OW24709   2.495   5.435   3.708
 7937SOL    HW124710   2.539   5.421   3.620
 7937SOL    HW224711   2.507   5.354   3.766
 7938SOL     OW24712   5.225   6.398   5.399
 7938SOL    HW124713   5.209   6.484   5.448
 7938SOL    HW224714   5.177   6.400   5.311
 7939SOL     OW24715   0.312   1.923   5.716
 7939SOL    HW124716   0.349   2.005   5.759
 7939SOL    HW224717   0.385   1.873   5.669
 7940SOL     OW24718   3.398   1.698   2.505
 7940SOL    HW124719   3.340   1.748   2.441
 7940SOL    HW224720   3.350   1.616   2.537
 7941SOL     OW24721   5.076   6.679   3.172
 7941SOL    HW124722   5.145   6.750   3.187
 7941SOL    HW224723   5.004   6.688   3.242
 7942SOL     OW24724   0.895   2.823   3.022
 7942SOL    HW124725   0.845   2.809   3.107
 7942SOL    HW224726   0.958   2.900   3.033
 7943SOL     OW24727   0.969   4.488   5.161
 7943SOL    HW124728   0.943   4.435   5.081
 7943SOL    HW224729   1.021   4.430   5.224
 7944SOL     OW24730   0.450   2.309   1.566
 7944SOL    HW124731   0.433   2.403   1.534
 7944SOL    HW224732   0.526   2.309   1.631
 7945SOL     OW24733   6.162   5.354   2.744
 7945SOL    HW124734   6.112   5.349   2.657
 7945SOL    HW224735   6.129   5.282   2.805
 7946SOL     OW24736   3.862   6.694   5.750
 7946SOL    HW124737   3.834   6.697   5.846
 7946SOL    HW224738   3.800   6.751   5.695
 7947SOL     OW24739   2.315   1.750   5.132
 7947SOL    HW124740   2.347   1.770   5.039
 7947SOL    HW224741   2.253   1.823   5.162
 7948SOL     OW24742   1.096   4.726   1.088
 7948SOL    HW124743   1.023   4.743   1.022
 7948SOL    HW224744   1.184   4.736   1.044
 7949SOL     OW24745   4.382   4.052   5.870
 7949SOL    HW124746   4.476   4.085   5.856
 7949SOL    HW224747   4.379   3.991   5.949
 7950SOL     OW24748   4.784   6.336   5.338
 7950SOL    HW124749   4.796   6.243   5.303
 7950SOL    HW224750   4.814   6.402   5.269
 7951SOL     OW24751   2.372   5.358   2.513
 7951SOL    HW124752   2.286   5.383   2.558
 7951SOL    HW224753   2.353   5.325   2.421
 7952SOL     OW24754   6.663   3.171   6.969
 7952SOL    HW124755   6.671   3.204   6.875
 7952SOL    HW224756   6.618   3.082   6.970
 7953SOL     OW24757   4.420   1.885   1.784
 7953SOL    HW124758   4.328   1.848   1.801
 7953SOL    HW224759   4.441   1.952   1.855
 7954SOL     OW24760   3.905   3.918   6.288
 7954SOL    HW124761   3.880   4.015   6.295
 7954SOL    HW224762   3.853   3.875   6.214
 7955SOL     OW24763   2.524   1.592   6.500
 7955SOL    HW124764   2.465   1.658   6.453
 7955SOL    HW224765   2.473   1.509   6.519
 7956SOL     OW24766   5.879   1.223   1.936
 7956SOL    HW124767   5.893   1.140   1.882
 7956SOL    HW224768   5.900   1.204   2.032
 7957SOL     OW24769   2.712   0.714   6.353
 7957SOL    HW124770   2.650   0.638   6.337
 7957SOL    HW224771   2.699   0.784   6.282
 7958SOL     OW24772   5.560   4.148   5.997
 7958SOL    HW124773   5.500   4.221   6.031
 7958SOL    HW224774   5.505   4.079   5.951
 7959SOL     OW24775   5.273   0.637   6.688
 7959SOL    HW124776   5.232   0.728   6.691
 7959SOL    HW224777   5.200   0.568   6.687
 7960SOL     OW24778   0.721   1.566   5.986
 7960SOL    HW124779   0.745   1.503   5.912
 7960SOL    HW224780   0.712   1.659   5.948
 7961SOL     OW24781   6.416   0.103   0.793
 7961SOL    HW124782   6.322   0.070   0.798
 7961SOL    HW224783   6.429   0.175   0.862
 7962SOL     OW24784   0.160   1.752   5.888
 7962SOL    HW124785   0.213   1.821   5.840
 7962SOL    HW224786   0.221   1.688   5.935
 7963SOL     OW24787   6.751   5.510   4.032
 7963SOL    HW124788   6.765   5.451   4.112
 7963SOL    HW224789   6.796   5.469   3.953
 7964SOL     OW24790   5.985   2.772   2.349
 7964SOL    HW124791   6.066   2.820   2.383
 7964SOL    HW224792   5.987   2.769   2.249
 7965SOL     OW24793   3.887   2.372   6.378
 7965SOL    HW124794   3.980   2.405   6.363
 7965SOL    HW224795   3.880   2.337   6.472
 7966SOL     OW24796   3.789   3.420   5.700
 7966SOL    HW124797   3.833   3.352   5.641
 7966SOL    HW224798   3.858   3.482   5.736
 7967SOL     OW24799   2.020   4.999   2.089
 7967SOL    HW124800   1.955   4.935   2.047
 7967SOL    HW224801   2.038   4.971   2.183
 7968SOL     OW24802   6.020   2.408   5.395
 7968SOL    HW124803   5.981   2.360   5.474
 7968SOL    HW224804   5.950   2.463   5.351
 7969SOL     OW24805   5.154   5.963   0.440
 7969SOL    HW124806   5.248   5.978   0.410
 7969SOL    HW224807   5.151   5.886   0.504
 7970SOL     OW24808   5.359   3.348   2.510
 7970SOL    HW124809   5.440   3.397   2.477
 7970SOL    HW224810   5.280   3.409   2.511
 7971SOL     OW24811   2.923   0.699   1.901
 7971SOL    HW124812   2.918   0.619   1.842
 7971SOL    HW224813   2.847   0.761   1.882
 7972SOL     OW24814   3.314   3.789   1.912
 7972SOL    HW124815   3.340   3.874   1.866
 7972SOL    HW224816   3.336   3.796   2.009
 7973SOL     OW24817   5.735   4.278   4.667
 7973SOL    HW124818   5.825   4.321   4.680
 7973SOL    HW224819   5.747   4.184   4.636
 7974SOL     OW24820   6.226   1.245   5.683
 7974SOL    HW124821   6.225   1.276   5.588
 7974SOL    HW224822   6.178   1.311   5.740
 7975SOL     OW24823   4.763   0.670   0.696
 7975SOL    HW124824   4.690   0.602   0.702
 7975SOL    HW224825   4.729   0.758   0.729
 7976SOL     OW24826   0.678   6.968   5.822
 7976SOL    HW124827   0.625   6.919   5.754
 7976SOL    HW224828   0.691   0.038   5.793
 7977SOL     OW24829   4.932   6.414   2.134
 7977SOL    HW124830   4.988   6.336   2.163
 7977SOL    HW224831   4.972   6.455   2.052
 7978SOL     OW24832   0.528   2.887   6.268
 7978SOL    HW124833   0.547   2.939   6.352
 7978SOL    HW224834   0.556   2.942   6.189
 7979SOL     OW24835   2.123   4.267   5.652
 7979SOL    HW124836   2.182   4.243   5.729
 7979SOL    HW224837   2.108   4.186   5.595
 7980SOL     OW24838   3.064   5.681   6.784
 7980SOL    HW124839   3.006   5.609   6.746
 7980SOL    HW224840   3.022   5.715   6.869
 7981SOL     OW24841   1.110   5.178   1.703
 7981SOL    HW124842   1.138   5.248   1.768
 7981SOL    HW224843   1.056   5.108   1.750
 7982SOL     OW24844   1.562   1.698   5.988
 7982SOL    HW124845   1.515   1.765   5.931
 7982SOL    HW224846   1.611   1.633   5.930
 7983SOL     OW24847   6.215   1.592   1.558
 7983SOL    HW124848   6.163   1.613   1.640
 7983SOL    HW224849   6.266   1.673   1.529
 7984SOL     OW24850   0.465   1.547   0.686
 7984SOL    HW124851   0.426   1.457   0.674
 7984SOL    HW224852   0.534   1.564   0.616
 7985SOL     OW24853   2.457   2.157   4.575
 7985SOL    HW124854   2.453   2.170   4.674
 7985SOL    HW224855   2.541   2.197   4.540
 7986SOL     OW24856   3.485   0.886   5.745
 7986SOL    HW124857   3.394   0.889   5.787
 7986SOL    HW224858   3.476   0.879   5.646
 7987SOL     OW24859   2.106   3.131   0.639
 7987SOL    HW124860   2.014   3.113   0.673
 7987SOL    HW224861   2.134   3.223   0.668
 7988SOL     OW24862   1.156   1.281   2.279
 7988SOL    HW124863   1.254   1.267   2.274
 7988SOL    HW224864   1.137   1.359   2.339
 7989SOL     OW24865   2.332   4.097   0.318
 7989SOL    HW124866   2.243   4.096   0.363
 7989SOL    HW224867   2.329   4.157   0.238
 7990SOL     OW24868   2.698   5.100   4.349
 7990SOL    HW124869   2.622   5.044   4.381
 7990SOL    HW224870   2.781   5.044   4.343
 7991SOL     OW24871   5.636   1.115   4.261
 7991SOL    HW124872   5.657   1.201   4.213
 7991SOL    HW224873   5.663   1.038   4.203
 7992SOL     OW24874   1.643   0.292   0.326
 7992SOL    HW124875   1.710   0.291   0.252
 7992SOL    HW224876   1.687   0.265   0.412
 7993SOL     OW24877   0.565   0.026   1.419
 7993SOL    HW124878   0.578   0.082   1.338
 7993SOL    HW224879   0.541   0.085   1.497
 7994SOL     OW24880   5.346   0.678   2.886
 7994SOL    HW124881   5.378   0.741   2.956
 7994SOL    HW224882   5.251   0.654   2.904
 7995SOL     OW24883   5.861   5.493   3.269
 7995SOL    HW124884   5.931   5.426   3.245
 7995SOL    HW224885   5.806   5.513   3.188
 7996SOL     OW24886   4.052   6.140   4.383
 7996SOL    HW124887   4.033   6.125   4.286
 7996SOL    HW224888   3.976   6.103   4.437
 7997SOL     OW24889   0.603   1.944   0.354
 7997SOL    HW124890   0.686   1.987   0.390
 7997SOL    HW224891   0.627   1.881   0.280
 7998SOL     OW24892   2.958   6.752   6.868
 7998SOL    HW124893   3.007   6.720   6.787
 7998SOL    HW224894   3.009   6.826   6.911
 7999SOL     OW24895   1.459   1.388   6.027
 7999SOL    HW124896   1.426   1.481   6.045
 7999SOL    HW224897   1.456   1.370   5.928
 8000SOL     OW24898   5.803   0.103   6.070
 8000SOL    HW124899   5.881   0.041   6.076
 8000SOL    HW224900   5.719   0.052   6.086
 8001SOL     OW24901   4.381   6.103   1.428
 8001SOL    HW124902   4.412   6.029   1.488
 8001SOL    HW224903   4.307   6.069   1.369
 8002SOL     OW24904   0.647   0.951   5.527
 8002SOL    HW124905   0.723   0.894   5.497
 8002SOL    HW224906   0.589   0.900   5.591
 8003SOL     OW24907   2.077   5.800   1.276
 8003SOL    HW124908   2.163   5.813   1.226
 8003SOL    HW224909   2.085   5.722   1.338
 8004SOL     OW24910   2.019   3.331   3.626
 8004SOL    HW124911   1.923   3.357   3.634
 8004SOL    HW224912   2.025   3.239   3.585
 8005SOL     OW24913   2.743   0.671   3.584
 8005SOL    HW124914   2.816   0.738   3.590
 8005SOL    HW224915   2.705   0.669   3.491
 8006SOL     OW24916   2.402   5.714   5.439
 8006SOL    HW124917   2.452   5.633   5.470
 8006SOL    HW224918   2.386   5.776   5.516
 8007SOL     OW24919   5.941   2.412   6.327
 8007SOL    HW124920   6.036   2.430   6.302
 8007SOL    HW224921   5.897   2.361   6.254
 8008SOL     OW24922   3.394   5.442   6.737
 8008SOL    HW124923   3.315   5.398   6.693
 8008SOL    HW224924   3.459   5.472   6.667
 8009SOL     OW24925   4.402   1.131   0.292
 8009SOL    HW124926   4.438   1.216   0.329
 8009SOL    HW224927   4.368   1.146   0.199
 8010SOL     OW24928   2.972   2.138   5.116
 8010SOL    HW124929   2.937   2.133   5.022
 8010SOL    HW224930   3.057   2.192   5.116
 8011SOL     OW24931   3.687   1.958   1.620
 8011SOL    HW124932   3.642   1.986   1.705
 8011SOL    HW224933   3.774   2.006   1.611
 8012SOL     OW24934   1.221   2.868   5.919
 8012SOL    HW124935   1.240   2.951   5.867
 8012SOL    HW224936   1.217   2.890   6.017
 8013SOL     OW24937   1.522   3.387   3.835
 8013SOL    HW124938   1.459   3.313   3.812
 8013SOL    HW224939   1.471   3.472   3.844
 8014SOL     OW24940   1.923   0.401   4.553
 8014SOL    HW124941   1.925   0.491   4.597
 8014SOL    HW224942   1.837   0.355   4.576
 8015SOL     OW24943   2.057   0.257   5.806
 8015SOL    HW124944   1.962   0.266   5.834
 8015SOL    HW224945   2.064   0.271   5.707
 8016SOL     OW24946   4.251   1.109   4.952
 8016SOL    HW124947   4.204   1.156   5.027
 8016SOL    HW224948   4.321   1.049   4.990
 8017SOL     OW24949   6.327   0.440   6.768
 8017SOL    HW124950   6.385   0.380   6.712
 8017SOL    HW224951   6.286   0.387   6.842
 8018SOL     OW24952   3.403   2.210   6.659
 8018SOL    HW124953   3.367   2.303   6.663
 8018SOL    HW224954   3.384   2.171   6.569
 8019SOL     OW24955   2.067   4.005   1.390
 8019SOL    HW124956   1.999   4.043   1.453
 8019SOL    HW224957   2.159   4.028   1.421
 8020SOL     OW24958   6.487   0.649   6.368
 8020SOL    HW124959   6.486   0.703   6.452
 8020SOL    HW224960   6.581   0.639   6.336
 8021SOL     OW24961   1.815   3.013   1.520
 8021SOL    HW124962   1.733   3.069   1.514
 8021SOL    HW224963   1.875   3.050   1.591
 8022SOL     OW24964   5.915   0.258   1.608
 8022SOL    HW124965   5.859   0.178   1.588
 8022SOL    HW224966   5.963   0.288   1.525
 8023SOL     OW24967   5.942   4.885   2.632
 8023SOL    HW124968   5.910   4.875   2.538
 8023SOL    HW224969   6.032   4.929   2.632
 8024SOL     OW24970   1.366   5.504   6.072
 8024SOL    HW124971   1.306   5.449   6.014
 8024SOL    HW224972   1.348   5.601   6.056
 8025SOL     OW24973   1.712   5.354   0.856
 8025SOL    HW124974   1.632   5.374   0.912
 8025SOL    HW224975   1.784   5.421   0.875
 8026SOL     OW24976   6.749   4.249   0.837
 8026SOL    HW124977   6.843   4.220   0.855
 8026SOL    HW224978   6.700   4.260   0.923
 8027SOL     OW24979   3.314   6.278   5.648
 8027SOL    HW124980   3.395   6.238   5.606
 8027SOL    HW224981   3.252   6.205   5.677
 8028SOL     OW24982   3.157   5.216   5.056
 8028SOL    HW124983   3.248   5.208   5.095
 8028SOL    HW224984   3.105   5.286   5.105
 8029SOL     OW24985   4.884   2.595   2.143
 8029SOL    HW124986   4.882   2.499   2.112
 8029SOL    HW224987   4.811   2.646   2.098
 8030SOL     OW24988   6.201   5.355   0.569
 8030SOL    HW124989   6.185   5.433   0.630
 8030SOL    HW224990   6.147   5.367   0.486
 8031SOL     OW24991   6.790   6.400   2.614
 8031SOL    HW124992   6.715   6.409   2.680
 8031SOL    HW224993   6.782   6.471   2.544
 8032SOL     OW24994   5.166   3.760   1.794
 8032SOL    HW124995   5.241   3.800   1.741
 8032SOL    HW224996   5.203   3.715   1.875
 8033SOL     OW24997   4.885   3.337   0.297
 8033SOL    HW124998   4.915   3.423   0.255
 8033SOL    HW224999   4.859   3.354   0.392
 8034SOL     OW25000   5.574   0.020   5.813
 8034SOL    HW125001   5.646   6.979   5.836
 8034SOL    HW225002   5.585   0.102   5.869
 8035SOL     OW25003   4.915   1.580   1.885
 8035SOL    HW125004   4.919   1.490   1.926
 8035SOL    HW225005   4.835   1.629   1.919
 8036SOL     OW25006   6.949   3.818   3.708
 8036SOL    HW125007   0.014   3.816   3.752
 8036SOL    HW225008   6.885   3.870   3.764
 8037SOL     OW25009   1.889   3.380   6.994
 8037SOL    HW125010   1.986   3.373   7.017
 8037SOL    HW225011   1.846   3.448   0.029
 8038SOL     OW25012   4.717   6.504   2.530
 8038SOL    HW125013   4.618   6.502   2.517
 8038SOL    HW225014   4.761   6.542   2.449
 8039SOL     OW25015   6.988   2.009   4.645
 8039SOL    HW125016   0.051   1.965   4.659
 8039SOL    HW225017   6.924   1.944   4.603
 8040SOL     OW25018   1.588   6.417   6.959
 8040SOL    HW125019   1.579   6.427   0.033
 8040SOL    HW225020   1.645   6.337   6.939
 8041SOL     OW25021   3.335   0.905   2.730
 8041SOL    HW125022   3.392   0.864   2.802
 8041SOL    HW225023   3.261   0.843   2.707
 8042SOL     OW25024   4.501   4.409   5.444
 8042SOL    HW125025   4.528   4.369   5.357
 8042SOL    HW225026   4.447   4.343   5.496
 8043SOL     OW25027   3.622   4.144   0.217
 8043SOL    HW125028   3.721   4.153   0.231
 8043SOL    HW225029   3.587   4.226   0.172
 8044SOL     OW25030   3.600   3.610   0.388
 8044SOL    HW125031   3.672   3.581   0.451
 8044SOL    HW225032   3.626   3.696   0.344
 8045SOL     OW25033   6.706   2.428   2.699
 8045SOL    HW125034   6.755   2.349   2.736
 8045SOL    HW225035   6.626   2.447   2.756
 8046SOL     OW25036   0.351   4.634   2.131
 8046SOL    HW125037   0.392   4.585   2.208
 8046SOL    HW225038   0.399   4.609   2.047
 8047SOL     OW25039   3.952   6.399   6.608
 8047SOL    HW125040   3.878   6.359   6.661
 8047SOL    HW225041   3.962   6.350   6.521
 8048SOL     OW25042   3.209   2.467   6.688
 8048SOL    HW125043   3.164   2.465   6.598
 8048SOL    HW225044   3.146   2.505   6.755
 8049SOL     OW25045   0.372   6.468   6.871
 8049SOL    HW125046   0.415   6.405   6.935
 8049SOL    HW225047   0.420   6.555   6.873
 8050SOL     OW25048   2.180   3.332   4.272
 8050SOL    HW125049   2.112   3.287   4.215
 8050SOL    HW225050   2.137   3.362   4.358
 8051SOL     OW25051   4.475   6.248   4.773
 8051SOL    HW125052   4.440   6.311   4.842
 8051SOL    HW225053   4.470   6.292   4.683
 8052SOL     OW25054   2.414   2.124   1.592
 8052SOL    HW125055   2.498   2.071   1.611
 8052SOL    HW225056   2.377   2.159   1.677
 8053SOL     OW25057   3.116   2.957   5.143
 8053SOL    HW125058   3.148   2.879   5.196
 8053SOL    HW225059   3.155   2.954   5.051
 8054SOL     OW25060   6.396   4.261   4.377
 8054SOL    HW125061   6.444   4.186   4.423
 8054SOL    HW225062   6.458   4.338   4.366
 8055SOL     OW25063   0.159   0.732   5.644
 8055SOL    HW125064   0.186   0.780   5.560
 8055SOL    HW225065   0.115   0.797   5.706
 8056SOL     OW25066   3.131   0.317   4.333
 8056SOL    HW125067   3.079   0.259   4.271
 8056SOL    HW225068   3.220   0.338   4.292
 8057SOL     OW25069   2.503   2.349   2.883
 8057SOL    HW125070   2.595   2.312   2.879
 8057SOL    HW225071   2.466   2.336   2.975
 8058SOL     OW25072   3.349   6.309   3.010
 8058SOL    HW125073   3.338   6.357   3.097
 8058SOL    HW225074   3.381   6.373   2.940
 8059SOL     OW25075   3.028   0.530   5.595
 8059SOL    HW125076   3.084   0.601   5.639
 8059SOL    HW225077   2.961   0.573   5.535
 8060SOL     OW25078   0.404   2.023   6.090
 8060SOL    HW125079   0.331   2.043   6.155
 8060SOL    HW225080   0.403   2.092   6.017
 8061SOL     OW25081   0.842   0.605   2.631
 8061SOL    HW125082   0.750   0.586   2.597
 8061SOL    HW225083   0.896   0.522   2.630
 8062SOL     OW25084   4.205   5.008   4.903
 8062SOL    HW125085   4.137   5.057   4.958
 8062SOL    HW225086   4.158   4.955   4.832
 8063SOL     OW25087   2.823   1.094   3.302
 8063SOL    HW125088   2.789   1.175   3.350
 8063SOL    HW225089   2.770   1.080   3.218
 8064SOL     OW25090   6.302   2.497   0.274
 8064SOL    HW125091   6.266   2.573   0.219
 8064SOL    HW225092   6.232   2.426   0.283
 8065SOL     OW25093   2.991   6.264   4.276
 8065SOL    HW125094   2.986   6.271   4.376
 8065SOL    HW225095   3.078   6.304   4.245
 8066SOL     OW25096   6.358   0.331   4.972
 8066SOL    HW125097   6.390   0.425   4.983
 8066SOL    HW225098   6.436   0.268   4.982
 8067SOL     OW25099   5.040   2.511   3.348
 8067SOL    HW125100   5.126   2.460   3.349
 8067SOL    HW225101   5.025   2.551   3.258
 8068SOL     OW25102   0.703   4.555   1.222
 8068SOL    HW125103   0.684   4.585   1.129
 8068SOL    HW225104   0.647   4.475   1.244
 8069SOL     OW25105   2.030   4.613   1.868
 8069SOL    HW125106   1.962   4.585   1.799
 8069SOL    HW225107   2.122   4.602   1.829
 8070SOL     OW25108   4.141   2.868   0.247
 8070SOL    HW125109   4.213   2.930   0.218
 8070SOL    HW225110   4.091   2.835   0.166
 8071SOL     OW25111   3.171   6.426   5.367
 8071SOL    HW125112   3.151   6.336   5.330
 8071SOL    HW225113   3.164   6.422   5.467
 8072SOL     OW25114   3.104   1.985   0.858
 8072SOL    HW125115   3.036   1.934   0.806
 8072SOL    HW225116   3.069   2.076   0.880
 8073SOL     OW25117   2.877   5.608   5.409
 8073SOL    HW125118   2.899   5.705   5.395
 8073SOL    HW225119   2.878   5.561   5.321
 8074SOL     OW25120   2.711   1.105   1.229
 8074SOL    HW125121   2.788   1.074   1.174
 8074SOL    HW225122   2.741   1.179   1.289
 8075SOL     OW25123   0.341   0.895   0.224
 8075SOL    HW125124   0.401   0.830   0.177
 8075SOL    HW225125   0.292   0.848   0.297
 8076SOL     OW25126   6.109   0.239   5.107
 8076SOL    HW125127   6.179   0.280   5.049
 8076SOL    HW225128   6.067   0.309   5.164
 8077SOL     OW25129   3.592   6.178   2.582
 8077SOL    HW125130   3.590   6.113   2.506
 8077SOL    HW225131   3.560   6.267   2.550
 8078SOL     OW25132   0.957   1.811   1.520
 8078SOL    HW125133   1.025   1.852   1.459
 8078SOL    HW225134   0.865   1.829   1.484
 8079SOL     OW25135   6.653   1.630   3.804
 8079SOL    HW125136   6.727   1.623   3.871
 8079SOL    HW225137   6.591   1.553   3.815
 8080SOL     OW25138   1.056   2.480   2.712
 8080SOL    HW125139   1.066   2.534   2.628
 8080SOL    HW225140   1.138   2.424   2.726
 8081SOL     OW25141   6.144   5.744   5.903
 8081SOL    HW125142   6.183   5.675   5.964
 8081SOL    HW225143   6.206   5.759   5.826
 8082SOL     OW25144   3.755   0.931   2.518
 8082SOL    HW125145   3.655   0.924   2.510
 8082SOL    HW225146   3.783   1.026   2.505
 8083SOL     OW25147   5.430   2.645   3.716
 8083SOL    HW125148   5.403   2.739   3.696
 8083SOL    HW225149   5.456   2.639   3.812
 8084SOL     OW25150   2.664   0.525   0.088
 8084SOL    HW125151   2.680   0.554   7.019
 8084SOL    HW225152   2.641   0.428   0.090
 8085SOL     OW25153   6.012   5.931   2.549
 8085SOL    HW125154   6.088   5.873   2.576
 8085SOL    HW225155   6.024   6.023   2.588
 8086SOL     OW25156   0.349   0.585   1.396
 8086SOL    HW125157   0.436   0.593   1.348
 8086SOL    HW225158   0.289   0.522   1.346
 8087SOL     OW25159   1.718   1.061   6.912
 8087SOL    HW125160   1.625   1.073   6.947
 8087SOL    HW225161   1.779   1.127   6.956
 8088SOL     OW25162   5.648   1.054   0.210
 8088SOL    HW125163   5.691   0.973   0.171
 8088SOL    HW225164   5.586   1.027   0.284
 8089SOL     OW25165   5.591   3.147   6.873
 8089SOL    HW125166   5.537   3.116   6.950
 8089SOL    HW225167   5.672   3.088   6.863
 8090SOL     OW25168   3.829   1.093   6.370
 8090SOL    HW125169   3.773   1.149   6.431
 8090SOL    HW225170   3.823   0.997   6.398
 8091SOL     OW25171   1.259   3.694   5.235
 8091SOL    HW125172   1.171   3.719   5.274
 8091SOL    HW225173   1.324   3.675   5.309
 8092SOL     OW25174   4.617   2.082   5.488
 8092SOL    HW125175   4.599   1.992   5.527
 8092SOL    HW225176   4.637   2.072   5.390
 8093SOL     OW25177   2.781   5.311   3.249
 8093SOL    HW125178   2.816   5.297   3.157
 8093SOL    HW225179   2.692   5.267   3.259
 8094SOL     OW25180   0.423   2.891   4.795
 8094SOL    HW125181   0.486   2.965   4.818
 8094SOL    HW225182   0.336   2.906   4.842
 8095SOL     OW25183   0.968   3.874   5.008
 8095SOL    HW125184   1.030   3.920   4.944
 8095SOL    HW225185   1.006   3.878   5.100
 8096SOL     OW25186   2.474   0.882   2.342
 8096SOL    HW125187   2.383   0.871   2.383
 8096SOL    HW225188   2.511   0.792   2.319
 8097SOL     OW25189   4.169   6.770   4.432
 8097SOL    HW125190   4.249   6.827   4.448
 8097SOL    HW225191   4.196   6.673   4.428
 8098SOL     OW25192   2.405   6.185   3.867
 8098SOL    HW125193   2.451   6.248   3.804
 8098SOL    HW225194   2.473   6.142   3.926
 8099SOL     OW25195   4.545   6.407   4.552
 8099SOL    HW125196   4.542   6.503   4.524
 8099SOL    HW225197   4.497   6.351   4.485
 8100SOL     OW25198   6.877   1.610   6.641
 8100SOL    HW125199   6.875   1.709   6.629
 8100SOL    HW225200   6.846   1.586   6.733
 8101SOL     OW25201   1.734   5.745   0.916
 8101SOL    HW125202   1.693   5.747   0.825
 8101SOL    HW225203   1.768   5.836   0.940
 8102SOL     OW25204   0.715   3.854   2.996
 8102SOL    HW125205   0.789   3.870   2.931
 8102SOL    HW225206   0.627   3.862   2.949
 8103SOL     OW25207   3.850   0.028   1.915
 8103SOL    HW125208   3.866   6.964   1.957
 8103SOL    HW225209   3.931   0.056   1.865
 8104SOL     OW25210   1.634   0.622   6.387
 8104SOL    HW125211   1.677   0.532   6.395
 8104SOL    HW225212   1.585   0.644   6.472
 8105SOL     OW25213   6.669   2.721   2.410
 8105SOL    HW125214   6.589   2.707   2.352
 8105SOL    HW225215   6.713   2.633   2.427
 8106SOL     OW25216   2.746   6.088   3.362
 8106SOL    HW125217   2.801   6.030   3.302
 8106SOL    HW225218   2.650   6.062   3.355
 8107SOL     OW25219   0.941   5.630   3.896
 8107SOL    HW125220   0.953   5.676   3.808
 8107SOL    HW225221   1.027   5.632   3.946
 8108SOL     OW25222   6.828   2.619   6.588
 8108SOL    HW125223   6.871   2.664   6.510
 8108SOL    HW225224   6.755   2.558   6.555
 8109SOL     OW25225   0.420   3.279   6.384
 8109SOL    HW125226   0.363   3.212   6.337
 8109SOL    HW225227   0.410   3.267   6.483
 8110SOL     OW25228   4.074   5.314   2.044
 8110SOL    HW125229   4.037   5.341   2.133
 8110SOL    HW225230   4.034   5.226   2.017
 8111SOL     OW25231   4.779   1.276   4.705
 8111SOL    HW125232   4.835   1.235   4.633
 8111SOL    HW225233   4.746   1.366   4.674
 8112SOL     OW25234   2.719   2.394   4.351
 8112SOL    HW125235   2.668   2.468   4.308
 8112SOL    HW225236   2.709   2.398   4.450
 8113SOL     OW25237   0.187   3.445   0.595
 8113SOL    HW125238   0.158   3.457   0.690
 8113SOL    HW225239   0.195   3.347   0.575
 8114SOL     OW25240   1.892   3.709   2.536
 8114SOL    HW125241   1.981   3.729   2.578
 8114SOL    HW225242   1.828   3.783   2.556
 8115SOL     OW25243   3.396   6.629   6.262
 8115SOL    HW125244   3.401   6.725   6.291
 8115SOL    HW225245   3.369   6.625   6.166
 8116SOL     OW25246   3.788   4.499   0.135
 8116SOL    HW125247   3.791   4.514   0.037
 8116SOL    HW225248   3.699   4.461   0.160
 8117SOL     OW25249   2.020   0.241   3.464
 8117SOL    HW125250   2.001   0.171   3.533
 8117SOL    HW225251   1.973   0.217   3.379
 8118SOL     OW25252   5.463   3.897   5.618
 8118SOL    HW125253   5.457   3.997   5.616
 8118SOL    HW225254   5.387   3.861   5.672
 8119SOL     OW25255   5.447   6.692   6.674
 8119SOL    HW125256   5.516   6.764   6.668
 8119SOL    HW225257   5.445   6.640   6.589
 8120SOL     OW25258   3.114   4.598   1.048
 8120SOL    HW125259   3.124   4.698   1.053
 8120SOL    HW225260   3.019   4.573   1.065
 8121SOL     OW25261   0.775   4.770   1.349
 8121SOL    HW125262   0.740   4.692   1.298
 8121SOL    HW225263   0.875   4.768   1.349
 8122SOL     OW25264   0.016   5.016   2.838
 8122SOL    HW125265   6.960   5.073   2.825
 8122SOL    HW225266   0.015   4.940   2.773
 8123SOL     OW25267   0.196   2.109   0.128
 8123SOL    HW125268   0.105   2.149   0.120
 8123SOL    HW225269   0.252   2.166   0.189
 8124SOL     OW25270   4.977   5.812   2.652
 8124SOL    HW125271   5.027   5.726   2.643
 8124SOL    HW225272   5.015   5.880   2.589
 8125SOL     OW25273   1.585   1.189   3.388
 8125SOL    HW125274   1.537   1.150   3.309
 8125SOL    HW225275   1.649   1.259   3.357
 8126SOL     OW25276   5.509   5.292   3.285
 8126SOL    HW125277   5.504   5.255   3.378
 8126SOL    HW225278   5.587   5.251   3.237
 8127SOL     OW25279   2.931   3.492   6.338
 8127SOL    HW125280   2.917   3.464   6.243
 8127SOL    HW225281   2.850   3.470   6.392
 8128SOL     OW25282   3.019   2.179   2.266
 8128SOL    HW125283   3.060   2.155   2.354
 8128SOL    HW225284   3.032   2.276   2.248
 8129SOL     OW25285   3.495   1.660   6.155
 8129SOL    HW125286   3.465   1.658   6.250
 8129SOL    HW225287   3.450   1.587   6.104
 8130SOL     OW25288   0.830   5.173   6.748
 8130SOL    HW125289   0.920   5.138   6.774
 8130SOL    HW225290   0.760   5.129   6.804
 8131SOL     OW25291   2.762   1.524   1.796
 8131SOL    HW125292   2.694   1.589   1.830
 8131SOL    HW225293   2.818   1.568   1.726
 8132SOL     OW25294   5.665   6.832   5.021
 8132SOL    HW125295   5.599   6.850   4.949
 8132SOL    HW225296   5.672   6.913   5.080
 8133SOL     OW25297   2.972   5.226   2.358
 8133SOL    HW125298   2.979   5.258   2.263
 8133SOL    HW225299   3.062   5.196   2.389
 8134SOL     OW25300   0.247   1.870   6.707
 8134SOL    HW125301   0.306   1.847   6.629
 8134SOL    HW225302   0.230   1.787   6.761
 8135SOL     OW25303   2.584   0.706   1.877
 8135SOL    HW125304   2.522   0.653   1.819
 8135SOL    HW225305   2.546   0.712   1.969
 8136SOL     OW25306   4.588   5.402   2.542
 8136SOL    HW125307   4.524   5.398   2.465
 8136SOL    HW225308   4.675   5.439   2.511
 8137SOL     OW25309   3.316   0.694   4.844
 8137SOL    HW125310   3.327   0.739   4.755
 8137SOL    HW225311   3.252   0.618   4.835
 8138SOL     OW25312   5.373   1.332   1.957
 8138SOL    HW125313   5.311   1.400   1.997
 8138SOL    HW225314   5.467   1.361   1.971
 8139SOL     OW25315   0.423   0.689   1.963
 8139SOL    HW125316   0.369   0.770   1.985
 8139SOL    HW225317   0.413   0.669   1.865
 8140SOL     OW25318   5.957   0.417   5.619
 8140SOL    HW125319   5.935   0.380   5.710
 8140SOL    HW225320   6.016   0.497   5.629
 8141SOL     OW25321   4.173   5.355   5.687
 8141SOL    HW125322   4.119   5.274   5.709
 8141SOL    HW225323   4.234   5.377   5.764
 8142SOL     OW25324   6.798   5.526   0.364
 8142SOL    HW125325   6.876   5.575   0.326
 8142SOL    HW225326   6.730   5.513   0.292
 8143SOL     OW25327   6.310   4.400   0.303
 8143SOL    HW125328   6.315   4.313   0.253
 8143SOL    HW225329   6.215   4.431   0.304
 8144SOL     OW25330   5.694   6.130   6.993
 8144SOL    HW125331   5.757   6.166   6.924
 8144SOL    HW225332   5.747   6.083   0.039
 8145SOL     OW25333   5.137   5.814   1.553
 8145SOL    HW125334   5.109   5.770   1.638
 8145SOL    HW225335   5.210   5.761   1.510
 8146SOL     OW25336   3.923   1.111   4.910
 8146SOL    HW125337   3.975   1.026   4.915
 8146SOL    HW225338   3.828   1.091   4.887
 8147SOL     OW25339   5.771   2.939   2.801
 8147SOL    HW125340   5.819   2.890   2.728
 8147SOL    HW225341   5.757   2.877   2.878
 8148SOL     OW25342   5.428   4.407   1.740
 8148SOL    HW125343   5.513   4.433   1.695
 8148SOL    HW225344   5.447   4.374   1.832
 8149SOL     OW25345   2.330   6.143   1.980
 8149SOL    HW125346   2.402   6.213   1.979
 8149SOL    HW225347   2.367   6.057   1.946
 8150SOL     OW25348   0.202   4.925   6.928
 8150SOL    HW125349   0.242   4.863   6.859
 8150SOL    HW225350   0.261   5.004   6.939
 8151SOL     OW25351   6.390   2.157   1.766
 8151SOL    HW125352   6.334   2.194   1.840
 8151SOL    HW225353   6.487   2.169   1.788
 8152SOL     OW25354   0.678   2.618   2.778
 8152SOL    HW125355   0.694   2.548   2.708
 8152SOL    HW225356   0.749   2.612   2.848
 8153SOL     OW25357   3.711   0.510   3.013
 8153SOL    HW125358   3.616   0.484   2.996
 8153SOL    HW225359   3.766   0.427   3.021
 8154SOL     OW25360   2.830   5.882   3.880
 8154SOL    HW125361   2.896   5.817   3.842
 8154SOL    HW225362   2.808   5.951   3.810
 8155SOL     OW25363   2.588   3.425   1.765
 8155SOL    HW125364   2.508   3.410   1.823
 8155SOL    HW225365   2.594   3.353   1.696
 8156SOL     OW25366   5.265   6.983   6.028
 8156SOL    HW125367   5.232   6.977   5.934
 8156SOL    HW225368   5.190   6.962   6.091
 8157SOL     OW25369   5.951   5.556   6.192
 8157SOL    HW125370   5.946   5.522   6.285
 8157SOL    HW225371   6.037   5.527   6.150
 8158SOL     OW25372   0.323   5.511   1.066
 8158SOL    HW125373   0.300   5.497   1.162
 8158SOL    HW225374   0.413   5.555   1.060
 8159SOL     OW25375   2.554   6.373   2.848
 8159SOL    HW125376   2.485   6.320   2.799
 8159SOL    HW225377   2.517   6.464   2.868
 8160SOL     OW25378   4.422   1.555   1.945
 8160SOL    HW125379   4.323   1.547   1.946
 8160SOL    HW225380   4.456   1.533   1.853
 8161SOL     OW25381   5.115   1.473   0.393
 8161SOL    HW125382   5.171   1.527   0.330
 8161SOL    HW225383   5.048   1.532   0.437
 8162SOL     OW25384   6.304   0.140   6.202
 8162SOL    HW125385   6.396   0.110   6.178
 8162SOL    HW225386   6.309   0.233   6.240
 8163SOL     OW25387   2.459   3.913   5.574
 8163SOL    HW125388   2.422   3.965   5.651
 8163SOL    HW225389   2.556   3.894   5.589
 8164SOL     OW25390   5.917   3.718   0.761
 8164SOL    HW125391   5.869   3.632   0.747
 8164SOL    HW225392   5.916   3.741   0.859
 8165SOL     OW25393   1.040   4.612   0.056
 8165SOL    HW125394   1.133   4.649   0.056
 8165SOL    HW225395   1.026   4.557   6.999
 8166SOL     OW25396   2.278   1.113   2.578
 8166SOL    HW125397   2.341   1.155   2.513
 8166SOL    HW225398   2.294   1.014   2.581
 8167SOL     OW25399   5.409   1.214   4.003
 8167SOL    HW125400   5.504   1.245   4.015
 8167SOL    HW225401   5.390   1.204   3.905
 8168SOL     OW25402   3.213   1.148   2.537
 8168SOL    HW125403   3.192   1.194   2.450
 8168SOL    HW225404   3.283   1.199   2.586
 8169SOL     OW25405   5.283   3.265   1.738
 8169SOL    HW125406   5.285   3.172   1.775
 8169SOL    HW225407   5.324   3.265   1.647
 8170SOL     OW25408   1.540   6.288   3.011
 8170SOL    HW125409   1.610   6.237   2.961
 8170SOL    HW225410   1.450   6.259   2.980
 8171SOL     OW25411   1.316   1.744   6.466
 8171SOL    HW125412   1.330   1.733   6.368
 8171SOL    HW225413   1.302   1.840   6.487
 8172SOL     OW25414   0.700   0.686   1.472
 8172SOL    HW125415   0.760   0.730   1.538
 8172SOL    HW225416   0.718   0.587   1.470
 8173SOL     OW25417   3.575   1.823   0.484
 8173SOL    HW125418   3.620   1.733   0.481
 8173SOL    HW225419   3.502   1.821   0.552
 8174SOL     OW25420   4.952   1.636   1.231
 8174SOL    HW125421   4.885   1.563   1.246
 8174SOL    HW225422   4.927   1.715   1.286
 8175SOL     OW25423   0.283   2.754   6.206
 8175SOL    HW125424   0.364   2.807   6.230
 8175SOL    HW225425   0.287   2.728   6.110
 8176SOL     OW25426   2.783   5.890   1.742
 8176SOL    HW125427   2.860   5.883   1.679
 8176SOL    HW225428   2.781   5.810   1.802
 8177SOL     OW25429   2.021   6.170   4.138
 8177SOL    HW125430   2.066   6.136   4.221
 8177SOL    HW225431   1.923   6.157   4.146
 8178SOL     OW25432   1.616   0.064   6.454
 8178SOL    HW125433   1.583   0.149   6.415
 8178SOL    HW225434   1.638   0.078   6.551
 8179SOL     OW25435   3.383   3.191   0.135
 8179SOL    HW125436   3.424   3.278   0.163
 8179SOL    HW225437   3.335   3.203   0.048
 8180SOL     OW25438   6.383   0.059   4.029
 8180SOL    HW125439   6.478   0.057   3.995
 8180SOL    HW225440   6.370   0.140   4.086
 8181SOL     OW25441   2.033   1.070   2.881
 8181SOL    HW125442   1.999   1.164   2.874
 8181SOL    HW225443   2.123   1.070   2.925
 8182SOL     OW25444   3.767   1.555   6.682
 8182SOL    HW125445   3.820   1.554   6.767
 8182SOL    HW225446   3.830   1.563   6.604
 8183SOL     OW25447   0.557   2.652   4.798
 8183SOL    HW125448   0.490   2.725   4.809
 8183SOL    HW225449   0.514   2.576   4.748
 8184SOL     OW25450   5.773   1.597   5.861
 8184SOL    HW125451   5.869   1.627   5.860
 8184SOL    HW225452   5.737   1.603   5.954
 8185SOL     OW25453   3.133   0.452   0.169
 8185SOL    HW125454   3.063   0.418   0.232
 8185SOL    HW225455   3.097   0.529   0.116
 8186SOL     OW25456   2.802   6.677   6.033
 8186SOL    HW125457   2.900   6.669   6.012
 8186SOL    HW225458   2.750   6.620   5.968
 8187SOL     OW25459   1.562   2.057   4.960
 8187SOL    HW125460   1.524   2.039   4.869
 8187SOL    HW225461   1.657   2.087   4.951
 8188SOL     OW25462   5.269   1.753   2.286
 8188SOL    HW125463   5.233   1.749   2.379
 8188SOL    HW225464   5.353   1.700   2.280
 8189SOL     OW25465   4.956   4.405   1.947
 8189SOL    HW125466   4.921   4.330   2.003
 8189SOL    HW225467   4.942   4.384   1.851
 8190SOL     OW25468   5.011   5.339   4.206
 8190SOL    HW125469   5.069   5.284   4.265
 8190SOL    HW225470   5.025   5.312   4.111
 8191SOL     OW25471   2.263   5.483   3.527
 8191SOL    HW125472   2.338   5.452   3.585
 8191SOL    HW225473   2.185   5.422   3.538
 8192SOL     OW25474   2.905   6.040   0.282
 8192SOL    HW125475   2.965   6.012   0.207
 8192SOL    HW225476   2.810   6.020   0.258
 8193SOL     OW25477   5.837   0.006   4.696
 8193SOL    HW125478   5.892   7.008   4.616
 8193SOL    HW225479   5.896   0.034   4.771
 8194SOL     OW25480   6.340   2.544   6.963
 8194SOL    HW125481   6.255   2.579   6.924
 8194SOL    HW225482   6.405   2.619   6.976
 8195SOL     OW25483   0.584   0.877   0.978
 8195SOL    HW125484   0.681   0.900   0.975
 8195SOL    HW225485   0.534   0.933   0.912
 8196SOL     OW25486   3.747   0.069   5.482
 8196SOL    HW125487   3.688   0.114   5.415
 8196SOL    HW225488   3.840   0.065   5.447
 8197SOL     OW25489   5.544   1.613   6.116
 8197SOL    HW125490   5.524   1.655   6.204
 8197SOL    HW225491   5.469   1.632   6.052
 8198SOL     OW25492   3.583   6.542   2.200
 8198SOL    HW125493   3.673   6.572   2.230
 8198SOL    HW225494   3.523   6.622   2.188
 8199SOL     OW25495   6.548   3.664   0.501
 8199SOL    HW125496   6.503   3.622   0.580
 8199SOL    HW225497   6.479   3.700   0.438
 8200SOL     OW25498   4.610   4.431   1.245
 8200SOL    HW125499   4.662   4.381   1.314
 8200SOL    HW225500   4.519   4.453   1.281
 8201SOL     OW25501   5.204   0.700   4.896
 8201SOL    HW125502   5.139   0.763   4.855
 8201SOL    HW225503   5.166   0.608   4.895
 8202SOL     OW25504   1.435   5.328   4.325
 8202SOL    HW125505   1.396   5.357   4.412
 8202SOL    HW225506   1.446   5.229   4.325
 8203SOL     OW25507   4.812   3.331   0.984
 8203SOL    HW125508   4.897   3.331   0.932
 8203SOL    HW225509   4.814   3.405   1.051
 8204SOL     OW25510   3.483   6.328   0.702
 8204SOL    HW125511   3.418   6.363   0.635
 8204SOL    HW225512   3.525   6.405   0.751
 8205SOL     OW25513   5.621   4.854   1.538
 8205SOL    HW125514   5.593   4.770   1.492
 8205SOL    HW225515   5.647   4.922   1.469
 8206SOL     OW25516   3.078   2.550   5.654
 8206SOL    HW125517   3.172   2.568   5.683
 8206SOL    HW225518   3.016   2.611   5.703
 8207SOL     OW25519   3.282   4.756   5.330
 8207SOL    HW125520   3.187   4.777   5.305
 8207SOL    HW225521   3.344   4.818   5.281
 8208SOL     OW25522   2.612   6.242   1.367
 8208SOL    HW125523   2.645   6.173   1.431
 8208SOL    HW225524   2.687   6.305   1.345
 8209SOL     OW25525   1.540   1.280   5.265
 8209SOL    HW125526   1.441   1.278   5.252
 8209SOL    HW225527   1.580   1.351   5.207
 8210SOL     OW25528   3.225   0.785   0.690
 8210SOL    HW125529   3.226   0.685   0.698
 8210SOL    HW225530   3.245   0.810   0.595
 8211SOL     OW25531   3.583   4.172   4.455
 8211SOL    HW125532   3.549   4.187   4.548
 8211SOL    HW225533   3.669   4.123   4.458
 8212SOL     OW25534   2.511   0.252   0.664
 8212SOL    HW125535   2.600   0.214   0.690
 8212SOL    HW225536   2.445   0.235   0.737
 8213SOL     OW25537   4.608   5.200   3.551
 8213SOL    HW125538   4.580   5.146   3.630
 8213SOL    HW225539   4.583   5.151   3.467
 8214SOL     OW25540   2.303   5.474   4.169
 8214SOL    HW125541   2.397   5.460   4.200
 8214SOL    HW225542   2.243   5.487   4.248
 8215SOL     OW25543   4.589   5.922   0.248
 8215SOL    HW125544   4.551   5.868   0.173
 8215SOL    HW225545   4.689   5.921   0.242
 8216SOL     OW25546   5.134   6.866   2.836
 8216SOL    HW125547   5.066   6.793   2.836
 8216SOL    HW225548   5.088   6.954   2.848
 8217SOL     OW25549   2.269   4.131   2.570
 8217SOL    HW125550   2.199   4.138   2.642
 8217SOL    HW225551   2.234   4.074   2.496
 8218SOL     OW25552   1.984   6.974   5.355
 8218SOL    HW125553   1.912   6.930   5.301
 8218SOL    HW225554   1.947   0.031   5.399
 8219SOL     OW25555   3.019   3.937   1.657
 8219SOL    HW125556   3.008   3.921   1.559
 8219SOL    HW225557   3.057   4.028   1.672
 8220SOL     OW25558   3.273   4.288   5.283
 8220SOL    HW125559   3.266   4.382   5.315
 8220SOL    HW225560   3.255   4.225   5.359
 8221SOL     OW25561   5.902   4.144   3.198
 8221SOL    HW125562   5.945   4.184   3.118
 8221SOL    HW225563   5.941   4.183   3.281
 8222SOL     OW25564   6.298   3.004   0.967
 8222SOL    HW125565   6.321   3.073   1.036
 8222SOL    HW225566   6.202   3.012   0.942
 8223SOL     OW25567   7.003   5.224   5.402
 8223SOL    HW125568   0.003   5.249   5.308
 8223SOL    HW225569   6.952   5.299   5.443
 8224SOL     OW25570   4.798   1.296   0.645
 8224SOL    HW125571   4.827   1.201   0.656
 8224SOL    HW225572   4.832   1.350   0.723
 8225SOL     OW25573   3.708   0.094   0.274
 8225SOL    HW125574   3.661   0.043   0.346
 8225SOL    HW225575   3.739   0.182   0.310
 8226SOL     OW25576   3.722   0.379   0.475
 8226SOL    HW125577   3.737   0.383   0.574
 8226SOL    HW225578   3.627   0.401   0.454
 8227SOL     OW25579   5.655   1.540   2.490
 8227SOL    HW125580   5.609   1.460   2.528
 8227SOL    HW225581   5.733   1.563   2.548
 8228SOL     OW25582   0.933   1.079   5.485
 8228SOL    HW125583   0.889   1.119   5.404
 8228SOL    HW225584   1.030   1.103   5.486
 8229SOL     OW25585   3.937   4.917   0.839
 8229SOL    HW125586   3.977   4.944   0.926
 8229SOL    HW225587   3.849   4.963   0.826
 8230SOL     OW25588   4.316   0.010   5.329
 8230SOL    HW125589   4.360   0.093   5.361
 8230SOL    HW225590   4.364   6.955   5.367
 8231SOL     OW25591   3.446   1.470   2.193
 8231SOL    HW125592   3.528   1.518   2.224
 8231SOL    HW225593   3.365   1.520   2.222
 8232SOL     OW25594   4.853   1.355   2.027
 8232SOL    HW125595   4.872   1.257   2.032
 8232SOL    HW225596   4.755   1.370   2.021
 8233SOL     OW25597   0.593   0.815   5.919
 8233SOL    HW125598   0.619   0.903   5.956
 8233SOL    HW225599   0.522   0.774   5.976
 8234SOL     OW25600   2.978   3.200   0.031
 8234SOL    HW125601   3.025   3.163   0.111
 8234SOL    HW225602   2.905   3.262   0.060
 8235SOL     OW25603   6.810   5.157   0.003
 8235SOL    HW125604   6.881   5.222   7.001
 8235SOL    HW225605   6.850   5.066   0.012
 8236SOL     OW25606   7.014   6.054   5.960
 8236SOL    HW125607   6.981   6.023   5.871
 8236SOL    HW225608   0.078   6.014   5.979
 8237SOL     OW25609   4.245   5.403   6.552
 8237SOL    HW125610   4.231   5.501   6.541
 8237SOL    HW225611   4.162   5.362   6.592
 8238SOL     OW25612   1.739   5.665   7.002
 8238SOL    HW125613   1.789   5.663   0.063
 8238SOL    HW225614   1.643   5.686   7.020
 8239SOL     OW25615   0.366   1.109   4.907
 8239SOL    HW125616   0.308   1.101   4.826
 8239SOL    HW225617   0.308   1.115   4.988
 8240SOL     OW25618   3.205   2.987   3.096
 8240SOL    HW125619   3.140   2.974   3.171
 8240SOL    HW225620   3.157   3.027   3.017
 8241SOL     OW25621   1.455   3.392   0.200
 8241SOL    HW125622   1.555   3.381   0.198
 8241SOL    HW225623   1.430   3.475   0.150
 8242SOL     OW25624   1.144   3.619   4.492
 8242SOL    HW125625   1.054   3.660   4.473
 8242SOL    HW225626   1.210   3.691   4.510
 8243SOL     OW25627   0.577   4.497   5.877
 8243SOL    HW125628   0.673   4.502   5.903
 8243SOL    HW225629   0.529   4.578   5.911
 8244SOL     OW25630   0.833   0.614   3.352
 8244SOL    HW125631   0.837   0.591   3.255
 8244SOL    HW225632   0.921   0.652   3.381
 8245SOL     OW25633   4.648   1.639   4.025
 8245SOL    HW125634   4.685   1.618   3.935
 8245SOL    HW225635   4.621   1.736   4.028
 8246SOL     OW25636   1.183   4.134   6.705
 8246SOL    HW125637   1.191   4.066   6.633
 8246SOL    HW225638   1.268   4.137   6.758
 8247SOL     OW25639   2.885   4.736   3.704
 8247SOL    HW125640   2.897   4.653   3.758
 8247SOL    HW225641   2.962   4.798   3.720
 8248SOL     OW25642   1.076   5.606   3.594
 8248SOL    HW125643   1.131   5.665   3.535
 8248SOL    HW225644   1.118   5.600   3.684
 8249SOL     OW25645   2.406   2.158   5.136
 8249SOL    HW125646   2.325   2.100   5.141
 8249SOL    HW225647   2.385   2.248   5.173
 8250SOL     OW25648   2.955   1.826   0.681
 8250SOL    HW125649   2.976   1.785   0.592
 8250SOL    HW225650   2.862   1.800   0.708
 8251SOL     OW25651   6.830   2.183   4.774
 8251SOL    HW125652   6.895   2.110   4.751
 8251SOL    HW225653   6.818   2.244   4.695
 8252SOL     OW25654   2.628   2.709   6.630
 8252SOL    HW125655   2.563   2.701   6.705
 8252SOL    HW225656   2.716   2.742   6.666
 8253SOL     OW25657   3.545   5.725   6.277
 8253SOL    HW125658   3.574   5.821   6.268
 8253SOL    HW225659   3.470   5.707   6.213
 8254SOL     OW25660   6.223   4.983   6.511
 8254SOL    HW125661   6.193   4.934   6.429
 8254SOL    HW225662   6.307   5.033   6.491
 8255SOL     OW25663   0.498   6.970   6.734
 8255SOL    HW125664   0.496   6.903   6.660
 8255SOL    HW225665   0.565   0.017   6.711
 8256SOL     OW25666   1.018   6.615   2.655
 8256SOL    HW125667   1.088   6.667   2.605
 8256SOL    HW225668   0.936   6.672   2.666
 8257SOL     OW25669   5.942   4.259   4.003
 8257SOL    HW125670   5.872   4.306   3.949
 8257SOL    HW225671   5.975   4.319   4.075
 8258SOL     OW25672   5.490   3.059   1.272
 8258SOL    HW125673   5.538   2.989   1.324
 8258SOL    HW225674   5.392   3.037   1.269
 8259SOL     OW25675   4.480   2.321   4.577
 8259SOL    HW125676   4.397   2.299   4.527
 8259SOL    HW225677   4.492   2.421   4.580
 8260SOL     OW25678   2.454   6.671   0.280
 8260SOL    HW125679   2.384   6.619   0.329
 8260SOL    HW225680   2.451   6.649   0.183
 8261SOL     OW25681   5.510   6.107   3.063
 8261SOL    HW125682   5.486   6.152   3.149
 8261SOL    HW225683   5.434   6.116   2.999
 8262SOL     OW25684   0.397   4.717   0.751
 8262SOL    HW125685   0.320   4.655   0.771
 8262SOL    HW225686   0.425   4.705   0.656
 8263SOL     OW25687   6.716   2.727   6.326
 8263SOL    HW125688   6.666   2.713   6.240
 8263SOL    HW225689   6.652   2.726   6.403
 8264SOL     OW25690   2.210   0.128   1.492
 8264SOL    HW125691   2.193   0.115   1.395
 8264SOL    HW225692   2.221   0.226   1.512
 8265SOL     OW25693   4.030   0.223   1.776
 8265SOL    HW125694   4.067   0.196   1.687
 8265SOL    HW225695   4.102   0.265   1.830
 8266SOL     OW25696   2.799   0.086   4.274
 8266SOL    HW125697   2.765   0.165   4.324
 8266SOL    HW225698   2.866   0.115   4.206
 8267SOL     OW25699   1.521   5.095   2.562
 8267SOL    HW125700   1.578   5.108   2.480
 8267SOL    HW225701   1.548   5.010   2.608
 8268SOL     OW25702   2.810   3.953   6.868
 8268SOL    HW125703   2.739   4.004   6.916
 8268SOL    HW225704   2.826   3.994   6.779
 8269SOL     OW25705   4.595   2.604   3.220
 8269SOL    HW125706   4.625   2.598   3.315
 8269SOL    HW225707   4.674   2.605   3.159
 8270SOL     OW25708   3.072   0.188   5.429
 8270SOL    HW125709   2.983   0.191   5.384
 8270SOL    HW225710   3.063   0.221   5.523
 8271SOL     OW25711   5.199   6.239   4.659
 8271SOL    HW125712   5.267   6.288   4.604
 8271SOL    HW225713   5.170   6.297   4.736
 8272SOL     OW25714   0.645   0.358   2.335
 8272SOL    HW125715   0.620   0.414   2.414
 8272SOL    HW225716   0.649   0.262   2.363
 8273SOL     OW25717   2.732   6.734   6.560
 8273SOL    HW125718   2.727   6.680   6.476
 8273SOL    HW225719   2.818   6.785   6.562
 8274SOL     OW25720   4.599   4.862   6.830
 8274SOL    HW125721   4.596   4.924   6.909
 8274SOL    HW225722   4.618   4.769   6.863
 8275SOL     OW25723   0.054   0.094   4.806
 8275SOL    HW125724   7.003   0.036   4.836
 8275SOL    HW225725   0.018   0.178   4.766
 8276SOL     OW25726   6.813   2.551   5.374
 8276SOL    HW125727   6.731   2.504   5.409
 8276SOL    HW225728   6.858   2.492   5.307
 8277SOL     OW25729   1.364   6.046   5.304
 8277SOL    HW125730   1.450   6.060   5.254
 8277SOL    HW225731   1.294   6.107   5.267
 8278SOL     OW25732   3.340   1.451   6.067
 8278SOL    HW125733   3.276   1.486   5.998
 8278SOL    HW225734   3.401   1.384   6.025
 8279SOL     OW25735   4.814   5.918   6.899
 8279SOL    HW125736   4.831   5.999   6.954
 8279SOL    HW225737   4.730   5.931   6.846
 8280SOL     OW25738   4.949   2.733   0.194
 8280SOL    HW125739   4.914   2.783   0.115
 8280SOL    HW225740   4.875   2.683   0.238
 8281SOL     OW25741   1.847   5.067   0.354
 8281SOL    HW125742   1.788   5.147   0.363
 8281SOL    HW225743   1.796   4.985   0.381
 8282SOL     OW25744   2.507   2.552   1.527
 8282SOL    HW125745   2.589   2.497   1.543
 8282SOL    HW225746   2.460   2.518   1.446
 8283SOL     OW25747   0.447   5.188   3.805
 8283SOL    HW125748   0.546   5.195   3.789
 8283SOL    HW225749   0.399   5.249   3.743
 8284SOL     OW25750   1.859   2.706   2.784
 8284SOL    HW125751   1.909   2.701   2.697
 8284SOL    HW225752   1.778   2.764   2.772
 8285SOL     OW25753   3.314   4.108   5.770
 8285SOL    HW125754   3.393   4.160   5.804
 8285SOL    HW225755   3.244   4.171   5.738
 8286SOL     OW25756   5.618   0.876   4.565
 8286SOL    HW125757   5.558   0.819   4.621
 8286SOL    HW225758   5.623   0.839   4.472
 8287SOL     OW25759   1.245   6.643   4.184
 8287SOL    HW125760   1.223   6.708   4.112
 8287SOL    HW225761   1.319   6.680   4.241
 8288SOL     OW25762   2.228   2.148   2.280
 8288SOL    HW125763   2.307   2.194   2.240
 8288SOL    HW225764   2.154   2.143   2.213
 8289SOL     OW25765   5.964   1.626   5.367
 8289SOL    HW125766   6.006   1.701   5.419
 8289SOL    HW225767   5.947   1.549   5.428
 8290SOL     OW25768   3.723   2.837   1.287
 8290SOL    HW125769   3.745   2.840   1.189
 8290SOL    HW225770   3.666   2.916   1.310
 8291SOL     OW25771   5.647   6.862   6.596
 8291SOL    HW125772   5.733   6.823   6.563
 8291SOL    HW225773   5.603   6.912   6.522
 8292SOL     OW25774   1.102   5.168   5.571
 8292SOL    HW125775   1.014   5.125   5.593
 8292SOL    HW225776   1.101   5.263   5.602
 8293SOL     OW25777   1.707   4.850   2.221
 8293SOL    HW125778   1.784   4.815   2.167
 8293SOL    HW225779   1.741   4.895   2.303
 8294SOL     OW25780   6.951   3.944   5.632
 8294SOL    HW125781   6.986   3.904   5.717
 8294SOL    HW225782   6.868   3.997   5.652
 8295SOL     OW25783   4.875   3.748   3.067
 8295SOL    HW125784   4.780   3.766   3.045
 8295SOL    HW225785   4.901   3.800   3.149
 8296SOL     OW25786   3.343   5.697   6.798
 8296SOL    HW125787   3.366   5.602   6.778
 8296SOL    HW225788   3.244   5.705   6.814
 8297SOL     OW25789   6.431   4.337   2.539
 8297SOL    HW125790   6.347   4.343   2.485
 8297SOL    HW225791   6.433   4.251   2.590
 8298SOL     OW25792   1.036   0.695   6.616
 8298SOL    HW125793   1.070   0.696   6.522
 8298SOL    HW225794   1.109   0.723   6.679
 8299SOL     OW25795   0.024   3.706   2.009
 8299SOL    HW125796   0.058   3.790   2.054
 8299SOL    HW225797   6.954   3.691   2.036
 8300SOL     OW25798   5.436   5.390   4.502
 8300SOL    HW125799   5.526   5.417   4.469
 8300SOL    HW225800   5.405   5.456   4.570
 8301SOL     OW25801   4.220   6.936   0.015
 8301SOL    HW125802   4.261   6.988   6.966
 8301SOL    HW225803   4.264   6.846   0.021
 8302SOL     OW25804   3.115   6.004   4.351
 8302SOL    HW125805   3.213   6.013   4.332
 8302SOL    HW225806   3.079   6.091   4.383
 8303SOL     OW25807   6.495   0.376   2.196
 8303SOL    HW125808   6.585   0.403   2.162
 8303SOL    HW225809   6.505   0.300   2.260
 8304SOL     OW25810   5.712   3.918   3.796
 8304SOL    HW125811   5.727   3.824   3.767
 8304SOL    HW225812   5.689   3.974   3.717
 8305SOL     OW25813   4.544   5.558   4.150
 8305SOL    HW125814   4.605   5.627   4.188
 8305SOL    HW225815   4.554   5.473   4.201
 8306SOL     OW25816   6.518   1.152   2.632
 8306SOL    HW125817   6.418   1.154   2.639
 8306SOL    HW225818   6.558   1.124   2.719
 8307SOL     OW25819   1.456   4.876   1.495
 8307SOL    HW125820   1.411   4.787   1.500
 8307SOL    HW225821   1.399   4.939   1.442
 8308SOL     OW25822   1.420   4.462   0.459
 8308SOL    HW125823   1.491   4.455   0.389
 8308SOL    HW225824   1.338   4.414   0.429
 8309SOL     OW25825   6.449   4.902   4.693
 8309SOL    HW125826   6.504   4.855   4.763
 8309SOL    HW225827   6.352   4.896   4.717
 8310SOL     OW25828   0.277   6.729   0.540
 8310SOL    HW125829   0.374   6.717   0.559
 8310SOL    HW225830   0.241   6.803   0.597
 8311SOL     OW25831   5.237   6.362   3.995
 8311SOL    HW125832   5.252   6.454   3.961
 8311SOL    HW225833   5.209   6.303   3.919
 8312SOL     OW25834   5.326   7.023   0.200
 8312SOL    HW125835   5.378   0.034   0.277
 8312SOL    HW225836   5.368   0.028   0.114
 8313SOL     OW25837   3.631   6.770   5.379
 8313SOL    HW125838   3.634   6.799   5.474
 8313SOL    HW225839   3.723   6.770   5.340
 8314SOL     OW25840   5.264   6.370   6.641
 8314SOL    HW125841   5.166   6.349   6.649
 8314SOL    HW225842   5.278   6.437   6.568
 8315SOL     OW25843   3.539   3.525   4.086
 8315SOL    HW125844   3.579   3.539   3.996
 8315SOL    HW225845   3.478   3.446   4.084
 8316SOL     OW25846   1.251   3.362   6.993
 8316SOL    HW125847   1.283   3.273   0.001
 8316SOL    HW225848   1.299   3.435   0.016
 8317SOL     OW25849   1.833   2.144   4.992
 8317SOL    HW125850   1.853   2.170   5.087
 8317SOL    HW225851   1.915   2.156   4.936
 8318SOL     OW25852   4.059   0.404   6.210
 8318SOL    HW125853   4.074   0.306   6.204
 8318SOL    HW225854   4.010   0.436   6.128
 8319SOL     OW25855   0.971   0.211   6.423
 8319SOL    HW125856   0.938   0.305   6.418
 8319SOL    HW225857   0.951   0.163   6.338
 8320SOL     OW25858   2.923   3.753   4.504
 8320SOL    HW125859   2.979   3.676   4.473
 8320SOL    HW225860   2.930   3.762   4.603
 8321SOL     OW25861   6.871   0.630   6.665
 8321SOL    HW125862   6.896   0.669   6.754
 8321SOL    HW225863   6.771   0.633   6.654
 8322SOL     OW25864   0.288   1.336   0.578
 8322SOL    HW125865   0.202   1.286   0.588
 8322SOL    HW225866   0.300   1.362   0.482
 8323SOL     OW25867   5.152   4.357   1.206
 8323SOL    HW125868   5.206   4.324   1.127
 8323SOL    HW225869   5.061   4.316   1.203
 8324SOL     OW25870   6.242   1.246   6.714
 8324SOL    HW125871   6.153   1.201   6.703
 8324SOL    HW225872   6.231   1.344   6.699
 8325SOL     OW25873   1.544   5.665   4.773
 8325SOL    HW125874   1.489   5.731   4.721
 8325SOL    HW225875   1.483   5.599   4.817
 8326SOL     OW25876   2.815   4.282   0.148
 8326SOL    HW125877   2.903   4.249   0.111
 8326SOL    HW225878   2.826   4.375   0.182
 8327SOL     OW25879   0.847   0.825   5.771
 8327SOL    HW125880   0.752   0.855   5.761
 8327SOL    HW225881   0.905   0.905   5.783
 8328SOL     OW25882   0.554   6.322   5.634
 8328SOL    HW125883   0.492   6.253   5.597
 8328SOL    HW225884   0.541   6.408   5.586
 8329SOL     OW25885   0.658   2.672   5.069
 8329SOL    HW125886   0.755   2.669   5.089
 8329SOL    HW225887   0.644   2.676   4.970
 8330SOL     OW25888   4.010   1.012   6.654
 8330SOL    HW125889   4.106   1.020   6.629
 8330SOL    HW225890   3.956   0.988   6.573
 8331SOL     OW25891   1.929   2.124   0.574
 8331SOL    HW125892   1.969   2.209   0.540
 8331SOL    HW225893   1.955   2.049   0.514
 8332SOL     OW25894   5.134   4.625   1.897
 8332SOL    HW125895   5.173   4.559   1.834
 8332SOL    HW225896   5.054   4.586   1.942
 8333SOL     OW25897   1.742   5.081   0.842
 8333SOL    HW125898   1.669   5.029   0.888
 8333SOL    HW225899   1.732   5.178   0.862
 8334SOL     OW25900   3.226   1.842   6.656
 8334SOL    HW125901   3.312   1.870   6.614
 8334SOL    HW225902   3.162   1.919   6.656
 8335SOL     OW25903   4.834   2.938   0.023
 8335SOL    HW125904   4.775   2.959   6.970
 8335SOL    HW225905   4.832   3.014   0.088
 8336SOL     OW25906   1.370   3.646   2.421
 8336SOL    HW125907   1.296   3.598   2.374
 8336SOL    HW225908   1.377   3.613   2.515
 8337SOL     OW25909   0.929   0.841   5.304
 8337SOL    HW125910   0.934   0.873   5.209
 8337SOL    HW225911   0.980   0.903   5.363
 8338SOL     OW25912   3.893   4.798   1.882
 8338SOL    HW125913   3.900   4.861   1.805
 8338SOL    HW225914   3.797   4.784   1.905
 8339SOL     OW25915   0.481   1.021   0.757
 8339SOL    HW125916   0.391   0.979   0.771
 8339SOL    HW225917   0.498   1.029   0.659
 8340SOL     OW25918   5.316   2.669   1.095
 8340SOL    HW125919   5.255   2.591   1.108
 8340SOL    HW225920   5.355   2.697   1.183
 8341SOL     OW25921   3.461   0.001   6.085
 8341SOL    HW125922   3.524   0.071   6.119
 8341SOL    HW225923   3.413   6.984   6.163
 8342SOL     OW25924   3.299   6.305   0.211
 8342SOL    HW125925   3.205   6.323   0.182
 8342SOL    HW225926   3.345   6.248   0.143
 8343SOL     OW25927   6.490   5.137   3.876
 8343SOL    HW125928   6.560   5.113   3.943
 8343SOL    HW225929   6.523   5.211   3.818
 8344SOL     OW25930   0.525   4.304   4.373
 8344SOL    HW125931   0.591   4.379   4.368
 8344SOL    HW225932   0.461   4.310   4.296
 8345SOL     OW25933   5.247   1.250   3.344
 8345SOL    HW125934   5.260   1.344   3.313
 8345SOL    HW225935   5.190   1.250   3.426
 8346SOL     OW25936   4.482   3.078   6.325
 8346SOL    HW125937   4.488   3.118   6.417
 8346SOL    HW225938   4.506   2.981   6.330
 8347SOL     OW25939   2.035   0.057   6.375
 8347SOL    HW125940   2.008   0.089   6.284
 8347SOL    HW225941   2.123   0.010   6.370
 8348SOL     OW25942   3.469   6.951   1.213
 8348SOL    HW125943   3.502   6.937   1.306
 8348SOL    HW225944   3.410   0.007   1.211
 8349SOL     OW25945   0.296   6.890   2.179
 8349SOL    HW125946   0.358   6.934   2.244
 8349SOL    HW225947   0.209   6.939   2.177
 8350SOL     OW25948   3.032   0.206   6.162
 8350SOL    HW125949   2.936   0.183   6.145
 8350SOL    HW225950   3.045   0.224   6.259
 8351SOL     OW25951   6.228   5.675   4.146
 8351SOL    HW125952   6.325   5.667   4.170
 8351SOL    HW225953   6.178   5.597   4.184
 8352SOL     OW25954   2.903   6.243   2.403
 8352SOL    HW125955   2.978   6.177   2.393
 8352SOL    HW225956   2.938   6.326   2.446
 8353SOL     OW25957   1.253   3.866   1.611
 8353SOL    HW125958   1.168   3.817   1.630
 8353SOL    HW225959   1.272   3.863   1.513
 8354SOL     OW25960   3.489   6.500   4.006
 8354SOL    HW125961   3.407   6.552   4.028
 8354SOL    HW225962   3.558   6.560   3.966
 8355SOL     OW25963   1.296   6.963   6.446
 8355SOL    HW125964   1.258   0.027   6.473
 8355SOL    HW225965   1.392   6.958   6.474
 8356SOL     OW25966   1.019   5.824   2.190
 8356SOL    HW125967   0.968   5.844   2.107
 8356SOL    HW225968   1.051   5.729   2.188
 8357SOL     OW25969   3.940   5.413   6.021
 8357SOL    HW125970   3.905   5.496   6.065
 8357SOL    HW225971   3.981   5.438   5.933
 8358SOL     OW25972   1.532   2.908   5.656
 8358SOL    HW125973   1.564   2.992   5.611
 8358SOL    HW225974   1.433   2.902   5.649
 8359SOL     OW25975   2.430   0.636   4.456
 8359SOL    HW125976   2.456   0.595   4.544
 8359SOL    HW225977   2.456   0.574   4.382
 8360SOL     OW25978   4.614   6.738   0.650
 8360SOL    HW125979   4.697   6.728   0.595
 8360SOL    HW225980   4.577   6.647   0.671
 8361SOL     OW25981   2.266   0.244   6.415
 8361SOL    HW125982   2.238   0.286   6.501
 8361SOL    HW225983   2.189   0.194   6.375
 8362SOL     OW25984   6.405   2.418   0.536
 8362SOL    HW125985   6.494   2.376   0.523
 8362SOL    HW225986   6.373   2.457   0.449
 8363SOL     OW25987   4.104   2.207   0.421
 8363SOL    HW125988   4.043   2.259   0.481
 8363SOL    HW225989   4.055   2.177   0.340
 8364SOL     OW25990   0.666   2.947   3.700
 8364SOL    HW125991   0.598   2.874   3.690
 8364SOL    HW225992   0.629   3.033   3.665
 8365SOL     OW25993   1.932   2.611   2.121
 8365SOL    HW125994   1.985   2.557   2.186
 8365SOL    HW225995   1.848   2.642   2.164
 8366SOL     OW25996   3.949   5.750   1.053
 8366SOL    HW125997   4.025   5.781   0.997
 8366SOL    HW225998   3.925   5.821   1.119
 8367SOL     OW25999   2.889   5.279   4.516
 8367SOL    HW126000   2.792   5.263   4.499
 8367SOL    HW226001   2.913   5.246   4.608
 8368SOL     OW26002   0.601   6.120   7.014
 8368SOL    HW126003   0.637   6.112   6.921
 8368SOL    HW226004   0.620   6.036   0.040
 8369SOL     OW26005   0.841   1.882   1.123
 8369SOL    HW126006   0.762   1.858   1.180
 8369SOL    HW226007   0.922   1.893   1.181
 8370SOL     OW26008   2.741   1.936   6.970
 8370SOL    HW126009   2.723   2.015   6.912
 8370SOL    HW226010   2.720   1.852   6.919
 8371SOL     OW26011   1.647   3.132   5.539
 8371SOL    HW126012   1.735   3.104   5.499
 8371SOL    HW226013   1.615   3.215   5.493
 8372SOL     OW26014   2.800   6.480   2.032
 8372SOL    HW126015   2.876   6.527   2.077
 8372SOL    HW226016   2.801   6.383   2.058
 8373SOL     OW26017   0.566   1.596   4.780
 8373SOL    HW126018   0.506   1.524   4.816
 8373SOL    HW226019   0.563   1.593   4.680
 8374SOL     OW26020   1.174   0.376   4.011
 8374SOL    HW126021   1.256   0.423   4.044
 8374SOL    HW226022   1.158   0.399   3.915
 8375SOL     OW26023   4.076   0.736   5.660
 8375SOL    HW126024   4.175   0.721   5.664
 8375SOL    HW226025   4.043   0.757   5.752
 8376SOL     OW26026   1.392   1.229   3.559
 8376SOL    HW126027   1.475   1.220   3.504
 8376SOL    HW226028   1.417   1.243   3.655
 8377SOL     OW26029   5.081   5.564   0.315
 8377SOL    HW126030   5.103   5.621   0.236
 8377SOL    HW226031   5.127   5.600   0.396
 8378SOL     OW26032   5.216   5.594   3.188
 8378SOL    HW126033   5.276   5.585   3.108
 8378SOL    HW226034   5.167   5.508   3.203
 8379SOL     OW26035   4.714   1.959   1.664
 8379SOL    HW126036   4.742   1.867   1.693
 8379SOL    HW226037   4.712   2.019   1.744
 8380SOL     OW26038   6.795   6.866   0.138
 8380SOL    HW126039   6.800   6.770   0.168
 8380SOL    HW226040   6.885   6.908   0.147
 8381SOL     OW26041   0.180   2.466   2.806
 8381SOL    HW126042   0.156   2.509   2.719
 8381SOL    HW226043   0.250   2.521   2.852
 8382SOL     OW26044   2.302   0.192   0.465
 8382SOL    HW126045   2.318   0.242   0.380
 8382SOL    HW226046   2.388   0.187   0.517
 8383SOL     OW26047   2.588   0.159   5.142
 8383SOL    HW126048   2.526   0.114   5.078
 8383SOL    HW226049   2.672   0.183   5.095
 8384SOL     OW26050   6.867   1.843   1.501
 8384SOL    HW126051   6.903   1.895   1.424
 8384SOL    HW226052   6.914   1.870   1.585
 8385SOL     OW26053   4.302   3.062   0.983
 8385SOL    HW126054   4.280   3.054   0.886
 8385SOL    HW226055   4.285   2.974   1.028
 8386SOL     OW26056   1.907   5.924   1.069
 8386SOL    HW126057   1.965   6.000   1.040
 8386SOL    HW226058   1.944   5.883   1.152
 8387SOL     OW26059   2.306   1.791   1.741
 8387SOL    HW126060   2.283   1.876   1.788
 8387SOL    HW226061   2.234   1.767   1.675
 8388SOL     OW26062   1.457   6.878   0.364
 8388SOL    HW126063   1.520   6.813   0.406
 8388SOL    HW226064   1.399   6.919   0.434
 8389SOL     OW26065   1.871   3.279   3.924
 8389SOL    HW126066   1.836   3.341   3.854
 8389SOL    HW226067   1.971   3.286   3.928
 8390SOL     OW26068   3.278   0.371   6.540
 8390SOL    HW126069   3.239   0.433   6.473
 8390SOL    HW226070   3.377   0.387   6.546
 8391SOL     OW26071   5.415   5.512   1.103
 8391SOL    HW126072   5.486   5.505   1.173
 8391SOL    HW226073   5.377   5.604   1.103
 8392SOL     OW26074   6.278   5.687   4.955
 8392SOL    HW126075   6.253   5.718   4.863
 8392SOL    HW226076   6.195   5.661   5.005
 8393SOL     OW26077   0.026   0.234   3.774
 8393SOL    HW126078   0.094   0.181   3.824
 8393SOL    HW226079   6.967   0.242   3.829
 8394SOL     OW26080   0.887   1.512   2.637
 8394SOL    HW126081   0.966   1.480   2.689
 8394SOL    HW226082   0.836   1.579   2.692
 8395SOL     OW26083   0.465   6.291   4.143
 8395SOL    HW126084   0.409   6.276   4.225
 8395SOL    HW226085   0.551   6.241   4.153
 8396SOL     OW26086   4.399   4.519   2.742
 8396SOL    HW126087   4.487   4.497   2.700
 8396SOL    HW226088   4.410   4.525   2.841
 8397SOL     OW26089   2.465   6.991   2.995
 8397SOL    HW126090   2.452   6.899   3.034
 8397SOL    HW226091   2.532   0.016   3.050
 8398SOL     OW26092   3.703   1.670   0.074
 8398SOL    HW126093   3.792   1.640   0.038
 8398SOL    HW226094   3.693   1.640   0.169
 8399SOL     OW26095   6.128   6.229   0.493
 8399SOL    HW126096   6.154   6.302   0.430
 8399SOL    HW226097   6.104   6.268   0.582
 8400SOL     OW26098   0.689   0.456   2.935
 8400SOL    HW126099   0.671   0.422   3.027
 8400SOL    HW226100   0.749   0.536   2.941
 8401SOL     OW26101   4.246   3.288   5.938
 8401SOL    HW126102   4.239   3.224   6.015
 8401SOL    HW226103   4.157   3.332   5.924
 8402SOL     OW26104   3.303   1.203   5.767
 8402SOL    HW126105   3.371   1.225   5.696
 8402SOL    HW226106   3.340   1.229   5.857
 8403SOL     OW26107   0.369   1.516   3.429
 8403SOL    HW126108   0.349   1.423   3.459
 8403SOL    HW226109   0.391   1.573   3.508
 8404SOL     OW26110   5.875   6.807   6.453
 8404SOL    HW126111   5.963   6.803   6.501
 8404SOL    HW226112   5.885   6.858   6.367
 8405SOL     OW26113   1.941   1.749   0.217
 8405SOL    HW126114   1.988   1.662   0.232
 8405SOL    HW226115   1.959   1.781   0.125
 8406SOL     OW26116   4.419   1.392   0.633
 8406SOL    HW126117   4.327   1.431   0.632
 8406SOL    HW226118   4.419   1.307   0.686
 8407SOL     OW26119   5.350   5.332   4.176
 8407SOL    HW126120   5.310   5.317   4.085
 8407SOL    HW226121   5.434   5.385   4.167
 8408SOL     OW26122   5.269   0.943   3.764
 8408SOL    HW126123   5.169   0.944   3.764
 8408SOL    HW226124   5.302   0.881   3.835
 8409SOL     OW26125   0.162   2.130   3.674
 8409SOL    HW126126   0.192   2.116   3.580
 8409SOL    HW226127   0.063   2.142   3.677
 8410SOL     OW26128   4.277   0.998   1.496
 8410SOL    HW126129   4.179   0.983   1.500
 8410SOL    HW226130   4.310   1.034   1.583
 8411SOL     OW26131   1.798   5.344   3.669
 8411SOL    HW126132   1.752   5.324   3.582
 8411SOL    HW226133   1.768   5.433   3.703
 8412SOL     OW26134   4.339   1.876   1.297
 8412SOL    HW126135   4.424   1.887   1.349
 8412SOL    HW226136   4.298   1.788   1.319
 8413SOL     OW26137   4.365   4.526   0.556
 8413SOL    HW126138   4.362   4.513   0.655
 8413SOL    HW226139   4.375   4.437   0.511
 8414SOL     OW26140   3.924   0.166   2.548
 8414SOL    HW126141   3.944   0.173   2.451
 8414SOL    HW226142   3.924   0.257   2.589
 8415SOL     OW26143   0.527   4.993   3.594
 8415SOL    HW126144   0.501   5.036   3.508
 8415SOL    HW226145   0.583   5.057   3.647
 8416SOL     OW26146   4.966   4.457   2.613
 8416SOL    HW126147   4.903   4.380   2.617
 8416SOL    HW226148   5.022   4.449   2.530
 8417SOL     OW26149   1.969   6.413   5.569
 8417SOL    HW126150   1.919   6.481   5.514
 8417SOL    HW226151   1.919   6.395   5.654
 8418SOL     OW26152   5.455   5.028   1.863
 8418SOL    HW126153   5.445   5.103   1.928
 8418SOL    HW226154   5.372   4.973   1.863
 8419SOL     OW26155   4.496   0.543   1.885
 8419SOL    HW126156   4.421   0.586   1.835
 8419SOL    HW226157   4.463   0.459   1.927
 8420SOL     OW26158   3.619   6.570   0.703
 8420SOL    HW126159   3.541   6.611   0.655
 8420SOL    HW226160   3.694   6.636   0.707
 8421SOL     OW26161   2.973   6.972   1.416
 8421SOL    HW126162   3.001   6.899   1.355
 8421SOL    HW226163   2.898   6.940   1.475
 8422SOL     OW26164   5.332   6.262   1.136
 8422SOL    HW126165   5.414   6.276   1.081
 8422SOL    HW226166   5.320   6.340   1.198
 8423SOL     OW26167   4.138   4.915   6.640
 8423SOL    HW126168   4.147   5.012   6.616
 8423SOL    HW226169   4.228   4.879   6.666
 8424SOL     OW26170   2.828   2.242   2.694
 8424SOL    HW126171   2.838   2.242   2.793
 8424SOL    HW226172   2.756   2.177   2.668
 8425SOL     OW26173   6.814   5.352   1.064
 8425SOL    HW126174   6.818   5.341   1.163
 8425SOL    HW226175   6.733   5.307   1.028
 8426SOL     OW26176   3.664   3.140   3.843
 8426SOL    HW126177   3.758   3.133   3.875
 8426SOL    HW226178   3.620   3.051   3.845
 8427SOL     OW26179   1.531   4.082   6.094
 8427SOL    HW126180   1.570   4.008   6.148
 8427SOL    HW226181   1.605   4.135   6.051
 8428SOL     OW26182   6.623   4.614   2.137
 8428SOL    HW126183   6.651   4.576   2.226
 8428SOL    HW226184   6.699   4.604   2.072
 8429SOL     OW26185   2.052   4.396   4.612
 8429SOL    HW126186   2.077   4.487   4.578
 8429SOL    HW226187   2.134   4.350   4.646
 8430SOL     OW26188   4.061   5.211   2.845
 8430SOL    HW126189   4.151   5.187   2.883
 8430SOL    HW226190   4.013   5.127   2.818
 8431SOL     OW26191   2.055   4.930   1.233
 8431SOL    HW126192   2.059   4.946   1.135
 8431SOL    HW226193   2.115   4.995   1.280
 8432SOL     OW26194   4.351   5.109   5.778
 8432SOL    HW126195   4.299   5.057   5.710
 8432SOL    HW226196   4.436   5.061   5.798
 8433SOL     OW26197   0.639   2.762   6.623
 8433SOL    HW126198   0.639   2.790   6.719
 8433SOL    HW226199   0.555   2.793   6.579
 8434SOL     OW26200   3.092   6.979   5.232
 8434SOL    HW126201   3.075   0.016   5.310
 8434SOL    HW226202   3.158   7.022   5.170
 8435SOL     OW26203   4.902   1.860   1.408
 8435SOL    HW126204   5.001   1.871   1.407
 8435SOL    HW226205   4.876   1.800   1.484
 8436SOL     OW26206   3.732   6.279   3.713
 8436SOL    HW126207   3.712   6.325   3.800
 8436SOL    HW226208   3.686   6.326   3.638
 8437SOL     OW26209   1.859   0.216   1.925
 8437SOL    HW126210   1.822   0.272   1.999
 8437SOL    HW226211   1.843   0.120   1.944
 8438SOL     OW26212   2.904   4.779   2.121
 8438SOL    HW126213   2.939   4.685   2.128
 8438SOL    HW226214   2.806   4.777   2.104
 8439SOL     OW26215   6.797   5.920   1.579
 8439SOL    HW126216   6.783   6.018   1.588
 8439SOL    HW226217   6.891   5.897   1.603
 8440SOL     OW26218   0.291   0.640   2.764
 8440SOL    HW126219   0.340   0.709   2.711
 8440SOL    HW226220   0.356   0.593   2.825
 8441SOL     OW26221   6.213   5.967   0.562
 8441SOL    HW126222   6.171   6.053   0.533
 8441SOL    HW226223   6.290   5.985   0.623
 8442SOL     OW26224   4.182   3.206   6.573
 8442SOL    HW126225   4.160   3.128   6.632
 8442SOL    HW226226   4.261   3.255   6.609
 8443SOL     OW26227   1.722   6.983   3.171
 8443SOL    HW126228   1.627   6.984   3.140
 8443SOL    HW226229   1.759   0.051   3.167
 8444SOL     OW26230   3.019   6.169   3.666
 8444SOL    HW126231   3.060   6.135   3.751
 8444SOL    HW226232   2.937   6.115   3.645
 8445SOL     OW26233   3.156   5.034   1.942
 8445SOL    HW126234   3.202   4.983   2.014
 8445SOL    HW226235   3.111   4.970   1.879
 8446SOL     OW26236   4.791   5.657   1.467
 8446SOL    HW126237   4.846   5.576   1.486
 8446SOL    HW226238   4.825   5.703   1.386
 8447SOL     OW26239   6.105   2.405   2.607
 8447SOL    HW126240   6.031   2.450   2.558
 8447SOL    HW226241   6.177   2.381   2.542
 8448SOL     OW26242   0.183   3.797   5.369
 8448SOL    HW126243   0.094   3.757   5.390
 8448SOL    HW226244   0.244   3.784   5.446
 8449SOL     OW26245   0.484   3.227   3.938
 8449SOL    HW126246   0.424   3.218   4.018
 8449SOL    HW226247   0.433   3.203   3.855
 8450SOL     OW26248   2.033   6.278   2.073
 8450SOL    HW126249   2.029   6.178   2.068
 8450SOL    HW226250   2.119   6.306   2.113
 8451SOL     OW26251   4.001   2.493   0.816
 8451SOL    HW126252   4.077   2.449   0.769
 8451SOL    HW226253   4.005   2.472   0.914
 8452SOL     OW26254   0.263   6.981   1.124
 8452SOL    HW126255   0.360   6.991   1.101
 8452SOL    HW226256   0.215   6.938   1.048
 8453SOL     OW26257   6.781   4.979   6.013
 8453SOL    HW126258   6.779   4.892   6.063
 8453SOL    HW226259   6.690   4.997   5.974
 8454SOL     OW26260   1.732   5.672   1.776
 8454SOL    HW126261   1.679   5.694   1.694
 8454SOL    HW226262   1.713   5.740   1.847
 8455SOL     OW26263   4.987   1.708   0.964
 8455SOL    HW126264   5.077   1.751   0.971
 8455SOL    HW226265   4.954   1.684   1.055
 8456SOL     OW26266   5.980   5.216   3.235
 8456SOL    HW126267   5.959   5.158   3.156
 8456SOL    HW226268   5.912   5.202   3.306
 8457SOL     OW26269   6.460   6.735   5.866
 8457SOL    HW126270   6.424   6.762   5.955
 8457SOL    HW226271   6.560   6.734   5.869
 8458SOL     OW26272   2.041   1.175   6.652
 8458SOL    HW126273   2.011   1.270   6.655
 8458SOL    HW226274   1.962   1.115   6.666
 8459SOL     OW26275   3.763   6.700   1.381
 8459SOL    HW126276   3.664   6.695   1.369
 8459SOL    HW226277   3.802   6.760   1.312
 8460SOL     OW26278   4.034   2.682   5.968
 8460SOL    HW126279   3.940   2.693   5.936
 8460SOL    HW226280   4.079   2.609   5.916
 8461SOL     OW26281   1.227   3.492   1.859
 8461SOL    HW126282   1.279   3.430   1.918
 8461SOL    HW226283   1.129   3.474   1.870
 8462SOL     OW26284   3.357   2.169   6.927
 8462SOL    HW126285   3.405   2.215   7.002
 8462SOL    HW226286   3.396   2.199   6.840
 8463SOL     OW26287   0.168   1.857   0.233
 8463SOL    HW126288   0.150   1.950   0.201
 8463SOL    HW226289   0.241   1.859   0.301
 8464SOL     OW26290   0.053   4.125   5.307
 8464SOL    HW126291   0.108   4.149   5.387
 8464SOL    HW226292   0.104   4.147   5.224
 8465SOL     OW26293   2.775   2.029   0.993
 8465SOL    HW126294   2.831   2.099   0.948
 8465SOL    HW226295   2.813   2.009   1.083
 8466SOL     OW26296   6.339   0.092   5.263
 8466SOL    HW126297   6.260   0.031   5.262
 8466SOL    HW226298   6.314   0.178   5.309
 8467SOL     OW26299   3.882   0.946   1.283
 8467SOL    HW126300   3.905   0.982   1.373
 8467SOL    HW226301   3.949   0.977   1.216
 8468SOL     OW26302   6.323   3.087   6.637
 8468SOL    HW126303   6.225   3.066   6.633
 8468SOL    HW226304   6.355   3.075   6.731
 8469SOL     OW26305   2.709   2.363   5.888
 8469SOL    HW126306   2.699   2.267   5.859
 8469SOL    HW226307   2.797   2.374   5.934
 8470SOL     OW26308   1.006   4.615   0.456
 8470SOL    HW126309   1.022   4.690   0.391
 8470SOL    HW226310   1.062   4.629   0.537
 8471SOL     OW26311   3.660   0.478   5.470
 8471SOL    HW126312   3.730   0.493   5.400
 8471SOL    HW226313   3.584   0.542   5.455
 8472SOL     OW26314   5.613   1.686   5.655
 8472SOL    HW126315   5.670   1.639   5.722
 8472SOL    HW226316   5.671   1.723   5.582
 8473SOL     OW26317   5.141   5.391   0.662
 8473SOL    HW126318   5.155   5.466   0.597
 8473SOL    HW226319   5.151   5.303   0.614
 8474SOL     OW26320   3.489   4.161   2.377
 8474SOL    HW126321   3.399   4.182   2.338
 8474SOL    HW226322   3.561   4.200   2.319
 8475SOL     OW26323   6.834   2.894   2.538
 8475SOL    HW126324   6.895   2.926   2.466
 8475SOL    HW226325   6.781   2.816   2.504
 8476SOL     OW26326   6.842   0.996   1.852
 8476SOL    HW126327   6.746   0.968   1.854
 8476SOL    HW226328   6.863   1.050   1.934
 8477SOL     OW26329   4.451   6.445   2.439
 8477SOL    HW126330   4.475   6.349   2.425
 8477SOL    HW226331   4.413   6.483   2.355
 8478SOL     OW26332   0.891   1.502   5.719
 8478SOL    HW126333   0.882   1.455   5.631
 8478SOL    HW226334   0.871   1.599   5.708
 8479SOL     OW26335   1.061   3.128   1.952
 8479SOL    HW126336   1.140   3.188   1.942
 8479SOL    HW226337   1.081   3.040   1.910
 8480SOL     OW26338   5.279   3.021   6.973
 8480SOL    HW126339   5.281   3.121   6.977
 8480SOL    HW226340   5.188   2.991   6.944
 8481SOL     OW26341   4.713   2.436   5.058
 8481SOL    HW126342   4.728   2.377   4.979
 8481SOL    HW226343   4.625   2.484   5.048
 8482SOL     OW26344   4.700   0.332   1.591
 8482SOL    HW126345   4.692   0.317   1.690
 8482SOL    HW226346   4.792   0.366   1.570
 8483SOL     OW26347   2.384   5.304   3.111
 8483SOL    HW126348   2.333   5.369   3.167
 8483SOL    HW226349   2.449   5.353   3.053
 8484SOL     OW26350   6.821   6.023   5.169
 8484SOL    HW126351   6.856   5.937   5.206
 8484SOL    HW226352   6.891   6.066   5.112
 8485SOL     OW26353   3.913   2.135   0.217
 8485SOL    HW126354   3.830   2.079   0.225
 8485SOL    HW226355   3.887   2.229   0.192
 8486SOL     OW26356   1.973   0.808   2.964
 8486SOL    HW126357   1.996   0.898   2.926
 8486SOL    HW226358   2.057   0.760   2.990
 8487SOL     OW26359   5.248   2.307   6.156
 8487SOL    HW126360   5.312   2.258   6.216
 8487SOL    HW226361   5.298   2.371   6.098
 8488SOL     OW26362   5.329   5.934   2.756
 8488SOL    HW126363   5.243   5.950   2.805
 8488SOL    HW226364   5.347   6.012   2.695
 8489SOL     OW26365   0.031   0.392   1.640
 8489SOL    HW126366   0.111   0.334   1.654
 8489SOL    HW226367   7.005   0.361   1.560
 8490SOL     OW26368   3.166   6.530   5.671
 8490SOL    HW126369   3.232   6.602   5.690
 8490SOL    HW226370   3.214   6.443   5.659
 8491SOL     OW26371   1.837   6.262   2.386
 8491SOL    HW126372   1.758   6.273   2.326
 8491SOL    HW226373   1.851   6.165   2.407
 8492SOL     OW26374   5.784   5.135   3.939
 8492SOL    HW126375   5.705   5.076   3.924
 8492SOL    HW226376   5.799   5.192   3.857
 8493SOL     OW26377   2.389   1.663   0.344
 8493SOL    HW126378   2.336   1.747   0.338
 8493SOL    HW226379   2.486   1.684   0.327
 8494SOL     OW26380   4.580   4.885   1.997
 8494SOL    HW126381   4.499   4.828   1.979
 8494SOL    HW226382   4.550   4.977   2.021
 8495SOL     OW26383   0.271   5.244   1.001
 8495SOL    HW126384   0.331   5.323   1.009
 8495SOL    HW226385   0.175   5.274   1.010
 8496SOL     OW26386   6.019   1.444   2.338
 8496SOL    HW126387   6.010   1.525   2.396
 8496SOL    HW226388   6.090   1.459   2.270
 8497SOL     OW26389   0.763   0.334   3.483
 8497SOL    HW126390   0.814   0.288   3.410
 8497SOL    HW226391   0.754   0.431   3.461
 8498SOL     OW26392   6.380   6.554   3.401
 8498SOL    HW126393   6.308   6.579   3.337
 8498SOL    HW226394   6.453   6.506   3.353
 8499SOL     OW26395   0.472   4.374   0.284
 8499SOL    HW126396   0.554   4.331   0.323
 8499SOL    HW226397   0.429   4.311   0.220
 8500SOL     OW26398   1.566   6.515   5.786
 8500SOL    HW126399   1.636   6.539   5.719
 8500SOL    HW226400   1.609   6.468   5.863
 8501SOL     OW26401   0.708   2.533   6.462
 8501SOL    HW126402   0.694   2.582   6.547
 8501SOL    HW226403   0.693   2.435   6.477
 8502SOL     OW26404   0.584   3.068   1.529
 8502SOL    HW126405   0.610   3.079   1.433
 8502SOL    HW226406   0.485   3.079   1.538
 8503SOL     OW26407   6.621   6.071   5.590
 8503SOL    HW126408   6.599   5.989   5.538
 8503SOL    HW226409   6.649   6.143   5.528
 8504SOL     OW26410   1.643   5.200   2.002
 8504SOL    HW126411   1.571   5.143   2.041
 8504SOL    HW226412   1.703   5.233   2.075
 8505SOL     OW26413   5.599   3.374   2.757
 8505SOL    HW126414   5.550   3.293   2.726
 8505SOL    HW226415   5.669   3.348   2.824
 8506SOL     OW26416   1.659   0.378   0.024
 8506SOL    HW126417   1.565   0.345   0.013
 8506SOL    HW226418   1.662   0.442   0.101
 8507SOL     OW26419   3.758   0.133   4.996
 8507SOL    HW126420   3.675   0.076   4.990
 8507SOL    HW226421   3.838   0.076   4.979
 8508SOL     OW26422   4.028   1.293   5.620
 8508SOL    HW126423   3.981   1.359   5.679
 8508SOL    HW226424   4.103   1.339   5.572
 8509SOL     OW26425   5.763   6.546   3.974
 8509SOL    HW126426   5.720   6.483   4.039
 8509SOL    HW226427   5.788   6.496   3.890
 8510SOL     OW26428   5.143   3.970   3.221
 8510SOL    HW126429   5.210   4.014   3.281
 8510SOL    HW226430   5.181   3.962   3.129
 8511SOL     OW26431   6.556   3.023   2.551
 8511SOL    HW126432   6.635   2.981   2.507
 8511SOL    HW226433   6.483   3.036   2.484
 8512SOL     OW26434   2.586   6.708   2.797
 8512SOL    HW126435   2.673   6.670   2.828
 8512SOL    HW226436   2.572   6.799   2.835
 8513SOL     OW26437   0.046   5.722   1.272
 8513SOL    HW126438   0.029   5.726   1.173
 8513SOL    HW226439   0.122   5.659   1.289
 8514SOL     OW26440   2.956   0.315   3.549
 8514SOL    HW126441   2.901   0.359   3.620
 8514SOL    HW226442   3.022   0.253   3.591
 8515SOL     OW26443   4.904   2.513   0.923
 8515SOL    HW126444   4.955   2.546   0.843
 8515SOL    HW226445   4.864   2.591   0.970
 8516SOL     OW26446   6.876   1.932   2.484
 8516SOL    HW126447   6.956   1.872   2.477
 8516SOL    HW226448   6.802   1.896   2.426
 8517SOL     OW26449   0.486   2.639   5.713
 8517SOL    HW126450   0.483   2.676   5.620
 8517SOL    HW226451   0.549   2.694   5.769
 8518SOL     OW26452   4.268   4.288   0.486
 8518SOL    HW126453   4.289   4.245   0.574
 8518SOL    HW226454   4.178   4.331   0.491
 8519SOL     OW26455   1.767   5.978   1.892
 8519SOL    HW126456   1.781   6.077   1.900
 8519SOL    HW226457   1.849   5.937   1.853
 8520SOL     OW26458   4.019   0.890   0.478
 8520SOL    HW126459   3.937   0.902   0.421
 8520SOL    HW226460   4.014   0.801   0.523
 8521SOL     OW26461   1.562   5.748   5.513
 8521SOL    HW126462   1.604   5.683   5.450
 8521SOL    HW226463   1.633   5.785   5.574
 8522SOL     OW26464   1.537   5.480   1.919
 8522SOL    HW126465   1.507   5.408   1.856
 8522SOL    HW226466   1.611   5.533   1.877
 8523SOL     OW26467   2.767   0.130   6.094
 8523SOL    HW126468   2.721   0.053   6.140
 8523SOL    HW226469   2.701   0.205   6.081
 8524SOL     OW26470   1.322   2.673   4.358
 8524SOL    HW126471   1.410   2.688   4.312
 8524SOL    HW226472   1.320   2.724   4.444
 8525SOL     OW26473   6.079   3.869   2.703
 8525SOL    HW126474   5.984   3.879   2.733
 8525SOL    HW226475   6.115   3.782   2.735
 8526SOL     OW26476   2.810   3.557   1.635
 8526SOL    HW126477   2.799   3.654   1.612
 8526SOL    HW226478   2.726   3.522   1.675
 8527SOL     OW26479   4.152   0.644   4.648
 8527SOL    HW126480   4.184   0.645   4.553
 8527SOL    HW226481   4.178   0.557   4.691
 8528SOL     OW26482   4.592   3.456   6.055
 8528SOL    HW126483   4.572   3.531   6.118
 8528SOL    HW226484   4.626   3.378   6.106
 8529SOL     OW26485   0.979   6.603   0.063
 8529SOL    HW126486   0.968   6.514   0.106
 8529SOL    HW226487   1.014   6.668   0.130
 8530SOL     OW26488   0.853   5.267   5.104
 8530SOL    HW126489   0.902   5.195   5.154
 8530SOL    HW226490   0.777   5.226   5.054
 8531SOL     OW26491   5.330   4.443   3.464
 8531SOL    HW126492   5.417   4.483   3.495
 8531SOL    HW226493   5.274   4.421   3.543
 8532SOL     OW26494   4.220   4.731   4.797
 8532SOL    HW126495   4.149   4.678   4.751
 8532SOL    HW226496   4.276   4.670   4.853
 8533SOL     OW26497   1.864   0.972   5.736
 8533SOL    HW126498   1.862   1.069   5.760
 8533SOL    HW226499   1.859   0.962   5.637
 8534SOL     OW26500   0.192   5.350   2.553
 8534SOL    HW126501   0.103   5.305   2.564
 8534SOL    HW226502   0.239   5.352   2.642
 8535SOL     OW26503   0.774   2.060   4.825
 8535SOL    HW126504   0.714   2.047   4.747
 8535SOL    HW226505   0.820   2.149   4.817
 8536SOL     OW26506   5.940   2.775   5.121
 8536SOL    HW126507   5.919   2.682   5.150
 8536SOL    HW226508   6.031   2.801   5.154
 8537SOL     OW26509   6.241   1.268   1.157
 8537SOL    HW126510   6.263   1.359   1.191
 8537SOL    HW226511   6.299   1.201   1.203
 8538SOL     OW26512   0.447   0.528   5.092
 8538SOL    HW126513   0.503   0.611   5.084
 8538SOL    HW226514   0.374   0.531   5.024
 8539SOL     OW26515   6.252   2.564   2.399
 8539SOL    HW126516   6.304   2.510   2.465
 8539SOL    HW226517   6.297   2.652   2.384
 8540SOL     OW26518   3.564   1.566   0.909
 8540SOL    HW126519   3.645   1.625   0.916
 8540SOL    HW226520   3.500   1.606   0.843
 8541SOL     OW26521   2.897   1.048   5.514
 8541SOL    HW126522   2.917   1.146   5.519
 8541SOL    HW226523   2.968   1.002   5.460
 8542SOL     OW26524   3.292   4.478   6.458
 8542SOL    HW126525   3.304   4.551   6.526
 8542SOL    HW226526   3.355   4.493   6.382
 8543SOL     OW26527   2.865   1.789   5.511
 8543SOL    HW126528   2.784   1.787   5.568
 8543SOL    HW226529   2.858   1.864   5.445
 8544SOL     OW26530   5.153   3.472   5.285
 8544SOL    HW126531   5.135   3.450   5.381
 8544SOL    HW226532   5.121   3.397   5.227
 8545SOL     OW26533   3.238   6.630   4.819
 8545SOL    HW126534   3.270   6.720   4.848
 8545SOL    HW226535   3.175   6.592   4.887
 8546SOL     OW26536   5.244   0.615   0.982
 8546SOL    HW126537   5.180   0.551   0.939
 8546SOL    HW226538   5.292   0.569   1.057
 8547SOL     OW26539   6.657   0.250   5.617
 8547SOL    HW126540   6.719   0.172   5.630
 8547SOL    HW226541   6.614   0.272   5.705
 8548SOL     OW26542   0.425   3.155   5.526
 8548SOL    HW126543   0.352   3.213   5.489
 8548SOL    HW226544   0.469   3.106   5.451
 8549SOL     OW26545   0.980   2.076   3.729
 8549SOL    HW126546   1.076   2.053   3.740
 8549SOL    HW226547   0.941   2.021   3.655
 8550SOL     OW26548   0.461   4.134   6.456
 8550SOL    HW126549   0.527   4.072   6.413
 8550SOL    HW226550   0.419   4.089   6.534
 8551SOL     OW26551   2.121   2.437   6.596
 8551SOL    HW126552   2.197   2.439   6.531
 8551SOL    HW226553   2.147   2.486   6.680
 8552SOL     OW26554   3.493   0.560   1.985
 8552SOL    HW126555   3.474   0.625   1.911
 8552SOL    HW226556   3.591   0.556   2.002
 8553SOL     OW26557   3.820   3.847   0.018
 8553SOL    HW126558   3.802   3.794   6.960
 8553SOL    HW226559   3.887   3.919   7.023
 8554SOL     OW26560   1.082   6.682   1.320
 8554SOL    HW126561   1.102   6.630   1.238
 8554SOL    HW226562   0.984   6.691   1.332
 8555SOL     OW26563   4.322   1.780   3.229
 8555SOL    HW126564   4.300   1.753   3.323
 8555SOL    HW226565   4.295   1.707   3.166
 8556SOL     OW26566   1.342   6.053   5.880
 8556SOL    HW126567   1.391   5.975   5.840
 8556SOL    HW226568   1.256   6.021   5.921
 8557SOL     OW26569   0.214   0.927   0.781
 8557SOL    HW126570   0.171   0.852   0.732
 8557SOL    HW226571   0.165   0.944   0.867
 8558SOL     OW26572   1.854   4.682   3.200
 8558SOL    HW126573   1.950   4.657   3.217
 8558SOL    HW226574   1.845   4.715   3.106
 8559SOL     OW26575   0.651   6.588   3.057
 8559SOL    HW126576   0.572   6.598   3.117
 8559SOL    HW226577   0.708   6.513   3.090
 8560SOL     OW26578   1.162   5.482   1.690
 8560SOL    HW126579   1.181   5.555   1.755
 8560SOL    HW226580   1.079   5.503   1.639
 8561SOL     OW26581   3.790   0.276   3.394
 8561SOL    HW126582   3.840   0.285   3.308
 8561SOL    HW226583   3.798   0.362   3.445
 8562SOL     OW26584   3.964   0.566   6.627
 8562SOL    HW126585   4.047   0.529   6.670
 8562SOL    HW226586   3.938   0.651   6.673
 8563SOL     OW26587   1.227   6.001   2.250
 8563SOL    HW126588   1.138   5.965   2.223
 8563SOL    HW226589   1.219   6.049   2.337
 8564SOL     OW26590   3.999   5.875   6.405
 8564SOL    HW126591   3.958   5.898   6.493
 8564SOL    HW226592   4.098   5.866   6.415
 8565SOL     OW26593   3.758   5.376   1.315
 8565SOL    HW126594   3.784   5.322   1.234
 8565SOL    HW226595   3.812   5.345   1.394
 8566SOL     OW26596   2.699   0.706   2.866
 8566SOL    HW126597   2.652   0.724   2.952
 8566SOL    HW226598   2.643   0.739   2.790
 8567SOL     OW26599   1.910   2.097   1.828
 8567SOL    HW126600   1.894   1.998   1.820
 8567SOL    HW226601   1.889   2.141   1.740
 8568SOL     OW26602   0.026   1.405   0.468
 8568SOL    HW126603   6.955   1.430   0.453
 8568SOL    HW226604   0.030   1.320   0.520
 8569SOL     OW26605   4.776   2.018   6.132
 8569SOL    HW126606   4.706   2.015   6.204
 8569SOL    HW226607   4.861   2.055   6.170
 8570SOL     OW26608   1.453   1.613   4.569
 8570SOL    HW126609   1.495   1.584   4.655
 8570SOL    HW226610   1.361   1.573   4.563
 8571SOL     OW26611   1.172   0.995   4.911
 8571SOL    HW126612   1.195   1.042   4.826
 8571SOL    HW226613   1.240   1.017   4.981
 8572SOL     OW26614   2.391   4.137   5.943
 8572SOL    HW126615   2.358   4.115   5.851
 8572SOL    HW226616   2.335   4.211   5.981
 8573SOL     OW26617   2.422   6.015   6.791
 8573SOL    HW126618   2.508   6.064   6.776
 8573SOL    HW226619   2.357   6.075   6.837
 8574SOL     OW26620   6.095   0.016   6.345
 8574SOL    HW126621   6.089   0.078   6.423
 8574SOL    HW226622   6.147   0.060   6.271
 8575SOL     OW26623   3.409   0.925   2.107
 8575SOL    HW126624   3.363   0.850   2.154
 8575SOL    HW226625   3.502   0.934   2.143
 8576SOL     OW26626   1.426   4.053   4.432
 8576SOL    HW126627   1.415   3.956   4.451
 8576SOL    HW226628   1.475   4.097   4.508
 8577SOL     OW26629   1.582   1.073   5.886
 8577SOL    HW126630   1.670   1.059   5.932
 8577SOL    HW226631   1.519   1.000   5.913
 8578SOL     OW26632   6.318   6.277   5.784
 8578SOL    HW126633   6.399   6.320   5.744
 8578SOL    HW226634   6.325   6.281   5.884
 8579SOL     OW26635   2.106   6.273   2.420
 8579SOL    HW126636   2.164   6.258   2.340
 8579SOL    HW226637   2.013   6.245   2.399
 8580SOL     OW26638   0.976   6.726   0.753
 8580SOL    HW126639   0.921   6.645   0.773
 8580SOL    HW226640   1.070   6.698   0.733
 8581SOL     OW26641   3.801   4.873   1.446
 8581SOL    HW126642   3.824   4.777   1.463
 8581SOL    HW226643   3.884   4.924   1.426
 8582SOL     OW26644   4.686   4.524   5.603
 8582SOL    HW126645   4.684   4.494   5.698
 8582SOL    HW226646   4.613   4.478   5.552
 8583SOL     OW26647   4.070   6.924   3.343
 8583SOL    HW126648   4.109   6.967   3.262
 8583SOL    HW226649   4.052   6.993   3.413
 8584SOL     OW26650   0.003   0.424   4.872
 8584SOL    HW126651   6.951   0.388   4.925
 8584SOL    HW226652   7.022   0.390   4.778
 8585SOL     OW26653   5.759   1.530   1.071
 8585SOL    HW126654   5.677   1.543   1.014
 8585SOL    HW226655   5.766   1.606   1.136
 8586SOL     OW26656   5.004   6.513   1.113
 8586SOL    HW126657   4.927   6.453   1.135
 8586SOL    HW226658   5.056   6.474   1.037
 8587SOL     OW26659   0.829   1.311   4.853
 8587SOL    HW126660   0.755   1.317   4.786
 8587SOL    HW226661   0.791   1.322   4.945
 8588SOL     OW26662   4.298   1.007   6.777
 8588SOL    HW126663   4.321   1.104   6.771
 8588SOL    HW226664   4.219   0.995   6.837
 8589SOL     OW26665   6.624   2.931   5.022
 8589SOL    HW126666   6.661   2.862   4.960
 8589SOL    HW226667   6.687   3.008   5.029
 8590SOL     OW26668   0.299   0.310   2.937
 8590SOL    HW126669   0.320   0.390   2.993
 8590SOL    HW226670   0.204   0.282   2.954
 8591SOL     OW26671   6.475   4.582   0.193
 8591SOL    HW126672   6.502   4.534   0.110
 8591SOL    HW226673   6.402   4.531   0.239
 8592SOL     OW26674   6.943   3.043   6.918
 8592SOL    HW126675   6.905   3.136   6.919
 8592SOL    HW226676   0.012   3.046   6.884
 8593SOL     OW26677   3.317   1.102   6.724
 8593SOL    HW126678   3.414   1.092   6.745
 8593SOL    HW226679   3.275   1.011   6.717
 8594SOL     OW26680   6.413   2.950   5.779
 8594SOL    HW126681   6.453   2.882   5.717
 8594SOL    HW226682   6.475   3.028   5.789
 8595SOL     OW26683   5.919   0.329   3.696
 8595SOL    HW126684   5.865   0.380   3.629
 8595SOL    HW226685   5.865   0.315   3.779
 8596SOL     OW26686   1.091   4.175   3.012
 8596SOL    HW126687   0.994   4.184   2.990
 8596SOL    HW226688   1.140   4.142   2.932
 8597SOL     OW26689   6.060   2.225   0.771
 8597SOL    HW126690   6.106   2.253   0.854
 8597SOL    HW226691   5.963   2.208   0.790
 8598SOL     OW26692   5.598   0.345   5.477
 8598SOL    HW126693   5.583   0.362   5.574
 8598SOL    HW226694   5.691   0.312   5.463
 8599SOL     OW26695   1.141   2.715   3.881
 8599SOL    HW126696   1.183   2.625   3.875
 8599SOL    HW226697   1.043   2.706   3.899
 8600SOL     OW26698   5.343   3.997   0.802
 8600SOL    HW126699   5.367   3.957   0.714
 8600SOL    HW226700   5.251   3.968   0.828
 8601SOL     OW26701   6.984   1.220   3.916
 8601SOL    HW126702   0.043   1.167   3.924
 8601SOL    HW226703   7.006   1.312   3.885
 8602SOL     OW26704   2.473   6.500   3.317
 8602SOL    HW126705   2.380   6.492   3.281
 8602SOL    HW226706   2.538   6.464   3.251
 8603SOL     OW26707   5.874   1.148   6.195
 8603SOL    HW126708   5.894   1.225   6.255
 8603SOL    HW226709   5.776   1.143   6.178
 8604SOL     OW26710   0.509   2.444   5.995
 8604SOL    HW126711   0.560   2.429   5.910
 8604SOL    HW226712   0.549   2.522   6.044
 8605SOL     OW26713   0.955   4.409   4.352
 8605SOL    HW126714   1.000   4.331   4.395
 8605SOL    HW226715   1.023   4.479   4.331
 8606SOL     OW26716   2.984   1.857   7.014
 8606SOL    HW126717   2.887   1.868   6.991
 8606SOL    HW226718   3.028   1.799   6.946
 8607SOL     OW26719   2.410   4.635   6.893
 8607SOL    HW126720   2.327   4.602   6.849
 8607SOL    HW226721   2.472   4.672   6.824
 8608SOL     OW26722   2.118   4.890   2.328
 8608SOL    HW126723   2.199   4.876   2.272
 8608SOL    HW226724   2.142   4.941   2.410
 8609SOL     OW26725   4.768   0.905   4.230
 8609SOL    HW126726   4.846   0.929   4.287
 8609SOL    HW226727   4.775   0.952   4.142
 8610SOL     OW26728   6.960   6.995   3.400
 8610SOL    HW126729   6.937   0.066   3.415
 8610SOL    HW226730   7.019   6.987   3.319
 8611SOL     OW26731   2.505   1.149   4.447
 8611SOL    HW126732   2.469   1.066   4.405
 8611SOL    HW226733   2.513   1.221   4.378
 8612SOL     OW26734   2.988   3.055   1.962
 8612SOL    HW126735   2.934   3.091   1.886
 8612SOL    HW226736   3.022   2.964   1.938
 8613SOL     OW26737   2.566   2.461   1.911
 8613SOL    HW126738   2.657   2.458   1.952
 8613SOL    HW226739   2.520   2.373   1.926
 8614SOL     OW26740   1.586   2.349   3.217
 8614SOL    HW126741   1.522   2.337   3.293
 8614SOL    HW226742   1.664   2.404   3.247
 8615SOL     OW26743   4.383   1.574   5.071
 8615SOL    HW126744   4.451   1.648   5.065
 8615SOL    HW226745   4.404   1.504   5.003
 8616SOL     OW26746   2.301   4.595   1.752
 8616SOL    HW126747   2.322   4.688   1.723
 8616SOL    HW226748   2.386   4.545   1.770
 8617SOL     OW26749   5.758   0.646   4.099
 8617SOL    HW126750   5.820   0.571   4.123
 8617SOL    HW226751   5.728   0.635   4.004
 8618SOL     OW26752   6.644   4.002   0.744
 8618SOL    HW126753   6.696   3.982   0.661
 8618SOL    HW226754   6.683   4.082   0.789
 8619SOL     OW26755   4.510   5.068   3.336
 8619SOL    HW126756   4.415   5.096   3.327
 8619SOL    HW226757   4.515   4.980   3.382
 8620SOL     OW26758   1.683   0.287   4.596
 8620SOL    HW126759   1.715   0.192   4.599
 8620SOL    HW226760   1.595   0.294   4.642
 8621SOL     OW26761   4.826   2.942   2.254
 8621SOL    HW126762   4.789   2.867   2.309
 8621SOL    HW226763   4.772   2.951   2.170
 8622SOL     OW26764   5.894   5.250   1.774
 8622SOL    HW126765   5.848   5.195   1.844
 8622SOL    HW226766   5.992   5.231   1.776
 8623SOL     OW26767   0.323   3.708   5.028
 8623SOL    HW126768   0.260   3.646   4.982
 8623SOL    HW226769   0.394   3.738   4.964
 8624SOL     OW26770   3.551   3.890   6.006
 8624SOL    HW126771   3.516   3.825   5.939
 8624SOL    HW226772   3.559   3.845   6.095
 8625SOL     OW26773   4.114   0.903   6.339
 8625SOL    HW126774   4.027   0.877   6.297
 8625SOL    HW226775   4.155   0.822   6.381
 8626SOL     OW26776   3.666   3.097   6.877
 8626SOL    HW126777   3.660   3.196   6.869
 8626SOL    HW226778   3.727   3.072   6.952
 8627SOL     OW26779   2.532   1.748   2.845
 8627SOL    HW126780   2.535   1.759   2.746
 8627SOL    HW226781   2.554   1.836   2.889
 8628SOL     OW26782   6.280   7.008   0.302
 8628SOL    HW126783   6.261   0.038   0.384
 8628SOL    HW226784   6.378   6.989   0.298
 8629SOL     OW26785   0.996   6.553   5.183
 8629SOL    HW126786   1.084   6.538   5.229
 8629SOL    HW226787   0.997   6.643   5.138
 8630SOL     OW26788   4.921   3.964   3.933
 8630SOL    HW126789   4.882   3.878   3.898
 8630SOL    HW226790   4.896   3.974   4.029
 8631SOL     OW26791   1.559   6.113   6.043
 8631SOL    HW126792   1.603   6.203   6.033
 8631SOL    HW226793   1.485   6.105   5.977
 8632SOL     OW26794   3.869   4.143   5.120
 8632SOL    HW126795   3.890   4.240   5.131
 8632SOL    HW226796   3.781   4.133   5.074
 8633SOL     OW26797   5.752   3.691   5.886
 8633SOL    HW126798   5.735   3.744   5.802
 8633SOL    HW226799   5.804   3.746   5.950
 8634SOL     OW26800   5.455   4.619   0.068
 8634SOL    HW126801   5.397   4.539   0.050
 8634SOL    HW226802   5.508   4.604   0.152
 8635SOL     OW26803   6.151   2.295   6.730
 8635SOL    HW126804   6.063   2.323   6.691
 8635SOL    HW226805   6.181   2.365   6.795
 8636SOL     OW26806   4.379   5.511   0.717
 8636SOL    HW126807   4.302   5.537   0.776
 8636SOL    HW226808   4.402   5.415   0.734
 8637SOL     OW26809   2.240   1.287   6.351
 8637SOL    HW126810   2.218   1.341   6.433
 8637SOL    HW226811   2.286   1.203   6.379
 8638SOL     OW26812   3.878   2.527   5.352
 8638SOL    HW126813   3.954   2.540   5.288
 8638SOL    HW226814   3.846   2.433   5.347
 8639SOL     OW26815   4.535   3.994   0.199
 8639SOL    HW126816   4.584   3.989   0.286
 8639SOL    HW226817   4.537   3.905   0.154
 8640SOL     OW26818   4.005   3.081   0.816
 8640SOL    HW126819   3.925   3.131   0.782
 8640SOL    HW226820   4.012   3.092   0.915
 8641SOL     OW26821   4.210   4.889   4.104
 8641SOL    HW126822   4.191   4.925   4.195
 8641SOL    HW226823   4.296   4.837   4.106
 8642SOL     OW26824   0.342   0.141   3.206
 8642SOL    HW126825   0.272   0.184   3.263
 8642SOL    HW226826   0.357   0.197   3.124
 8643SOL     OW26827   2.042   0.131   0.474
 8643SOL    HW126828   2.135   0.169   0.481
 8643SOL    HW226829   2.031   0.087   0.385
 8644SOL     OW26830   6.573   2.483   6.485
 8644SOL    HW126831   6.581   2.450   6.391
 8644SOL    HW226832   6.573   2.406   6.548
 8645SOL     OW26833   4.914   5.410   1.485
 8645SOL    HW126834   4.985   5.359   1.532
 8645SOL    HW226835   4.894   5.366   1.397
 8646SOL     OW26836   0.388   1.969   6.994
 8646SOL    HW126837   0.329   2.005   0.041
 8646SOL    HW226838   0.337   1.967   6.908
 8647SOL     OW26839   2.624   5.388   0.409
 8647SOL    HW126840   2.673   5.315   0.361
 8647SOL    HW226841   2.532   5.355   0.434
 8648SOL     OW26842   6.091   6.297   0.788
 8648SOL    HW126843   6.053   6.234   0.856
 8648SOL    HW226844   6.180   6.330   0.819
 8649SOL     OW26845   5.639   6.426   0.264
 8649SOL    HW126846   5.586   6.389   0.188
 8649SOL    HW226847   5.724   6.465   0.229
 8650SOL     OW26848   1.642   7.006   4.360
 8650SOL    HW126849   1.621   6.965   4.272
 8650SOL    HW226850   1.658   6.934   4.428
 8651SOL     OW26851   2.859   1.501   1.032
 8651SOL    HW126852   2.814   1.556   1.101
 8651SOL    HW226853   2.955   1.487   1.058
 8652SOL     OW26854   1.031   4.695   3.675
 8652SOL    HW126855   1.015   4.611   3.728
 8652SOL    HW226856   0.964   4.700   3.601
 8653SOL     OW26857   6.674   1.727   5.242
 8653SOL    HW126858   6.600   1.690   5.299
 8653SOL    HW226859   6.638   1.747   5.150
 8654SOL     OW26860   1.059   4.996   0.854
 8654SOL    HW126861   1.029   5.083   0.815
 8654SOL    HW226862   0.980   4.934   0.862
 8655SOL     OW26863   6.279   1.204   5.097
 8655SOL    HW126864   6.315   1.176   5.186
 8655SOL    HW226865   6.293   1.302   5.084
 8656SOL     OW26866   5.527   0.384   2.067
 8656SOL    HW126867   5.536   0.483   2.081
 8656SOL    HW226868   5.615   0.340   2.086
 8657SOL     OW26869   5.882   5.837   7.014
 8657SOL    HW126870   5.857   5.905   0.058
 8657SOL    HW226871   5.981   5.820   7.018
 8658SOL     OW26872   6.183   5.701   0.662
 8658SOL    HW126873   6.093   5.736   0.638
 8658SOL    HW226874   6.249   5.724   0.590
 8659SOL     OW26875   4.410   2.292   2.898
 8659SOL    HW126876   4.475   2.224   2.864
 8659SOL    HW226877   4.352   2.250   2.968
 8660SOL     OW26878   0.002   2.471   2.345
 8660SOL    HW126879   0.059   2.494   2.424
 8660SOL    HW226880   6.932   2.459   2.375
 8661SOL     OW26881   5.825   4.004   2.244
 8661SOL    HW126882   5.789   3.912   2.229
 8661SOL    HW226883   5.916   3.997   2.287
 8662SOL     OW26884   3.752   6.342   2.170
 8662SOL    HW126885   3.844   6.378   2.155
 8662SOL    HW226886   3.686   6.417   2.168
 8663SOL     OW26887   2.548   5.186   2.589
 8663SOL    HW126888   2.516   5.126   2.663
 8663SOL    HW226889   2.470   5.228   2.543
 8664SOL     OW26890   2.592   5.717   2.580
 8664SOL    HW126891   2.675   5.771   2.595
 8664SOL    HW226892   2.602   5.628   2.624
 8665SOL     OW26893   6.522   5.669   4.563
 8665SOL    HW126894   6.440   5.710   4.525
 8665SOL    HW226895   6.529   5.573   4.534
 8666SOL     OW26896   5.779   0.574   4.496
 8666SOL    HW126897   5.696   0.629   4.493
 8666SOL    HW226898   5.765   0.490   4.443
 8667SOL     OW26899   5.328   1.060   4.582
 8667SOL    HW126900   5.283   1.100   4.662
 8667SOL    HW226901   5.399   1.122   4.550
 8668SOL     OW26902   4.993   3.088   4.862
 8668SOL    HW126903   5.090   3.081   4.887
 8668SOL    HW226904   4.951   3.164   4.913
 8669SOL     OW26905   6.801   6.273   6.489
 8669SOL    HW126906   6.870   6.296   6.558
 8669SOL    HW226907   6.833   6.195   6.435
 8670SOL     OW26908   4.901   5.138   5.816
 8670SOL    HW126909   4.950   5.200   5.878
 8670SOL    HW226910   4.956   5.125   5.733
 8671SOL     OW26911   0.822   1.767   2.403
 8671SOL    HW126912   0.777   1.856   2.402
 8671SOL    HW226913   0.754   1.696   2.421
 8672SOL     OW26914   0.527   0.187   3.467
 8672SOL    HW126915   0.611   0.238   3.486
 8672SOL    HW226916   0.550   0.095   3.434
 8673SOL     OW26917   6.859   1.546   6.952
 8673SOL    HW126918   6.789   1.613   6.929
 8673SOL    HW226919   6.889   1.561   0.021
 8674SOL     OW26920   6.718   4.813   3.143
 8674SOL    HW126921   6.782   4.749   3.184
 8674SOL    HW226922   6.767   4.893   3.110
 8675SOL     OW26923   4.002   1.043   5.951
 8675SOL    HW126924   4.093   1.067   5.919
 8675SOL    HW226925   3.998   0.946   5.972
 8676SOL     OW26926   5.235   0.997   1.456
 8676SOL    HW126927   5.300   1.070   1.437
 8676SOL    HW226928   5.195   0.964   1.370
 8677SOL     OW26929   1.788   5.578   6.021
 8677SOL    HW126930   1.750   5.666   6.048
 8677SOL    HW226931   1.879   5.591   5.983
 8678SOL     OW26932   0.552   6.898   0.354
 8678SOL    HW126933   0.568   6.880   0.451
 8678SOL    HW226934   0.582   6.991   0.332
 8679SOL     OW26935   2.080   0.877   4.078
 8679SOL    HW126936   2.092   0.821   3.995
 8679SOL    HW226937   2.057   0.818   4.155
 8680SOL     OW26938   6.374   2.608   6.365
 8680SOL    HW126939   6.438   2.571   6.432
 8680SOL    HW226940   6.343   2.698   6.394
 8681SOL     OW26941   4.393   4.995   1.194
 8681SOL    HW126942   4.481   5.001   1.147
 8681SOL    HW226943   4.409   4.984   1.292
 8682SOL     OW26944   0.018   6.952   0.971
 8682SOL    HW126945   7.003   7.008   1.043
 8682SOL    HW226946   7.023   6.855   0.988
 8683SOL     OW26947   1.818   2.702   4.822
 8683SOL    HW126948   1.795   2.771   4.754
 8683SOL    HW226949   1.917   2.688   4.823
 8684SOL     OW26950   6.983   3.846   4.914
 8684SOL    HW126951   0.031   3.877   4.975
 8684SOL    HW226952   6.909   3.807   4.969
 8685SOL     OW26953   5.451   2.910   6.352
 8685SOL    HW126954   5.362   2.946   6.378
 8685SOL    HW226955   5.499   2.878   6.434
 8686SOL     OW26956   5.976   6.742   2.369
 8686SOL    HW126957   6.014   6.651   2.352
 8686SOL    HW226958   5.957   6.752   2.467
 8687SOL     OW26959   6.234   4.916   3.106
 8687SOL    HW126960   6.135   4.908   3.113
 8687SOL    HW226961   6.277   4.835   3.147
 8688SOL     OW26962   1.633   3.957   6.889
 8688SOL    HW126963   1.670   4.050   6.882
 8688SOL    HW226964   1.669   3.902   6.814
 8689SOL     OW26965   4.985   3.167   0.612
 8689SOL    HW126966   5.020   3.225   0.538
 8689SOL    HW226967   5.039   3.083   0.617
 8690SOL     OW26968   0.336   3.131   2.868
 8690SOL    HW126969   0.256   3.079   2.899
 8690SOL    HW226970   0.419   3.093   2.907
 8691SOL     OW26971   3.417   1.281   5.110
 8691SOL    HW126972   3.485   1.351   5.133
 8691SOL    HW226973   3.359   1.315   5.036
 8692SOL     OW26974   3.492   1.126   5.463
 8692SOL    HW126975   3.566   1.084   5.516
 8692SOL    HW226976   3.483   1.222   5.488
 8693SOL     OW26977   6.992   1.543   6.400
 8693SOL    HW126978   6.924   1.567   6.469
 8693SOL    HW226979   0.047   1.504   6.446
 8694SOL     OW26980   5.794   2.393   4.822
 8694SOL    HW126981   5.759   2.300   4.830
 8694SOL    HW226982   5.847   2.401   4.737
 8695SOL     OW26983   3.886   2.936   6.063
 8695SOL    HW126984   3.839   2.848   6.074
 8695SOL    HW226985   3.957   2.944   6.133
 8696SOL     OW26986   2.550   5.871   5.256
 8696SOL    HW126987   2.562   5.866   5.157
 8696SOL    HW226988   2.487   5.799   5.286
 8697SOL     OW26989   1.150   4.477   5.869
 8697SOL    HW126990   1.187   4.468   5.776
 8697SOL    HW226991   1.200   4.549   5.917
 8698SOL     OW26992   5.099   5.970   5.591
 8698SOL    HW126993   5.123   5.926   5.505
 8698SOL    HW226994   5.155   6.053   5.603
 8699SOL     OW26995   1.939   3.110   5.706
 8699SOL    HW126996   2.017   3.167   5.732
 8699SOL    HW226997   1.934   3.105   5.606
 8700SOL     OW26998   1.442   1.165   5.681
 8700SOL    HW126999   1.487   1.122   5.758
 8700SOL    HW227000   1.379   1.100   5.638
 8701SOL     OW27001   2.138   1.274   0.009
 8701SOL    HW127002   2.068   1.343   7.018
 8701SOL    HW227003   2.228   1.312   7.013
 8702SOL     OW27004   5.000   5.404   1.971
 8702SOL    HW127005   4.928   5.348   1.930
 8702SOL    HW227006   4.964   5.453   2.050
 8703SOL     OW27007   3.341   4.616   6.706
 8703SOL    HW127008   3.250   4.656   6.700
 8703SOL    HW227009   3.367   4.604   6.802
 8704SOL     OW27010   6.931   3.405   3.850
 8704SOL    HW127011   6.927   3.477   3.781
 8704SOL    HW227012   6.896   3.320   3.812
 8705SOL     OW27013   4.355   2.018   6.568
 8705SOL    HW127014   4.417   2.093   6.544
 8705SOL    HW227015   4.409   1.942   6.605
 8706SOL     OW27016   5.697   2.468   0.139
 8706SOL    HW127017   5.597   2.459   0.136
 8706SOL    HW227018   5.738   2.409   0.070
 8707SOL     OW27019   0.902   2.712   3.436
 8707SOL    HW127020   0.991   2.693   3.394
 8707SOL    HW227021   0.916   2.764   3.520
 8708SOL     OW27022   4.308   1.690   4.525
 8708SOL    HW127023   4.260   1.775   4.544
 8708SOL    HW227024   4.343   1.691   4.432
 8709SOL     OW27025   6.717   0.168   0.024
 8709SOL    HW127026   6.726   0.225   6.967
 8709SOL    HW227027   6.677   0.080   7.025
 8710SOL     OW27028   2.016   2.109   3.674
 8710SOL    HW127029   1.941   2.081   3.615
 8710SOL    HW227030   2.079   2.168   3.624
 8711SOL     OW27031   1.352   0.327   1.748
 8711SOL    HW127032   1.358   0.423   1.775
 8711SOL    HW227033   1.363   0.269   1.829
 8712SOL     OW27034   2.970   1.874   4.481
 8712SOL    HW127035   3.016   1.797   4.526
 8712SOL    HW227036   3.034   1.951   4.473
 8713SOL     OW27037   0.271   4.146   1.331
 8713SOL    HW127038   0.309   4.071   1.276
 8713SOL    HW227039   0.276   4.231   1.279
 8714SOL     OW27040   0.723   6.428   6.973
 8714SOL    HW127041   0.793   6.497   6.961
 8714SOL    HW227042   0.732   6.386   0.038
 8715SOL     OW27043   3.218   1.652   0.085
 8715SOL    HW127044   3.243   1.735   0.136
 8715SOL    HW227045   3.187   1.678   7.019
 8716SOL     OW27046   6.767   6.776   0.747
 8716SOL    HW127047   6.719   6.836   0.683
 8716SOL    HW227048   6.822   6.832   0.809
 8717SOL     OW27049   2.635   3.320   5.971
 8717SOL    HW127050   2.559   3.256   5.981
 8717SOL    HW227051   2.629   3.366   5.882
 8718SOL     OW27052   1.454   2.651   6.326
 8718SOL    HW127053   1.492   2.689   6.410
 8718SOL    HW227054   1.428   2.726   6.264
 8719SOL     OW27055   4.252   1.196   0.047
 8719SOL    HW127056   4.212   1.113   0.007
 8719SOL    HW227057   4.178   1.256   0.079
 8720SOL     OW27058   0.025   5.380   5.770
 8720SOL    HW127059   0.004   5.390   5.868
 8720SOL    HW227060   0.110   5.328   5.760
 8721SOL     OW27061   6.268   0.206   0.490
 8721SOL    HW127062   6.222   0.159   0.564
 8721SOL    HW227063   6.220   0.291   0.468
 8722SOL     OW27064   3.520   0.964   0.439
 8722SOL    HW127065   3.548   0.955   0.534
 8722SOL    HW227066   3.469   1.049   0.426
 8723SOL     OW27067   5.688   6.766   2.331
 8723SOL    HW127068   5.784   6.788   2.344
 8723SOL    HW227069   5.634   6.808   2.404
 8724SOL     OW27070   5.390   0.340   4.280
 8724SOL    HW127071   5.342   0.274   4.338
 8724SOL    HW227072   5.455   0.291   4.221
 8725SOL     OW27073   0.656   6.232   4.415
 8725SOL    HW127074   0.670   6.147   4.466
 8725SOL    HW227075   0.599   6.293   4.469
 8726SOL     OW27076   0.053   1.224   0.671
 8726SOL    HW127077   7.016   1.148   0.693
 8726SOL    HW227078   0.103   1.251   0.753
 8727SOL     OW27079   5.667   6.946   0.222
 8727SOL    HW127080   5.687   6.903   0.134
 8727SOL    HW227081   5.644   0.017   0.207
 8728SOL     OW27082   5.448   1.318   2.283
 8728SOL    HW127083   5.398   1.232   2.268
 8728SOL    HW227084   5.382   1.393   2.294
 8729SOL     OW27085   2.841   5.171   5.432
 8729SOL    HW127086   2.835   5.203   5.338
 8729SOL    HW227087   2.846   5.072   5.433
 8730SOL     OW27088   4.756   4.559   3.124
 8730SOL    HW127089   4.719   4.645   3.158
 8730SOL    HW227090   4.738   4.551   3.026
 8731SOL     OW27091   1.000   3.089   3.094
 8731SOL    HW127092   0.952   3.044   3.169
 8731SOL    HW227093   1.091   3.117   3.123
 8732SOL     OW27094   5.193   4.504   1.622
 8732SOL    HW127095   5.110   4.457   1.651
 8732SOL    HW227096   5.273   4.462   1.664
 8733SOL     OW27097   0.779   5.829   0.976
 8733SOL    HW127098   0.810   5.924   0.973
 8733SOL    HW227099   0.838   5.776   1.037
 8734SOL     OW27100   6.850   3.313   2.469
 8734SOL    HW127101   6.865   3.260   2.553
 8734SOL    HW227102   6.907   3.395   2.472
 8735SOL     OW27103   1.174   3.438   5.108
 8735SOL    HW127104   1.115   3.414   5.185
 8735SOL    HW227105   1.227   3.520   5.131
 8736SOL     OW27106   0.522   5.270   2.292
 8736SOL    HW127107   0.521   5.213   2.374
 8736SOL    HW227108   0.505   5.213   2.212
 8737SOL     OW27109   2.547   6.374   6.147
 8737SOL    HW127110   2.558   6.431   6.066
 8737SOL    HW227111   2.518   6.431   6.224
 8738SOL     OW27112   1.625   4.392   3.220
 8738SOL    HW127113   1.543   4.371   3.273
 8738SOL    HW227114   1.656   4.485   3.241
 8739SOL     OW27115   5.305   4.333   5.148
 8739SOL    HW127116   5.287   4.324   5.050
 8739SOL    HW227117   5.314   4.243   5.189
 8740SOL     OW27118   3.712   2.130   2.632
 8740SOL    HW127119   3.792   2.184   2.605
 8740SOL    HW227120   3.671   2.088   2.550
 8741SOL     OW27121   2.639   0.129   2.279
 8741SOL    HW127122   2.632   0.034   2.249
 8741SOL    HW227123   2.611   0.190   2.205
 8742SOL     OW27124   3.850   0.581   2.338
 8742SOL    HW127125   3.872   0.671   2.375
 8742SOL    HW227126   3.753   0.562   2.351
 8743SOL     OW27127   1.883   1.389   2.059
 8743SOL    HW127128   1.925   1.444   1.987
 8743SOL    HW227129   1.858   1.448   2.135
 8744SOL     OW27130   4.548   2.766   0.510
 8744SOL    HW127131   4.494   2.683   0.496
 8744SOL    HW227132   4.525   2.806   0.599
 8745SOL     OW27133   0.021   2.408   6.185
 8745SOL    HW127134   0.097   2.387   6.123
 8745SOL    HW227135   0.051   2.398   6.280
 8746SOL     OW27136   4.945   5.779   4.452
 8746SOL    HW127137   5.013   5.778   4.525
 8746SOL    HW227138   4.965   5.706   4.387
 8747SOL     OW27139   6.936   1.430   2.084
 8747SOL    HW127140   6.990   1.379   2.150
 8747SOL    HW227141   6.885   1.502   2.131
 8748SOL     OW27142   0.975   1.822   4.217
 8748SOL    HW127143   0.891   1.862   4.254
 8748SOL    HW227144   0.961   1.796   4.122
 8749SOL     OW27145   1.844   1.215   5.097
 8749SOL    HW127146   1.816   1.284   5.164
 8749SOL    HW227147   1.803   1.127   5.121
 8750SOL     OW27148   4.101   3.166   5.291
 8750SOL    HW127149   4.186   3.202   5.330
 8750SOL    HW227150   4.106   3.067   5.286
 8751SOL     OW27151   6.730   0.409   0.936
 8751SOL    HW127152   6.792   0.403   1.015
 8751SOL    HW227153   6.754   0.488   0.880
 8752SOL     OW27154   5.146   2.810   6.647
 8752SOL    HW127155   5.165   2.821   6.744
 8752SOL    HW227156   5.178   2.891   6.597
 8753SOL     OW27157   2.436   4.089   6.747
 8753SOL    HW127158   2.505   4.133   6.689
 8753SOL    HW227159   2.346   4.100   6.705
 8754SOL     OW27160   2.973   4.731   5.804
 8754SOL    HW127161   3.069   4.705   5.790
 8754SOL    HW227162   2.958   4.824   5.771
 8755SOL     OW27163   1.587   0.945   1.226
 8755SOL    HW127164   1.506   0.887   1.228
 8755SOL    HW227165   1.656   0.911   1.290
 8756SOL     OW27166   1.906   2.777   3.547
 8756SOL    HW127167   1.817   2.732   3.541
 8756SOL    HW227168   1.971   2.716   3.591
 8757SOL     OW27169   4.778   6.009   6.116
 8757SOL    HW127170   4.730   6.018   6.028
 8757SOL    HW227171   4.849   6.080   6.122
 8758SOL     OW27172   4.192   6.772   3.709
 8758SOL    HW127173   4.229   6.840   3.646
 8758SOL    HW227174   4.097   6.754   3.686
 8759SOL     OW27175   6.219   2.033   0.153
 8759SOL    HW127176   6.126   1.998   0.168
 8759SOL    HW227177   6.226   2.126   0.189
 8760SOL     OW27178   2.325   2.130   4.126
 8760SOL    HW127179   2.321   2.207   4.062
 8760SOL    HW227180   2.409   2.136   4.180
 8761SOL     OW27181   6.022   2.188   1.953
 8761SOL    HW127182   5.985   2.252   1.886
 8761SOL    HW227183   5.950   2.162   2.018
 8762SOL     OW27184   1.748   5.844   3.641
 8762SOL    HW127185   1.758   5.899   3.724
 8762SOL    HW227186   1.669   5.877   3.589
 8763SOL     OW27187   6.449   0.590   5.006
 8763SOL    HW127188   6.381   0.611   5.077
 8763SOL    HW227189   6.533   0.641   5.025
 8764SOL     OW27190   4.561   5.813   6.245
 8764SOL    HW127191   4.633   5.844   6.182
 8764SOL    HW227192   4.480   5.872   6.235
 8765SOL     OW27193   5.382   1.220   5.075
 8765SOL    HW127194   5.383   1.269   5.162
 8765SOL    HW227195   5.471   1.230   5.030
 8766SOL     OW27196   4.175   4.408   5.374
 8766SOL    HW127197   4.231   4.444   5.299
 8766SOL    HW227198   4.205   4.316   5.396
 8767SOL     OW27199   3.455   7.014   3.972
 8767SOL    HW127200   3.500   0.005   3.885
 8767SOL    HW227201   3.507   6.947   4.026
 8768SOL     OW27202   1.131   2.096   0.720
 8768SOL    HW127203   1.104   2.000   0.728
 8768SOL    HW227204   1.063   2.146   0.667
 8769SOL     OW27205   0.042   1.132   2.066
 8769SOL    HW127206   0.083   1.041   2.058
 8769SOL    HW227207   0.099   1.189   2.127
 8770SOL     OW27208   5.409   4.626   2.031
 8770SOL    HW127209   5.465   4.708   2.021
 8770SOL    HW227210   5.320   4.641   1.989
 8771SOL     OW27211   0.553   3.071   6.060
 8771SOL    HW127212   0.498   3.064   5.977
 8771SOL    HW227213   0.632   3.130   6.042
 8772SOL     OW27214   5.033   0.587   5.600
 8772SOL    HW127215   5.118   0.621   5.640
 8772SOL    HW227216   4.966   0.571   5.673
 8773SOL     OW27217   5.754   2.289   3.610
 8773SOL    HW127218   5.847   2.324   3.620
 8773SOL    HW227219   5.694   2.332   3.678
 8774SOL     OW27220   0.500   6.772   6.528
 8774SOL    HW127221   0.597   6.764   6.550
 8774SOL    HW227222   0.491   6.814   6.437
 8775SOL     OW27223   5.415   1.509   5.537
 8775SOL    HW127224   5.473   1.585   5.563
 8775SOL    HW227225   5.443   1.427   5.587
 8776SOL     OW27226   4.967   3.096   1.535
 8776SOL    HW127227   4.900   3.141   1.594
 8776SOL    HW227228   5.043   3.062   1.590
 8777SOL     OW27229   0.592   3.290   3.123
 8777SOL    HW127230   0.547   3.366   3.169
 8777SOL    HW227231   0.690   3.292   3.142
 8778SOL     OW27232   4.754   3.931   5.984
 8778SOL    HW127233   4.716   3.901   6.072
 8778SOL    HW227234   4.725   4.024   5.965
 8779SOL     OW27235   2.743   5.891   2.297
 8779SOL    HW127236   2.653   5.848   2.300
 8779SOL    HW227237   2.769   5.908   2.202
 8780SOL     OW27238   0.341   6.066   2.924
 8780SOL    HW127239   0.266   6.094   2.864
 8780SOL    HW227240   0.367   5.972   2.903
 8781SOL     OW27241   4.288   6.844   2.972
 8781SOL    HW127242   4.243   6.756   2.954
 8781SOL    HW227243   4.376   6.827   3.017
 8782SOL     OW27244   6.169   1.185   2.148
 8782SOL    HW127245   6.169   1.145   2.057
 8782SOL    HW227246   6.078   1.178   2.188
 8783SOL     OW27247   6.098   3.640   4.184
 8783SOL    HW127248   6.029   3.577   4.147
 8783SOL    HW227249   6.069   3.734   4.166
 8784SOL     OW27250   6.339   6.376   0.859
 8784SOL    HW127251   6.372   6.456   0.809
 8784SOL    HW227252   6.395   6.363   0.941
 8785SOL     OW27253   0.704   5.423   5.924
 8785SOL    HW127254   0.734   5.508   5.881
 8785SOL    HW227255   0.676   5.358   5.854
 8786SOL     OW27256   3.667   1.931   2.821
 8786SOL    HW127257   3.575   1.904   2.792
 8786SOL    HW227258   3.697   2.010   2.768
 8787SOL     OW27259   3.200   0.598   1.543
 8787SOL    HW127260   3.165   0.681   1.587
 8787SOL    HW227261   3.287   0.618   1.498
 8788SOL     OW27262   6.628   1.049   5.024
 8788SOL    HW127263   6.715   1.001   5.032
 8788SOL    HW227264   6.629   1.130   5.082
 8789SOL     OW27265   6.595   3.982   5.310
 8789SOL    HW127266   6.603   4.030   5.222
 8789SOL    HW227267   6.630   4.040   5.383
 8790SOL     OW27268   6.327   1.764   0.181
 8790SOL    HW127269   6.337   1.697   0.108
 8790SOL    HW227270   6.294   1.851   0.143
 8791SOL     OW27271   4.572   6.613   4.910
 8791SOL    HW127272   4.601   6.591   5.003
 8791SOL    HW227273   4.618   6.552   4.846
 8792SOL     OW27274   3.291   5.184   2.780
 8792SOL    HW127275   3.226   5.119   2.739
 8792SOL    HW227276   3.251   5.276   2.779
 8793SOL     OW27277   1.007   4.747   4.110
 8793SOL    HW127278   0.965   4.799   4.184
 8793SOL    HW227279   0.998   4.798   4.025
 8794SOL     OW27280   6.305   1.140   3.683
 8794SOL    HW127281   6.301   1.136   3.583
 8794SOL    HW227282   6.232   1.083   3.721
 8795SOL     OW27283   1.354   4.998   5.121
 8795SOL    HW127284   1.386   4.907   5.145
 8795SOL    HW227285   1.301   5.036   5.197
 8796SOL     OW27286   5.868   3.789   3.448
 8796SOL    HW127287   5.851   3.715   3.513
 8796SOL    HW227288   5.960   3.780   3.409
 8797SOL     OW27289   6.923   6.975   4.471
 8797SOL    HW127290   6.898   6.929   4.556
 8797SOL    HW227291   7.021   6.966   4.456
 8798SOL     OW27292   4.595   6.568   5.668
 8798SOL    HW127293   4.554   6.564   5.759
 8798SOL    HW227294   4.642   6.655   5.656
 8799SOL     OW27295   2.545   4.899   2.371
 8799SOL    HW127296   2.625   4.941   2.414
 8799SOL    HW227297   2.566   4.805   2.345
 8800SOL     OW27298   5.805   6.011   5.757
 8800SOL    HW127299   5.877   6.038   5.821
 8800SOL    HW227300   5.838   6.022   5.663
 8801SOL     OW27301   5.872   2.145   5.227
 8801SOL    HW127302   5.937   2.140   5.302
 8801SOL    HW227303   5.788   2.190   5.258
 8802SOL     OW27304   1.380   5.783   5.331
 8802SOL    HW127305   1.355   5.880   5.337
 8802SOL    HW227306   1.462   5.767   5.386
 8803SOL     OW27307   6.984   1.220   0.136
 8803SOL    HW127308   0.044   1.186   0.178
 8803SOL    HW227309   6.909   1.211   0.202
 8804SOL     OW27310   1.876   6.352   1.057
 8804SOL    HW127311   1.836   6.421   1.117
 8804SOL    HW227312   1.808   6.321   0.991
 8805SOL     OW27313   4.199   5.317   3.727
 8805SOL    HW127314   4.238   5.406   3.750
 8805SOL    HW227315   4.260   5.245   3.759
 8806SOL     OW27316   2.392   5.880   0.714
 8806SOL    HW127317   2.411   5.952   0.781
 8806SOL    HW227318   2.378   5.793   0.762
 8807SOL     OW27319   4.290   2.063   6.940
 8807SOL    HW127320   4.226   2.008   6.995
 8807SOL    HW227321   4.316   2.011   6.859
 8808SOL     OW27322   0.533   2.466   6.704
 8808SOL    HW127323   0.627   2.486   6.733
 8808SOL    HW227324   0.535   2.400   6.629
 8809SOL     OW27325   2.174   3.934   3.104
 8809SOL    HW127326   2.162   3.845   3.147
 8809SOL    HW227327   2.214   3.998   3.171
 8810SOL     OW27328   5.947   1.345   5.166
 8810SOL    HW127329   5.959   1.273   5.235
 8810SOL    HW227330   6.003   1.424   5.191
 8811SOL     OW27331   4.476   0.260   2.832
 8811SOL    HW127332   4.432   0.311   2.906
 8811SOL    HW227333   4.490   0.321   2.754
 8812SOL     OW27334   3.027   0.204   6.634
 8812SOL    HW127335   3.089   0.207   6.712
 8812SOL    HW227336   3.076   0.171   6.554
 8813SOL     OW27337   2.395   4.358   2.486
 8813SOL    HW127338   2.331   4.376   2.411
 8813SOL    HW227339   2.390   4.262   2.512
 8814SOL     OW27340   5.486   6.673   0.289
 8814SOL    HW127341   5.553   6.600   0.301
 8814SOL    HW227342   5.533   6.758   0.264
 8815SOL     OW27343   5.444   0.363   1.298
 8815SOL    HW127344   5.480   0.341   1.388
 8815SOL    HW227345   5.352   0.400   1.307
 8816SOL     OW27346   0.070   6.837   6.856
 8816SOL    HW127347   0.120   6.796   6.932
 8816SOL    HW227348   0.087   6.784   6.773
 8817SOL     OW27349   0.913   3.381   4.142
 8817SOL    HW127350   0.940   3.356   4.236
 8817SOL    HW227351   0.916   3.480   4.132
 8818SOL     OW27352   1.538   6.801   2.760
 8818SOL    HW127353   1.556   6.703   2.763
 8818SOL    HW227354   1.615   6.851   2.799
 8819SOL     OW27355   6.031   4.494   5.058
 8819SOL    HW127356   5.963   4.421   5.073
 8819SOL    HW227357   6.021   4.563   5.129
 8820SOL     OW27358   3.310   1.172   4.767
 8820SOL    HW127359   3.342   1.096   4.824
 8820SOL    HW227360   3.389   1.229   4.741
 8821SOL     OW27361   1.053   5.075   0.270
 8821SOL    HW127362   1.137   5.112   0.229
 8821SOL    HW227363   0.984   5.147   0.277
 8822SOL     OW27364   0.110   0.368   3.121
 8822SOL    HW127365   0.083   0.464   3.114
 8822SOL    HW227366   0.124   0.345   3.218
 8823SOL     OW27367   2.210   0.566   2.519
 8823SOL    HW127368   2.142   0.493   2.518
 8823SOL    HW227369   2.300   0.528   2.497
 8824SOL     OW27370   1.614   0.100   1.356
 8824SOL    HW127371   1.663   0.014   1.370
 8824SOL    HW227372   1.568   0.127   1.440
 8825SOL     OW27373   0.404   0.599   1.703
 8825SOL    HW127374   0.369   0.632   1.615
 8825SOL    HW227375   0.350   0.520   1.733
 8826SOL     OW27376   0.996   3.408   1.087
 8826SOL    HW127377   1.048   3.489   1.115
 8826SOL    HW227378   1.058   3.332   1.071
 8827SOL     OW27379   3.956   0.435   2.600
 8827SOL    HW127380   3.956   0.465   2.505
 8827SOL    HW227381   3.907   0.503   2.656
 8828SOL     OW27382   3.989   4.390   6.239
 8828SOL    HW127383   4.082   4.357   6.257
 8828SOL    HW227384   3.960   4.449   6.313
 8829SOL     OW27385   6.275   1.820   1.911
 8829SOL    HW127386   6.329   1.753   1.861
 8829SOL    HW227387   6.335   1.871   1.974
 8830SOL     OW27388   1.564   1.635   2.509
 8830SOL    HW127389   1.584   1.733   2.514
 8830SOL    HW227390   1.600   1.598   2.424
 8831SOL     OW27391   6.376   3.090   2.337
 8831SOL    HW127392   6.375   3.190   2.334
 8831SOL    HW227393   6.364   3.054   2.244
 8832SOL     OW27394   6.984   6.377   4.409
 8832SOL    HW127395   6.919   6.309   4.376
 8832SOL    HW227396   0.001   6.345   4.495
 8833SOL     OW27397   3.722   3.806   0.268
 8833SOL    HW127398   3.758   3.796   0.176
 8833SOL    HW227399   3.710   3.903   0.288
 8834SOL     OW27400   6.027   3.536   5.041
 8834SOL    HW127401   5.940   3.496   5.071
 8834SOL    HW227402   6.047   3.506   4.948
 8835SOL     OW27403   6.052   1.240   5.976
 8835SOL    HW127404   6.108   1.320   5.993
 8835SOL    HW227405   6.059   1.178   6.054
 8836SOL     OW27406   6.273   2.200   0.623
 8836SOL    HW127407   6.186   2.231   0.662
 8836SOL    HW227408   6.342   2.271   0.634
 8837SOL     OW27409   0.114   0.477   2.029
 8837SOL    HW127410   0.044   0.422   1.985
 8837SOL    HW227411   0.194   0.420   2.048
 8838SOL     OW27412   0.533   4.908   2.245
 8838SOL    HW127413   0.467   4.949   2.308
 8838SOL    HW227414   0.522   4.809   2.244
 8839SOL     OW27415   4.563   5.894   2.312
 8839SOL    HW127416   4.464   5.901   2.299
 8839SOL    HW227417   4.590   5.949   2.391
 8840SOL     OW27418   6.035   0.621   1.880
 8840SOL    HW127419   6.009   0.716   1.864
 8840SOL    HW227420   5.965   0.575   1.935
 8841SOL     OW27421   4.834   1.123   2.522
 8841SOL    HW127422   4.815   1.024   2.525
 8841SOL    HW227423   4.751   1.173   2.546
 8842SOL     OW27424   3.148   4.078   4.023
 8842SOL    HW127425   3.126   4.018   3.947
 8842SOL    HW227426   3.090   4.160   4.019
 8843SOL     OW27427   1.893   3.106   4.665
 8843SOL    HW127428   1.965   3.106   4.733
 8843SOL    HW227429   1.871   3.012   4.639
 8844SOL     OW27430   6.927   2.352   5.201
 8844SOL    HW127431   6.898   2.266   5.159
 8844SOL    HW227432   6.998   2.332   5.269
 8845SOL     OW27433   2.385   5.044   0.918
 8845SOL    HW127434   2.300   5.097   0.917
 8845SOL    HW227435   2.460   5.100   0.884
 8846SOL     OW27436   5.459   5.103   4.263
 8846SOL    HW127437   5.412   5.059   4.339
 8846SOL    HW227438   5.436   5.200   4.260
 8847SOL     OW27439   1.610   0.790   2.703
 8847SOL    HW127440   1.532   0.825   2.756
 8847SOL    HW227441   1.598   0.693   2.685
 8848SOL     OW27442   3.154   2.083   2.038
 8848SOL    HW127443   3.096   2.112   2.114
 8848SOL    HW227444   3.111   2.107   1.951
 8849SOL     OW27445   3.044   4.886   3.855
 8849SOL    HW127446   3.138   4.901   3.884
 8849SOL    HW227447   2.983   4.943   3.909
 8850SOL     OW27448   2.931   1.028   1.083
 8850SOL    HW127449   2.950   0.941   1.128
 8850SOL    HW227450   3.003   1.094   1.106
 8851SOL     OW27451   0.924   4.562   2.149
 8851SOL    HW127452   0.935   4.584   2.246
 8851SOL    HW227453   0.974   4.479   2.127
 8852SOL     OW27454   4.846   3.005   6.330
 8852SOL    HW127455   4.940   3.013   6.362
 8852SOL    HW227456   4.830   3.072   6.257
 8853SOL     OW27457   3.938   0.490   4.373
 8853SOL    HW127458   3.923   0.570   4.314
 8853SOL    HW227459   4.029   0.453   4.357
 8854SOL     OW27460   2.254   0.659   6.277
 8854SOL    HW127461   2.291   0.716   6.203
 8854SOL    HW227462   2.192   0.713   6.333
 8855SOL     OW27463   6.771   5.976   0.245
 8855SOL    HW127464   6.797   5.898   0.302
 8855SOL    HW227465   6.774   6.060   0.299
 8856SOL     OW27466   6.526   6.938   5.267
 8856SOL    HW127467   6.582   6.962   5.346
 8856SOL    HW227468   6.448   7.000   5.260
 8857SOL     OW27469   6.207   1.652   3.548
 8857SOL    HW127470   6.147   1.683   3.474
 8857SOL    HW227471   6.187   1.557   3.571
 8858SOL     OW27472   1.930   3.076   5.441
 8858SOL    HW127473   1.992   3.007   5.404
 8858SOL    HW227474   1.974   3.165   5.439
 8859SOL     OW27475   0.366   6.787   5.417
 8859SOL    HW127476   0.458   6.790   5.378
 8859SOL    HW227477   0.299   6.780   5.344
 8860SOL     OW27478   1.683   3.885   2.636
 8860SOL    HW127479   1.671   3.970   2.687
 8860SOL    HW227480   1.670   3.903   2.539
 8861SOL     OW27481   3.101   2.471   6.446
 8861SOL    HW127482   3.146   2.532   6.381
 8861SOL    HW227483   3.027   2.422   6.400
 8862SOL     OW27484   5.984   1.345   3.671
 8862SOL    HW127485   5.984   1.323   3.573
 8862SOL    HW227486   6.079   1.356   3.701
 8863SOL     OW27487   1.661   5.284   4.563
 8863SOL    HW127488   1.573   5.257   4.602
 8863SOL    HW227489   1.654   5.376   4.525
 8864SOL     OW27490   2.491   3.406   6.189
 8864SOL    HW127491   2.408   3.460   6.180
 8864SOL    HW227492   2.552   3.424   6.112
 8865SOL     OW27493   3.264   0.986   4.538
 8865SOL    HW127494   3.169   1.006   4.565
 8865SOL    HW227495   3.322   1.065   4.557
 8866SOL     OW27496   4.655   6.822   3.785
 8866SOL    HW127497   4.633   6.909   3.741
 8866SOL    HW227498   4.571   6.769   3.800
 8867SOL     OW27499   5.121   2.893   3.251
 8867SOL    HW127500   5.129   2.966   3.184
 8867SOL    HW227501   5.086   2.810   3.206
 8868SOL     OW27502   5.673   3.759   0.585
 8868SOL    HW127503   5.756   3.745   0.639
 8868SOL    HW227504   5.675   3.699   0.505
 8869SOL     OW27505   4.238   5.143   3.327
 8869SOL    HW127506   4.218   5.079   3.402
 8869SOL    HW227507   4.155   5.160   3.274
 8870SOL     OW27508   3.063   0.191   0.543
 8870SOL    HW127509   2.987   0.219   0.483
 8870SOL    HW227510   3.040   0.211   0.638
 8871SOL     OW27511   3.308   1.708   3.678
 8871SOL    HW127512   3.360   1.633   3.636
 8871SOL    HW227513   3.314   1.701   3.778
 8872SOL     OW27514   1.728   3.970   4.165
 8872SOL    HW127515   1.745   3.984   4.263
 8872SOL    HW227516   1.814   3.980   4.115
 8873SOL     OW27517   6.228   5.891   2.117
 8873SOL    HW127518   6.234   5.967   2.181
 8873SOL    HW227519   6.132   5.862   2.108
 8874SOL     OW27520   2.237   0.031   1.212
 8874SOL    HW127521   2.156   0.008   1.157
 8874SOL    HW227522   2.304   6.983   1.205
 8875SOL     OW27523   0.989   2.303   4.568
 8875SOL    HW127524   0.911   2.338   4.620
 8875SOL    HW227525   1.063   2.370   4.570
 8876SOL     OW27526   0.651   0.458   4.803
 8876SOL    HW127527   0.679   0.516   4.880
 8876SOL    HW227528   0.587   0.509   4.745
 8877SOL     OW27529   2.781   0.545   4.103
 8877SOL    HW127530   2.740   0.564   4.192
 8877SOL    HW227531   2.788   0.630   4.050
 8878SOL     OW27532   0.844   4.825   0.917
 8878SOL    HW127533   0.812   4.740   0.875
 8878SOL    HW227534   0.767   4.872   0.959
 8879SOL     OW27535   5.844   5.088   1.166
 8879SOL    HW127536   5.872   5.050   1.078
 8879SOL    HW227537   5.798   5.175   1.151
 8880SOL     OW27538   0.228   5.863   4.559
 8880SOL    HW127539   0.261   5.955   4.576
 8880SOL    HW227540   0.294   5.797   4.596
 8881SOL     OW27541   5.679   6.973   3.467
 8881SOL    HW127542   5.680   6.969   3.567
 8881SOL    HW227543   5.704   6.883   3.430
 8882SOL     OW27544   4.928   1.086   0.425
 8882SOL    HW127545   4.925   1.185   0.409
 8882SOL    HW227546   5.022   1.059   0.445
 8883SOL     OW27547   0.621   1.405   6.232
 8883SOL    HW127548   0.654   1.468   6.162
 8883SOL    HW227549   0.542   1.444   6.279
 8884SOL     OW27550   6.011   6.413   6.744
 8884SOL    HW127551   5.942   6.453   6.683
 8884SOL    HW227552   6.096   6.397   6.694
 8885SOL     OW27553   6.635   3.765   1.376
 8885SOL    HW127554   6.570   3.839   1.390
 8885SOL    HW227555   6.645   3.748   1.278
 8886SOL     OW27556   3.036   5.940   5.881
 8886SOL    HW127557   3.068   5.851   5.850
 8886SOL    HW227558   2.980   5.928   5.963
 8887SOL     OW27559   3.132   1.487   1.074
 8887SOL    HW127560   3.214   1.532   1.110
 8887SOL    HW227561   3.147   1.463   0.978
 8888SOL     OW27562   1.111   2.173   1.391
 8888SOL    HW127563   1.011   2.179   1.397
 8888SOL    HW227564   1.151   2.224   1.467
 8889SOL     OW27565   5.313   6.428   6.058
 8889SOL    HW127566   5.276   6.429   5.965
 8889SOL    HW227567   5.413   6.429   6.055
 8890SOL     OW27568   6.384   5.990   4.768
 8890SOL    HW127569   6.409   6.036   4.854
 8890SOL    HW227570   6.433   6.032   4.692
 8891SOL     OW27571   6.635   3.254   6.315
 8891SOL    HW127572   6.546   3.286   6.348
 8891SOL    HW227573   6.696   3.332   6.303
 8892SOL     OW27574   2.705   6.244   3.843
 8892SOL    HW127575   2.701   6.165   3.781
 8892SOL    HW227576   2.741   6.323   3.794
 8893SOL     OW27577   0.938   0.647   1.986
 8893SOL    HW127578   0.888   0.626   1.902
 8893SOL    HW227579   0.906   0.589   2.060
 8894SOL     OW27580   3.671   3.105   6.038
 8894SOL    HW127581   3.654   3.123   5.941
 8894SOL    HW227582   3.758   3.057   6.050
 8895SOL     OW27583   7.010   0.732   2.029
 8895SOL    HW127584   6.921   0.729   1.984
 8895SOL    HW227585   0.030   0.643   2.022
 8896SOL     OW27586   1.447   3.062   4.615
 8896SOL    HW127587   1.517   3.070   4.544
 8896SOL    HW227588   1.490   3.072   4.705
 8897SOL     OW27589   1.282   1.819   2.754
 8897SOL    HW127590   1.316   1.906   2.718
 8897SOL    HW227591   1.270   1.754   2.679
 8898SOL     OW27592   5.935   3.358   4.281
 8898SOL    HW127593   5.856   3.301   4.304
 8898SOL    HW227594   5.978   3.390   4.366
 8899SOL     OW27595   1.673   4.231   0.027
 8899SOL    HW127596   1.756   4.187   0.060
 8899SOL    HW227597   1.676   4.235   6.952
 8900SOL     OW27598   5.518   3.919   2.922
 8900SOL    HW127599   5.422   3.906   2.947
 8900SOL    HW227600   5.569   3.955   3.000
 8901SOL     OW27601   2.757   0.795   3.993
 8901SOL    HW127602   2.746   0.830   4.087
 8901SOL    HW227603   2.785   0.870   3.933
 8902SOL     OW27604   3.180   5.997   6.608
 8902SOL    HW127605   3.237   5.916   6.594
 8902SOL    HW227606   3.093   5.970   6.649
 8903SOL     OW27607   2.277   0.607   4.133
 8903SOL    HW127608   2.234   0.664   4.062
 8903SOL    HW227609   2.325   0.666   4.198
 8904SOL     OW27610   0.052   5.138   3.704
 8904SOL    HW127611   7.003   5.095   3.755
 8904SOL    HW227612   0.138   5.093   3.728
 8905SOL     OW27613   2.063   3.997   4.352
 8905SOL    HW127614   1.973   4.012   4.393
 8905SOL    HW227615   2.070   3.902   4.320
 8906SOL     OW27616   6.622   6.944   6.959
 8906SOL    HW127617   6.630   6.869   6.893
 8906SOL    HW227618   6.673   6.922   0.017
 8907SOL     OW27619   3.451   2.140   5.051
 8907SOL    HW127620   3.403   2.218   5.011
 8907SOL    HW227621   3.441   2.143   5.151
 8908SOL     OW27622   1.302   2.978   6.926
 8908SOL    HW127623   1.349   2.890   6.935
 8908SOL    HW227624   1.297   3.023   7.015
 8909SOL     OW27625   2.185   0.093   4.982
 8909SOL    HW127626   2.190   0.024   5.054
 8909SOL    HW227627   2.121   0.165   5.010
 8910SOL     OW27628   1.873   3.007   6.163
 8910SOL    HW127629   1.814   2.929   6.144
 8910SOL    HW227630   1.969   2.980   6.153
 8911SOL     OW27631   4.111   2.040   4.885
 8911SOL    HW127632   4.141   2.015   4.976
 8911SOL    HW227633   4.170   2.113   4.849
 8912SOL     OW27634   4.056   1.498   6.838
 8912SOL    HW127635   4.038   1.547   6.923
 8912SOL    HW227636   4.041   1.400   6.853
 8913SOL     OW27637   4.859   5.072   0.750
 8913SOL    HW127638   4.921   5.061   0.672
 8913SOL    HW227639   4.776   5.019   0.734
 8914SOL     OW27640   4.344   0.709   5.710
 8914SOL    HW127641   4.388   0.740   5.626
 8914SOL    HW227642   4.380   0.761   5.788
 8915SOL     OW27643   0.875   2.565   3.935
 8915SOL    HW127644   0.786   2.526   3.913
 8915SOL    HW227645   0.863   2.651   3.984
 8916SOL     OW27646   0.632   3.444   2.081
 8916SOL    HW127647   0.635   3.403   2.172
 8916SOL    HW227648   0.666   3.378   2.014
 8917SOL     OW27649   5.899   5.170   6.141
 8917SOL    HW127650   5.909   5.249   6.081
 8917SOL    HW227651   5.856   5.198   6.227
 8918SOL     OW27652   6.950   6.088   1.089
 8918SOL    HW127653   0.002   6.050   1.141
 8918SOL    HW227654   6.914   6.019   1.027
 8919SOL     OW27655   4.241   3.049   0.712
 8919SOL    HW127656   4.150   3.037   0.751
 8919SOL    HW227657   4.233   3.065   0.613
 8920SOL     OW27658   6.880   6.430   6.898
 8920SOL    HW127659   6.813   6.474   6.958
 8920SOL    HW227660   6.972   6.460   6.923
 8921SOL     OW27661   2.191   1.443   3.055
 8921SOL    HW127662   2.241   1.497   3.122
 8921SOL    HW227663   2.219   1.347   3.062
 8922SOL     OW27664   2.539   5.057   1.137
 8922SOL    HW127665   2.467   5.050   1.068
 8922SOL    HW227666   2.571   4.965   1.162
 8923SOL     OW27667   1.908   3.636   6.324
 8923SOL    HW127668   1.972   3.708   6.297
 8923SOL    HW227669   1.839   3.625   6.252
 8924SOL     OW27670   3.072   5.676   5.804
 8924SOL    HW127671   2.974   5.675   5.784
 8924SOL    HW227672   3.122   5.702   5.722
 8925SOL     OW27673   1.081   0.249   2.115
 8925SOL    HW127674   1.167   0.289   2.081
 8925SOL    HW227675   1.013   0.321   2.125
 8926SOL     OW27676   5.605   3.010   1.015
 8926SOL    HW127677   5.565   3.080   1.074
 8926SOL    HW227678   5.606   3.042   0.921
 8927SOL     OW27679   1.945   1.892   4.940
 8927SOL    HW127680   1.963   1.924   4.848
 8927SOL    HW227681   1.857   1.929   4.972
 8928SOL     OW27682   7.020   0.886   5.107
 8928SOL    HW127683   6.995   0.976   5.143
 8928SOL    HW227684   0.083   0.891   5.062
 8929SOL     OW27685   0.333   3.644   3.548
 8929SOL    HW127686   0.378   3.729   3.518
 8929SOL    HW227687   0.341   3.636   3.648
 8930SOL     OW27688   1.838   4.928   4.776
 8930SOL    HW127689   1.791   4.955   4.860
 8930SOL    HW227690   1.776   4.872   4.720
 8931SOL     OW27691   3.731   2.760   0.307
 8931SOL    HW127692   3.815   2.800   0.346
 8931SOL    HW227693   3.653   2.819   0.329
 8932SOL     OW27694   5.108   0.111   6.986
 8932SOL    HW127695   5.059   0.120   6.899
 8932SOL    HW227696   5.116   0.014   7.009
 8933SOL     OW27697   0.883   2.142   5.548
 8933SOL    HW127698   0.895   2.057   5.497
 8933SOL    HW227699   0.805   2.132   5.610
 8934SOL     OW27700   2.824   5.158   3.746
 8934SOL    HW127701   2.758   5.233   3.746
 8934SOL    HW227702   2.797   5.089   3.678
 8935SOL     OW27703   5.100   4.001   2.018
 8935SOL    HW127704   5.007   4.026   1.991
 8935SOL    HW227705   5.139   3.941   1.948
 8936SOL     OW27706   0.533   3.408   0.689
 8936SOL    HW127707   0.458   3.377   0.746
 8936SOL    HW227708   0.620   3.379   0.729
 8937SOL     OW27709   0.255   1.133   4.010
 8937SOL    HW127710   0.308   1.112   3.928
 8937SOL    HW227711   0.291   1.079   4.087
 8938SOL     OW27712   6.825   1.700   0.767
 8938SOL    HW127713   6.765   1.705   0.687
 8938SOL    HW227714   6.914   1.662   0.740
 8939SOL     OW27715   6.739   2.797   4.821
 8939SOL    HW127716   6.786   2.733   4.881
 8939SOL    HW227717   6.744   2.764   4.727
 8940SOL     OW27718   5.800   2.404   0.394
 8940SOL    HW127719   5.883   2.454   0.420
 8940SOL    HW227720   5.758   2.448   0.314
 8941SOL     OW27721   4.739   2.094   1.883
 8941SOL    HW127722   4.827   2.067   1.921
 8941SOL    HW227723   4.738   2.194   1.870
 8942SOL     OW27724   0.379   5.197   4.086
 8942SOL    HW127725   0.453   5.180   4.152
 8942SOL    HW227726   0.415   5.191   3.993
 8943SOL     OW27727   4.239   4.246   0.221
 8943SOL    HW127728   4.218   4.153   0.193
 8943SOL    HW227729   4.261   4.248   0.319
 8944SOL     OW27730   4.750   4.905   4.482
 8944SOL    HW127731   4.791   4.987   4.442
 8944SOL    HW227732   4.812   4.868   4.552
 8945SOL     OW27733   6.793   3.140   5.020
 8945SOL    HW127734   6.778   3.216   4.957
 8945SOL    HW227735   6.864   3.165   5.086
 8946SOL     OW27736   3.771   0.199   4.649
 8946SOL    HW127737   3.751   0.262   4.574
 8946SOL    HW227738   3.856   0.225   4.694
 8947SOL     OW27739   1.869   3.993   6.331
 8947SOL    HW127740   1.945   3.945   6.286
 8947SOL    HW227741   1.900   4.084   6.359
 8948SOL     OW27742   6.487   6.346   3.925
 8948SOL    HW127743   6.461   6.430   3.972
 8948SOL    HW227744   6.563   6.365   3.862
 8949SOL     OW27745   3.503   5.402   7.002
 8949SOL    HW127746   3.497   5.421   6.905
 8949SOL    HW227747   3.527   5.486   0.026
 8950SOL     OW27748   4.588   3.294   1.315
 8950SOL    HW127749   4.499   3.302   1.270
 8950SOL    HW227750   4.575   3.296   1.414
 8951SOL     OW27751   2.060   1.273   4.418
 8951SOL    HW127752   2.137   1.252   4.478
 8951SOL    HW227753   2.051   1.372   4.408
 8952SOL     OW27754   1.943   4.991   3.508
 8952SOL    HW127755   2.037   5.023   3.519
 8952SOL    HW227756   1.916   4.935   3.586
 8953SOL     OW27757   2.412   5.138   1.530
 8953SOL    HW127758   2.349   5.083   1.584
 8953SOL    HW227759   2.445   5.214   1.585
 8954SOL     OW27760   0.750   5.744   4.022
 8954SOL    HW127761   0.819   5.698   3.967
 8954SOL    HW227762   0.664   5.748   3.971
 8955SOL     OW27763   6.963   2.878   2.780
 8955SOL    HW127764   6.929   2.795   2.823
 8955SOL    HW227765   6.916   2.891   2.692
 8956SOL     OW27766   0.730   0.252   6.766
 8956SOL    HW127767   0.680   0.331   6.731
 8956SOL    HW227768   0.721   0.247   6.865
 8957SOL     OW27769   1.794   5.308   1.793
 8957SOL    HW127770   1.733   5.354   1.728
 8957SOL    HW227771   1.739   5.257   1.859
 8958SOL     OW27772   1.405   2.675   4.889
 8958SOL    HW127773   1.363   2.759   4.853
 8958SOL    HW227774   1.376   2.597   4.834
 8959SOL     OW27775   1.179   3.573   2.217
 8959SOL    HW127776   1.128   3.551   2.300
 8959SOL    HW227777   1.202   3.488   2.169
 8960SOL     OW27778   6.950   5.031   4.124
 8960SOL    HW127779   7.003   5.110   4.155
 8960SOL    HW227780   6.856   5.059   4.104
 8961SOL     OW27781   3.791   0.651   4.131
 8961SOL    HW127782   3.749   0.732   4.172
 8961SOL    HW227783   3.795   0.662   4.032
 8962SOL     OW27784   0.452   6.219   2.213
 8962SOL    HW127785   0.423   6.311   2.241
 8962SOL    HW227786   0.540   6.225   2.165
 8963SOL     OW27787   3.386   6.027   4.377
 8963SOL    HW127788   3.350   6.013   4.469
 8963SOL    HW227789   3.480   5.994   4.372
 8964SOL     OW27790   5.527   4.201   2.678
 8964SOL    HW127791   5.472   4.277   2.710
 8964SOL    HW227792   5.546   4.212   2.580
 8965SOL     OW27793   3.200   4.722   0.477
 8965SOL    HW127794   3.139   4.655   0.434
 8965SOL    HW227795   3.294   4.686   0.478
 8966SOL     OW27796   6.660   5.367   6.239
 8966SOL    HW127797   6.755   5.350   6.213
 8966SOL    HW227798   6.643   5.466   6.237
 8967SOL     OW27799   4.209   0.746   3.455
 8967SOL    HW127800   4.308   0.759   3.460
 8967SOL    HW227801   4.164   0.812   3.515
 8968SOL     OW27802   2.555   4.704   1.539
 8968SOL    HW127803   2.485   4.737   1.603
 8968SOL    HW227804   2.642   4.691   1.587
 8969SOL     OW27805   0.618   0.375   3.181
 8969SOL    HW127806   0.539   0.392   3.240
 8969SOL    HW227807   0.686   0.321   3.232
 8970SOL     OW27808   1.304   2.600   6.778
 8970SOL    HW127809   1.346   2.516   6.745
 8970SOL    HW227810   1.352   2.679   6.739
 8971SOL     OW27811   4.562   6.733   1.302
 8971SOL    HW127812   4.469   6.728   1.338
 8971SOL    HW227813   4.568   6.807   1.235
 8972SOL     OW27814   5.687   4.580   0.812
 8972SOL    HW127815   5.782   4.579   0.781
 8972SOL    HW227816   5.684   4.611   0.907
 8973SOL     OW27817   0.167   2.575   2.544
 8973SOL    HW127818   0.261   2.546   2.525
 8973SOL    HW227819   0.163   2.674   2.550
 8974SOL     OW27820   2.080   3.745   3.740
 8974SOL    HW127821   2.118   3.833   3.768
 8974SOL    HW227822   2.061   3.747   3.642
 8975SOL     OW27823   0.296   6.565   6.587
 8975SOL    HW127824   0.311   6.517   6.674
 8975SOL    HW227825   0.362   6.640   6.579
 8976SOL     OW27826   6.493   6.623   0.728
 8976SOL    HW127827   6.499   6.606   0.630
 8976SOL    HW227828   6.586   6.632   0.766
 8977SOL     OW27829   0.239   4.923   6.602
 8977SOL    HW127830   0.326   4.971   6.589
 8977SOL    HW227831   0.163   4.986   6.586
 8978SOL     OW27832   4.906   6.501   5.129
 8978SOL    HW127833   4.944   6.466   5.043
 8978SOL    HW227834   4.942   6.592   5.147
 8979SOL     OW27835   1.149   5.023   6.428
 8979SOL    HW127836   1.199   5.109   6.430
 8979SOL    HW227837   1.168   4.974   6.343
 8980SOL     OW27838   4.354   2.097   5.688
 8980SOL    HW127839   4.449   2.065   5.697
 8980SOL    HW227840   4.296   2.020   5.660
 8981SOL     OW27841   4.553   2.554   5.670
 8981SOL    HW127842   4.645   2.584   5.646
 8981SOL    HW227843   4.559   2.475   5.731
 8982SOL     OW27844   6.746   1.720   1.904
 8982SOL    HW127845   6.685   1.733   1.825
 8982SOL    HW227846   6.733   1.629   1.941
 8983SOL     OW27847   1.288   5.338   1.528
 8983SOL    HW127848   1.241   5.255   1.557
 8983SOL    HW227849   1.251   5.417   1.576
 8984SOL     OW27850   6.243   0.047   4.485
 8984SOL    HW127851   6.334   0.089   4.485
 8984SOL    HW227852   6.175   0.114   4.512
 8985SOL     OW27853   4.557   2.000   0.815
 8985SOL    HW127854   4.506   2.085   0.801
 8985SOL    HW227855   4.578   1.958   0.727
 8986SOL     OW27856   5.449   4.379   2.378
 8986SOL    HW127857   5.484   4.451   2.317
 8986SOL    HW227858   5.492   4.292   2.354
 8987SOL     OW27859   3.132   0.565   1.279
 8987SOL    HW127860   3.118   0.470   1.249
 8987SOL    HW227861   3.148   0.566   1.378
 8988SOL     OW27862   1.891   5.552   0.838
 8988SOL    HW127863   1.984   5.561   0.874
 8988SOL    HW227864   1.834   5.624   0.875
 8989SOL     OW27865   5.070   3.063   3.027
 8989SOL    HW127866   5.089   3.156   3.057
 8989SOL    HW227867   5.004   3.066   2.952
 8990SOL     OW27868   2.764   6.043   1.166
 8990SOL    HW127869   2.852   6.074   1.129
 8990SOL    HW227870   2.704   6.122   1.180
 8991SOL     OW27871   2.392   2.604   1.755
 8991SOL    HW127872   2.445   2.603   1.670
 8991SOL    HW227873   2.447   2.568   1.830
 8992SOL     OW27874   0.650   3.036   0.211
 8992SOL    HW127875   0.605   2.970   0.271
 8992SOL    HW227876   0.600   3.123   0.214
 8993SOL     OW27877   4.964   2.188   3.567
 8993SOL    HW127878   4.966   2.178   3.467
 8993SOL    HW227879   4.885   2.242   3.594
 8994SOL     OW27880   1.832   4.689   4.408
 8994SOL    HW127881   1.830   4.696   4.507
 8994SOL    HW227882   1.903   4.624   4.380
 8995SOL     OW27883   1.237   2.425   5.314
 8995SOL    HW127884   1.261   2.472   5.399
 8995SOL    HW227885   1.180   2.346   5.335
 8996SOL     OW27886   0.410   3.675   1.245
 8996SOL    HW127887   0.325   3.621   1.248
 8996SOL    HW227888   0.441   3.694   1.338
 8997SOL     OW27889   5.192   0.951   5.994
 8997SOL    HW127890   5.213   0.874   6.053
 8997SOL    HW227891   5.277   0.994   5.963
 8998SOL     OW27892   6.860   2.094   5.031
 8998SOL    HW127893   6.918   2.013   5.036
 8998SOL    HW227894   6.826   2.104   4.938
 8999SOL     OW27895   4.812   0.779   6.242
 8999SOL    HW127896   4.716   0.768   6.268
 8999SOL    HW227897   4.834   0.877   6.237
 9000SOL     OW27898   3.061   4.295   6.738
 9000SOL    HW127899   3.052   4.331   6.646
 9000SOL    HW227900   3.138   4.339   6.784
 9001SOL     OW27901   1.246   4.768   3.024
 9001SOL    HW127902   1.314   4.780   3.097
 9001SOL    HW227903   1.178   4.841   3.031
 9002SOL     OW27904   6.906   5.427   5.532
 9002SOL    HW127905   6.975   5.393   5.596
 9002SOL    HW227906   6.825   5.456   5.582
 9003SOL     OW27907   6.161   2.554   0.757
 9003SOL    HW127908   6.067   2.526   0.775
 9003SOL    HW227909   6.222   2.507   0.820
 9004SOL     OW27910   5.341   6.919   1.851
 9004SOL    HW127911   5.320   6.939   1.947
 9004SOL    HW227912   5.423   6.862   1.846
 9005SOL     OW27913   5.171   2.384   3.951
 9005SOL    HW127914   5.240   2.396   4.022
 9005SOL    HW227915   5.190   2.301   3.900
 9006SOL     OW27916   1.409   5.619   1.154
 9006SOL    HW127917   1.403   5.711   1.115
 9006SOL    HW227918   1.422   5.553   1.081
 9007SOL     OW27919   3.436   5.347   3.364
 9007SOL    HW127920   3.349   5.309   3.332
 9007SOL    HW227921   3.433   5.357   3.463
 9008SOL     OW27922   6.491   4.829   2.228
 9008SOL    HW127923   6.545   4.910   2.249
 9008SOL    HW227924   6.552   4.753   2.205
 9009SOL     OW27925   2.808   6.688   1.041
 9009SOL    HW127926   2.862   6.658   0.962
 9009SOL    HW227927   2.867   6.737   1.105
 9010SOL     OW27928   1.089   6.844   4.640
 9010SOL    HW127929   1.180   6.817   4.671
 9010SOL    HW227930   1.052   6.773   4.579
 9011SOL     OW27931   3.774   2.199   1.484
 9011SOL    HW127932   3.847   2.157   1.429
 9011SOL    HW227933   3.813   2.238   1.567
 9012SOL     OW27934   2.142   5.864   0.505
 9012SOL    HW127935   2.198   5.790   0.543
 9012SOL    HW227936   2.045   5.843   0.518
 9013SOL     OW27937   6.287   5.828   4.539
 9013SOL    HW127938   6.281   5.869   4.630
 9013SOL    HW227939   6.209   5.857   4.484
 9014SOL     OW27940   1.489   1.389   0.253
 9014SOL    HW127941   1.416   1.402   0.185
 9014SOL    HW227942   1.564   1.452   0.233
 9015SOL     OW27943   7.020   1.296   6.904
 9015SOL    HW127944   0.012   1.266   6.998
 9015SOL    HW227945   6.983   1.389   6.905
 9016SOL     OW27946   6.545   6.444   5.496
 9016SOL    HW127947   6.511   6.485   5.581
 9016SOL    HW227948   6.538   6.511   5.422
 9017SOL     OW27949   6.048   2.356   3.615
 9017SOL    HW127950   6.021   2.269   3.656
 9017SOL    HW227951   6.141   2.379   3.642
 9018SOL     OW27952   3.569   1.491   5.180
 9018SOL    HW127953   3.606   1.533   5.097
 9018SOL    HW227954   3.574   1.557   5.256
 9019SOL     OW27955   2.113   6.462   6.806
 9019SOL    HW127956   2.155   6.547   6.775
 9019SOL    HW227957   2.152   6.436   6.894
 9020SOL     OW27958   1.942   3.985   2.267
 9020SOL    HW127959   1.868   4.051   2.277
 9020SOL    HW227960   1.905   3.896   2.239
 9021SOL     OW27961   6.720   6.419   3.766
 9021SOL    HW127962   6.758   6.359   3.837
 9021SOL    HW227963   6.760   6.510   3.775
 9022SOL     OW27964   2.656   0.421   0.526
 9022SOL    HW127965   2.676   0.490   0.595
 9022SOL    HW227966   2.594   0.352   0.565
 9023SOL     OW27967   3.560   3.737   3.289
 9023SOL    HW127968   3.658   3.731   3.272
 9023SOL    HW227969   3.544   3.802   3.364
 9024SOL     OW27970   1.497   5.888   6.192
 9024SOL    HW127971   1.516   5.974   6.145
 9024SOL    HW227972   1.582   5.838   6.207
 9025SOL     OW27973   6.153   5.782   1.319
 9025SOL    HW127974   6.127   5.853   1.254
 9025SOL    HW227975   6.252   5.765   1.313
 9026SOL     OW27976   3.429   3.301   3.975
 9026SOL    HW127977   3.410   3.307   3.877
 9026SOL    HW227978   3.506   3.238   3.990
 9027SOL     OW27979   2.679   1.750   3.433
 9027SOL    HW127980   2.733   1.810   3.492
 9027SOL    HW227981   2.669   1.661   3.477
 9028SOL     OW27982   1.640   4.614   6.340
 9028SOL    HW127983   1.724   4.617   6.393
 9028SOL    HW227984   1.594   4.527   6.356
 9029SOL     OW27985   3.938   4.930   4.787
 9029SOL    HW127986   3.844   4.926   4.754
 9029SOL    HW227987   3.940   4.969   4.879
 9030SOL     OW27988   2.040   0.359   2.460
 9030SOL    HW127989   2.031   0.384   2.363
 9030SOL    HW227990   2.114   0.293   2.471
 9031SOL     OW27991   3.109   5.392   5.487
 9031SOL    HW127992   3.128   5.488   5.466
 9031SOL    HW227993   3.148   5.369   5.576
 9032SOL     OW27994   3.782   2.812   1.034
 9032SOL    HW127995   3.732   2.848   0.955
 9032SOL    HW227996   3.870   2.776   1.003
 9033SOL     OW27997   2.247   3.064   4.108
 9033SOL    HW127998   2.237   3.107   4.018
 9033SOL    HW227999   2.338   3.086   4.145
 9034SOL     OW28000   2.794   6.773   5.182
 9034SOL    HW128001   2.868   6.738   5.240
 9034SOL    HW228002   2.821   6.765   5.086
 9035SOL     OW28003   0.627   6.706   5.291
 9035SOL    HW128004   0.716   6.738   5.322
 9035SOL    HW228005   0.631   6.685   5.193
 9036SOL     OW28006   2.359   2.363   5.314
 9036SOL    HW128007   2.305   2.439   5.350
 9036SOL    HW228008   2.445   2.356   5.366
 9037SOL     OW28009   2.293   3.720   6.349
 9037SOL    HW128010   2.298   3.659   6.428
 9037SOL    HW228011   2.359   3.795   6.360
 9038SOL     OW28012   5.862   1.005   5.920
 9038SOL    HW128013   5.867   1.098   5.957
 9038SOL    HW228014   5.924   0.945   5.971
 9039SOL     OW28015   1.922   4.163   5.109
 9039SOL    HW128016   2.011   4.158   5.063
 9039SOL    HW228017   1.870   4.080   5.089
 9040SOL     OW28018   2.753   0.547   3.302
 9040SOL    HW128019   2.727   0.617   3.235
 9040SOL    HW228020   2.835   0.579   3.352
 9041SOL     OW28021   0.607   1.847   2.129
 9041SOL    HW128022   0.571   1.770   2.076
 9041SOL    HW228023   0.617   1.820   2.225
 9042SOL     OW28024   2.331   6.660   3.640
 9042SOL    HW128025   2.256   6.609   3.598
 9042SOL    HW228026   2.330   6.645   3.739
 9043SOL     OW28027   2.126   1.984   5.796
 9043SOL    HW128028   2.109   1.904   5.854
 9043SOL    HW228029   2.104   2.067   5.847
 9044SOL     OW28030   6.379   1.465   0.535
 9044SOL    HW128031   6.395   1.402   0.459
 9044SOL    HW228032   6.373   1.412   0.620
 9045SOL     OW28033   4.150   0.830   3.000
 9045SOL    HW128034   4.098   0.745   2.992
 9045SOL    HW228035   4.149   0.861   3.095
 9046SOL     OW28036   3.573   4.099   5.431
 9046SOL    HW128037   3.601   4.168   5.364
 9046SOL    HW228038   3.474   4.107   5.447
 9047SOL     OW28039   2.080   4.071   5.488
 9047SOL    HW128040   2.019   3.994   5.470
 9047SOL    HW228041   2.159   4.066   5.427
 9048SOL     OW28042   1.740   3.662   6.051
 9048SOL    HW128043   1.839   3.664   6.062
 9048SOL    HW228044   1.714   3.711   5.968
 9049SOL     OW28045   4.732   6.143   6.615
 9049SOL    HW128046   4.729   6.045   6.634
 9049SOL    HW228047   4.677   6.164   6.534
 9050SOL     OW28048   1.010   5.063   6.901
 9050SOL    HW128049   0.965   4.975   6.890
 9050SOL    HW228050   1.093   5.052   6.955
 9051SOL     OW28051   4.191   6.326   1.057
 9051SOL    HW128052   4.172   6.423   1.077
 9051SOL    HW228053   4.129   6.294   0.986
 9052SOL     OW28054   2.578   4.724   4.515
 9052SOL    HW128055   2.549   4.817   4.538
 9052SOL    HW228056   2.609   4.722   4.420
 9053SOL     OW28057   2.430   2.364   4.022
 9053SOL    HW128058   2.482   2.311   3.956
 9053SOL    HW228059   2.492   2.400   4.092
 9054SOL     OW28060   1.892   0.527   2.598
 9054SOL    HW128061   1.794   0.518   2.578
 9054SOL    HW228062   1.943   0.464   2.540
 9055SOL     OW28063   0.477   3.857   3.469
 9055SOL    HW128064   0.530   3.921   3.525
 9055SOL    HW228065   0.518   3.850   3.378
 9056SOL     OW28066   4.660   0.513   1.301
 9056SOL    HW128067   4.564   0.502   1.325
 9056SOL    HW228068   4.672   0.595   1.245
 9057SOL     OW28069   6.223   4.826   6.265
 9057SOL    HW128070   6.130   4.857   6.246
 9057SOL    HW228071   6.262   4.784   6.183
 9058SOL     OW28072   2.110   2.207   4.884
 9058SOL    HW128073   2.156   2.200   4.972
 9058SOL    HW228074   2.110   2.117   4.839
 9059SOL     OW28075   6.525   0.758   3.254
 9059SOL    HW128076   6.454   0.757   3.184
 9059SOL    HW228077   6.585   0.836   3.238
 9060SOL     OW28078   6.552   3.648   2.394
 9060SOL    HW128079   6.557   3.558   2.350
 9060SOL    HW228080   6.561   3.719   2.324
 9061SOL     OW28081   4.790   5.545   3.048
 9061SOL    HW128082   4.853   5.470   3.026
 9061SOL    HW228083   4.767   5.594   2.965
 9062SOL     OW28084   1.109   4.824   1.706
 9062SOL    HW128085   1.042   4.825   1.780
 9062SOL    HW228086   1.191   4.873   1.734
 9063SOL     OW28087   2.797   1.243   2.623
 9063SOL    HW128088   2.767   1.201   2.537
 9063SOL    HW228089   2.831   1.173   2.684
 9064SOL     OW28090   6.397   4.075   4.050
 9064SOL    HW128091   6.429   4.165   4.024
 9064SOL    HW228092   6.440   4.048   4.137
 9065SOL     OW28093   2.806   5.629   5.788
 9065SOL    HW128094   2.829   5.544   5.740
 9065SOL    HW228095   2.714   5.622   5.827
 9066SOL     OW28096   6.162   0.244   5.963
 9066SOL    HW128097   6.198   0.221   6.054
 9066SOL    HW228098   6.238   0.260   5.900
 9067SOL     OW28099   6.486   6.166   4.536
 9067SOL    HW128100   6.541   6.240   4.573
 9067SOL    HW228101   6.545   6.092   4.504
 9068SOL     OW28102   3.515   6.885   5.076
 9068SOL    HW128103   3.584   6.859   5.144
 9068SOL    HW228104   3.547   6.860   4.985
 9069SOL     OW28105   4.952   2.186   3.085
 9069SOL    HW128106   4.980   2.091   3.101
 9069SOL    HW228107   4.853   2.194   3.093
 9070SOL     OW28108   1.526   2.415   6.201
 9070SOL    HW128109   1.513   2.496   6.258
 9070SOL    HW228110   1.555   2.443   6.110
 9071SOL     OW28111   5.366   0.710   6.423
 9071SOL    HW128112   5.358   0.724   6.522
 9071SOL    HW228113   5.299   0.767   6.376
 9072SOL     OW28114   5.073   6.544   1.507
 9072SOL    HW128115   4.987   6.551   1.456
 9072SOL    HW228116   5.106   6.636   1.530
 9073SOL     OW28117   3.861   6.488   0.845
 9073SOL    HW128118   3.919   6.544   0.786
 9073SOL    HW228119   3.772   6.473   0.800
 9074SOL     OW28120   1.502   0.895   1.528
 9074SOL    HW128121   1.494   0.986   1.488
 9074SOL    HW228122   1.596   0.879   1.558
 9075SOL     OW28123   0.350   0.362   2.247
 9075SOL    HW128124   0.375   0.458   2.254
 9075SOL    HW228125   0.385   0.325   2.160
 9076SOL     OW28126   4.671   1.363   3.730
 9076SOL    HW128127   4.651   1.460   3.719
 9076SOL    HW228128   4.654   1.335   3.825
 9077SOL     OW28129   4.390   1.438   6.328
 9077SOL    HW128130   4.378   1.440   6.229
 9077SOL    HW228131   4.329   1.370   6.368
 9078SOL     OW28132   5.742   5.237   6.366
 9078SOL    HW128133   5.721   5.321   6.416
 9078SOL    HW228134   5.658   5.199   6.328
 9079SOL     OW28135   1.660   0.185   4.939
 9079SOL    HW128136   1.655   0.271   4.887
 9079SOL    HW228137   1.718   0.199   5.020
 9080SOL     OW28138   6.536   2.711   6.980
 9080SOL    HW128139   6.549   2.744   6.887
 9080SOL    HW228140   6.554   2.785   0.020
 9081SOL     OW28141   3.322   1.631   1.741
 9081SOL    HW128142   3.236   1.586   1.719
 9081SOL    HW228143   3.306   1.706   1.805
 9082SOL     OW28144   2.244   6.742   4.772
 9082SOL    HW128145   2.153   6.709   4.750
 9082SOL    HW228146   2.264   6.824   4.717
 9083SOL     OW28147   4.644   4.185   6.325
 9083SOL    HW128148   4.695   4.242   6.390
 9083SOL    HW228149   4.619   4.239   6.245
 9084SOL     OW28150   0.901   2.554   6.125
 9084SOL    HW128151   0.809   2.550   6.164
 9084SOL    HW228152   0.947   2.637   6.157
 9085SOL     OW28153   2.669   5.822   1.286
 9085SOL    HW128154   2.681   5.893   1.216
 9085SOL    HW228155   2.746   5.824   1.349
 9086SOL     OW28156   6.211   4.010   0.805
 9086SOL    HW128157   6.222   3.912   0.819
 9086SOL    HW228158   6.115   4.035   0.814
 9087SOL     OW28159   5.480   3.025   2.326
 9087SOL    HW128160   5.574   3.060   2.327
 9087SOL    HW228161   5.416   3.102   2.332
 9088SOL     OW28162   5.897   6.955   1.841
 9088SOL    HW128163   5.984   6.910   1.858
 9088SOL    HW228164   5.849   6.969   1.928
 9089SOL     OW28165   4.189   5.666   5.130
 9089SOL    HW128166   4.115   5.629   5.073
 9089SOL    HW228167   4.242   5.590   5.167
 9090SOL     OW28168   4.992   0.227   4.474
 9090SOL    HW128169   4.942   0.288   4.535
 9090SOL    HW228170   5.090   0.230   4.497
 9091SOL     OW28171   3.151   3.103   0.810
 9091SOL    HW128172   3.203   3.070   0.889
 9091SOL    HW228173   3.063   3.139   0.840
 9092SOL     OW28174   0.972   1.090   6.699
 9092SOL    HW128175   0.907   1.046   6.638
 9092SOL    HW228176   1.033   1.149   6.646
 9093SOL     OW28177   1.122   6.210   6.694
 9093SOL    HW128178   1.136   6.189   6.791
 9093SOL    HW228179   1.128   6.309   6.680
 9094SOL     OW28180   0.903   5.397   2.458
 9094SOL    HW128181   0.902   5.492   2.489
 9094SOL    HW228182   0.953   5.341   2.524
 9095SOL     OW28183   5.253   3.783   5.779
 9095SOL    HW128184   5.271   3.870   5.825
 9095SOL    HW228185   5.262   3.708   5.844
 9096SOL     OW28186   5.159   3.661   3.073
 9096SOL    HW128187   5.184   3.651   2.976
 9096SOL    HW228188   5.063   3.687   3.079
 9097SOL     OW28189   0.347   3.226   0.195
 9097SOL    HW128190   0.340   3.147   0.135
 9097SOL    HW228191   0.289   3.300   0.160
 9098SOL     OW28192   3.536   3.107   0.347
 9098SOL    HW128193   3.520   3.104   0.248
 9098SOL    HW228194   3.490   3.029   0.391
 9099SOL     OW28195   3.340   3.781   0.435
 9099SOL    HW128196   3.409   3.721   0.394
 9099SOL    HW228197   3.263   3.726   0.468
 9100SOL     OW28198   1.181   3.424   2.756
 9100SOL    HW128199   1.084   3.403   2.741
 9100SOL    HW228200   1.197   3.435   2.854
 9101SOL     OW28201   1.948   3.002   3.071
 9101SOL    HW128202   2.028   2.999   3.011
 9101SOL    HW228203   1.940   2.915   3.119
 9102SOL     OW28204   3.662   6.443   1.678
 9102SOL    HW128205   3.573   6.421   1.640
 9102SOL    HW228206   3.731   6.440   1.606
 9103SOL     OW28207   6.484   3.667   6.732
 9103SOL    HW128208   6.390   3.636   6.716
 9103SOL    HW228209   6.548   3.602   6.691
 9104SOL     OW28210   4.513   6.204   2.383
 9104SOL    HW128211   4.572   6.175   2.458
 9104SOL    HW228212   4.565   6.207   2.298
 9105SOL     OW28213   1.389   0.955   0.691
 9105SOL    HW128214   1.484   0.971   0.718
 9105SOL    HW228215   1.381   0.964   0.592
 9106SOL     OW28216   5.697   3.903   6.683
 9106SOL    HW128217   5.762   3.903   6.607
 9106SOL    HW228218   5.732   3.846   6.758
 9107SOL     OW28219   4.027   0.526   5.841
 9107SOL    HW128220   4.110   0.498   5.793
 9107SOL    HW228221   3.947   0.501   5.786
 9108SOL     OW28222   4.627   4.169   5.757
 9108SOL    HW128223   4.719   4.207   5.767
 9108SOL    HW228224   4.620   4.121   5.670
 9109SOL     OW28225   1.589   2.634   2.916
 9109SOL    HW128226   1.582   2.664   3.011
 9109SOL    HW228227   1.650   2.556   2.909
 9110SOL     OW28228   1.928   4.200   4.035
 9110SOL    HW128229   1.892   4.214   4.128
 9110SOL    HW228230   1.980   4.281   4.007
 9111SOL     OW28231   4.640   3.578   0.252
 9111SOL    HW128232   4.726   3.600   0.298
 9111SOL    HW228233   4.587   3.515   0.308
 9112SOL     OW28234   0.632   4.130   4.778
 9112SOL    HW128235   0.671   4.061   4.839
 9112SOL    HW228236   0.692   4.141   4.699
 9113SOL     OW28237   4.437   6.455   0.715
 9113SOL    HW128238   4.338   6.451   0.708
 9113SOL    HW228239   4.465   6.432   0.808
 9114SOL     OW28240   1.799   5.246   1.215
 9114SOL    HW128241   1.812   5.263   1.313
 9114SOL    HW228242   1.798   5.332   1.166
 9115SOL     OW28243   0.929   5.743   6.188
 9115SOL    HW128244   0.955   5.709   6.097
 9115SOL    HW228245   0.846   5.798   6.181
 9116SOL     OW28246   6.726   2.048   0.700
 9116SOL    HW128247   6.683   1.962   0.729
 9116SOL    HW228248   6.687   2.124   0.751
 9117SOL     OW28249   6.167   2.697   0.176
 9117SOL    HW128250   6.083   2.695   0.121
 9117SOL    HW228251   6.227   2.769   0.142
 9118SOL     OW28252   6.712   5.781   0.675
 9118SOL    HW128253   6.753   5.706   0.727
 9118SOL    HW228254   6.672   5.847   0.738
 9119SOL     OW28255   6.038   1.719   1.807
 9119SOL    HW128256   6.109   1.772   1.854
 9119SOL    HW228257   6.051   1.622   1.827
 9120SOL     OW28258   5.597   3.016   5.935
 9120SOL    HW128259   5.596   3.089   5.867
 9120SOL    HW228260   5.627   3.052   6.023
 9121SOL     OW28261   2.294   2.536   6.153
 9121SOL    HW128262   2.341   2.473   6.091
 9121SOL    HW228263   2.203   2.500   6.174
 9122SOL     OW28264   1.873   3.864   1.985
 9122SOL    HW128265   1.969   3.848   1.963
 9122SOL    HW228266   1.849   3.815   2.069
 9123SOL     OW28267   3.513   0.160   4.829
 9123SOL    HW128268   3.592   0.102   4.806
 9123SOL    HW228269   3.533   0.211   4.913
 9124SOL     OW28270   5.499   0.383   5.758
 9124SOL    HW128271   5.508   0.323   5.838
 9124SOL    HW228272   5.535   0.473   5.781
 9125SOL     OW28273   5.363   4.081   2.047
 9125SOL    HW128274   5.392   4.176   2.056
 9125SOL    HW228275   5.263   4.078   2.038
 9126SOL     OW28276   5.837   2.557   1.983
 9126SOL    HW128277   5.879   2.637   1.939
 9126SOL    HW228278   5.747   2.541   1.943
 9127SOL     OW28279   6.863   1.485   6.168
 9127SOL    HW128280   6.915   1.477   6.253
 9127SOL    HW228281   6.845   1.582   6.150
 9128SOL     OW28282   4.391   1.380   4.901
 9128SOL    HW128283   4.465   1.333   4.950
 9128SOL    HW228284   4.364   1.323   4.822
 9129SOL     OW28285   0.058   2.872   1.216
 9129SOL    HW128286   0.008   2.957   1.233
 9129SOL    HW228287   0.097   2.874   1.124
 9130SOL     OW28288   0.102   3.163   0.577
 9130SOL    HW128289   0.088   3.074   0.620
 9130SOL    HW228290   0.014   3.200   0.548
 9131SOL     OW28291   6.974   3.274   5.761
 9131SOL    HW128292   6.905   3.201   5.767
 9131SOL    HW228293   6.970   3.316   5.671
 9132SOL     OW28294   0.013   4.829   4.274
 9132SOL    HW128295   0.032   4.756   4.208
 9132SOL    HW228296   6.986   4.902   4.229
 9133SOL     OW28297   4.164   6.042   1.271
 9133SOL    HW128298   4.090   5.975   1.267
 9133SOL    HW228299   4.148   6.114   1.204
 9134SOL     OW28300   4.251   6.041   0.472
 9134SOL    HW128301   4.269   6.064   0.377
 9134SOL    HW228302   4.327   5.986   0.508
 9135SOL     OW28303   6.257   6.334   1.832
 9135SOL    HW128304   6.183   6.348   1.898
 9135SOL    HW228305   6.285   6.421   1.793
 9136SOL     OW28306   5.414   5.373   6.192
 9136SOL    HW128307   5.512   5.359   6.178
 9136SOL    HW228308   5.382   5.315   6.268
 9137SOL     OW28309   5.183   1.917   1.347
 9137SOL    HW128310   5.211   1.832   1.303
 9137SOL    HW228311   5.239   1.934   1.428
 9138SOL     OW28312   6.539   5.670   5.608
 9138SOL    HW128313   6.551   5.726   5.526
 9138SOL    HW228314   6.555   5.727   5.689
 9139SOL     OW28315   2.588   1.596   5.139
 9139SOL    HW128316   2.661   1.661   5.160
 9139SOL    HW228317   2.501   1.645   5.132
 9140SOL     OW28318   5.950   3.448   2.967
 9140SOL    HW128319   5.951   3.354   3.000
 9140SOL    HW228320   6.037   3.469   2.923
 9141SOL     OW28321   5.772   0.827   0.138
 9141SOL    HW128322   5.788   0.759   0.066
 9141SOL    HW228323   5.860   0.859   0.173
 9142SOL     OW28324   0.849   2.243   1.404
 9142SOL    HW128325   0.829   2.213   1.497
 9142SOL    HW228326   0.763   2.254   1.354
 9143SOL     OW28327   5.785   2.898   1.182
 9143SOL    HW128328   5.714   2.932   1.120
 9143SOL    HW228329   5.809   2.969   1.248
 9144SOL     OW28330   2.270   5.214   5.636
 9144SOL    HW128331   2.176   5.180   5.642
 9144SOL    HW228332   2.301   5.243   5.726
 9145SOL     OW28333   0.079   5.748   0.472
 9145SOL    HW128334   0.150   5.746   0.401
 9145SOL    HW228335   0.111   5.699   0.553
 9146SOL     OW28336   5.350   3.010   3.032
 9146SOL    HW128337   5.388   2.975   2.946
 9146SOL    HW228338   5.263   3.054   3.013
 9147SOL     OW28339   5.721   0.329   4.364
 9147SOL    HW128340   5.727   0.337   4.265
 9147SOL    HW228341   5.695   0.236   4.389
 9148SOL     OW28342   5.300   6.271   0.554
 9148SOL    HW128343   5.301   6.361   0.598
 9148SOL    HW228344   5.210   6.255   0.513
 9149SOL     OW28345   5.910   3.399   3.455
 9149SOL    HW128346   6.008   3.380   3.465
 9149SOL    HW228347   5.895   3.452   3.372
 9150SOL     OW28348   2.863   5.022   1.971
 9150SOL    HW128349   2.918   4.945   2.003
 9150SOL    HW228350   2.919   5.104   1.968
 9151SOL     OW28351   1.583   4.022   3.396
 9151SOL    HW128352   1.515   3.951   3.413
 9151SOL    HW228353   1.639   4.034   3.477
 9152SOL     OW28354   2.404   4.403   4.841
 9152SOL    HW128355   2.341   4.333   4.806
 9152SOL    HW228356   2.394   4.410   4.940
 9153SOL     OW28357   1.123   3.372   0.518
 9153SOL    HW128358   1.140   3.469   0.535
 9153SOL    HW228359   1.105   3.358   0.421
 9154SOL     OW28360   4.457   4.491   6.238
 9154SOL    HW128361   4.548   4.466   6.205
 9154SOL    HW228362   4.428   4.576   6.195
 9155SOL     OW28363   1.872   3.821   1.305
 9155SOL    HW128364   1.802   3.876   1.259
 9155SOL    HW228365   1.954   3.877   1.321
 9156SOL     OW28366   0.950   2.588   0.892
 9156SOL    HW128367   1.020   2.521   0.918
 9156SOL    HW228368   0.879   2.592   0.962
 9157SOL     OW28369   6.421   4.444   5.623
 9157SOL    HW128370   6.331   4.407   5.603
 9157SOL    HW228371   6.489   4.371   5.617
 9158SOL     OW28372   6.204   3.749   4.843
 9158SOL    HW128373   6.214   3.843   4.810
 9158SOL    HW228374   6.261   3.688   4.788
 9159SOL     OW28375   2.183   0.096   2.557
 9159SOL    HW128376   2.275   0.106   2.593
 9159SOL    HW228377   2.186   0.051   2.468
 9160SOL     OW28378   6.377   0.658   5.496
 9160SOL    HW128379   6.347   0.716   5.420
 9160SOL    HW228380   6.475   0.672   5.512
 9161SOL     OW28381   4.806   4.324   4.711
 9161SOL    HW128382   4.841   4.418   4.710
 9161SOL    HW228383   4.785   4.295   4.618
 9162SOL     OW28384   4.279   0.744   4.893
 9162SOL    HW128385   4.237   0.739   4.803
 9162SOL    HW228386   4.364   0.692   4.893
 9163SOL     OW28387   1.637   2.933   4.444
 9163SOL    HW128388   1.622   3.008   4.380
 9163SOL    HW228389   1.592   2.851   4.409
 9164SOL     OW28390   2.717   0.918   6.160
 9164SOL    HW128391   2.796   0.973   6.186
 9164SOL    HW228392   2.725   0.892   6.064
 9165SOL     OW28393   6.251   2.144   5.837
 9165SOL    HW128394   6.349   2.138   5.823
 9165SOL    HW228395   6.211   2.205   5.768
 9166SOL     OW28396   4.151   5.785   0.905
 9166SOL    HW128397   4.133   5.697   0.863
 9166SOL    HW228398   4.167   5.854   0.834
 9167SOL     OW28399   2.167   2.629   6.783
 9167SOL    HW128400   2.240   2.674   6.834
 9167SOL    HW228401   2.153   2.676   6.695
 9168SOL     OW28402   6.912   0.172   6.711
 9168SOL    HW128403   7.005   0.209   6.705
 9168SOL    HW228404   6.852   0.240   6.753
 9169SOL     OW28405   5.797   0.886   4.865
 9169SOL    HW128406   5.738   0.845   4.934
 9169SOL    HW228407   5.743   0.950   4.809
 9170SOL     OW28408   1.563   5.990   6.916
 9170SOL    HW128409   1.554   5.990   6.816
 9170SOL    HW228410   1.515   5.912   6.955
 9171SOL     OW28411   4.412   4.959   0.800
 9171SOL    HW128412   4.498   4.973   0.750
 9171SOL    HW228413   4.358   4.888   0.754
 9172SOL     OW28414   4.065   1.151   3.343
 9172SOL    HW128415   4.036   1.147   3.438
 9172SOL    HW228416   4.073   1.058   3.306
 9173SOL     OW28417   6.541   3.491   5.021
 9173SOL    HW128418   6.459   3.525   5.067
 9173SOL    HW228419   6.608   3.462   5.089
 9174SOL     OW28420   5.304   3.951   1.686
 9174SOL    HW128421   5.271   4.034   1.729
 9174SOL    HW228422   5.322   3.969   1.589
 9175SOL     OW28423   0.794   0.351   5.350
 9175SOL    HW128424   0.861   0.423   5.334
 9175SOL    HW228425   0.706   0.392   5.373
 9176SOL     OW28426   2.977   1.058   5.207
 9176SOL    HW128427   3.002   1.143   5.252
 9176SOL    HW228428   3.017   1.056   5.115
 9177SOL     OW28429   0.621   5.140   4.995
 9177SOL    HW128430   0.562   5.170   5.071
 9177SOL    HW228431   0.568   5.140   4.910
 9178SOL     OW28432   1.564   5.277   0.062
 9178SOL    HW128433   1.483   5.243   0.110
 9178SOL    HW228434   1.640   5.214   0.075
 9179SOL     OW28435   2.688   4.783   4.264
 9179SOL    HW128436   2.779   4.815   4.292
 9179SOL    HW228437   2.673   4.807   4.168
 9180SOL     OW28438   6.124   2.694   3.210
 9180SOL    HW128439   6.035   2.709   3.251
 9180SOL    HW228440   6.114   2.682   3.111
 9181SOL     OW28441   4.249   1.834   5.617
 9181SOL    HW128442   4.231   1.805   5.711
 9181SOL    HW228443   4.181   1.794   5.556
 9182SOL     OW28444   3.047   6.786   1.721
 9182SOL    HW128445   2.984   6.841   1.776
 9182SOL    HW228446   3.090   6.716   1.779
 9183SOL     OW28447   4.838   5.758   0.554
 9183SOL    HW128448   4.885   5.693   0.613
 9183SOL    HW228449   4.801   5.833   0.610
 9184SOL     OW28450   4.474   1.657   0.567
 9184SOL    HW128451   4.546   1.719   0.599
 9184SOL    HW228452   4.503   1.562   0.580
 9185SOL     OW28453   4.521   6.665   4.510
 9185SOL    HW128454   4.539   6.680   4.413
 9185SOL    HW228455   4.546   6.747   4.561
 9186SOL     OW28456   5.418   6.159   4.940
 9186SOL    HW128457   5.446   6.160   4.844
 9186SOL    HW228458   5.496   6.183   4.997
 9187SOL     OW28459   2.366   2.116   0.652
 9187SOL    HW128460   2.332   2.022   0.658
 9187SOL    HW228461   2.435   2.131   0.723
 9188SOL     OW28462   1.459   6.327   0.590
 9188SOL    HW128463   1.405   6.244   0.608
 9188SOL    HW228464   1.525   6.308   0.517
 9189SOL     OW28465   3.672   5.666   2.013
 9189SOL    HW128466   3.724   5.592   1.969
 9189SOL    HW228467   3.695   5.753   1.970
 9190SOL     OW28468   2.755   4.515   5.817
 9190SOL    HW128469   2.820   4.583   5.850
 9190SOL    HW228470   2.731   4.453   5.891
 9191SOL     OW28471   6.224   2.187   6.412
 9191SOL    HW128472   6.197   2.258   6.477
 9191SOL    HW228473   6.220   2.223   6.319
 9192SOL     OW28474   1.062   3.226   5.911
 9192SOL    HW128475   1.069   3.326   5.908
 9192SOL    HW228476   1.087   3.188   5.822
 9193SOL     OW28477   4.418   4.328   6.824
 9193SOL    HW128478   4.438   4.357   6.917
 9193SOL    HW228479   4.373   4.238   6.826
 9194SOL     OW28480   3.296   0.796   3.497
 9194SOL    HW128481   3.282   0.888   3.535
 9194SOL    HW228482   3.277   0.797   3.399
 9195SOL     OW28483   1.481   1.504   3.674
 9195SOL    HW128484   1.444   1.530   3.584
 9195SOL    HW228485   1.405   1.480   3.735
 9196SOL     OW28486   5.176   0.471   2.601
 9196SOL    HW128487   5.251   0.531   2.572
 9196SOL    HW228488   5.096   0.526   2.625
 9197SOL     OW28489   2.087   5.597   1.451
 9197SOL    HW128490   2.035   5.601   1.536
 9197SOL    HW228491   2.066   5.511   1.403
 9198SOL     OW28492   6.154   4.941   6.776
 9198SOL    HW128493   6.163   4.953   6.677
 9198SOL    HW228494   6.228   4.990   6.823
 9199SOL     OW28495   0.767   3.816   5.694
 9199SOL    HW128496   0.728   3.808   5.785
 9199SOL    HW228497   0.713   3.880   5.640
 9200SOL     OW28498   2.826   6.306   6.593
 9200SOL    HW128499   2.858   6.278   6.503
 9200SOL    HW228500   2.894   6.367   6.635
 9201SOL     OW28501   6.820   2.576   0.140
 9201SOL    HW128502   6.884   2.562   0.216
 9201SOL    HW228503   6.727   2.574   0.175
 9202SOL     OW28504   1.044   6.626   2.074
 9202SOL    HW128505   1.027   6.671   1.987
 9202SOL    HW228506   1.042   6.527   2.062
 9203SOL     OW28507   0.301   3.816   6.039
 9203SOL    HW128508   0.366   3.765   6.096
 9203SOL    HW228509   0.349   3.892   5.994
 9204SOL     OW28510   4.981   3.222   6.154
 9204SOL    HW128511   4.887   3.235   6.184
 9204SOL    HW228512   5.044   3.241   6.230
 9205SOL     OW28513   5.794   5.416   3.526
 9205SOL    HW128514   5.798   5.410   3.426
 9205SOL    HW228515   5.783   5.511   3.553
 9206SOL     OW28516   4.017   5.627   3.008
 9206SOL    HW128517   4.044   5.636   3.104
 9206SOL    HW228518   3.940   5.688   2.989
 9207SOL     OW28519   5.168   4.210   5.684
 9207SOL    HW128520   5.073   4.180   5.686
 9207SOL    HW228521   5.172   4.310   5.693
 9208SOL     OW28522   5.632   4.875   3.606
 9208SOL    HW128523   5.556   4.827   3.563
 9208SOL    HW228524   5.619   4.879   3.705
 9209SOL     OW28525   4.000   0.157   6.763
 9209SOL    HW128526   4.087   0.194   6.796
 9209SOL    HW228527   3.933   0.158   6.838
 9210SOL     OW28528   0.403   0.858   2.672
 9210SOL    HW128529   0.329   0.924   2.688
 9210SOL    HW228530   0.434   0.865   2.578
 9211SOL     OW28531   0.697   2.730   5.881
 9211SOL    HW128532   0.786   2.689   5.859
 9211SOL    HW228533   0.697   2.758   5.977
 9212SOL     OW28534   4.259   5.834   4.170
 9212SOL    HW128535   4.330   5.767   4.148
 9212SOL    HW228536   4.171   5.803   4.134
 9213SOL     OW28537   5.470   3.211   4.841
 9213SOL    HW128538   5.553   3.268   4.843
 9213SOL    HW228539   5.493   3.121   4.803
 9214SOL     OW28540   6.895   3.752   6.501
 9214SOL    HW128541   6.881   3.735   6.403
 9214SOL    HW228542   6.879   3.668   6.552
 9215SOL     OW28543   0.689   2.658   1.685
 9215SOL    HW128544   0.717   2.625   1.595
 9215SOL    HW228545   0.734   2.745   1.704
 9216SOL     OW28546   3.509   6.856   2.197
 9216SOL    HW128547   3.454   6.916   2.255
 9216SOL    HW228548   3.606   6.879   2.208
 9217SOL     OW28549   0.107   2.870   6.665
 9217SOL    HW128550   0.168   2.802   6.625
 9217SOL    HW228551   0.041   2.824   6.726
 9218SOL     OW28552   1.557   0.052   0.175
 9218SOL    HW128553   1.535   7.018   0.253
 9218SOL    HW228554   1.601   0.136   0.208
 9219SOL     OW28555   6.137   3.001   1.220
 9219SOL    HW128556   6.202   3.075   1.205
 9219SOL    HW228557   6.055   3.037   1.265
 9220SOL     OW28558   1.736   6.351   1.431
 9220SOL    HW128559   1.830   6.333   1.460
 9220SOL    HW228560   1.737   6.397   1.342
 9221SOL     OW28561   3.383   0.629   3.184
 9221SOL    HW128562   3.341   0.581   3.261
 9221SOL    HW228563   3.477   0.654   3.208
 9222SOL     OW28564   2.137   6.167   6.520
 9222SOL    HW128565   2.120   6.101   6.593
 9222SOL    HW228566   2.196   6.126   6.451
 9223SOL     OW28567   0.885   1.499   3.938
 9223SOL    HW128568   0.942   1.466   3.862
 9223SOL    HW228569   0.887   1.599   3.940
 9224SOL     OW28570   1.304   4.941   4.656
 9224SOL    HW128571   1.233   4.952   4.725
 9224SOL    HW228572   1.349   4.853   4.667
 9225SOL     OW28573   3.080   6.666   5.928
 9225SOL    HW128574   3.171   6.635   5.901
 9225SOL    HW228575   3.053   6.742   5.869
 9226SOL     OW28576   5.904   6.754   1.269
 9226SOL    HW128577   5.965   6.700   1.210
 9226SOL    HW228578   5.825   6.784   1.217
 9227SOL     OW28579   1.258   5.531   0.849
 9227SOL    HW128580   1.309   5.455   0.809
 9227SOL    HW228581   1.173   5.497   0.888
 9228SOL     OW28582   1.768   1.883   5.812
 9228SOL    HW128583   1.788   1.785   5.816
 9228SOL    HW228584   1.669   1.896   5.805
 9229SOL     OW28585   1.080   5.880   5.162
 9229SOL    HW128586   1.094   5.932   5.246
 9229SOL    HW228587   1.001   5.917   5.113
 9230SOL     OW28588   4.644   1.897   4.028
 9230SOL    HW128589   4.735   1.909   4.067
 9230SOL    HW228590   4.637   1.948   3.943
 9231SOL     OW28591   0.534   3.907   4.465
 9231SOL    HW128592   0.509   3.946   4.376
 9231SOL    HW228593   0.515   3.975   4.537
 9232SOL     OW28594   3.609   5.097   0.237
 9232SOL    HW128595   3.690   5.151   0.258
 9232SOL    HW228596   3.580   5.048   0.320
 9233SOL     OW28597   5.473   5.216   2.085
 9233SOL    HW128598   5.517   5.262   2.162
 9233SOL    HW228599   5.380   5.189   2.111
 9234SOL     OW28600   3.470   5.946   5.908
 9234SOL    HW128601   3.461   6.036   5.950
 9234SOL    HW228602   3.453   5.875   5.977
 9235SOL     OW28603   1.641   3.273   3.495
 9235SOL    HW128604   1.647   3.295   3.397
 9235SOL    HW228605   1.551   3.297   3.529
 9236SOL     OW28606   2.196   4.541   5.823
 9236SOL    HW128607   2.127   4.579   5.761
 9236SOL    HW228608   2.287   4.551   5.783
 9237SOL     OW28609   1.683   5.516   4.421
 9237SOL    HW128610   1.613   5.581   4.451
 9237SOL    HW228611   1.679   5.507   4.321
 9238SOL     OW28612   3.823   1.010   0.028
 9238SOL    HW128613   3.773   0.950   6.990
 9238SOL    HW228614   3.760   1.047   0.096
 9239SOL     OW28615   6.600   4.219   0.297
 9239SOL    HW128616   6.602   4.236   0.395
 9239SOL    HW228617   6.693   4.212   0.261
 9240SOL     OW28618   5.424   1.210   1.387
 9240SOL    HW128619   5.386   1.293   1.345
 9240SOL    HW228620   5.429   1.223   1.486
 9241SOL     OW28621   0.834   5.452   5.619
 9241SOL    HW128622   0.815   5.524   5.686
 9241SOL    HW228623   0.929   5.423   5.626
 9242SOL     OW28624   0.783   5.021   0.109
 9242SOL    HW128625   0.832   5.107   0.118
 9242SOL    HW228626   0.689   5.033   0.141
 9243SOL     OW28627   5.672   6.897   1.220
 9243SOL    HW128628   5.596   6.906   1.156
 9243SOL    HW228629   5.702   6.988   1.249
 9244SOL     OW28630   4.585   5.547   6.265
 9244SOL    HW128631   4.503   5.495   6.288
 9244SOL    HW228632   4.569   5.644   6.280
 9245SOL     OW28633   1.390   5.000   3.386
 9245SOL    HW128634   1.358   5.091   3.359
 9245SOL    HW228635   1.425   5.004   3.480
 9246SOL     OW28636   0.120   5.922   2.402
 9246SOL    HW128637   0.162   5.835   2.429
 9246SOL    HW228638   0.061   5.907   2.323
 9247SOL     OW28639   1.542   6.975   2.530
 9247SOL    HW128640   1.496   6.923   2.603
 9247SOL    HW228641   1.547   6.918   2.448
 9248SOL     OW28642   1.794   1.695   4.679
 9248SOL    HW128643   1.766   1.788   4.700
 9248SOL    HW228644   1.843   1.695   4.592
 9249SOL     OW28645   4.215   3.966   0.129
 9249SOL    HW128646   4.309   3.986   0.154
 9249SOL    HW228647   4.202   3.982   0.031
 9250SOL     OW28648   5.561   3.502   4.198
 9250SOL    HW128649   5.630   3.566   4.232
 9250SOL    HW228650   5.495   3.482   4.270
 9251SOL     OW28651   4.492   1.673   2.951
 9251SOL    HW128652   4.483   1.687   3.050
 9251SOL    HW228653   4.548   1.592   2.935
 9252SOL     OW28654   5.793   0.627   4.769
 9252SOL    HW128655   5.803   0.624   4.669
 9252SOL    HW228656   5.780   0.722   4.798
 9253SOL     OW28657   5.485   6.415   5.272
 9253SOL    HW128658   5.489   6.497   5.214
 9253SOL    HW228659   5.400   6.416   5.325
 9254SOL     OW28660   6.184   4.519   2.816
 9254SOL    HW128661   6.128   4.543   2.896
 9254SOL    HW228662   6.281   4.521   2.842
 9255SOL     OW28663   4.762   3.467   6.981
 9255SOL    HW128664   4.816   3.426   0.030
 9255SOL    HW228665   4.671   3.426   6.980
 9256SOL     OW28666   4.536   6.744   3.115
 9256SOL    HW128667   4.530   6.837   3.153
 9256SOL    HW228668   4.631   6.714   3.116
 9257SOL     OW28669   0.204   3.755   2.764
 9257SOL    HW128670   0.228   3.829   2.702
 9257SOL    HW228671   0.138   3.788   2.832
 9258SOL     OW28672   3.175   3.212   3.494
 9258SOL    HW128673   3.158   3.148   3.569
 9258SOL    HW228674   3.273   3.225   3.482
 9259SOL     OW28675   1.017   2.775   6.214
 9259SOL    HW128676   1.048   2.827   6.294
 9259SOL    HW228677   0.941   2.823   6.171
 9260SOL     OW28678   5.100   2.003   4.911
 9260SOL    HW128679   5.102   1.906   4.936
 9260SOL    HW228680   5.113   2.013   4.813
 9261SOL     OW28681   4.320   0.703   6.838
 9261SOL    HW128682   4.332   0.774   6.769
 9261SOL    HW228683   4.409   0.664   6.861
 9262SOL     OW28684   0.056   3.598   6.277
 9262SOL    HW128685   0.116   3.677   6.274
 9262SOL    HW228686   0.097   3.522   6.227
 9263SOL     OW28687   5.279   5.914   1.927
 9263SOL    HW128688   5.223   5.881   2.003
 9263SOL    HW228689   5.355   5.968   1.963
 9264SOL     OW28690   5.827   4.383   0.271
 9264SOL    HW128691   5.908   4.440   0.284
 9264SOL    HW228692   5.836   4.299   0.325
 9265SOL     OW28693   3.522   1.807   6.910
 9265SOL    HW128694   3.580   1.766   6.980
 9265SOL    HW228695   3.439   1.844   6.953
 9266SOL     OW28696   2.287   6.938   1.913
 9266SOL    HW128697   2.330   6.993   1.985
 9266SOL    HW228698   2.346   6.935   1.833
 9267SOL     OW28699   0.604   3.747   5.418
 9267SOL    HW128700   0.639   3.655   5.434
 9267SOL    HW228701   0.548   3.777   5.495
 9268SOL     OW28702   1.326   5.673   1.914
 9268SOL    HW128703   1.286   5.681   2.006
 9268SOL    HW228704   1.410   5.619   1.919
 9269SOL     OW28705   2.889   1.331   6.076
 9269SOL    HW128706   2.926   1.305   5.987
 9269SOL    HW228707   2.895   1.430   6.087
 9270SOL     OW28708   4.439   6.607   6.208
 9270SOL    HW128709   4.354   6.566   6.241
 9270SOL    HW228710   4.516   6.549   6.233
 9271SOL     OW28711   0.760   6.926   6.966
 9271SOL    HW128712   0.720   7.010   7.000
 9271SOL    HW228713   0.834   6.947   6.902
 9272SOL     OW28714   1.816   5.008   4.383
 9272SOL    HW128715   1.730   5.057   4.369
 9272SOL    HW228716   1.816   4.923   4.330
 9273SOL     OW28717   5.717   6.150   3.588
 9273SOL    HW128718   5.664   6.067   3.604
 9273SOL    HW228719   5.754   6.182   3.675
 9274SOL     OW28720   6.548   2.634   0.222
 9274SOL    HW128721   6.496   2.551   0.240
 9274SOL    HW228722   6.530   2.665   0.128
 9275SOL     OW28723   6.856   2.039   6.896
 9275SOL    HW128724   6.847   1.965   6.830
 9275SOL    HW228725   6.784   2.032   6.965
 9276SOL     OW28726   1.869   4.283   2.261
 9276SOL    HW128727   1.822   4.297   2.174
 9276SOL    HW228728   1.807   4.236   2.325
 9277SOL     OW28729   5.356   2.789   0.047
 9277SOL    HW128730   5.337   2.880   0.009
 9277SOL    HW228731   5.398   2.731   7.002
 9278SOL     OW28732   1.219   0.252   6.099
 9278SOL    HW128733   1.121   0.236   6.091
 9278SOL    HW228734   1.268   0.195   6.034
 9279SOL     OW28735   5.289   0.703   1.617
 9279SOL    HW128736   5.337   0.700   1.530
 9279SOL    HW228737   5.313   0.622   1.671
 9280SOL     OW28738   1.754   1.412   3.296
 9280SOL    HW128739   1.729   1.509   3.285
 9280SOL    HW228740   1.815   1.385   3.222
 9281SOL     OW28741   2.566   4.615   1.035
 9281SOL    HW128742   2.653   4.661   1.056
 9281SOL    HW228743   2.538   4.559   1.112
 9282SOL     OW28744   5.107   0.515   4.567
 9282SOL    HW128745   5.026   0.474   4.609
 9282SOL    HW228746   5.079   0.581   4.498
 9283SOL     OW28747   5.679   0.562   3.834
 9283SOL    HW128748   5.724   0.477   3.862
 9283SOL    HW228749   5.675   0.567   3.735
 9284SOL     OW28750   3.017   4.182   6.032
 9284SOL    HW128751   3.086   4.145   6.094
 9284SOL    HW228752   2.956   4.108   6.001
 9285SOL     OW28753   4.796   2.543   1.280
 9285SOL    HW128754   4.865   2.559   1.350
 9285SOL    HW228755   4.821   2.594   1.197
 9286SOL     OW28756   5.141   6.021   0.100
 9286SOL    HW128757   5.124   6.059   0.009
 9286SOL    HW228758   5.219   6.068   0.141
 9287SOL     OW28759   3.362   5.079   6.289
 9287SOL    HW128760   3.428   5.151   6.308
 9287SOL    HW228761   3.270   5.117   6.288
 9288SOL     OW28762   4.388   1.488   3.886
 9288SOL    HW128763   4.482   1.454   3.882
 9288SOL    HW228764   4.357   1.511   3.793
 9289SOL     OW28765   4.036   1.458   2.476
 9289SOL    HW128766   4.065   1.554   2.475
 9289SOL    HW228767   4.111   1.400   2.447
 9290SOL     OW28768   5.345   1.165   3.045
 9290SOL    HW128769   5.294   1.086   3.011
 9290SOL    HW228770   5.323   1.181   3.141
 9291SOL     OW28771   1.709   6.864   4.107
 9291SOL    HW128772   1.801   6.904   4.105
 9291SOL    HW228773   1.661   6.891   4.023
 9292SOL     OW28774   0.566   3.268   6.902
 9292SOL    HW128775   0.514   3.352   6.892
 9292SOL    HW228776   0.658   3.289   6.933
 9293SOL     OW28777   5.484   3.832   6.921
 9293SOL    HW128778   5.452   3.850   6.829
 9293SOL    HW228779   5.578   3.798   6.918
 9294SOL     OW28780   3.327   0.298   4.676
 9294SOL    HW128781   3.405   0.244   4.706
 9294SOL    HW228782   3.357   0.369   4.612
 9295SOL     OW28783   5.500   2.098   4.418
 9295SOL    HW128784   5.523   2.002   4.428
 9295SOL    HW228785   5.484   2.119   4.321
 9296SOL     OW28786   0.137   6.139   6.616
 9296SOL    HW128787   0.073   6.207   6.651
 9296SOL    HW228788   0.088   6.076   6.555
 9297SOL     OW28789   6.771   1.180   0.287
 9297SOL    HW128790   6.742   1.226   0.371
 9297SOL    HW228791   6.697   1.185   0.220
 9298SOL     OW28792   1.312   0.327   5.022
 9298SOL    HW128793   1.307   0.337   5.121
 9298SOL    HW228794   1.220   0.327   4.983
 9299SOL     OW28795   0.808   2.488   4.284
 9299SOL    HW128796   0.851   2.571   4.320
 9299SOL    HW228797   0.728   2.513   4.229
 9300SOL     OW28798   0.484   4.684   5.457
 9300SOL    HW128799   0.468   4.668   5.359
 9300SOL    HW228800   0.491   4.596   5.504
 9301SOL     OW28801   4.603   4.370   3.873
 9301SOL    HW128802   4.700   4.394   3.868
 9301SOL    HW228803   4.586   4.316   3.956
 9302SOL     OW28804   2.338   2.802   4.013
 9302SOL    HW128805   2.310   2.881   4.067
 9302SOL    HW228806   2.257   2.758   3.973
 9303SOL     OW28807   3.087   5.130   0.828
 9303SOL    HW128808   3.002   5.179   0.849
 9303SOL    HW228809   3.142   5.120   0.911
 9304SOL     OW28810   4.676   4.407   2.272
 9304SOL    HW128811   4.616   4.366   2.203
 9304SOL    HW228812   4.763   4.356   2.274
 9305SOL     OW28813   3.185   0.990   1.345
 9305SOL    HW128814   3.142   0.909   1.305
 9305SOL    HW228815   3.193   1.062   1.276
 9306SOL     OW28816   0.047   4.558   4.774
 9306SOL    HW128817   0.006   4.482   4.824
 9306SOL    HW228818   0.146   4.555   4.783
 9307SOL     OW28819   1.732   3.607   1.829
 9307SOL    HW128820   1.829   3.583   1.818
 9307SOL    HW228821   1.725   3.697   1.873
 9308SOL     OW28822   2.137   4.391   0.523
 9308SOL    HW128823   2.186   4.430   0.445
 9308SOL    HW228824   2.177   4.425   0.608
 9309SOL     OW28825   3.515   4.891   5.598
 9309SOL    HW128826   3.526   4.980   5.553
 9309SOL    HW228827   3.486   4.905   5.692
 9310SOL     OW28828   4.811   5.288   6.575
 9310SOL    HW128829   4.771   5.208   6.621
 9310SOL    HW228830   4.748   5.365   6.581
 9311SOL     OW28831   4.189   4.799   2.018
 9311SOL    HW128832   4.275   4.754   1.993
 9311SOL    HW228833   4.115   4.758   1.966
 9312SOL     OW28834   1.214   3.512   1.387
 9312SOL    HW128835   1.173   3.603   1.391
 9312SOL    HW228836   1.146   3.443   1.412
 9313SOL     OW28837   0.634   0.212   1.221
 9313SOL    HW128838   0.720   0.228   1.173
 9313SOL    HW228839   0.578   0.295   1.217
 9314SOL     OW28840   4.925   5.775   6.042
 9314SOL    HW128841   5.002   5.827   6.079
 9314SOL    HW228842   4.840   5.827   6.057
 9315SOL     OW28843   6.486   0.859   5.159
 9315SOL    HW128844   6.401   0.874   5.210
 9315SOL    HW228845   6.500   0.934   5.095
 9316SOL     OW28846   4.139   5.600   5.583
 9316SOL    HW128847   4.151   5.663   5.659
 9316SOL    HW228848   4.166   5.508   5.611
 9317SOL     OW28849   6.346   5.522   3.318
 9317SOL    HW128850   6.302   5.496   3.404
 9317SOL    HW228851   6.292   5.488   3.241
 9318SOL     OW28852   6.548   0.414   5.830
 9318SOL    HW128853   6.487   0.412   5.909
 9318SOL    HW228854   6.577   0.508   5.812
 9319SOL     OW28855   1.559   3.173   0.040
 9319SOL    HW128856   1.612   3.115   0.102
 9319SOL    HW228857   1.486   3.218   0.092
 9320SOL     OW28858   3.841   0.514   5.257
 9320SOL    HW128859   3.826   0.553   5.166
 9320SOL    HW228860   3.924   0.552   5.297
 9321SOL     OW28861   6.549   0.568   3.663
 9321SOL    HW128862   6.631   0.623   3.648
 9321SOL    HW228863   6.472   0.629   3.682
 9322SOL     OW28864   0.984   4.265   6.866
 9322SOL    HW128865   1.017   4.358   6.877
 9322SOL    HW228866   1.049   4.212   6.812
 9323SOL     OW28867   1.308   0.948   5.561
 9323SOL    HW128868   1.255   0.988   5.487
 9323SOL    HW228869   1.365   0.873   5.526
 9324SOL     OW28870   1.794   4.766   0.680
 9324SOL    HW128871   1.830   4.675   0.701
 9324SOL    HW228872   1.844   4.834   0.733
 9325SOL     OW28873   4.773   0.764   6.948
 9325SOL    HW128874   4.720   0.690   6.906
 9325SOL    HW228875   4.712   0.840   6.971
 9326SOL     OW28876   2.283   5.615   0.556
 9326SOL    HW128877   2.381   5.594   0.548
 9326SOL    HW228878   2.233   5.531   0.579
 9327SOL     OW28879   5.292   0.523   3.182
 9327SOL    HW128880   5.219   0.455   3.186
 9327SOL    HW228881   5.380   0.477   3.164
 9328SOL     OW28882   2.565   0.499   5.647
 9328SOL    HW128883   2.512   0.493   5.731
 9328SOL    HW228884   2.601   0.592   5.636
 9329SOL     OW28885   5.634   4.249   1.540
 9329SOL    HW128886   5.665   4.186   1.469
 9329SOL    HW228887   5.624   4.200   1.626
 9330SOL     OW28888   6.089   6.853   6.608
 9330SOL    HW128889   6.053   6.815   6.694
 9330SOL    HW228890   6.189   6.856   6.613
 9331SOL     OW28891   2.248   1.007   0.004
 9331SOL    HW128892   2.199   1.093   0.004
 9331SOL    HW228893   2.329   1.014   0.062
 9332SOL     OW28894   4.063   4.139   1.753
 9332SOL    HW128895   3.982   4.171   1.802
 9332SOL    HW228896   4.054   4.041   1.736
 9333SOL     OW28897   3.785   3.411   0.576
 9333SOL    HW128898   3.837   3.487   0.538
 9333SOL    HW228899   3.785   3.335   0.510
 9334SOL     OW28900   5.551   5.945   3.704
 9334SOL    HW128901   5.550   5.881   3.627
 9334SOL    HW228902   5.602   5.906   3.780
 9335SOL     OW28903   0.926   1.242   6.316
 9335SOL    HW128904   1.011   1.190   6.320
 9335SOL    HW228905   0.851   1.181   6.289
 9336SOL     OW28906   2.863   5.383   5.620
 9336SOL    HW128907   2.925   5.444   5.572
 9336SOL    HW228908   2.874   5.290   5.585
 9337SOL     OW28909   4.616   1.890   4.524
 9337SOL    HW128910   4.578   1.811   4.475
 9337SOL    HW228911   4.608   1.971   4.466
 9338SOL     OW28912   5.151   0.671   2.057
 9338SOL    HW128913   5.168   0.581   2.018
 9338SOL    HW228914   5.190   0.741   1.998
 9339SOL     OW28915   5.753   0.005   1.596
 9339SOL    HW128916   5.654   0.003   1.613
 9339SOL    HW228917   5.801   6.999   1.678
 9340SOL     OW28918   5.798   4.049   4.516
 9340SOL    HW128919   5.857   4.115   4.471
 9340SOL    HW228920   5.727   4.019   4.452
 9341SOL     OW28921   6.917   5.815   0.958
 9341SOL    HW128922   6.826   5.841   0.929
 9341SOL    HW228923   6.925   5.715   0.960
 9342SOL     OW28924   2.067   6.567   4.020
 9342SOL    HW128925   2.146   6.616   4.055
 9342SOL    HW228926   2.029   6.509   4.092
 9343SOL     OW28927   6.066   4.231   2.416
 9343SOL    HW128928   6.069   4.256   2.513
 9343SOL    HW228929   6.074   4.132   2.407
 9344SOL     OW28930   4.806   6.305   2.709
 9344SOL    HW128931   4.766   6.352   2.630
 9344SOL    HW228932   4.733   6.272   2.768
 9345SOL     OW28933   6.143   5.137   2.370
 9345SOL    HW128934   6.123   5.069   2.299
 9345SOL    HW228935   6.170   5.090   2.454
 9346SOL     OW28936   6.640   0.913   0.847
 9346SOL    HW128937   6.540   0.912   0.844
 9346SOL    HW228938   6.671   0.976   0.918
 9347SOL     OW28939   1.967   3.884   0.779
 9347SOL    HW128940   1.906   3.817   0.735
 9347SOL    HW228941   1.990   3.852   0.871
 9348SOL     OW28942   3.512   5.910   2.111
 9348SOL    HW128943   3.486   5.983   2.047
 9348SOL    HW228944   3.544   5.830   2.060
 9349SOL     OW28945   6.624   5.565   3.677
 9349SOL    HW128946   6.696   5.521   3.729
 9349SOL    HW228947   6.562   5.613   3.739
 9350SOL     OW28948   0.476   3.518   5.286
 9350SOL    HW128949   0.444   3.449   5.351
 9350SOL    HW228950   0.459   3.609   5.322
 9351SOL     OW28951   2.660   0.243   0.017
 9351SOL    HW128952   2.715   0.284   6.970
 9351SOL    HW228953   2.653   0.144   0.002
 9352SOL     OW28954   3.590   1.892   6.502
 9352SOL    HW128955   3.548   1.822   6.560
 9352SOL    HW228956   3.682   1.864   6.476
 9353SOL     OW28957   0.532   4.351   0.899
 9353SOL    HW128958   0.597   4.276   0.910
 9353SOL    HW228959   0.462   4.324   0.833
 9354SOL     OW28960   0.052   1.978   6.491
 9354SOL    HW128961   0.088   2.046   6.427
 9354SOL    HW228962   0.128   1.936   6.541
 9355SOL     OW28963   0.320   2.235   4.387
 9355SOL    HW128964   0.230   2.192   4.397
 9355SOL    HW228965   0.353   2.222   4.293
 9356SOL     OW28966   4.785   0.760   1.616
 9356SOL    HW128967   4.883   0.751   1.595
 9356SOL    HW228968   4.763   0.700   1.693
 9357SOL     OW28969   1.766   2.822   5.447
 9357SOL    HW128970   1.706   2.866   5.513
 9357SOL    HW228971   1.712   2.763   5.387
 9358SOL     OW28972   6.174   3.652   2.152
 9358SOL    HW128973   6.185   3.750   2.166
 9358SOL    HW228974   6.214   3.603   2.229
 9359SOL     OW28975   1.265   4.647   6.030
 9359SOL    HW128976   1.265   4.746   6.044
 9359SOL    HW228977   1.210   4.603   6.100
 9360SOL     OW28978   0.928   4.733   6.203
 9360SOL    HW128979   0.964   4.826   6.196
 9360SOL    HW228980   1.004   4.670   6.220
 9361SOL     OW28981   1.403   4.545   3.662
 9361SOL    HW128982   1.432   4.634   3.697
 9361SOL    HW228983   1.451   4.525   3.577
 9362SOL     OW28984   1.142   1.237   2.600
 9362SOL    HW128985   1.154   1.319   2.544
 9362SOL    HW228986   1.230   1.192   2.614
 9363SOL     OW28987   2.840   5.709   2.101
 9363SOL    HW128988   2.786   5.670   2.176
 9363SOL    HW228989   2.788   5.703   2.016
 9364SOL     OW28990   2.642   2.204   6.899
 9364SOL    HW128991   2.702   2.280   6.874
 9364SOL    HW228992   2.548   2.236   6.907
 9365SOL     OW28993   2.794   1.987   3.131
 9365SOL    HW128994   2.770   1.892   3.152
 9365SOL    HW228995   2.876   1.989   3.075
 9366SOL     OW28996   2.865   5.511   6.653
 9366SOL    HW128997   2.883   5.569   6.574
 9366SOL    HW228998   2.840   5.419   6.621
 9367SOL     OW28999   6.462   6.570   2.216
 9367SOL    HW129000   6.486   6.476   2.192
 9367SOL    HW229001   6.522   6.601   2.290
 9368SOL     OW29002   3.498   0.115   2.427
 9368SOL    HW129003   3.410   0.154   2.398
 9368SOL    HW229004   3.481   0.035   2.484
 9369SOL     OW29005   6.619   6.634   3.527
 9369SOL    HW129006   6.579   6.545   3.505
 9369SOL    HW229007   6.548   6.705   3.522
 9370SOL     OW29008   5.460   0.144   4.656
 9370SOL    HW129009   5.438   0.070   4.720
 9370SOL    HW229010   5.524   0.208   4.699
 9371SOL     OW29011   2.629   6.003   0.299
 9371SOL    HW129012   2.555   6.061   0.266
 9371SOL    HW229013   2.608   5.970   0.391
 9372SOL     OW29014   5.481   7.019   1.619
 9372SOL    HW129015   5.430   6.957   1.560
 9372SOL    HW229016   5.451   7.007   1.713
 9373SOL     OW29017   4.538   2.184   1.105
 9373SOL    HW129018   4.593   2.218   1.029
 9373SOL    HW229019   4.597   2.133   1.168
 9374SOL     OW29020   0.826   3.369   6.324
 9374SOL    HW129021   0.868   3.286   6.287
 9374SOL    HW229022   0.880   3.402   6.401
 9375SOL     OW29023   0.762   2.086   0.783
 9375SOL    HW129024   0.665   2.061   0.784
 9375SOL    HW229025   0.816   2.010   0.820
 9376SOL     OW29026   2.126   3.685   1.484
 9376SOL    HW129027   2.180   3.601   1.484
 9376SOL    HW229028   2.044   3.672   1.428
 9377SOL     OW29029   1.732   5.132   3.415
 9377SOL    HW129030   1.650   5.103   3.465
 9377SOL    HW229031   1.813   5.087   3.455
 9378SOL     OW29032   3.598   1.031   3.466
 9378SOL    HW129033   3.584   0.972   3.545
 9378SOL    HW229034   3.672   0.995   3.409
 9379SOL     OW29035   5.261   0.318   4.731
 9379SOL    HW129036   5.320   0.246   4.692
 9379SOL    HW229037   5.269   0.401   4.675
 9380SOL     OW29038   3.719   5.762   5.310
 9380SOL    HW129039   3.674   5.733   5.225
 9380SOL    HW229040   3.799   5.704   5.327
 9381SOL     OW29041   5.540   2.794   5.804
 9381SOL    HW129042   5.577   2.869   5.859
 9381SOL    HW229043   5.564   2.808   5.708
 9382SOL     OW29044   4.258   1.313   4.058
 9382SOL    HW129045   4.163   1.340   4.071
 9382SOL    HW229046   4.309   1.388   4.016
 9383SOL     OW29047   5.721   5.152   4.228
 9383SOL    HW129048   5.737   5.167   4.130
 9383SOL    HW229049   5.625   5.130   4.243
 9384SOL     OW29050   3.785   6.961   2.204
 9384SOL    HW129051   3.862   6.921   2.155
 9384SOL    HW229052   3.748   0.013   2.151
 9385SOL     OW29053   4.648   1.319   3.988
 9385SOL    HW129054   4.632   1.222   4.007
 9385SOL    HW229055   4.732   1.347   4.034
 9386SOL     OW29056   3.123   5.770   4.976
 9386SOL    HW129057   3.088   5.679   4.951
 9386SOL    HW229058   3.171   5.765   5.063
 9387SOL     OW29059   3.316   2.252   0.377
 9387SOL    HW129060   3.264   2.330   0.411
 9387SOL    HW229061   3.264   2.168   0.391
 9388SOL     OW29062   1.858   6.187   3.480
 9388SOL    HW129063   1.906   6.256   3.425
 9388SOL    HW229064   1.862   6.098   3.433
 9389SOL     OW29065   3.016   6.436   2.554
 9389SOL    HW129066   3.078   6.485   2.492
 9389SOL    HW229067   3.061   6.353   2.588
 9390SOL     OW29068   5.920   5.585   5.789
 9390SOL    HW129069   5.879   5.601   5.700
 9390SOL    HW229070   5.976   5.665   5.815
 9391SOL     OW29071   0.082   0.298   5.769
 9391SOL    HW129072   0.149   0.320   5.840
 9391SOL    HW229073   0.097   0.356   5.689
 9392SOL     OW29074   5.309   4.321   4.866
 9392SOL    HW129075   5.219   4.290   4.837
 9392SOL    HW229076   5.328   4.410   4.824
 9393SOL     OW29077   2.912   6.597   5.541
 9393SOL    HW129078   2.841   6.645   5.592
 9393SOL    HW229079   2.983   6.566   5.604
 9394SOL     OW29080   6.065   0.471   1.325
 9394SOL    HW129081   6.122   0.427   1.256
 9394SOL    HW229082   6.038   0.562   1.292
 9395SOL     OW29083   1.985   1.174   0.731
 9395SOL    HW129084   1.993   1.074   0.734
 9395SOL    HW229085   1.953   1.203   0.641
 9396SOL     OW29086   1.341   4.330   4.753
 9396SOL    HW129087   1.293   4.297   4.834
 9396SOL    HW229088   1.387   4.254   4.709
 9397SOL     OW29089   2.477   6.495   5.605
 9397SOL    HW129090   2.499   6.411   5.556
 9397SOL    HW229091   2.378   6.501   5.618
 9398SOL     OW29092   6.237   1.451   5.992
 9398SOL    HW129093   6.293   1.444   6.075
 9398SOL    HW229094   6.283   1.512   5.927
 9399SOL     OW29095   0.993   3.151   4.045
 9399SOL    HW129096   0.903   3.111   4.024
 9399SOL    HW229097   0.981   3.246   4.073
 9400SOL     OW29098   4.558   0.505   0.764
 9400SOL    HW129099   4.521   0.427   0.714
 9400SOL    HW229100   4.556   0.486   0.862
 9401SOL     OW29101   0.184   2.006   2.489
 9401SOL    HW129102   0.115   1.941   2.456
 9401SOL    HW229103   0.139   2.084   2.532
 9402SOL     OW29104   0.966   4.430   2.721
 9402SOL    HW129105   1.007   4.356   2.668
 9402SOL    HW229106   1.037   4.477   2.773
 9403SOL     OW29107   6.589   1.489   2.034
 9403SOL    HW129108   6.557   1.472   1.941
 9403SOL    HW229109   6.546   1.424   2.096
 9404SOL     OW29110   0.148   1.864   0.936
 9404SOL    HW129111   0.050   1.874   0.952
 9404SOL    HW229112   0.166   1.781   0.884
 9405SOL     OW29113   1.376   3.764   4.460
 9405SOL    HW129114   1.335   3.754   4.369
 9405SOL    HW229115   1.423   3.680   4.485
 9406SOL     OW29116   1.091   3.341   0.235
 9406SOL    HW129117   1.097   3.410   0.163
 9406SOL    HW229118   0.995   3.313   0.247
 9407SOL     OW29119   2.365   4.922   4.338
 9407SOL    HW129120   2.394   4.936   4.433
 9407SOL    HW229121   2.410   4.841   4.301
 9408SOL     OW29122   0.778   2.166   6.246
 9408SOL    HW129123   0.811   2.160   6.341
 9408SOL    HW229124   0.682   2.195   6.247
 9409SOL     OW29125   6.359   5.528   1.606
 9409SOL    HW129126   6.449   5.513   1.564
 9409SOL    HW229127   6.360   5.616   1.653
 9410SOL     OW29128   3.930   1.307   1.812
 9410SOL    HW129129   3.880   1.238   1.762
 9410SOL    HW229130   3.867   1.358   1.871
 9411SOL     OW29131   3.804   3.466   3.032
 9411SOL    HW129132   3.753   3.493   2.950
 9411SOL    HW229133   3.853   3.544   3.068
 9412SOL     OW29134   1.733   0.339   2.134
 9412SOL    HW129135   1.673   0.412   2.165
 9412SOL    HW229136   1.715   0.256   2.187
 9413SOL     OW29137   4.736   5.426   4.556
 9413SOL    HW129138   4.721   5.346   4.614
 9413SOL    HW229139   4.831   5.457   4.567
 9414SOL     OW29140   3.356   1.990   4.225
 9414SOL    HW129141   3.264   2.027   4.239
 9414SOL    HW229142   3.375   1.983   4.127
 9415SOL     OW29143   2.557   0.211   1.556
 9415SOL    HW129144   2.653   0.199   1.531
 9415SOL    HW229145   2.505   0.237   1.474
 9416SOL     OW29146   0.181   0.529   5.295
 9416SOL    HW129147   0.173   0.498   5.389
 9416SOL    HW229148   0.234   0.614   5.291
 9417SOL     OW29149   4.078   6.603   1.453
 9417SOL    HW129150   4.089   6.505   1.438
 9417SOL    HW229151   3.998   6.636   1.404
 9418SOL     OW29152   2.324   1.424   2.698
 9418SOL    HW129153   2.341   1.496   2.632
 9418SOL    HW229154   2.404   1.364   2.704
 9419SOL     OW29155   1.897   3.454   6.522
 9419SOL    HW129156   1.904   3.355   6.511
 9419SOL    HW229157   1.899   3.498   6.432
 9420SOL     OW29158   5.261   4.351   0.072
 9420SOL    HW129159   5.266   4.357   6.997
 9420SOL    HW229160   5.306   4.267   0.102
 9421SOL     OW29161   3.137   5.215   3.939
 9421SOL    HW129162   3.128   5.240   3.842
 9421SOL    HW229163   3.091   5.283   3.995
 9422SOL     OW29164   2.705   6.286   4.099
 9422SOL    HW129165   2.717   6.267   4.002
 9422SOL    HW229166   2.794   6.301   4.141
 9423SOL     OW29167   3.812   6.142   2.984
 9423SOL    HW129168   3.788   6.160   3.080
 9423SOL    HW229169   3.905   6.105   2.979
 9424SOL     OW29170   5.498   1.666   4.805
 9424SOL    HW129171   5.423   1.609   4.839
 9424SOL    HW229172   5.553   1.699   4.882
 9425SOL     OW29173   5.712   5.307   1.059
 9425SOL    HW129174   5.612   5.312   1.052
 9425SOL    HW229175   5.748   5.396   1.084
 9426SOL     OW29176   2.452   1.519   6.064
 9426SOL    HW129177   2.399   1.434   6.073
 9426SOL    HW229178   2.536   1.512   6.119
 9427SOL     OW29179   2.280   5.911   3.441
 9427SOL    HW129180   2.294   5.939   3.536
 9427SOL    HW229181   2.200   5.852   3.435
 9428SOL     OW29182   6.810   0.238   0.708
 9428SOL    HW129183   6.722   0.259   0.665
 9428SOL    HW229184   6.827   0.304   0.781
 9429SOL     OW29185   1.772   2.218   4.063
 9429SOL    HW129186   1.683   2.209   4.017
 9429SOL    HW229187   1.844   2.230   3.995
 9430SOL     OW29188   0.288   2.622   4.112
 9430SOL    HW129189   0.308   2.694   4.045
 9430SOL    HW229190   0.193   2.595   4.103
 9431SOL     OW29191   6.537   4.538   0.949
 9431SOL    HW129192   6.486   4.489   0.879
 9431SOL    HW229193   6.529   4.636   0.934
 9432SOL     OW29194   5.874   1.372   4.715
 9432SOL    HW129195   5.896   1.325   4.800
 9432SOL    HW229196   5.860   1.305   4.642
 9433SOL     OW29197   3.988   6.158   3.277
 9433SOL    HW129198   4.020   6.244   3.315
 9433SOL    HW229199   3.891   6.165   3.255
 9434SOL     OW29200   5.841   5.688   3.452
 9434SOL    HW129201   5.830   5.606   3.396
 9434SOL    HW229202   5.928   5.732   3.431
 9435SOL     OW29203   0.150   1.924   2.769
 9435SOL    HW129204   0.080   1.904   2.837
 9435SOL    HW229205   0.167   2.023   2.766
 9436SOL     OW29206   1.142   1.513   2.779
 9436SOL    HW129207   1.180   1.421   2.790
 9436SOL    HW229208   1.203   1.568   2.721
 9437SOL     OW29209   0.706   5.195   3.701
 9437SOL    HW129210   0.732   5.231   3.790
 9437SOL    HW229211   0.713   5.267   3.632
 9438SOL     OW29212   1.353   0.435   2.108
 9438SOL    HW129213   1.394   0.344   2.111
 9438SOL    HW229214   1.401   0.495   2.172
 9439SOL     OW29215   0.786   3.368   1.266
 9439SOL    HW129216   0.833   3.319   1.340
 9439SOL    HW229217   0.849   3.386   1.192
 9440SOL     OW29218   3.432   4.958   3.501
 9440SOL    HW129219   3.435   4.960   3.401
 9440SOL    HW229220   3.338   4.938   3.530
 9441SOL     OW29221   6.426   6.198   5.404
 9441SOL    HW129222   6.493   6.265   5.435
 9441SOL    HW229223   6.387   6.151   5.483
 9442SOL     OW29224   4.812   3.301   1.763
 9442SOL    HW129225   4.731   3.250   1.731
 9442SOL    HW229226   4.855   3.250   1.837
 9443SOL     OW29227   2.958   6.012   1.395
 9443SOL    HW129228   2.990   6.062   1.314
 9443SOL    HW229229   2.892   6.069   1.445
 9444SOL     OW29230   1.879   4.495   0.677
 9444SOL    HW129231   1.830   4.416   0.712
 9444SOL    HW229232   1.961   4.465   0.628
 9445SOL     OW29233   6.736   2.584   3.214
 9445SOL    HW129234   6.676   2.653   3.174
 9445SOL    HW229235   6.738   2.502   3.157
 9446SOL     OW29236   0.631   5.103   4.204
 9446SOL    HW129237   0.698   5.171   4.174
 9446SOL    HW229238   0.660   5.064   4.291
 9447SOL     OW29239   5.416   4.711   3.498
 9447SOL    HW129240   5.379   4.799   3.468
 9447SOL    HW229241   5.344   4.641   3.495
 9448SOL     OW29242   6.687   6.717   6.518
 9448SOL    HW129243   6.604   6.697   6.571
 9448SOL    HW229244   6.752   6.766   6.576
 9449SOL     OW29245   5.938   6.804   0.128
 9449SOL    HW129246   5.899   6.884   0.173
 9449SOL    HW229247   6.018   6.772   0.179
 9450SOL     OW29248   2.057   5.294   3.544
 9450SOL    HW129249   2.100   5.206   3.563
 9450SOL    HW229250   1.970   5.300   3.593
 9451SOL     OW29251   4.332   5.966   6.197
 9451SOL    HW129252   4.285   5.887   6.156
 9451SOL    HW229253   4.297   6.050   6.158
 9452SOL     OW29254   0.617   3.920   6.938
 9452SOL    HW129255   0.670   3.988   6.988
 9452SOL    HW229256   0.649   3.915   6.844
 9453SOL     OW29257   2.747   5.030   2.489
 9453SOL    HW129258   2.839   5.069   2.489
 9453SOL    HW229259   2.685   5.092   2.538
 9454SOL     OW29260   3.959   3.467   6.828
 9454SOL    HW129261   3.870   3.448   6.871
 9454SOL    HW229262   3.944   3.510   6.739
 9455SOL     OW29263   2.569   2.003   2.957
 9455SOL    HW129264   2.577   2.050   2.869
 9455SOL    HW229265   2.649   2.025   3.014
 9456SOL     OW29266   6.007   4.050   1.941
 9456SOL    HW129267   5.934   3.989   1.972
 9456SOL    HW229268   5.983   4.087   1.852
 9457SOL     OW29269   0.342   4.319   4.160
 9457SOL    HW129270   0.358   4.241   4.100
 9457SOL    HW229271   0.247   4.348   4.153
 9458SOL     OW29272   6.997   3.870   0.268
 9458SOL    HW129273   0.018   3.784   0.244
 9458SOL    HW229274   6.978   3.922   0.185
 9459SOL     OW29275   5.453   4.544   3.803
 9459SOL    HW129276   5.368   4.595   3.796
 9459SOL    HW229277   5.512   4.584   3.873
 9460SOL     OW29278   2.118   2.915   4.357
 9460SOL    HW129279   2.116   2.964   4.270
 9460SOL    HW229280   2.151   2.976   4.429
 9461SOL     OW29281   0.785   1.331   1.491
 9461SOL    HW129282   0.861   1.280   1.531
 9461SOL    HW229283   0.699   1.285   1.510
 9462SOL     OW29284   2.128   3.049   3.665
 9462SOL    HW129285   2.122   3.045   3.565
 9462SOL    HW229286   2.040   3.022   3.704
 9463SOL     OW29287   5.294   6.889   1.397
 9463SOL    HW129288   5.197   6.868   1.396
 9463SOL    HW229289   5.312   6.968   1.338
 9464SOL     OW29290   5.782   0.156   0.602
 9464SOL    HW129291   5.745   0.165   0.695
 9464SOL    HW229292   5.849   0.228   0.586
 9465SOL     OW29293   6.771   4.123   1.460
 9465SOL    HW129294   6.753   4.212   1.503
 9465SOL    HW229295   6.730   4.122   1.369
 9466SOL     OW29296   3.531   4.332   5.818
 9466SOL    HW129297   3.465   4.397   5.857
 9466SOL    HW229298   3.533   4.342   5.719
 9467SOL     OW29299   0.774   2.560   1.106
 9467SOL    HW129300   0.804   2.466   1.092
 9467SOL    HW229301   0.708   2.563   1.181
 9468SOL     OW29302   6.717   3.876   6.699
 9468SOL    HW129303   6.783   3.850   6.628
 9468SOL    HW229304   6.646   3.806   6.705
 9469SOL     OW29305   0.345   5.992   1.430
 9469SOL    HW129306   0.319   5.959   1.521
 9469SOL    HW229307   0.432   6.040   1.436
 9470SOL     OW29308   4.874   3.689   6.872
 9470SOL    HW129309   4.841   3.606   6.917
 9470SOL    HW229310   4.798   3.752   6.856
 9471SOL     OW29311   5.711   2.243   5.792
 9471SOL    HW129312   5.720   2.146   5.816
 9471SOL    HW229313   5.678   2.294   5.871
 9472SOL     OW29314   0.697   4.056   5.559
 9472SOL    HW129315   0.658   4.139   5.518
 9472SOL    HW229316   0.749   4.082   5.641
 9473SOL     OW29317   2.890   4.074   6.650
 9473SOL    HW129318   2.948   4.019   6.590
 9473SOL    HW229319   2.944   4.148   6.690
 9474SOL     OW29320   6.018   3.421   2.074
 9474SOL    HW129321   6.035   3.323   2.085
 9474SOL    HW229322   6.099   3.472   2.102
 9475SOL     OW29323   4.934   3.608   0.212
 9475SOL    HW129324   4.892   3.677   0.272
 9475SOL    HW229325   5.008   3.650   0.160
 9476SOL     OW29326   4.242   3.686   5.137
 9476SOL    HW129327   4.167   3.632   5.176
 9476SOL    HW229328   4.305   3.711   5.210
 9477SOL     OW29329   1.361   3.102   0.949
 9477SOL    HW129330   1.365   3.128   0.852
 9477SOL    HW229331   1.349   3.004   0.957
 9478SOL     OW29332   4.819   2.722   1.092
 9478SOL    HW129333   4.726   2.756   1.100
 9478SOL    HW229334   4.882   2.783   1.140
 9479SOL     OW29335   4.038   6.717   0.836
 9479SOL    HW129336   4.082   6.762   0.759
 9479SOL    HW229337   4.107   6.669   0.890
 9480SOL     OW29338   5.817   5.381   0.446
 9480SOL    HW129339   5.719   5.389   0.430
 9480SOL    HW229340   5.843   5.441   0.522
 9481SOL     OW29341   5.245   2.122   3.123
 9481SOL    HW129342   5.184   2.181   3.174
 9481SOL    HW229343   5.257   2.158   3.030
 9482SOL     OW29344   6.157   0.587   2.191
 9482SOL    HW129345   6.200   0.674   2.167
 9482SOL    HW229346   6.184   0.562   2.284
 9483SOL     OW29347   1.374   1.203   0.411
 9483SOL    HW129348   1.275   1.216   0.413
 9483SOL    HW229349   1.416   1.280   0.364
 9484SOL     OW29350   2.652   0.101   4.696
 9484SOL    HW129351   2.585   0.138   4.631
 9484SOL    HW229352   2.742   0.140   4.678
 9485SOL     OW29353   0.036   1.632   0.653
 9485SOL    HW129354   0.099   1.610   0.727
 9485SOL    HW229355   0.026   1.552   0.593
 9486SOL     OW29356   4.804   6.321   1.305
 9486SOL    HW129357   4.847   6.295   1.391
 9486SOL    HW229358   4.785   6.238   1.251
 9487SOL     OW29359   3.346   4.051   4.423
 9487SOL    HW129360   3.428   4.107   4.432
 9487SOL    HW229361   3.279   4.078   4.493
 9488SOL     OW29362   2.482   0.433   0.999
 9488SOL    HW129363   2.423   0.356   0.972
 9488SOL    HW229364   2.476   0.446   1.098
 9489SOL     OW29365   5.160   4.208   0.954
 9489SOL    HW129366   5.257   4.185   0.950
 9489SOL    HW229367   5.122   4.205   0.861
 9490SOL     OW29368   0.041   6.258   3.691
 9490SOL    HW129369   0.029   6.260   3.592
 9490SOL    HW229370   0.102   6.333   3.719
 9491SOL     OW29371   5.956   5.603   4.549
 9491SOL    HW129372   6.007   5.552   4.618
 9491SOL    HW229373   6.009   5.608   4.465
 9492SOL     OW29374   3.922   3.243   5.533
 9492SOL    HW129375   3.957   3.249   5.439
 9492SOL    HW229376   3.998   3.239   5.597
 9493SOL     OW29377   3.395   5.518   4.281
 9493SOL    HW129378   3.341   5.447   4.236
 9493SOL    HW229379   3.456   5.477   4.348
 9494SOL     OW29380   5.763   3.040   2.361
 9494SOL    HW129381   5.800   2.947   2.363
 9494SOL    HW229382   5.837   3.106   2.371
 9495SOL     OW29383   0.052   1.757   2.471
 9495SOL    HW129384   0.053   1.698   2.391
 9495SOL    HW229385   0.139   1.748   2.520
 9496SOL     OW29386   4.685   2.355   1.876
 9496SOL    HW129387   4.746   2.433   1.890
 9496SOL    HW229388   4.605   2.364   1.934
 9497SOL     OW29389   5.256   6.391   5.808
 9497SOL    HW129390   5.211   6.480   5.796
 9497SOL    HW229391   5.236   6.333   5.729
 9498SOL     OW29392   6.508   4.413   5.135
 9498SOL    HW129393   6.585   4.356   5.105
 9498SOL    HW229394   6.541   4.505   5.154
 9499SOL     OW29395   0.643   5.684   4.898
 9499SOL    HW129396   0.588   5.745   4.955
 9499SOL    HW229397   0.596   5.596   4.889
 9500SOL     OW29398   3.927   6.468   0.557
 9500SOL    HW129399   3.959   6.373   0.559
 9500SOL    HW229400   3.837   6.471   0.513
 9501SOL     OW29401   1.825   1.167   4.504
 9501SOL    HW129402   1.841   1.124   4.593
 9501SOL    HW229403   1.906   1.219   4.478
 9502SOL     OW29404   6.237   4.025   4.302
 9502SOL    HW129405   6.275   3.960   4.368
 9502SOL    HW229406   6.305   4.096   4.283
 9503SOL     OW29407   7.005   2.507   0.332
 9503SOL    HW129408   0.007   2.487   0.426
 9503SOL    HW229409   0.007   2.600   0.308
 9504SOL     OW29410   6.513   3.981   1.747
 9504SOL    HW129411   6.551   3.969   1.839
 9504SOL    HW229412   6.588   3.999   1.682
 9505SOL     OW29413   5.482   4.471   5.451
 9505SOL    HW129414   5.517   4.382   5.420
 9505SOL    HW229415   5.522   4.493   5.540
 9506SOL     OW29416   1.788   2.808   0.533
 9506SOL    HW129417   1.885   2.833   0.533
 9506SOL    HW229418   1.736   2.876   0.584
 9507SOL     OW29419   6.692   0.517   1.315
 9507SOL    HW129420   6.718   0.594   1.257
 9507SOL    HW229421   6.617   0.466   1.272
 9508SOL     OW29422   5.821   2.157   3.035
 9508SOL    HW129423   5.845   2.236   2.978
 9508SOL    HW229424   5.722   2.146   3.037
 9509SOL     OW29425   0.130   0.484   3.700
 9509SOL    HW129426   0.123   0.384   3.694
 9509SOL    HW229427   0.083   0.525   3.622
 9510SOL     OW29428   1.296   3.419   3.292
 9510SOL    HW129429   1.335   3.362   3.364
 9510SOL    HW229430   1.239   3.491   3.333
 9511SOL     OW29431   1.830   0.799   2.043
 9511SOL    HW129432   1.897   0.873   2.041
 9511SOL    HW229433   1.830   0.756   2.133
 9512SOL     OW29434   6.679   2.271   1.218
 9512SOL    HW129435   6.731   2.300   1.299
 9512SOL    HW229436   6.582   2.265   1.242
 9513SOL     OW29437   2.760   4.867   6.046
 9513SOL    HW129438   2.661   4.857   6.059
 9513SOL    HW229439   2.786   4.831   5.956
 9514SOL     OW29440   2.746   4.617   6.569
 9514SOL    HW129441   2.709   4.707   6.590
 9514SOL    HW229442   2.688   4.547   6.611
 9515SOL     OW29443   1.890   5.997   2.423
 9515SOL    HW129444   1.973   5.948   2.449
 9515SOL    HW229445   1.846   5.949   2.346
 9516SOL     OW29446   5.740   4.489   6.933
 9516SOL    HW129447   5.693   4.536   6.859
 9516SOL    HW229448   5.770   4.555   7.002
 9517SOL     OW29449   1.558   3.538   1.584
 9517SOL    HW129450   1.465   3.575   1.586
 9517SOL    HW229451   1.609   3.572   1.663
 9518SOL     OW29452   2.388   1.627   0.947
 9518SOL    HW129453   2.440   1.589   0.871
 9518SOL    HW229454   2.399   1.726   0.948
 9519SOL     OW29455   2.893   2.923   5.355
 9519SOL    HW129456   2.902   2.869   5.438
 9519SOL    HW229457   2.978   2.918   5.303
 9520SOL     OW29458   2.923   0.399   3.019
 9520SOL    HW129459   2.875   0.412   3.105
 9520SOL    HW229460   3.004   0.341   3.033
 9521SOL     OW29461   5.807   5.282   2.632
 9521SOL    HW129462   5.883   5.331   2.589
 9521SOL    HW229463   5.838   5.239   2.717
 9522SOL     OW29464   3.420   5.520   0.684
 9522SOL    HW129465   3.396   5.567   0.599
 9522SOL    HW229466   3.377   5.429   0.684
 9523SOL     OW29467   3.173   5.402   4.719
 9523SOL    HW129468   3.084   5.379   4.758
 9523SOL    HW229469   3.182   5.501   4.712
 9524SOL     OW29470   3.926   2.608   1.709
 9524SOL    HW129471   3.898   2.694   1.753
 9524SOL    HW229472   3.902   2.612   1.612
 9525SOL     OW29473   2.396   2.780   6.196
 9525SOL    HW129474   2.367   2.686   6.179
 9525SOL    HW229475   2.482   2.779   6.248
 9526SOL     OW29476   5.658   5.670   2.154
 9526SOL    HW129477   5.691   5.575   2.156
 9526SOL    HW229478   5.583   5.680   2.219
 9527SOL     OW29479   0.989   0.340   1.325
 9527SOL    HW129480   1.035   0.280   1.391
 9527SOL    HW229481   0.959   0.286   1.247
 9528SOL     OW29482   0.179   0.878   7.002
 9528SOL    HW129483   0.179   0.958   6.942
 9528SOL    HW229484   0.246   0.892   0.051
 9529SOL     OW29485   0.144   3.277   5.090
 9529SOL    HW129486   0.137   3.362   5.038
 9529SOL    HW229487   0.221   3.281   5.153
 9530SOL     OW29488   1.900   3.002   3.821
 9530SOL    HW129489   1.889   2.906   3.847
 9530SOL    HW229490   1.888   3.059   3.902
 9531SOL     OW29491   3.760   5.348   3.258
 9531SOL    HW129492   3.811   5.388   3.334
 9531SOL    HW229493   3.681   5.405   3.237
 9532SOL     OW29494   0.668   5.957   2.061
 9532SOL    HW129495   0.655   6.049   2.099
 9532SOL    HW229496   0.595   5.897   2.094
 9533SOL     OW29497   0.190   0.884   5.423
 9533SOL    HW129498   0.196   0.984   5.428
 9533SOL    HW229499   0.257   0.850   5.357
 9534SOL     OW29500   6.088   3.172   5.527
 9534SOL    HW129501   6.009   3.142   5.580
 9534SOL    HW229502   6.143   3.236   5.581
 9535SOL     OW29503   2.385   1.236   6.037
 9535SOL    HW129504   2.475   1.202   6.010
 9535SOL    HW229505   2.373   1.225   6.136
 9536SOL     OW29506   2.070   5.179   5.047
 9536SOL    HW129507   2.064   5.204   5.144
 9536SOL    HW229508   1.980   5.146   5.016
 9537SOL     OW29509   3.086   0.346   2.603
 9537SOL    HW129510   2.988   0.331   2.621
 9537SOL    HW229511   3.127   0.392   2.681
 9538SOL     OW29512   6.668   1.513   4.242
 9538SOL    HW129513   6.579   1.515   4.197
 9538SOL    HW229514   6.721   1.435   4.209
 9539SOL     OW29515   2.037   4.467   6.381
 9539SOL    HW129516   2.007   4.558   6.407
 9539SOL    HW229517   1.960   4.415   6.346
 9540SOL     OW29518   4.615   4.352   5.159
 9540SOL    HW129519   4.702   4.397   5.142
 9540SOL    HW229520   4.627   4.252   5.156
 9541SOL     OW29521   2.146   2.193   5.334
 9541SOL    HW129522   2.183   2.285   5.323
 9541SOL    HW229523   2.174   2.156   5.422
 9542SOL     OW29524   4.661   3.820   5.340
 9542SOL    HW129525   4.676   3.728   5.304
 9542SOL    HW229526   4.747   3.871   5.336
 9543SOL     OW29527   4.873   0.716   4.466
 9543SOL    HW129528   4.841   0.696   4.374
 9543SOL    HW229529   4.802   0.692   4.532
 9544SOL     OW29530   5.427   0.576   1.812
 9544SOL    HW129531   5.451   0.657   1.867
 9544SOL    HW229532   5.511   0.533   1.779
 9545SOL     OW29533   6.590   5.502   2.875
 9545SOL    HW129534   6.677   5.492   2.925
 9545SOL    HW229535   6.604   5.561   2.796
 9546SOL     OW29536   2.450   4.015   6.441
 9546SOL    HW129537   2.446   4.023   6.341
 9546SOL    HW229538   2.529   4.066   6.475
 9547SOL     OW29539   1.991   6.212   4.537
 9547SOL    HW129540   2.007   6.308   4.517
 9547SOL    HW229541   1.899   6.200   4.575
 9548SOL     OW29542   6.723   5.161   4.992
 9548SOL    HW129543   6.625   5.148   5.004
 9548SOL    HW229544   6.745   5.258   5.000
 9549SOL     OW29545   3.156   4.870   1.002
 9549SOL    HW129546   3.173   4.831   0.911
 9549SOL    HW229547   3.069   4.918   1.001
 9550SOL     OW29548   6.940   1.137   6.445
 9550SOL    HW129549   7.022   1.154   6.499
 9550SOL    HW229550   6.902   1.048   6.470
 9551SOL     OW29551   0.172   6.490   4.260
 9551SOL    HW129552   0.083   6.468   4.299
 9551SOL    HW229553   0.159   6.535   4.172
 9552SOL     OW29554   1.742   6.134   2.853
 9552SOL    HW129555   1.761   6.041   2.821
 9552SOL    HW229556   1.817   6.166   2.911
 9553SOL     OW29557   6.054   5.262   6.608
 9553SOL    HW129558   6.110   5.180   6.598
 9553SOL    HW229559   5.964   5.237   6.642
 9554SOL     OW29560   3.033   1.126   1.534
 9554SOL    HW129561   3.061   1.171   1.619
 9554SOL    HW229562   3.113   1.107   1.478
 9555SOL     OW29563   6.333   2.543   1.236
 9555SOL    HW129564   6.362   2.464   1.290
 9555SOL    HW229565   6.347   2.525   1.139
 9556SOL     OW29566   2.531   1.654   1.738
 9556SOL    HW129567   2.454   1.710   1.770
 9556SOL    HW229568   2.580   1.703   1.666
 9557SOL     OW29569   6.110   0.544   2.661
 9557SOL    HW129570   6.017   0.564   2.631
 9557SOL    HW229571   6.167   0.626   2.648
 9558SOL     OW29572   6.985   5.375   3.328
 9558SOL    HW129573   6.923   5.319   3.384
 9558SOL    HW229574   0.004   5.443   3.386
 9559SOL     OW29575   6.956   4.420   2.588
 9559SOL    HW129576   6.922   4.508   2.554
 9559SOL    HW229577   6.952   4.352   2.515
 9560SOL     OW29578   2.061   1.480   2.793
 9560SOL    HW129579   2.060   1.552   2.862
 9560SOL    HW229580   2.155   1.461   2.766
 9561SOL     OW29581   2.674   6.743   0.429
 9561SOL    HW129582   2.606   6.696   0.373
 9561SOL    HW229583   2.629   6.787   0.506
 9562SOL     OW29584   3.426   5.726   4.536
 9562SOL    HW129585   3.366   5.784   4.591
 9562SOL    HW229586   3.371   5.667   4.476
 9563SOL     OW29587   6.472   6.595   6.795
 9563SOL    HW129588   6.437   6.630   6.883
 9563SOL    HW229589   6.472   6.495   6.797
 9564SOL     OW29590   2.477   0.148   6.557
 9564SOL    HW129591   2.562   0.191   6.525
 9564SOL    HW229592   2.401   0.182   6.502
 9565SOL     OW29593   4.723   5.682   5.668
 9565SOL    HW129594   4.808   5.727   5.695
 9565SOL    HW229595   4.703   5.607   5.732
 9566SOL     OW29596   3.627   4.302   6.599
 9566SOL    HW129597   3.727   4.306   6.605
 9566SOL    HW229598   3.600   4.275   6.506
 9567SOL     OW29599   6.306   5.649   6.393
 9567SOL    HW129600   6.268   5.559   6.371
 9567SOL    HW229601   6.236   5.719   6.380
 9568SOL     OW29602   4.882   3.571   6.522
 9568SOL    HW129603   4.916   3.532   6.608
 9568SOL    HW229604   4.887   3.670   6.526
 9569SOL     OW29605   6.320   0.940   0.458
 9569SOL    HW129606   6.254   0.934   0.533
 9569SOL    HW229607   6.364   1.030   0.459
 9570SOL     OW29608   0.632   1.557   1.373
 9570SOL    HW129609   0.556   1.496   1.397
 9570SOL    HW229610   0.718   1.514   1.399
 9571SOL     OW29611   2.767   3.404   0.047
 9571SOL    HW129612   2.837   3.472   0.027
 9571SOL    HW229613   2.695   3.445   0.102
 9572SOL     OW29614   1.455   4.474   1.203
 9572SOL    HW129615   1.483   4.444   1.111
 9572SOL    HW229616   1.356   4.479   1.207
 9573SOL     OW29617   0.780   0.768   6.650
 9573SOL    HW129618   0.767   0.865   6.634
 9573SOL    HW229619   0.873   0.742   6.623
 9574SOL     OW29620   3.238   3.546   5.173
 9574SOL    HW129621   3.207   3.625   5.119
 9574SOL    HW229622   3.161   3.511   5.227
 9575SOL     OW29623   6.221   0.778   1.117
 9575SOL    HW129624   6.297   0.755   1.178
 9575SOL    HW229625   6.141   0.804   1.173
 9576SOL     OW29626   4.086   1.434   3.792
 9576SOL    HW129627   4.053   1.357   3.846
 9576SOL    HW229628   4.083   1.517   3.847
 9577SOL     OW29629   0.926   0.448   2.224
 9577SOL    HW129630   0.953   0.405   2.309
 9577SOL    HW229631   0.827   0.463   2.224
 9578SOL     OW29632   5.997   3.182   3.048
 9578SOL    HW129633   5.992   3.160   3.146
 9578SOL    HW229634   6.079   3.140   3.009
 9579SOL     OW29635   1.007   7.013   2.431
 9579SOL    HW129636   1.063   7.016   2.348
 9579SOL    HW229637   0.926   6.957   2.415
 9580SOL     OW29638   5.097   3.679   7.024
 9580SOL    HW129639   5.170   3.621   6.987
 9580SOL    HW229640   5.025   3.690   6.956
 9581SOL     OW29641   1.724   5.100   5.991
 9581SOL    HW129642   1.749   5.161   6.067
 9581SOL    HW229643   1.647   5.140   5.941
 9582SOL     OW29644   4.412   4.598   3.845
 9582SOL    HW129645   4.472   4.518   3.842
 9582SOL    HW229646   4.404   4.630   3.939
 9583SOL     OW29647   1.985   3.511   1.846
 9583SOL    HW129648   1.995   3.474   1.754
 9583SOL    HW229649   2.072   3.502   1.895
 9584SOL     OW29650   5.803   5.380   0.171
 9584SOL    HW129651   5.778   5.284   0.163
 9584SOL    HW229652   5.860   5.394   0.252
 9585SOL     OW29653   5.592   0.097   2.724
 9585SOL    HW129654   5.551   0.133   2.641
 9585SOL    HW229655   5.651   0.167   2.765
 9586SOL     OW29656   5.180   3.682   3.734
 9586SOL    HW129657   5.225   3.732   3.660
 9586SOL    HW229658   5.242   3.615   3.772
 9587SOL     OW29659   6.242   0.429   1.559
 9587SOL    HW129660   6.219   0.424   1.656
 9587SOL    HW229661   6.160   0.448   1.506
 9588SOL     OW29662   0.038   0.497   1.290
 9588SOL    HW129663   0.014   0.429   1.220
 9588SOL    HW229664   0.028   0.589   1.252
 9589SOL     OW29665   2.050   6.412   6.450
 9589SOL    HW129666   1.993   6.390   6.371
 9589SOL    HW229667   2.097   6.329   6.480
 9590SOL     OW29668   0.300   4.020   2.373
 9590SOL    HW129669   0.400   4.014   2.371
 9590SOL    HW229670   0.263   3.974   2.292
 9591SOL     OW29671   1.802   6.621   0.792
 9591SOL    HW129672   1.713   6.576   0.793
 9591SOL    HW229673   1.854   6.591   0.712
 9592SOL     OW29674   3.988   5.213   3.220
 9592SOL    HW129675   3.905   5.262   3.245
 9592SOL    HW229676   4.016   5.239   3.128
 9593SOL     OW29677   5.466   2.522   4.319
 9593SOL    HW129678   5.545   2.471   4.286
 9593SOL    HW229679   5.486   2.560   4.409
 9594SOL     OW29680   6.737   6.509   3.117
 9594SOL    HW129681   6.661   6.455   3.155
 9594SOL    HW229682   6.816   6.501   3.177
 9595SOL     OW29683   2.068   5.898   4.711
 9595SOL    HW129684   2.105   5.863   4.796
 9595SOL    HW229685   1.998   5.966   4.731
 9596SOL     OW29686   0.027   5.571   5.335
 9596SOL    HW129687   0.104   5.624   5.372
 9596SOL    HW229688   7.005   5.525   5.410
 9597SOL     OW29689   0.212   4.275   1.938
 9597SOL    HW129690   0.292   4.215   1.943
 9597SOL    HW229691   0.167   4.264   1.850
 9598SOL     OW29692   0.550   4.453   5.617
 9598SOL    HW129693   0.556   4.493   5.708
 9598SOL    HW229694   0.503   4.366   5.621
 9599SOL     OW29695   3.467   0.277   5.659
 9599SOL    HW129696   3.539   0.331   5.615
 9599SOL    HW229697   3.429   0.211   5.594
 9600SOL     OW29698   1.262   0.491   5.937
 9600SOL    HW129699   1.225   0.576   5.974
 9600SOL    HW229700   1.239   0.415   5.998
 9601SOL     OW29701   0.223   4.431   6.351
 9601SOL    HW129702   0.259   4.522   6.371
 9601SOL    HW229703   0.266   4.395   6.269
 9602SOL     OW29704   6.816   4.728   6.127
 9602SOL    HW129705   6.769   4.738   6.214
 9602SOL    HW229706   6.911   4.699   6.144
 9603SOL     OW29707   2.573   5.991   4.737
 9603SOL    HW129708   2.510   5.993   4.814
 9603SOL    HW229709   2.570   6.078   4.688
 9604SOL     OW29710   5.057   1.120   0.141
 9604SOL    HW129711   5.044   1.033   0.095
 9604SOL    HW229712   4.972   1.173   0.139
 9605SOL     OW29713   1.614   5.134   5.243
 9605SOL    HW129714   1.600   5.230   5.217
 9605SOL    HW229715   1.539   5.079   5.207
 9606SOL     OW29716   0.571   6.598   3.453
 9606SOL    HW129717   0.530   6.610   3.363
 9606SOL    HW229718   0.666   6.569   3.443
 9607SOL     OW29719   1.148   0.949   1.485
 9607SOL    HW129720   1.246   0.953   1.468
 9607SOL    HW229721   1.129   0.878   1.554
 9608SOL     OW29722   6.777   0.175   2.264
 9608SOL    HW129723   6.805   0.235   2.190
 9608SOL    HW229724   6.780   0.225   2.351
 9609SOL     OW29725   1.990   4.094   4.733
 9609SOL    HW129726   1.924   4.145   4.678
 9609SOL    HW229727   2.064   4.155   4.760
 9610SOL     OW29728   1.650   2.403   5.765
 9610SOL    HW129729   1.686   2.324   5.815
 9610SOL    HW229730   1.610   2.468   5.830
 9611SOL     OW29731   6.464   0.302   0.994
 9611SOL    HW129732   6.461   0.309   1.094
 9611SOL    HW229733   6.538   0.360   0.959
 9612SOL     OW29734   0.003   2.835   0.321
 9612SOL    HW129735   0.071   2.905   0.346
 9612SOL    HW229736   6.992   2.855   0.229
 9613SOL     OW29737   5.625   0.078   4.431
 9613SOL    HW129738   5.661   7.014   4.404
 9613SOL    HW229739   5.556   0.066   4.502
 9614SOL     OW29740   3.877   4.024   2.241
 9614SOL    HW129741   3.805   4.080   2.201
 9614SOL    HW229742   3.869   4.026   2.341
 9615SOL     OW29743   1.684   5.589   2.813
 9615SOL    HW129744   1.639   5.602   2.725
 9615SOL    HW229745   1.770   5.539   2.800
 9616SOL     OW29746   3.624   2.354   0.720
 9616SOL    HW129747   3.691   2.424   0.695
 9616SOL    HW229748   3.667   2.288   0.782
 9617SOL     OW29749   0.917   3.533   3.543
 9617SOL    HW129750   0.934   3.507   3.638
 9617SOL    HW229751   0.830   3.581   3.537
 9618SOL     OW29752   3.876   6.660   6.657
 9618SOL    HW129753   3.897   6.567   6.627
 9618SOL    HW229754   3.777   6.670   6.668
 9619SOL     OW29755   1.646   5.656   0.282
 9619SOL    HW129756   1.725   5.664   0.343
 9619SOL    HW229757   1.576   5.723   0.308
 9620SOL     OW29758   3.511   0.365   6.735
 9620SOL    HW129759   3.552   0.350   6.645
 9620SOL    HW229760   3.516   0.281   6.788
 9621SOL     OW29761   1.023   0.422   2.664
 9621SOL    HW129762   1.108   0.447   2.618
 9621SOL    HW229763   1.037   0.421   2.763
 9622SOL     OW29764   6.740   1.112   6.714
 9622SOL    HW129765   6.669   1.182   6.700
 9622SOL    HW229766   6.769   1.113   6.809
 9623SOL     OW29767   4.852   5.777   6.512
 9623SOL    HW129768   4.871   5.707   6.444
 9623SOL    HW229769   4.883   5.866   6.478
 9624SOL     OW29770   5.498   5.347   5.200
 9624SOL    HW129771   5.447   5.347   5.113
 9624SOL    HW229772   5.573   5.281   5.194
 9625SOL     OW29773   5.717   4.806   6.316
 9625SOL    HW129774   5.619   4.804   6.332
 9625SOL    HW229775   5.760   4.726   6.359
 9626SOL     OW29776   1.630   4.387   5.050
 9626SOL    HW129777   1.645   4.430   4.961
 9626SOL    HW229778   1.706   4.410   5.111
 9627SOL     OW29779   1.745   4.613   5.639
 9627SOL    HW129780   1.725   4.603   5.542
 9627SOL    HW229781   1.671   4.664   5.683
 9628SOL     OW29782   5.922   4.291   6.943
 9628SOL    HW129783   5.876   4.202   6.942
 9628SOL    HW229784   5.854   4.363   6.929
 9629SOL     OW29785   6.471   6.210   2.844
 9629SOL    HW129786   6.374   6.189   2.860
 9629SOL    HW229787   6.522   6.125   2.831
 9630SOL     OW29788   5.966   6.493   5.754
 9630SOL    HW129789   5.975   6.399   5.720
 9630SOL    HW229790   5.931   6.552   5.681
 9631SOL     OW29791   4.551   1.070   1.327
 9631SOL    HW129792   4.530   1.016   1.246
 9631SOL    HW229793   4.474   1.067   1.390
 9632SOL     OW29794   2.192   5.043   1.650
 9632SOL    HW129795   2.182   5.120   1.713
 9632SOL    HW229796   2.106   4.992   1.645
 9633SOL     OW29797   3.771   3.458   1.738
 9633SOL    HW129798   3.853   3.405   1.717
 9633SOL    HW229799   3.792   3.556   1.732
 9634SOL     OW29800   5.056   4.720   2.605
 9634SOL    HW129801   5.009   4.632   2.612
 9634SOL    HW229802   5.120   4.729   2.681
 9635SOL     OW29803   0.657   3.674   4.362
 9635SOL    HW129804   0.623   3.581   4.375
 9635SOL    HW229805   0.592   3.739   4.403
 9636SOL     OW29806   3.946   1.439   5.845
 9636SOL    HW129807   4.026   1.473   5.893
 9636SOL    HW229808   3.869   1.501   5.859
 9637SOL     OW29809   2.527   2.851   1.407
 9637SOL    HW129810   2.618   2.877   1.440
 9637SOL    HW229811   2.493   2.774   1.460
 9638SOL     OW29812   0.189   4.715   6.004
 9638SOL    HW129813   0.179   4.647   5.931
 9638SOL    HW229814   0.280   4.706   6.046
 9639SOL     OW29815   4.459   2.369   2.026
 9639SOL    HW129816   4.374   2.358   1.974
 9639SOL    HW229817   4.437   2.380   2.123
 9640SOL     OW29818   4.004   1.584   2.131
 9640SOL    HW129819   3.907   1.589   2.107
 9640SOL    HW229820   4.030   1.665   2.184
 9641SOL     OW29821   5.619   4.773   2.951
 9641SOL    HW129822   5.557   4.834   2.902
 9641SOL    HW229823   5.568   4.692   2.981
 9642SOL     OW29824   1.348   7.016   4.453
 9642SOL    HW129825   1.280   0.056   4.488
 9642SOL    HW229826   1.435   0.038   4.439
 9643SOL     OW29827   5.025   4.228   4.363
 9643SOL    HW129828   4.994   4.214   4.269
 9643SOL    HW229829   5.124   4.242   4.364
 9644SOL     OW29830   2.290   6.326   5.287
 9644SOL    HW129831   2.388   6.330   5.268
 9644SOL    HW229832   2.256   6.234   5.268
 9645SOL     OW29833   0.775   4.933   5.051
 9645SOL    HW129834   0.708   5.005   5.034
 9645SOL    HW229835   0.732   4.844   5.035
 9646SOL     OW29836   2.948   6.919   4.428
 9646SOL    HW129837   2.941   6.999   4.368
 9646SOL    HW229838   2.897   6.843   4.389
 9647SOL     OW29839   6.286   5.994   2.858
 9647SOL    HW129840   6.206   5.976   2.916
 9647SOL    HW229841   6.367   6.005   2.915
 9648SOL     OW29842   4.966   2.367   1.760
 9648SOL    HW129843   4.918   2.451   1.784
 9648SOL    HW229844   4.920   2.323   1.683
 9649SOL     OW29845   2.076   3.401   6.001
 9649SOL    HW129846   2.154   3.383   5.941
 9649SOL    HW229847   2.001   3.339   5.978
 9650SOL     OW29848   6.422   4.901   3.767
 9650SOL    HW129849   6.361   4.906   3.687
 9650SOL    HW229850   6.443   4.994   3.798
 9651SOL     OW29851   3.056   1.156   0.069
 9651SOL    HW129852   3.152   1.165   0.039
 9651SOL    HW229853   3.019   1.246   0.089
 9652SOL     OW29854   0.564   4.327   1.204
 9652SOL    HW129855   0.526   4.329   1.297
 9652SOL    HW229856   0.492   4.300   1.139
 9653SOL     OW29857   4.353   4.276   5.615
 9653SOL    HW129858   4.270   4.230   5.646
 9653SOL    HW229859   4.355   4.369   5.652
 9654SOL     OW29860   3.680   2.966   2.859
 9654SOL    HW129861   3.596   2.913   2.846
 9654SOL    HW229862   3.666   3.034   2.930
 9655SOL     OW29863   6.577   1.379   1.040
 9655SOL    HW129864   6.479   1.379   1.059
 9655SOL    HW229865   6.628   1.379   1.126
 9656SOL     OW29866   4.649   3.006   0.901
 9656SOL    HW129867   4.620   3.102   0.902
 9656SOL    HW229868   4.748   3.002   0.916
 9657SOL     OW29869   5.073   4.294   3.863
 9657SOL    HW129870   5.165   4.267   3.834
 9657SOL    HW229871   5.079   4.374   3.922
 9658SOL     OW29872   5.280   2.012   2.370
 9658SOL    HW129873   5.269   1.938   2.304
 9658SOL    HW229874   5.324   1.976   2.453
 9659SOL     OW29875   2.997   1.676   0.456
 9659SOL    HW129876   2.961   1.740   0.387
 9659SOL    HW229877   2.933   1.601   0.470
 9660SOL     OW29878   0.655   6.253   0.935
 9660SOL    HW129879   0.574   6.274   0.881
 9660SOL    HW229880   0.626   6.213   1.023
 9661SOL     OW29881   4.256   5.641   1.267
 9661SOL    HW129882   4.295   5.693   1.192
 9661SOL    HW229883   4.208   5.561   1.232
 9662SOL     OW29884   5.698   4.155   6.770
 9662SOL    HW129885   5.615   4.177   6.820
 9662SOL    HW229886   5.697   4.059   6.742
 9663SOL     OW29887   0.314   4.987   2.649
 9663SOL    HW129888   0.273   5.025   2.732
 9663SOL    HW229889   0.390   4.927   2.673
 9664SOL     OW29890   5.331   4.185   3.792
 9664SOL    HW129891   5.254   4.128   3.762
 9664SOL    HW229892   5.403   4.183   3.722
 9665SOL     OW29893   6.226   6.390   5.440
 9665SOL    HW129894   6.158   6.347   5.500
 9665SOL    HW229895   6.291   6.322   5.408
 9666SOL     OW29896   6.477   4.717   1.276
 9666SOL    HW129897   6.500   4.626   1.310
 9666SOL    HW229898   6.411   4.760   1.337
 9667SOL     OW29899   5.073   4.191   0.707
 9667SOL    HW129900   5.036   4.271   0.660
 9667SOL    HW229901   5.037   4.108   0.664
 9668SOL     OW29902   1.369   0.240   6.334
 9668SOL    HW129903   1.296   0.252   6.267
 9668SOL    HW229904   1.358   0.305   6.409
 9669SOL     OW29905   2.675   0.021   0.858
 9669SOL    HW129906   2.764   7.013   0.826
 9669SOL    HW229907   2.675   0.121   0.858
 9670SOL     OW29908   0.626   6.396   5.174
 9670SOL    HW129909   0.561   6.460   5.216
 9670SOL    HW229910   0.657   6.330   5.243
 9671SOL     OW29911   0.468   4.667   0.508
 9671SOL    HW129912   0.465   4.593   0.440
 9671SOL    HW229913   0.547   4.726   0.489
 9672SOL     OW29914   1.020   5.220   2.712
 9672SOL    HW129915   0.952   5.147   2.705
 9672SOL    HW229916   1.107   5.188   2.674
 9673SOL     OW29917   3.343   4.287   1.729
 9673SOL    HW129918   3.327   4.341   1.647
 9673SOL    HW229919   3.258   4.240   1.755
 9674SOL     OW29920   3.827   6.399   2.905
 9674SOL    HW129921   3.827   6.301   2.928
 9674SOL    HW229922   3.906   6.419   2.846
 9675SOL     OW29923   5.348   3.878   0.529
 9675SOL    HW129924   5.421   3.921   0.476
 9675SOL    HW229925   5.287   3.829   0.467
 9676SOL     OW29926   1.467   3.149   6.793
 9676SOL    HW129927   1.508   3.199   6.868
 9676SOL    HW229928   1.408   3.076   6.829
 9677SOL     OW29929   6.485   5.049   6.466
 9677SOL    HW129930   6.552   5.114   6.502
 9677SOL    HW229931   6.527   4.994   6.394
 9678SOL     OW29932   3.331   3.595   4.839
 9678SOL    HW129933   3.246   3.545   4.859
 9678SOL    HW229934   3.320   3.646   4.754
 9679SOL     OW29935   2.701   1.962   4.629
 9679SOL    HW129936   2.785   1.919   4.599
 9679SOL    HW229937   2.629   1.945   4.561
 9680SOL     OW29938   5.063   6.643   4.550
 9680SOL    HW129939   5.054   6.598   4.461
 9680SOL    HW229940   5.010   6.728   4.549
 9681SOL     OW29941   3.067   1.240   1.805
 9681SOL    HW129942   3.115   1.166   1.854
 9681SOL    HW229943   3.054   1.317   1.867
 9682SOL     OW29944   5.168   4.660   3.683
 9682SOL    HW129945   5.132   4.752   3.695
 9682SOL    HW229946   5.116   4.613   3.612
 9683SOL     OW29947   1.589   6.253   0.326
 9683SOL    HW129948   1.526   6.182   0.296
 9683SOL    HW229949   1.575   6.335   0.270
 9684SOL     OW29950   0.915   3.256   4.705
 9684SOL    HW129951   0.893   3.351   4.726
 9684SOL    HW229952   0.936   3.207   4.790
 9685SOL     OW29953   4.420   3.845   0.563
 9685SOL    HW129954   4.438   3.747   0.569
 9685SOL    HW229955   4.327   3.864   0.593
 9686SOL     OW29956   0.491   2.393   0.090
 9686SOL    HW129957   0.502   2.294   0.094
 9686SOL    HW229958   0.569   2.433   0.042
 9687SOL     OW29959   6.529   6.732   2.005
 9687SOL    HW129960   6.532   6.821   2.051
 9687SOL    HW229961   6.497   6.663   2.069
 9688SOL     OW29962   0.821   3.863   1.185
 9688SOL    HW129963   0.826   3.900   1.092
 9688SOL    HW229964   0.761   3.783   1.186
 9689SOL     OW29965   0.691   4.801   6.023
 9689SOL    HW129966   0.772   4.782   6.078
 9689SOL    HW229967   0.713   4.786   5.926
 9690SOL     OW29968   4.556   5.752   5.959
 9690SOL    HW129969   4.569   5.699   6.043
 9690SOL    HW229970   4.463   5.739   5.925
 9691SOL     OW29971   3.548   3.506   2.565
 9691SOL    HW129972   3.559   3.488   2.467
 9691SOL    HW229973   3.451   3.498   2.589
 9692SOL     OW29974   5.212   5.186   0.519
 9692SOL    HW129975   5.161   5.101   0.529
 9692SOL    HW229976   5.284   5.191   0.588
 9693SOL     OW29977   6.045   4.466   4.208
 9693SOL    HW129978   6.035   4.565   4.210
 9693SOL    HW229979   6.047   4.430   4.301
 9694SOL     OW29980   3.822   0.433   1.210
 9694SOL    HW129981   3.830   0.508   1.276
 9694SOL    HW229982   3.814   0.346   1.258
 9695SOL     OW29983   6.988   3.816   2.531
 9695SOL    HW129984   0.016   3.874   2.592
 9695SOL    HW229985   6.943   3.872   2.462
 9696SOL     OW29986   5.790   1.899   2.608
 9696SOL    HW129987   5.700   1.881   2.569
 9696SOL    HW229988   5.795   1.995   2.637
 9697SOL     OW29989   0.234   6.463   0.278
 9697SOL    HW129990   0.315   6.521   0.289
 9697SOL    HW229991   0.229   6.428   0.185
 9698SOL     OW29992   5.627   3.077   6.209
 9698SOL    HW129993   5.576   3.157   6.176
 9698SOL    HW229994   5.574   3.031   6.280
 9699SOL     OW29995   0.753   5.773   0.093
 9699SOL    HW129996   0.668   5.775   0.041
 9699SOL    HW229997   0.736   5.802   0.187
 9700SOL     OW29998   6.696   6.004   3.916
 9700SOL    HW129999   6.749   6.038   3.838
 9700SOL    HW230000   6.598   6.015   3.897
 9701SOL     OW30001   4.279   3.463   6.387
 9701SOL    HW130002   4.320   3.475   6.297
 9701SOL    HW230003   4.198   3.404   6.379
 9702SOL     OW30004   3.969   2.766   0.574
 9702SOL    HW130005   4.046   2.733   0.518
 9702SOL    HW230006   3.928   2.845   0.529
 9703SOL     OW30007   5.562   4.027   4.351
 9703SOL    HW130008   5.537   4.102   4.289
 9703SOL    HW230009   5.484   4.005   4.409
 9704SOL     OW30010   3.396   4.905   2.394
 9704SOL    HW130011   3.387   4.902   2.494
 9704SOL    HW230012   3.492   4.919   2.370
 9705SOL     OW30013   6.153   3.866   6.036
 9705SOL    HW130014   6.092   3.807   6.089
 9705SOL    HW230015   6.247   3.856   6.069
 9706SOL     OW30016   2.165   1.990   1.164
 9706SOL    HW130017   2.157   1.910   1.104
 9706SOL    HW230018   2.212   2.064   1.116
 9707SOL     OW30019   5.665   5.103   2.452
 9707SOL    HW130020   5.687   5.005   2.445
 9707SOL    HW230021   5.721   5.145   2.522
 9708SOL     OW30022   1.431   1.430   1.940
 9708SOL    HW130023   1.431   1.480   1.854
 9708SOL    HW230024   1.466   1.338   1.924
 9709SOL     OW30025   4.975   4.387   1.671
 9709SOL    HW130026   4.923   4.456   1.619
 9709SOL    HW230027   4.970   4.299   1.624
 9710SOL     OW30028   6.641   0.717   0.285
 9710SOL    HW130029   6.678   0.625   0.295
 9710SOL    HW230030   6.542   0.715   0.301
 9711SOL     OW30031   3.715   6.108   5.792
 9711SOL    HW130032   3.619   6.080   5.799
 9711SOL    HW230033   3.773   6.045   5.844
 9712SOL     OW30034   6.400   3.299   0.241
 9712SOL    HW130035   6.431   3.321   0.148
 9712SOL    HW230036   6.430   3.207   0.265
 9713SOL     OW30037   2.480   6.007   3.302
 9713SOL    HW130038   2.408   5.971   3.361
 9713SOL    HW230039   2.439   6.052   3.222
 9714SOL     OW30040   4.377   6.003   5.758
 9714SOL    HW130041   4.330   6.052   5.685
 9714SOL    HW230042   4.444   5.941   5.718
 9715SOL     OW30043   6.085   5.053   0.098
 9715SOL    HW130044   6.050   5.028   0.008
 9715SOL    HW230045   6.036   5.134   0.131
 9716SOL     OW30046   3.911   3.961   6.759
 9716SOL    HW130047   3.876   3.925   6.672
 9716SOL    HW230048   4.007   3.936   6.769
 9717SOL     OW30049   4.519   6.455   0.115
 9717SOL    HW130050   4.492   6.412   0.028
 9717SOL    HW230051   4.439   6.462   0.174
 9718SOL     OW30052   4.123   2.617   0.382
 9718SOL    HW130053   4.134   2.689   0.314
 9718SOL    HW230054   4.044   2.560   0.358
 9719SOL     OW30055   5.273   6.920   5.450
 9719SOL    HW130056   5.204   6.987   5.477
 9719SOL    HW230057   5.364   6.959   5.462
 9720SOL     OW30058   0.930   3.419   2.688
 9720SOL    HW130059   0.890   3.408   2.596
 9720SOL    HW230060   0.857   3.440   2.753
 9721SOL     OW30061   0.588   1.766   6.966
 9721SOL    HW130062   0.508   1.825   6.974
 9721SOL    HW230063   0.649   1.802   6.895
 9722SOL     OW30064   3.471   1.841   5.025
 9722SOL    HW130065   3.427   1.885   5.104
 9722SOL    HW230066   3.523   1.762   5.056
 9723SOL     OW30067   5.604   5.417   4.166
 9723SOL    HW130068   5.646   5.499   4.204
 9723SOL    HW230069   5.643   5.398   4.076
 9724SOL     OW30070   2.099   4.905   6.867
 9724SOL    HW130071   2.192   4.929   6.839
 9724SOL    HW230072   2.034   4.941   6.800
 9725SOL     OW30073   4.529   5.838   5.563
 9725SOL    HW130074   4.594   5.769   5.595
 9725SOL    HW230075   4.460   5.795   5.505
 9726SOL     OW30076   4.902   1.146   4.514
 9726SOL    HW130077   4.956   1.071   4.476
 9726SOL    HW230078   4.949   1.233   4.497
 9727SOL     OW30079   0.490   2.442   0.396
 9727SOL    HW130080   0.435   2.452   0.313
 9727SOL    HW230081   0.481   2.523   0.453
 9728SOL     OW30082   6.964   1.943   5.972
 9728SOL    HW130083   7.019   1.860   5.982
 9728SOL    HW230084   6.948   1.983   6.063
 9729SOL     OW30085   1.582   3.536   4.170
 9729SOL    HW130086   1.579   3.603   4.096
 9729SOL    HW230087   1.673   3.495   4.173
 9730SOL     OW30088   0.982   4.705   2.769
 9730SOL    HW130089   1.076   4.737   2.753
 9730SOL    HW230090   0.982   4.637   2.842
 9731SOL     OW30091   5.069   5.666   1.885
 9731SOL    HW130092   5.066   5.567   1.900
 9731SOL    HW230093   4.981   5.696   1.847
 9732SOL     OW30094   6.856   2.965   1.900
 9732SOL    HW130095   6.902   2.956   1.812
 9732SOL    HW230096   6.892   2.896   1.963
 9733SOL     OW30097   5.791   5.535   1.185
 9733SOL    HW130098   5.704   5.563   1.227
 9733SOL    HW230099   5.865   5.543   1.252
 9734SOL     OW30100   6.565   0.234   0.594
 9734SOL    HW130101   6.512   0.173   0.652
 9734SOL    HW230102   6.510   0.262   0.515
 9735SOL     OW30103   1.668   2.642   3.560
 9735SOL    HW130104   1.622   2.731   3.550
 9735SOL    HW230105   1.614   2.583   3.621
 9736SOL     OW30106   4.919   1.785   6.040
 9736SOL    HW130107   4.853   1.857   6.058
 9736SOL    HW230108   5.008   1.826   6.020
 9737SOL     OW30109   5.666   2.121   3.385
 9737SOL    HW130110   5.700   2.171   3.464
 9737SOL    HW230111   5.703   2.163   3.301
 9738SOL     OW30112   1.658   6.618   0.441
 9738SOL    HW130113   1.596   6.625   0.518
 9738SOL    HW230114   1.719   6.697   0.439
 9739SOL     OW30115   4.902   6.260   0.169
 9739SOL    HW130116   4.899   6.258   0.069
 9739SOL    HW230117   4.838   6.330   0.202
 9740SOL     OW30118   5.774   1.400   2.934
 9740SOL    HW130119   5.803   1.351   2.852
 9740SOL    HW230120   5.712   1.342   2.987
 9741SOL     OW30121   2.209   0.423   3.770
 9741SOL    HW130122   2.164   0.341   3.806
 9741SOL    HW230123   2.302   0.399   3.742
 9742SOL     OW30124   4.266   0.899   0.341
 9742SOL    HW130125   4.188   0.914   0.402
 9742SOL    HW230126   4.329   0.976   0.348
 9743SOL     OW30127   0.059   4.371   3.248
 9743SOL    HW130128   0.146   4.399   3.207
 9743SOL    HW230129   0.046   4.273   3.235
 9744SOL     OW30130   2.706   6.778   3.153
 9744SOL    HW130131   2.607   6.790   3.153
 9744SOL    HW230132   2.733   6.732   3.238
 9745SOL     OW30133   5.469   2.723   6.163
 9745SOL    HW130134   5.384   2.730   6.109
 9745SOL    HW230135   5.462   2.781   6.244
 9746SOL     OW30136   5.621   6.395   6.236
 9746SOL    HW130137   5.688   6.469   6.242
 9746SOL    HW230138   5.580   6.395   6.145
 9747SOL     OW30139   2.836   2.197   1.534
 9747SOL    HW130140   2.793   2.282   1.565
 9747SOL    HW230141   2.915   2.218   1.477
 9748SOL     OW30142   0.391   6.699   2.851
 9748SOL    HW130143   0.432   6.643   2.779
 9748SOL    HW230144   0.419   6.794   2.839
 9749SOL     OW30145   0.925   1.085   2.583
 9749SOL    HW130146   1.006   1.134   2.552
 9749SOL    HW230147   0.902   1.014   2.516
 9750SOL     OW30148   6.309   5.402   3.888
 9750SOL    HW130149   6.351   5.404   3.978
 9750SOL    HW230150   6.331   5.315   3.843
 9751SOL     OW30151   1.715   0.440   0.930
 9751SOL    HW130152   1.762   0.380   0.995
 9751SOL    HW230153   1.667   0.512   0.981
 9752SOL     OW30154   3.671   2.083   6.288
 9752SOL    HW130155   3.760   2.114   6.254
 9752SOL    HW230156   3.661   2.110   6.383
 9753SOL     OW30157   1.296   6.038   6.323
 9753SOL    HW130158   1.305   6.008   6.418
 9753SOL    HW230159   1.348   5.975   6.264
 9754SOL     OW30160   3.069   6.756   0.698
 9754SOL    HW130161   3.053   6.717   0.608
 9754SOL    HW230162   3.017   6.842   0.707
 9755SOL     OW30163   3.618   3.890   5.141
 9755SOL    HW130164   3.658   3.800   5.123
 9755SOL    HW230165   3.620   3.908   5.239
 9756SOL     OW30166   5.927   1.946   6.234
 9756SOL    HW130167   5.841   1.994   6.213
 9756SOL    HW230168   5.992   1.961   6.160
 9757SOL     OW30169   5.668   4.757   4.365
 9757SOL    HW130170   5.644   4.689   4.434
 9757SOL    HW230171   5.763   4.784   4.376
 9758SOL     OW30172   1.800   1.287   0.057
 9758SOL    HW130173   1.866   1.249   0.122
 9758SOL    HW230174   1.780   1.382   0.081
 9759SOL     OW30175   1.156   1.812   0.544
 9759SOL    HW130176   1.131   1.743   0.611
 9759SOL    HW230177   1.074   1.851   0.503
 9760SOL     OW30178   5.177   3.480   6.828
 9760SOL    HW130179   5.078   3.475   6.841
 9760SOL    HW230180   5.198   3.535   6.747
 9761SOL     OW30181   1.310   2.276   2.370
 9761SOL    HW130182   1.347   2.312   2.284
 9761SOL    HW230183   1.223   2.229   2.352
 9762SOL     OW30184   3.370   1.570   4.737
 9762SOL    HW130185   3.271   1.586   4.737
 9762SOL    HW230186   3.412   1.622   4.663
 9763SOL     OW30187   5.751   1.013   3.070
 9763SOL    HW130188   5.814   1.003   3.147
 9763SOL    HW230189   5.701   1.099   3.079
 9764SOL     OW30190   6.625   2.193   2.331
 9764SOL    HW130191   6.527   2.174   2.344
 9764SOL    HW230192   6.679   2.117   2.366
 9765SOL     OW30193   6.714   0.140   3.205
 9765SOL    HW130194   6.669   0.104   3.286
 9765SOL    HW230195   6.772   0.068   3.165
 9766SOL     OW30196   2.402   0.069   2.699
 9766SOL    HW130197   2.489   0.057   2.652
 9766SOL    HW230198   2.400   0.013   2.782
 9767SOL     OW30199   2.338   2.844   5.342
 9767SOL    HW130200   2.360   2.876   5.434
 9767SOL    HW230201   2.369   2.912   5.275
 9768SOL     OW30202   4.286   1.604   1.286
 9768SOL    HW130203   4.248   1.581   1.197
 9768SOL    HW230204   4.368   1.549   1.303
 9769SOL     OW30205   3.659   0.837   4.618
 9769SOL    HW130206   3.650   0.924   4.665
 9769SOL    HW230207   3.752   0.802   4.629
 9770SOL     OW30208   4.288   1.650   5.318
 9770SOL    HW130209   4.192   1.677   5.308
 9770SOL    HW230210   4.326   1.625   5.229
 9771SOL     OW30211   2.122   6.061   0.926
 9771SOL    HW130212   2.221   6.051   0.927
 9771SOL    HW230213   2.097   6.153   0.895
 9772SOL     OW30214   2.320   5.986   1.577
 9772SOL    HW130215   2.325   5.911   1.643
 9772SOL    HW230216   2.340   6.072   1.624
 9773SOL     OW30217   5.441   5.554   3.376
 9773SOL    HW130218   5.468   5.468   3.334
 9773SOL    HW230219   5.375   5.601   3.316
 9774SOL     OW30220   0.654   4.790   2.967
 9774SOL    HW130221   0.687   4.868   3.021
 9774SOL    HW230222   0.597   4.732   3.024
 9775SOL     OW30223   2.763   6.870   3.702
 9775SOL    HW130224   2.849   6.887   3.751
 9775SOL    HW230225   2.762   6.925   3.618
 9776SOL     OW30226   1.432   4.438   6.007
 9776SOL    HW130227   1.395   4.530   6.013
 9776SOL    HW230228   1.448   4.415   5.912
 9777SOL     OW30229   5.672   5.896   0.660
 9777SOL    HW130230   5.671   5.810   0.712
 9777SOL    HW230231   5.578   5.930   0.651
 9778SOL     OW30232   0.346   1.761   4.720
 9778SOL    HW130233   0.315   1.759   4.625
 9778SOL    HW230234   0.300   1.690   4.773
 9779SOL     OW30235   0.199   2.548   3.499
 9779SOL    HW130236   0.134   2.574   3.570
 9779SOL    HW230237   0.261   2.478   3.534
 9780SOL     OW30238   2.150   1.734   1.045
 9780SOL    HW130239   2.223   1.675   1.010
 9780SOL    HW230240   2.075   1.677   1.078
 9781SOL     OW30241   2.233   3.043   4.606
 9781SOL    HW130242   2.283   2.987   4.672
 9781SOL    HW230243   2.179   3.111   4.654
 9782SOL     OW30244   0.703   1.755   0.178
 9782SOL    HW130245   0.705   1.660   0.208
 9782SOL    HW230246   0.665   1.760   0.086
 9783SOL     OW30247   4.444   2.153   3.920
 9783SOL    HW130248   4.407   2.078   3.975
 9783SOL    HW230249   4.515   2.201   3.971
 9784SOL     OW30250   3.550   0.858   6.128
 9784SOL    HW130251   3.583   0.842   6.035
 9784SOL    HW230252   3.455   0.828   6.135
 9785SOL     OW30253   6.042   2.801   5.547
 9785SOL    HW130254   5.979   2.861   5.596
 9785SOL    HW230255   6.001   2.709   5.541
 9786SOL     OW30256   2.422   3.824   0.355
 9786SOL    HW130257   2.510   3.823   0.308
 9786SOL    HW230258   2.379   3.914   0.343
 9787SOL     OW30259   2.980   3.273   3.119
 9787SOL    HW130260   3.078   3.265   3.137
 9787SOL    HW230261   2.930   3.269   3.205
 9788SOL     OW30262   0.364   6.919   1.909
 9788SOL    HW130263   0.370   7.014   1.880
 9788SOL    HW230264   0.348   6.914   2.007
 9789SOL     OW30265   2.013   6.351   0.122
 9789SOL    HW130266   1.993   6.303   0.037
 9789SOL    HW230267   2.029   6.285   0.195
 9790SOL     OW30268   6.400   4.744   6.058
 9790SOL    HW130269   6.464   4.819   6.039
 9790SOL    HW230270   6.337   4.735   5.981
 9791SOL     OW30271   0.568   0.408   0.086
 9791SOL    HW130272   0.644   0.447   0.138
 9791SOL    HW230273   0.482   0.427   0.133
 9792SOL     OW30274   3.351   5.269   0.676
 9792SOL    HW130275   3.370   5.244   0.581
 9792SOL    HW230276   3.342   5.187   0.732
 9793SOL     OW30277   4.309   0.051   2.761
 9793SOL    HW130278   4.309   6.997   2.822
 9793SOL    HW230279   4.355   0.128   2.807
 9794SOL     OW30280   6.151   4.370   5.611
 9794SOL    HW130281   6.063   4.410   5.638
 9794SOL    HW230282   6.139   4.321   5.524
 9795SOL     OW30283   0.963   2.905   4.280
 9795SOL    HW130284   1.050   2.927   4.235
 9795SOL    HW230285   0.970   2.925   4.378
 9796SOL     OW30286   3.948   3.974   3.139
 9796SOL    HW130287   3.952   4.008   3.046
 9796SOL    HW230288   3.954   4.051   3.203
 9797SOL     OW30289   2.214   5.443   6.826
 9797SOL    HW130290   2.208   5.363   6.885
 9797SOL    HW230291   2.304   5.445   6.782
 9798SOL     OW30292   2.407   0.942   2.062
 9798SOL    HW130293   2.467   1.017   2.034
 9798SOL    HW230294   2.410   0.933   2.162
 9799SOL     OW30295   3.238   3.823   5.881
 9799SOL    HW130296   3.247   3.915   5.842
 9799SOL    HW230297   3.172   3.824   5.955
 9800SOL     OW30298   5.612   4.686   3.982
 9800SOL    HW130299   5.586   4.752   4.052
 9800SOL    HW230300   5.700   4.645   4.005
 9801SOL     OW30301   5.214   4.747   0.364
 9801SOL    HW130302   5.189   4.654   0.391
 9801SOL    HW230303   5.282   4.783   0.428
 9802SOL     OW30304   4.761   5.072   0.414
 9802SOL    HW130305   4.790   5.158   0.373
 9802SOL    HW230306   4.826   5.000   0.392
 9803SOL     OW30307   2.266   3.530   6.147
 9803SOL    HW130308   2.252   3.606   6.211
 9803SOL    HW230309   2.177   3.499   6.112
 9804SOL     OW30310   0.074   5.981   3.051
 9804SOL    HW130311   0.028   5.995   3.139
 9804SOL    HW230312   0.079   6.068   3.002
 9805SOL     OW30313   0.452   6.699   3.213
 9805SOL    HW130314   0.495   6.790   3.210
 9805SOL    HW230315   0.358   6.706   3.178
 9806SOL     OW30316   1.657   1.461   6.856
 9806SOL    HW130317   1.718   1.458   6.778
 9806SOL    HW230318   1.691   1.400   6.928
 9807SOL     OW30319   3.079   3.578   1.876
 9807SOL    HW130320   3.141   3.656   1.887
 9807SOL    HW230321   3.091   3.539   1.785
 9808SOL     OW30322   3.338   5.763   4.218
 9808SOL    HW130323   3.370   5.843   4.270
 9808SOL    HW230324   3.369   5.679   4.263
 9809SOL     OW30325   0.573   3.556   0.479
 9809SOL    HW130326   0.542   3.503   0.558
 9809SOL    HW230327   0.494   3.590   0.429
 9810SOL     OW30328   3.118   2.128   4.824
 9810SOL    HW130329   3.148   2.041   4.865
 9810SOL    HW230330   3.131   2.202   4.889
 9811SOL     OW30331   5.905   4.843   3.602
 9811SOL    HW130332   5.927   4.783   3.525
 9811SOL    HW230333   5.805   4.848   3.613
 9812SOL     OW30334   3.253   1.434   4.949
 9812SOL    HW130335   3.299   1.474   4.869
 9812SOL    HW230336   3.205   1.506   4.999
 9813SOL     OW30337   5.181   2.161   1.236
 9813SOL    HW130338   5.102   2.142   1.177
 9813SOL    HW230339   5.187   2.090   1.307
 9814SOL     OW30340   6.069   1.409   7.001
 9814SOL    HW130341   6.046   1.438   0.069
 9814SOL    HW230342   6.099   1.314   7.002
 9815SOL     OW30343   4.477   2.562   4.385
 9815SOL    HW130344   4.419   2.501   4.331
 9815SOL    HW230345   4.563   2.516   4.408
 9816SOL     OW30346   0.781   1.002   6.531
 9816SOL    HW130347   0.821   0.937   6.467
 9816SOL    HW230348   0.719   1.063   6.482
 9817SOL     OW30349   1.147   0.348   3.721
 9817SOL    HW130350   1.121   0.254   3.697
 9817SOL    HW230351   1.090   0.412   3.668
 9818SOL     OW30352   6.497   2.365   4.626
 9818SOL    HW130353   6.511   2.281   4.573
 9818SOL    HW230354   6.575   2.426   4.612
 9819SOL     OW30355   4.875   3.181   3.492
 9819SOL    HW130356   4.902   3.198   3.586
 9819SOL    HW230357   4.800   3.115   3.490
 9820SOL     OW30358   4.036   3.165   6.838
 9820SOL    HW130359   3.965   3.135   6.774
 9820SOL    HW230360   4.052   3.263   6.827
 9821SOL     OW30361   5.745   1.206   6.744
 9821SOL    HW130362   5.678   1.134   6.727
 9821SOL    HW230363   5.815   1.171   6.808
 9822SOL     OW30364   1.708   6.615   3.488
 9822SOL    HW130365   1.610   6.633   3.496
 9822SOL    HW230366   1.753   6.692   3.441
 9823SOL     OW30367   3.773   0.058   0.942
 9823SOL    HW130368   3.730   6.994   0.960
 9823SOL    HW230369   3.851   0.070   1.003
 9824SOL     OW30370   1.742   4.572   5.344
 9824SOL    HW130371   1.792   4.654   5.317
 9824SOL    HW230372   1.793   4.491   5.315
 9825SOL     OW30373   3.430   5.262   5.612
 9825SOL    HW130374   3.349   5.224   5.656
 9825SOL    HW230375   3.427   5.243   5.514
 9826SOL     OW30376   5.294   5.069   6.340
 9826SOL    HW130377   5.268   4.975   6.361
 9826SOL    HW230378   5.253   5.130   6.408
 9827SOL     OW30379   2.171   3.219   3.899
 9827SOL    HW130380   2.151   3.311   3.866
 9827SOL    HW230381   2.173   3.156   3.821
 9828SOL     OW30382   2.583   3.164   6.286
 9828SOL    HW130383   2.564   3.248   6.234
 9828SOL    HW230384   2.634   3.187   6.368
 9829SOL     OW30385   3.029   6.349   0.482
 9829SOL    HW130386   3.112   6.312   0.442
 9829SOL    HW230387   2.956   6.349   0.414
 9830SOL     OW30388   5.209   2.485   1.652
 9830SOL    HW130389   5.127   2.440   1.687
 9830SOL    HW230390   5.259   2.422   1.593
 9831SOL     OW30391   1.642   5.970   1.118
 9831SOL    HW130392   1.619   5.997   1.212
 9831SOL    HW230393   1.738   5.944   1.113
 9832SOL     OW30394   4.858   5.504   2.523
 9832SOL    HW130395   4.911   5.504   2.608
 9832SOL    HW230396   4.798   5.584   2.522
 9833SOL     OW30397   3.785   2.871   4.863
 9833SOL    HW130398   3.801   2.946   4.927
 9833SOL    HW230399   3.792   2.784   4.912
 9834SOL     OW30400   3.208   4.508   5.444
 9834SOL    HW130401   3.117   4.480   5.414
 9834SOL    HW230402   3.223   4.604   5.420
 9835SOL     OW30403   3.425   2.404   6.107
 9835SOL    HW130404   3.458   2.322   6.060
 9835SOL    HW230405   3.496   2.437   6.169
 9836SOL     OW30406   6.052   4.601   3.472
 9836SOL    HW130407   6.138   4.549   3.470
 9836SOL    HW230408   5.995   4.568   3.547
 9837SOL     OW30409   3.294   7.023   2.664
 9837SOL    HW130410   3.338   6.938   2.636
 9837SOL    HW230411   3.363   0.062   2.698
 9838SOL     OW30412   0.108   6.936   5.962
 9838SOL    HW130413   0.206   6.954   5.959
 9838SOL    HW230414   0.058   7.015   5.927
 9839SOL     OW30415   5.594   1.271   3.098
 9839SOL    HW130416   5.574   1.326   3.179
 9839SOL    HW230417   5.512   1.222   3.070
 9840SOL     OW30418   0.819   1.356   1.213
 9840SOL    HW130419   0.786   1.366   1.307
 9840SOL    HW230420   0.815   1.260   1.186
 9841SOL     OW30421   1.397   3.861   5.074
 9841SOL    HW130422   1.402   3.814   4.986
 9841SOL    HW230423   1.350   3.803   5.140
 9842SOL     OW30424   4.115   3.690   3.035
 9842SOL    HW130425   4.068   3.767   2.993
 9842SOL    HW230426   4.124   3.706   3.133
 9843SOL     OW30427   5.965   1.346   1.250
 9843SOL    HW130428   5.880   1.340   1.302
 9843SOL    HW230429   5.946   1.378   1.157
 9844SOL     OW30430   5.833   0.606   2.594
 9844SOL    HW130431   5.763   0.609   2.665
 9844SOL    HW230432   5.804   0.663   2.517
 9845SOL     OW30433   3.260   1.063   3.571
 9845SOL    HW130434   3.172   1.105   3.552
 9845SOL    HW230435   3.331   1.110   3.519
 9846SOL     OW30436   3.935   3.648   1.476
 9846SOL    HW130437   4.018   3.639   1.531
 9846SOL    HW230438   3.931   3.574   1.409
 9847SOL     OW30439   3.242   2.933   4.891
 9847SOL    HW130440   3.224   3.020   4.844
 9847SOL    HW230441   3.337   2.932   4.922
 9848SOL     OW30442   3.216   2.529   5.963
 9848SOL    HW130443   3.295   2.484   6.005
 9848SOL    HW230444   3.242   2.565   5.873
 9849SOL     OW30445   6.716   0.459   0.340
 9849SOL    HW130446   6.660   0.426   0.416
 9849SOL    HW230447   6.772   0.385   0.305
 9850SOL     OW30448   6.298   6.269   3.241
 9850SOL    HW130449   6.288   6.262   3.340
 9850SOL    HW230450   6.214   6.238   3.196
 9851SOL     OW30451   4.573   2.070   5.948
 9851SOL    HW130452   4.653   2.081   6.007
 9851SOL    HW230453   4.584   1.988   5.892
 9852SOL     OW30454   4.243   1.971   2.640
 9852SOL    HW130455   4.272   2.044   2.579
 9852SOL    HW230456   4.171   1.917   2.596
 9853SOL     OW30457   4.863   4.461   3.887
 9853SOL    HW130458   4.909   4.542   3.852
 9853SOL    HW230459   4.913   4.379   3.861
 9854SOL     OW30460   0.503   5.261   4.561
 9854SOL    HW130461   0.451   5.278   4.478
 9854SOL    HW230462   0.596   5.236   4.538
 9855SOL     OW30463   2.337   3.843   1.297
 9855SOL    HW130464   2.362   3.752   1.327
 9855SOL    HW230465   2.237   3.853   1.300
 9856SOL     OW30466   4.921   4.249   6.081
 9856SOL    HW130467   4.936   4.154   6.107
 9856SOL    HW230468   4.912   4.255   5.981
 9857SOL     OW30469   4.585   2.104   4.729
 9857SOL    HW130470   4.546   2.176   4.671
 9857SOL    HW230471   4.566   2.015   4.688
 9858SOL     OW30472   0.575   0.710   1.229
 9858SOL    HW130473   0.641   0.707   1.154
 9858SOL    HW230474   0.622   0.695   1.316
 9859SOL     OW30475   5.870   6.592   2.014
 9859SOL    HW130476   5.956   6.633   1.983
 9859SOL    HW230477   5.832   6.535   1.941
 9860SOL     OW30478   0.049   1.541   3.333
 9860SOL    HW130479   6.991   1.529   3.388
 9860SOL    HW230480   0.045   1.481   3.253
 9861SOL     OW30481   3.635   0.141   2.967
 9861SOL    HW130482   3.651   0.042   2.963
 9861SOL    HW230483   3.581   0.163   3.049
 9862SOL     OW30484   2.992   4.335   0.591
 9862SOL    HW130485   3.089   4.361   0.587
 9862SOL    HW230486   2.952   4.371   0.675
 9863SOL     OW30487   3.592   0.319   3.686
 9863SOL    HW130488   3.653   0.381   3.637
 9863SOL    HW230489   3.568   0.359   3.774
 9864SOL     OW30490   3.649   5.961   4.034
 9864SOL    HW130491   3.620   5.865   4.031
 9864SOL    HW230492   3.604   6.011   3.959
 9865SOL     OW30493   2.014   0.720   4.356
 9865SOL    HW130494   1.925   0.758   4.330
 9865SOL    HW230495   2.011   0.620   4.349
 9866SOL     OW30496   5.680   4.975   5.691
 9866SOL    HW130497   5.709   4.988   5.786
 9866SOL    HW230498   5.724   4.894   5.654
 9867SOL     OW30499   5.714   0.790   0.908
 9867SOL    HW130500   5.742   0.741   0.990
 9867SOL    HW230501   5.614   0.793   0.903
 9868SOL     OW30502   0.952   4.088   5.415
 9868SOL    HW130503   0.963   4.183   5.443
 9868SOL    HW230504   0.855   4.063   5.420
 9869SOL     OW30505   1.510   3.222   2.341
 9869SOL    HW130506   1.536   3.313   2.309
 9869SOL    HW230507   1.589   3.160   2.335
 9870SOL     OW30508   4.151   5.608   2.440
 9870SOL    HW130509   4.170   5.652   2.528
 9870SOL    HW230510   4.058   5.572   2.440
 9871SOL     OW30511   0.277   6.187   6.164
 9871SOL    HW130512   0.212   6.252   6.124
 9871SOL    HW230513   0.321   6.228   6.244
 9872SOL     OW30514   2.413   4.613   4.258
 9872SOL    HW130515   2.459   4.607   4.170
 9872SOL    HW230516   2.473   4.577   4.330
 9873SOL     OW30517   2.981   2.433   1.128
 9873SOL    HW130518   3.040   2.357   1.154
 9873SOL    HW230519   2.890   2.420   1.168
 9874SOL     OW30520   1.184   3.015   4.175
 9874SOL    HW130521   1.227   3.073   4.244
 9874SOL    HW230522   1.123   3.070   4.117
 9875SOL     OW30523   6.819   6.781   2.246
 9875SOL    HW130524   6.897   6.741   2.199
 9875SOL    HW230525   6.803   6.732   2.332
 9876SOL     OW30526   6.596   1.079   2.904
 9876SOL    HW130527   6.625   1.160   2.954
 9876SOL    HW230528   6.545   1.019   2.966
 9877SOL     OW30529   0.213   6.462   3.341
 9877SOL    HW130530   0.145   6.503   3.279
 9877SOL    HW230531   0.208   6.507   3.430
 9878SOL     OW30532   2.739   5.039   4.856
 9878SOL    HW130533   2.730   4.974   4.931
 9878SOL    HW230534   2.771   4.991   4.774
 9879SOL     OW30535   5.390   5.831   4.352
 9879SOL    HW130536   5.375   5.879   4.438
 9879SOL    HW230537   5.351   5.739   4.359
 9880SOL     OW30538   3.224   1.132   5.391
 9880SOL    HW130539   3.182   1.211   5.437
 9880SOL    HW230540   3.322   1.131   5.410
 9881SOL     OW30541   0.823   1.177   5.242
 9881SOL    HW130542   0.873   1.113   5.184
 9881SOL    HW230543   0.835   1.270   5.206
 9882SOL     OW30544   0.924   2.868   3.646
 9882SOL    HW130545   0.827   2.888   3.663
 9882SOL    HW230546   0.977   2.889   3.728
 9883SOL     OW30547   1.124   5.632   0.399
 9883SOL    HW130548   1.095   5.686   0.477
 9883SOL    HW230549   1.082   5.541   0.403
 9884SOL     OW30550   4.759   2.039   2.519
 9884SOL    HW130551   4.661   2.050   2.539
 9884SOL    HW230552   4.810   2.113   2.561
 9885SOL     OW30553   0.046   2.597   5.140
 9885SOL    HW130554   7.022   2.510   5.146
 9885SOL    HW230555   0.092   2.603   5.051
 9886SOL     OW30556   1.088   4.320   2.143
 9886SOL    HW130557   1.144   4.242   2.172
 9886SOL    HW230558   1.146   4.402   2.137
 9887SOL     OW30559   3.797   0.450   5.714
 9887SOL    HW130560   3.818   0.353   5.701
 9887SOL    HW230561   3.756   0.486   5.630
 9888SOL     OW30562   5.996   4.529   2.633
 9888SOL    HW130563   6.059   4.476   2.689
 9888SOL    HW230564   5.974   4.614   2.680
 9889SOL     OW30565   0.125   5.064   1.531
 9889SOL    HW130566   0.186   5.033   1.458
 9889SOL    HW230567   0.162   5.147   1.573
 9890SOL     OW30568   1.616   2.050   0.495
 9890SOL    HW130569   1.535   2.030   0.551
 9890SOL    HW230570   1.659   2.134   0.527
 9891SOL     OW30571   5.027   3.454   1.945
 9891SOL    HW130572   5.068   3.495   1.863
 9891SOL    HW230573   5.053   3.358   1.951
 9892SOL     OW30574   0.359   4.824   1.027
 9892SOL    HW130575   0.387   4.758   0.956
 9892SOL    HW230576   0.386   4.789   1.117
 9893SOL     OW30577   0.955   0.514   1.010
 9893SOL    HW130578   0.993   0.423   1.028
 9893SOL    HW230579   1.016   0.564   0.949
 9894SOL     OW30580   2.728   2.366   1.208
 9894SOL    HW130581   2.675   2.285   1.233
 9894SOL    HW230582   2.758   2.413   1.292
 9895SOL     OW30583   5.992   4.862   4.654
 9895SOL    HW130584   5.993   4.888   4.558
 9895SOL    HW230585   5.921   4.793   4.669
 9896SOL     OW30586   6.804   0.908   6.542
 9896SOL    HW130587   6.774   0.987   6.597
 9896SOL    HW230588   6.789   0.824   6.593
 9897SOL     OW30589   5.744   6.099   2.815
 9897SOL    HW130590   5.716   6.174   2.756
 9897SOL    HW230591   5.729   6.124   2.911
 9898SOL     OW30592   1.727   6.162   4.221
 9898SOL    HW130593   1.633   6.194   4.229
 9898SOL    HW230594   1.729   6.063   4.230
 9899SOL     OW30595   0.622   5.952   0.773
 9899SOL    HW130596   0.615   5.910   0.863
 9899SOL    HW230597   0.718   5.973   0.754
 9900SOL     OW30598   1.846   3.193   3.237
 9900SOL    HW130599   1.877   3.121   3.174
 9900SOL    HW230600   1.924   3.249   3.264
 9901SOL     OW30601   2.682   0.852   0.077
 9901SOL    HW130602   2.629   0.834   7.019
 9901SOL    HW230603   2.738   0.771   0.098
 9902SOL     OW30604   3.101   4.847   0.727
 9902SOL    HW130605   3.149   4.796   0.655
 9902SOL    HW230606   3.121   4.944   0.718
 9903SOL     OW30607   5.610   2.070   2.321
 9903SOL    HW130608   5.555   2.151   2.338
 9903SOL    HW230609   5.584   1.998   2.385
 9904SOL     OW30610   0.849   3.975   6.585
 9904SOL    HW130611   0.800   3.891   6.563
 9904SOL    HW230612   0.837   4.041   6.511
 9905SOL     OW30613   1.990   0.192   6.152
 9905SOL    HW130614   1.917   0.224   6.091
 9905SOL    HW230615   2.079   0.212   6.112
 9906SOL     OW30616   2.274   3.454   1.592
 9906SOL    HW130617   2.305   3.445   1.687
 9906SOL    HW230618   2.232   3.368   1.563
 9907SOL     OW30619   6.906   0.327   1.407
 9907SOL    HW130620   6.955   0.400   1.360
 9907SOL    HW230621   6.808   0.339   1.396
 9908SOL     OW30622   5.812   1.991   4.558
 9908SOL    HW130623   5.827   1.892   4.557
 9908SOL    HW230624   5.898   2.038   4.577
 9909SOL     OW30625   4.417   0.840   3.093
 9909SOL    HW130626   4.483   0.765   3.092
 9909SOL    HW230627   4.334   0.812   3.045
 9910SOL     OW30628   1.458   4.686   2.322
 9910SOL    HW130629   1.409   4.762   2.365
 9910SOL    HW230630   1.536   4.721   2.270
 9911SOL     OW30631   2.521   5.944   1.867
 9911SOL    HW130632   2.576   6.008   1.813
 9911SOL    HW230633   2.483   5.874   1.806
 9912SOL     OW30634   3.688   0.489   1.582
 9912SOL    HW130635   3.682   0.588   1.571
 9912SOL    HW230636   3.605   0.455   1.628
 9913SOL     OW30637   6.035   3.717   1.210
 9913SOL    HW130638   6.021   3.812   1.182
 9913SOL    HW230639   6.039   3.712   1.310
 9914SOL     OW30640   5.734   1.481   5.018
 9914SOL    HW130641   5.804   1.459   5.086
 9914SOL    HW230642   5.752   1.573   4.980
 9915SOL     OW30643   5.702   0.505   3.564
 9915SOL    HW130644   5.724   0.565   3.486
 9915SOL    HW230645   5.637   0.435   3.535
 9916SOL     OW30646   2.143   1.984   2.837
 9916SOL    HW130647   2.116   2.031   2.753
 9916SOL    HW230648   2.196   2.046   2.894
 9917SOL     OW30649   5.273   4.426   6.755
 9917SOL    HW130650   5.221   4.422   6.670
 9917SOL    HW230651   5.267   4.518   6.794
 9918SOL     OW30652   3.331   1.567   3.036
 9918SOL    HW130653   3.278   1.483   3.038
 9918SOL    HW230654   3.273   1.643   3.006
 9919SOL     OW30655   1.159   5.161   1.074
 9919SOL    HW130656   1.112   5.107   1.005
 9919SOL    HW230657   1.092   5.201   1.137
 9920SOL     OW30658   5.217   1.434   2.381
 9920SOL    HW130659   5.203   1.499   2.455
 9920SOL    HW230660   5.131   1.386   2.361
 9921SOL     OW30661   4.083   0.162   5.126
 9921SOL    HW130662   3.994   0.198   5.154
 9921SOL    HW230663   4.071   0.094   5.054
 9922SOL     OW30664   2.597   4.237   1.061
 9922SOL    HW130665   2.578   4.221   0.964
 9922SOL    HW230666   2.523   4.290   1.102
 9923SOL     OW30667   5.446   4.830   6.907
 9923SOL    HW130668   5.475   4.785   6.991
 9923SOL    HW230669   5.462   4.929   6.914
 9924SOL     OW30670   6.435   1.359   4.116
 9924SOL    HW130671   6.419   1.269   4.076
 9924SOL    HW230672   6.377   1.426   4.070
 9925SOL     OW30673   0.216   4.010   4.231
 9925SOL    HW130674   0.300   4.052   4.196
 9925SOL    HW230675   0.199   3.925   4.183
 9926SOL     OW30676   4.248   2.818   1.678
 9926SOL    HW130677   4.166   2.833   1.624
 9926SOL    HW230678   4.244   2.728   1.721
 9927SOL     OW30679   0.533   0.033   1.067
 9927SOL    HW130680   0.574   0.091   1.138
 9927SOL    HW230681   0.531   0.083   0.981
 9928SOL     OW30682   4.787   4.544   2.825
 9928SOL    HW130683   4.731   4.465   2.852
 9928SOL    HW230684   4.828   4.527   2.735
 9929SOL     OW30685   3.327   4.108   5.490
 9929SOL    HW130686   3.314   4.014   5.460
 9929SOL    HW230687   3.341   4.110   5.589
 9930SOL     OW30688   6.582   6.209   4.813
 9930SOL    HW130689   6.583   6.247   4.905
 9930SOL    HW230690   6.669   6.228   4.768
 9931SOL     OW30691   0.769   5.428   4.240
 9931SOL    HW130692   0.828   5.464   4.312
 9931SOL    HW230693   0.785   5.478   4.155
 9932SOL     OW30694   3.555   2.848   6.773
 9932SOL    HW130695   3.633   2.786   6.782
 9932SOL    HW230696   3.583   2.940   6.800
 9933SOL     OW30697   0.319   5.823   3.458
 9933SOL    HW130698   0.350   5.737   3.418
 9933SOL    HW230699   0.345   5.826   3.555
 9934SOL     OW30700   6.586   2.462   5.494
 9934SOL    HW130701   6.646   2.419   5.562
 9934SOL    HW230702   6.529   2.393   5.451
 9935SOL     OW30703   2.667   6.138   6.743
 9935SOL    HW130704   2.741   6.193   6.705
 9935SOL    HW230705   2.659   6.156   6.842
 9936SOL     OW30706   0.063   4.640   7.005
 9936SOL    HW130707   0.143   4.647   0.039
 9936SOL    HW230708   0.088   4.665   6.912
 9937SOL     OW30709   0.278   1.680   1.600
 9937SOL    HW130710   0.240   1.737   1.527
 9937SOL    HW230711   0.355   1.727   1.642
 9938SOL     OW30712   6.692   5.035   3.570
 9938SOL    HW130713   6.592   5.042   3.559
 9938SOL    HW230714   6.713   4.984   3.653
 9939SOL     OW30715   3.974   2.107   1.327
 9939SOL    HW130716   4.073   2.102   1.312
 9939SOL    HW230717   3.927   2.108   1.238
 9940SOL     OW30718   1.282   0.249   1.285
 9940SOL    HW130719   1.240   0.250   1.194
 9940SOL    HW230720   1.370   0.297   1.281
 9941SOL     OW30721   3.630   3.227   4.925
 9941SOL    HW130722   3.648   3.143   4.975
 9941SOL    HW230723   3.603   3.205   4.831
 9942SOL     OW30724   2.449   5.987   2.587
 9942SOL    HW130725   2.541   6.023   2.569
 9942SOL    HW230726   2.456   5.891   2.615
 9943SOL     OW30727   0.216   4.488   5.844
 9943SOL    HW130728   0.286   4.439   5.792
 9943SOL    HW230729   0.126   4.449   5.824
 9944SOL     OW30730   0.729   4.171   6.760
 9944SOL    HW130731   0.800   4.237   6.785
 9944SOL    HW230732   0.763   4.111   6.688
 9945SOL     OW30733   4.990   5.564   6.937
 9945SOL    HW130734   4.987   5.639   6.871
 9945SOL    HW230735   5.083   5.528   6.944
 9946SOL     OW30736   6.130   0.951   3.312
 9946SOL    HW130737   6.100   0.856   3.323
 9946SOL    HW230738   6.129   0.974   3.214
 9947SOL     OW30739   2.197   2.511   4.685
 9947SOL    HW130740   2.148   2.592   4.718
 9947SOL    HW230741   2.196   2.440   4.755
 9948SOL     OW30742   6.146   3.952   5.757
 9948SOL    HW130743   6.150   3.899   5.841
 9948SOL    HW230744   6.060   4.003   5.752
 9949SOL     OW30745   6.503   5.408   4.453
 9949SOL    HW130746   6.545   5.374   4.369
 9949SOL    HW230747   6.502   5.335   4.521
 9950SOL     OW30748   5.575   6.161   5.830
 9950SOL    HW130749   5.536   6.113   5.910
 9950SOL    HW230750   5.671   6.138   5.821
 9951SOL     OW30751   0.019   1.472   3.826
 9951SOL    HW130752   0.030   1.488   3.728
 9951SOL    HW230753   0.103   1.498   3.874
 9952SOL     OW30754   1.461   4.597   0.682
 9952SOL    HW130755   1.452   4.564   0.588
 9952SOL    HW230756   1.556   4.624   0.698
 9953SOL     OW30757   5.210   2.609   4.284
 9953SOL    HW130758   5.194   2.673   4.359
 9953SOL    HW230759   5.291   2.555   4.302
 9954SOL     OW30760   6.913   0.829   6.312
 9954SOL    HW130761   6.865   0.848   6.398
 9954SOL    HW230762   7.009   0.810   6.331
 9955SOL     OW30763   5.879   3.367   5.663
 9955SOL    HW130764   5.817   3.290   5.644
 9955SOL    HW230765   5.843   3.449   5.618
 9956SOL     OW30766   1.616   6.918   1.698
 9956SOL    HW130767   1.572   7.007   1.685
 9956SOL    HW230768   1.709   6.931   1.731
 9957SOL     OW30769   5.070   6.033   2.418
 9957SOL    HW130770   5.006   6.060   2.345
 9957SOL    HW230771   5.113   5.946   2.394
 9958SOL     OW30772   2.791   5.406   6.886
 9958SOL    HW130773   2.828   5.460   6.811
 9958SOL    HW230774   2.820   5.311   6.876
 9959SOL     OW30775   4.116   3.696   4.703
 9959SOL    HW130776   4.132   3.778   4.757
 9959SOL    HW230777   4.134   3.615   4.758
 9960SOL     OW30778   0.329   0.628   2.234
 9960SOL    HW130779   0.233   0.622   2.261
 9960SOL    HW230780   0.337   0.678   2.148
 9961SOL     OW30781   1.531   4.878   4.455
 9961SOL    HW130782   1.471   4.910   4.527
 9961SOL    HW230783   1.599   4.815   4.493
 9962SOL     OW30784   5.642   5.711   1.884
 9962SOL    HW130785   5.636   5.709   1.984
 9962SOL    HW230786   5.555   5.679   1.845
 9963SOL     OW30787   2.773   3.736   6.644
 9963SOL    HW130788   2.785   3.827   6.682
 9963SOL    HW230789   2.679   3.705   6.659
 9964SOL     OW30790   5.624   4.524   5.713
 9964SOL    HW130791   5.536   4.551   5.752
 9964SOL    HW230792   5.650   4.435   5.749
 9965SOL     OW30793   3.746   6.291   6.258
 9965SOL    HW130794   3.814   6.310   6.187
 9965SOL    HW230795   3.703   6.376   6.287
 9966SOL     OW30796   1.627   5.787   2.042
 9966SOL    HW130797   1.654   5.858   1.977
 9966SOL    HW230798   1.531   5.800   2.067
 9967SOL     OW30799   6.440   0.219   2.422
 9967SOL    HW130800   6.411   0.313   2.439
 9967SOL    HW230801   6.491   0.185   2.500
 9968SOL     OW30802   3.062   3.860   0.042
 9968SOL    HW130803   3.029   3.767   0.023
 9968SOL    HW230804   3.030   3.890   0.132
 9969SOL     OW30805   1.631   2.868   2.774
 9969SOL    HW130806   1.589   2.797   2.831
 9969SOL    HW230807   1.645   2.951   2.828
 9970SOL     OW30808   5.254   3.912   2.953
 9970SOL    HW130809   5.227   3.824   2.913
 9970SOL    HW230810   5.219   3.987   2.896
 9971SOL     OW30811   2.347   5.196   1.276
 9971SOL    HW130812   2.427   5.184   1.217
 9971SOL    HW230813   2.367   5.157   1.366
 9972SOL     OW30814   3.951   4.599   1.377
 9972SOL    HW130815   3.967   4.644   1.289
 9972SOL    HW230816   4.038   4.564   1.412
 9973SOL     OW30817   4.481   2.021   4.212
 9973SOL    HW130818   4.521   1.931   4.195
 9973SOL    HW230819   4.547   2.078   4.261
 9974SOL     OW30820   6.830   3.081   3.519
 9974SOL    HW130821   6.782   3.146   3.461
 9974SOL    HW230822   6.786   3.077   3.608
 9975SOL     OW30823   6.166   4.717   7.023
 9975SOL    HW130824   6.150   4.760   0.087
 9975SOL    HW230825   6.232   4.771   6.971
 9976SOL     OW30826   0.479   6.528   5.457
 9976SOL    HW130827   0.563   6.559   5.412
 9976SOL    HW230828   0.417   6.605   5.470
 9977SOL     OW30829   0.042   5.398   5.144
 9977SOL    HW130830   0.017   5.463   5.215
 9977SOL    HW230831   7.020   5.422   5.059
 9978SOL     OW30832   6.536   3.156   3.296
 9978SOL    HW130833   6.598   3.078   3.299
 9978SOL    HW230834   6.550   3.207   3.212
 9979SOL     OW30835   6.033   4.786   5.568
 9979SOL    HW130836   6.026   4.880   5.535
 9979SOL    HW230837   6.127   4.753   5.557
 9980SOL     OW30838   2.139   1.701   5.916
 9980SOL    HW130839   2.178   1.741   5.999
 9980SOL    HW230840   2.153   1.602   5.916
 9981SOL     OW30841   2.188   2.021   1.837
 9981SOL    HW130842   2.095   2.049   1.815
 9981SOL    HW230843   2.241   2.102   1.864
 9982SOL     OW30844   6.717   6.978   3.704
 9982SOL    HW130845   6.779   6.909   3.667
 9982SOL    HW230846   6.624   6.942   3.707
 9983SOL     OW30847   0.170   2.713   3.098
 9983SOL    HW130848   0.259   2.678   3.128
 9983SOL    HW230849   0.113   2.636   3.067
 9984SOL     OW30850   1.999   1.121   0.185
 9984SOL    HW130851   2.061   1.067   0.241
 9984SOL    HW230852   2.051   1.173   0.117
 9985SOL     OW30853   1.834   1.085   1.665
 9985SOL    HW130854   1.792   1.002   1.628
 9985SOL    HW230855   1.793   1.106   1.754
 9986SOL     OW30856   5.694   4.271   5.758
 9986SOL    HW130857   5.700   4.233   5.850
 9986SOL    HW230858   5.612   4.238   5.713
 9987SOL     OW30859   6.845   2.948   3.880
 9987SOL    HW130860   6.789   2.893   3.942
 9987SOL    HW230861   6.928   2.898   3.857
 9988SOL     OW30862   0.396   5.916   5.093
 9988SOL    HW130863   0.433   5.856   5.164
 9988SOL    HW230864   0.340   5.864   5.030
 9989SOL     OW30865   6.518   4.229   3.256
 9989SOL    HW130866   6.454   4.166   3.301
 9989SOL    HW230867   6.469   4.283   3.188
 9990SOL     OW30868   2.706   5.632   1.863
 9990SOL    HW130869   2.745   5.542   1.842
 9990SOL    HW230870   2.622   5.645   1.810
 9991SOL     OW30871   2.084   2.743   3.937
 9991SOL    HW130872   2.028   2.804   3.992
 9991SOL    HW230873   2.030   2.707   3.861
 9992SOL     OW30874   5.634   4.732   0.472
 9992SOL    HW130875   5.599   4.665   0.406
 9992SOL    HW230876   5.571   4.809   0.478
 9993SOL     OW30877   3.053   0.304   0.808
 9993SOL    HW130878   3.052   0.369   0.884
 9993SOL    HW230879   3.081   0.214   0.841
 9994SOL     OW30880   0.202   4.916   3.332
 9994SOL    HW130881   0.276   4.875   3.385
 9994SOL    HW230882   0.127   4.941   3.394
 9995SOL     OW30883   4.343   1.090   3.162
 9995SOL    HW130884   4.375   1.014   3.104
 9995SOL    HW230885   4.288   1.153   3.107
 9996SOL     OW30886   2.735   2.946   1.547
 9996SOL    HW130887   2.739   2.997   1.633
 9996SOL    HW230888   2.815   2.886   1.541
 9997SOL     OW30889   3.681   1.571   0.581
 9997SOL    HW130890   3.761   1.532   0.626
 9997SOL    HW230891   3.603   1.568   0.643
 9998SOL     OW30892   5.469   4.525   6.567
 9998SOL    HW130893   5.399   4.474   6.616
 9998SOL    HW230894   5.559   4.502   6.605
 9999SOL     OW30895   6.956   3.187   5.229
 9999SOL    HW130896   6.972   3.114   5.295
 9999SOL    HW230897   0.017   3.208   5.182
10000SOL     OW30898   0.111   4.179   0.270
10000SOL    HW130899   0.135   4.119   0.194
10000SOL    HW230900   0.013   4.194   0.271
10001SOL     OW30901   4.668   0.013   2.381
10001SOL    HW130902   4.728   0.031   2.303
10001SOL    HW230903   4.575   0.040   2.358
10002SOL     OW30904   2.073   6.669   2.486
10002SOL    HW130905   2.019   6.609   2.427
10002SOL    HW230906   2.170   6.646   2.478
10003SOL     OW30907   3.986   1.479   3.507
10003SOL    HW130908   3.948   1.570   3.498
10003SOL    HW230909   4.027   1.469   3.598
10004SOL     OW30910   6.187   2.154   4.366
10004SOL    HW130911   6.208   2.211   4.286
10004SOL    HW230912   6.181   2.058   4.339
10005SOL     OW30913   4.846   0.378   4.620
10005SOL    HW130914   4.837   0.478   4.619
10005SOL    HW230915   4.765   0.339   4.663
10006SOL     OW30916   5.285   6.182   4.191
10006SOL    HW130917   5.195   6.169   4.234
10006SOL    HW230918   5.275   6.243   4.112
10007SOL     OW30919   6.673   4.842   5.743
10007SOL    HW130920   6.749   4.906   5.730
10007SOL    HW230921   6.615   4.874   5.818
10008SOL     OW30922   4.406   1.271   4.314
10008SOL    HW130923   4.500   1.280   4.282
10008SOL    HW230924   4.353   1.218   4.248
10009SOL     OW30925   1.904   3.550   1.361
10009SOL    HW130926   1.879   3.647   1.356
10009SOL    HW230927   1.822   3.496   1.383
10010SOL     OW30928   2.072   0.794   5.807
10010SOL    HW130929   2.052   0.753   5.896
10010SOL    HW230930   2.000   0.859   5.782
10011SOL     OW30931   5.203   1.190   5.555
10011SOL    HW130932   5.250   1.191   5.644
10011SOL    HW230933   5.128   1.124   5.559
10012SOL     OW30934   6.039   1.459   2.996
10012SOL    HW130935   5.947   1.418   2.997
10012SOL    HW230936   6.106   1.388   2.975
10013SOL     OW30937   0.351   1.092   3.317
10013SOL    HW130938   0.408   1.017   3.283
10013SOL    HW230939   0.332   1.156   3.243
10014SOL     OW30940   6.909   3.613   0.742
10014SOL    HW130941   6.853   3.586   0.664
10014SOL    HW230942   6.948   3.704   0.725
10015SOL     OW30943   2.356   4.747   0.577
10015SOL    HW130944   2.309   4.832   0.552
10015SOL    HW230945   2.362   4.740   0.676
10016SOL     OW30946   1.388   0.598   6.968
10016SOL    HW130947   1.482   0.586   6.936
10016SOL    HW230948   1.386   0.589   0.043
10017SOL     OW30949   2.788   1.324   3.441
10017SOL    HW130950   2.829   1.393   3.500
10017SOL    HW230951   2.689   1.325   3.453
10018SOL     OW30952   4.299   0.441   5.677
10018SOL    HW130953   4.247   0.427   5.593
10018SOL    HW230954   4.320   0.539   5.687
10019SOL     OW30955   0.474   1.879   2.886
10019SOL    HW130956   0.478   1.816   2.808
10019SOL    HW230957   0.558   1.869   2.940
10020SOL     OW30958   1.406   2.737   1.081
10020SOL    HW130959   1.354   2.652   1.089
10020SOL    HW230960   1.453   2.755   1.168
10021SOL     OW30961   6.987   2.641   1.511
10021SOL    HW130962   6.899   2.686   1.526
10021SOL    HW230963   6.976   2.542   1.518
10022SOL     OW30964   2.639   0.872   5.897
10022SOL    HW130965   2.691   0.958   5.898
10022SOL    HW230966   2.543   0.891   5.877
10023SOL     OW30967   0.893   5.042   0.518
10023SOL    HW130968   0.974   5.054   0.576
10023SOL    HW230969   0.922   5.020   0.425
10024SOL     OW30970   2.289   6.110   2.242
10024SOL    HW130971   2.291   6.123   2.143
10024SOL    HW230972   2.380   6.125   2.279
10025SOL     OW30973   1.279   2.494   1.060
10025SOL    HW130974   1.362   2.458   1.017
10025SOL    HW230975   1.219   2.417   1.085
10026SOL     OW30976   5.532   6.383   3.723
10026SOL    HW130977   5.628   6.365   3.746
10026SOL    HW230978   5.483   6.296   3.716
10027SOL     OW30979   6.353   4.546   4.647
10027SOL    HW130980   6.317   4.516   4.735
10027SOL    HW230981   6.450   4.569   4.655
10028SOL     OW30982   1.444   1.262   2.364
10028SOL    HW130983   1.398   1.320   2.431
10028SOL    HW230984   1.543   1.270   2.375
10029SOL     OW30985   5.102   1.734   4.996
10029SOL    HW130986   5.161   1.679   5.055
10029SOL    HW230987   5.074   1.681   4.916
10030SOL     OW30988   1.865   7.005   3.815
10030SOL    HW130989   1.897   6.955   3.896
10030SOL    HW230990   1.818   0.063   3.844
10031SOL     OW30991   5.184   4.996   5.035
10031SOL    HW130992   5.189   4.926   5.106
10031SOL    HW230993   5.091   5.032   5.031
10032SOL     OW30994   3.096   1.144   4.961
10032SOL    HW130995   3.094   1.076   4.888
10032SOL    HW230996   3.166   1.212   4.941
10033SOL     OW30997   6.802   3.068   4.711
10033SOL    HW130998   6.864   3.045   4.636
10033SOL    HW230999   6.808   2.997   4.782
10034SOL     OW31000   3.647   0.416   4.247
10034SOL    HW131001   3.654   0.448   4.152
10034SOL    HW231002   3.703   0.474   4.306
10035SOL     OW31003   6.944   4.873   1.558
10035SOL    HW131004   7.002   4.954   1.549
10035SOL    HW231005   6.960   4.811   1.481
10036SOL     OW31006   6.412   2.254   1.312
10036SOL    HW131007   6.431   2.213   1.401
10036SOL    HW231008   6.356   2.191   1.258
10037SOL     OW31009   0.447   1.563   0.065
10037SOL    HW131010   0.350   1.582   0.076
10037SOL    HW231011   0.488   1.632   0.005
10038SOL     OW31012   5.481   0.819   0.049
10038SOL    HW131013   5.421   0.788   0.122
10038SOL    HW231014   5.572   0.838   0.086
10039SOL     OW31015   4.004   0.850   3.883
10039SOL    HW131016   3.912   0.874   3.915
10039SOL    HW231017   4.052   0.799   3.955
10040SOL     OW31018   5.686   5.485   6.482
10040SOL    HW131019   5.736   5.526   6.558
10040SOL    HW231020   5.696   5.543   6.401
10041SOL     OW31021   4.292   5.668   6.893
10041SOL    HW131022   4.310   5.667   6.795
10041SOL    HW231023   4.220   5.602   6.914
10042SOL     OW31024   0.436   1.820   3.875
10042SOL    HW131025   0.411   1.913   3.900
10042SOL    HW231026   0.485   1.777   3.950
10043SOL     OW31027   5.953   2.084   4.990
10043SOL    HW131028   5.867   2.072   4.939
10043SOL    HW231029   5.932   2.114   5.083
10044SOL     OW31030   2.579   2.547   5.071
10044SOL    HW131031   2.609   2.609   4.998
10044SOL    HW231032   2.480   2.557   5.084
10045SOL     OW31033   3.662   0.763   1.581
10045SOL    HW131034   3.669   0.861   1.562
10045SOL    HW231035   3.583   0.746   1.639
10046SOL     OW31036   1.833   3.108   0.682
10046SOL    HW131037   1.800   3.178   0.619
10046SOL    HW231038   1.767   3.096   0.757
10047SOL     OW31039   0.910   2.947   5.076
10047SOL    HW131040   0.857   3.028   5.101
10047SOL    HW231041   1.000   2.952   5.118
10048SOL     OW31042   6.642   6.848   2.736
10048SOL    HW131043   6.631   6.925   2.673
10048SOL    HW231044   6.554   6.802   2.749
10049SOL     OW31045   1.851   1.625   5.865
10049SOL    HW131046   1.941   1.667   5.873
10049SOL    HW231047   1.850   1.540   5.918
10050SOL     OW31048   5.323   3.456   4.721
10050SOL    HW131049   5.290   3.481   4.629
10050SOL    HW231050   5.423   3.450   4.720
10051SOL     OW31051   0.861   4.365   4.948
10051SOL    HW131052   0.901   4.362   4.856
10051SOL    HW231053   0.762   4.353   4.941
10052SOL     OW31054   1.880   0.841   3.232
10052SOL    HW131055   1.915   0.808   3.145
10052SOL    HW231056   1.922   0.930   3.253
10053SOL     OW31057   4.284   6.082   4.084
10053SOL    HW131058   4.246   6.004   4.133
10053SOL    HW231059   4.362   6.119   4.136
10054SOL     OW31060   5.590   4.225   5.403
10054SOL    HW131061   5.588   4.195   5.308
10054SOL    HW231062   5.684   4.249   5.428
10055SOL     OW31063   6.345   2.919   6.076
10055SOL    HW131064   6.414   2.953   6.140
10055SOL    HW231065   6.357   2.963   5.988
10056SOL     OW31066   5.002   4.466   3.192
10056SOL    HW131067   4.995   4.389   3.128
10056SOL    HW231068   4.911   4.491   3.224
10057SOL     OW31069   5.808   3.614   5.507
10057SOL    HW131070   5.726   3.606   5.452
10057SOL    HW231071   5.794   3.682   5.579
10058SOL     OW31072   6.505   3.696   4.299
10058SOL    HW131073   6.468   3.667   4.211
10058SOL    HW231074   6.448   3.659   4.373
10059SOL     OW31075   6.898   1.875   0.976
10059SOL    HW131076   6.822   1.938   0.989
10059SOL    HW231077   6.878   1.812   0.900
10060SOL     OW31078   2.425   2.202   2.581
10060SOL    HW131079   2.326   2.198   2.592
10060SOL    HW231080   2.450   2.169   2.489
10061SOL     OW31081   4.324   1.089   3.926
10061SOL    HW131082   4.294   1.175   3.968
10061SOL    HW231083   4.394   1.047   3.983
10062SOL     OW31084   6.473   6.904   4.413
10062SOL    HW131085   6.533   6.969   4.459
10062SOL    HW231086   6.378   6.927   4.433
10063SOL     OW31087   2.297   1.829   4.320
10063SOL    HW131088   2.270   1.733   4.319
10063SOL    HW231089   2.244   1.880   4.252
10064SOL     OW31090   4.245   5.665   6.588
10064SOL    HW131091   4.263   5.762   6.572
10064SOL    HW231092   4.146   5.650   6.597
10065SOL     OW31093   1.552   0.852   1.954
10065SOL    HW131094   1.522   0.838   2.049
10065SOL    HW231095   1.652   0.860   1.952
10066SOL     OW31096   0.687   3.164   5.089
10066SOL    HW131097   0.646   3.098   5.151
10066SOL    HW231098   0.701   3.251   5.138
10067SOL     OW31099   0.828   2.948   6.083
10067SOL    HW131100   0.733   2.970   6.063
10067SOL    HW231101   0.879   3.032   6.102
10068SOL     OW31102   1.580   3.462   2.971
10068SOL    HW131103   1.564   3.399   2.895
10068SOL    HW231104   1.585   3.556   2.937
10069SOL     OW31105   3.688   4.991   1.672
10069SOL    HW131106   3.726   4.964   1.584
10069SOL    HW231107   3.743   5.065   1.711
10070SOL     OW31108   1.373   5.395   4.576
10070SOL    HW131109   1.318   5.394   4.660
10070SOL    HW231110   1.363   5.484   4.531
10071SOL     OW31111   0.532   0.023   3.822
10071SOL    HW131112   0.623   0.051   3.851
10071SOL    HW231113   0.535   7.017   3.727
10072SOL     OW31114   0.434   1.334   2.565
10072SOL    HW131115   0.444   1.369   2.658
10072SOL    HW231116   0.510   1.367   2.509
10073SOL     OW31117   6.125   3.049   3.424
10073SOL    HW131118   6.142   3.112   3.499
10073SOL    HW231119   6.186   3.071   3.348
10074SOL     OW31120   0.936   5.396   0.510
10074SOL    HW131121   0.866   5.462   0.536
10074SOL    HW231122   0.963   5.343   0.590
10075SOL     OW31123   2.246   0.842   2.552
10075SOL    HW131124   2.221   0.749   2.525
10075SOL    HW231125   2.163   0.895   2.572
10076SOL     OW31126   4.892   5.515   3.348
10076SOL    HW131127   4.826   5.557   3.285
10076SOL    HW231128   4.882   5.555   3.439
10077SOL     OW31129   5.818   3.068   0.118
10077SOL    HW131130   5.810   3.045   0.021
10077SOL    HW231131   5.876   3.149   0.129
10078SOL     OW31132   0.236   6.339   4.769
10078SOL    HW131133   0.150   6.372   4.731
10078SOL    HW231134   0.274   6.408   4.831
10079SOL     OW31135   5.581   2.415   3.759
10079SOL    HW131136   5.505   2.351   3.770
10079SOL    HW231137   5.547   2.500   3.717
10080SOL     OW31138   5.614   0.893   5.915
10080SOL    HW131139   5.706   0.926   5.896
10080SOL    HW231140   5.549   0.970   5.909
10081SOL     OW31141   1.217   1.621   6.851
10081SOL    HW131142   1.266   1.541   6.815
10081SOL    HW231143   1.153   1.591   6.922
10082SOL     OW31144   1.309   5.248   3.317
10082SOL    HW131145   1.218   5.275   3.286
10082SOL    HW231146   1.375   5.265   3.243
10083SOL     OW31147   3.628   5.869   3.371
10083SOL    HW131148   3.648   5.906   3.462
10083SOL    HW231149   3.572   5.934   3.320
10084SOL     OW31150   0.304   6.517   4.971
10084SOL    HW131151   0.355   6.601   4.952
10084SOL    HW231152   0.362   6.453   5.020
10085SOL     OW31153   3.939   6.457   0.068
10085SOL    HW131154   3.962   6.369   0.026
10085SOL    HW231155   3.983   6.464   0.158
10086SOL     OW31156   5.614   6.480   2.428
10086SOL    HW131157   5.664   6.563   2.402
10086SOL    HW231158   5.608   6.419   2.350
10087SOL     OW31159   0.598   6.800   4.697
10087SOL    HW131160   0.695   6.780   4.713
10087SOL    HW231161   0.581   6.897   4.712
10088SOL     OW31162   6.848   1.856   0.201
10088SOL    HW131163   6.924   1.908   0.239
10088SOL    HW231164   6.796   1.914   0.138
10089SOL     OW31165   3.780   1.512   2.585
10089SOL    HW131166   3.765   1.465   2.672
10089SOL    HW231167   3.849   1.464   2.532
10090SOL     OW31168   0.734   4.878   2.029
10090SOL    HW131169   0.823   4.914   2.059
10090SOL    HW231170   0.663   4.904   2.094
10091SOL     OW31171   6.489   5.662   6.594
10091SOL    HW131172   6.472   5.595   6.666
10091SOL    HW231173   6.423   5.649   6.520
10092SOL     OW31174   1.366   3.344   5.389
10092SOL    HW131175   1.279   3.294   5.380
10092SOL    HW231176   1.439   3.291   5.346
10093SOL     OW31177   5.125   3.440   5.549
10093SOL    HW131178   5.092   3.531   5.571
10093SOL    HW231179   5.052   3.373   5.565
10094SOL     OW31180   2.952   6.564   0.841
10094SOL    HW131181   3.010   6.632   0.795
10094SOL    HW231182   2.970   6.473   0.802
10095SOL     OW31183   5.452   2.419   4.713
10095SOL    HW131184   5.357   2.419   4.683
10095SOL    HW231185   5.508   2.469   4.646
10096SOL     OW31186   4.886   0.614   2.108
10096SOL    HW131187   4.903   0.557   2.189
10096SOL    HW231188   4.971   0.623   2.056
10097SOL     OW31189   1.980   2.132   6.443
10097SOL    HW131190   1.974   2.172   6.535
10097SOL    HW231191   1.909   2.063   6.432
10098SOL     OW31192   3.067   5.650   4.587
10098SOL    HW131193   3.051   5.688   4.495
10098SOL    HW231194   3.075   5.725   4.652
10099SOL     OW31195   6.415   4.318   1.397
10099SOL    HW131196   6.470   4.399   1.416
10099SOL    HW231197   6.373   4.325   1.307
10100SOL     OW31198   5.370   5.485   5.443
10100SOL    HW131199   5.286   5.441   5.475
10100SOL    HW231200   5.411   5.430   5.371
10101SOL     OW31201   6.659   2.791   2.018
10101SOL    HW131202   6.691   2.874   1.971
10101SOL    HW231203   6.702   2.711   1.977
10102SOL     OW31204   5.448   0.531   0.473
10102SOL    HW131205   5.547   0.530   0.457
10102SOL    HW231206   5.401   0.514   0.387
10103SOL     OW31207   0.493   0.167   6.155
10103SOL    HW131208   0.593   0.175   6.153
10103SOL    HW231209   0.452   0.258   6.161
10104SOL     OW31210   2.080   0.948   6.158
10104SOL    HW131211   2.078   0.876   6.227
10104SOL    HW231212   2.056   1.036   6.200
10105SOL     OW31213   2.665   1.165   5.902
10105SOL    HW131214   2.729   1.236   5.934
10105SOL    HW231215   2.649   1.177   5.804
10106SOL     OW31216   4.930   6.287   1.550
10106SOL    HW131217   4.877   6.308   1.633
10106SOL    HW231218   5.002   6.356   1.538
10107SOL     OW31219   5.081   4.444   6.556
10107SOL    HW131220   5.071   4.361   6.501
10107SOL    HW231221   4.990   4.476   6.584
10108SOL     OW31222   1.912   3.021   0.304
10108SOL    HW131223   1.948   3.114   0.295
10108SOL    HW231224   1.945   2.980   0.389
10109SOL     OW31225   0.509   1.032   7.000
10109SOL    HW131226   0.468   0.948   6.965
10109SOL    HW231227   0.568   1.072   6.930
10110SOL     OW31228   4.761   4.818   2.264
10110SOL    HW131229   4.860   4.825   2.276
10110SOL    HW231230   4.733   4.872   2.185
10111SOL     OW31231   0.962   2.852   2.105
10111SOL    HW131232   1.017   2.910   2.044
10111SOL    HW231233   0.920   2.778   2.052
10112SOL     OW31234   6.434   3.271   3.507
10112SOL    HW131235   6.479   3.227   3.429
10112SOL    HW231236   6.468   3.365   3.516
10113SOL     OW31237   4.631   0.971   6.742
10113SOL    HW131238   4.567   0.980   6.818
10113SOL    HW231239   4.718   1.014   6.765
10114SOL     OW31240   4.188   2.227   3.054
10114SOL    HW131241   4.211   2.131   3.036
10114SOL    HW231242   4.243   2.260   3.130
10115SOL     OW31243   3.391   1.279   3.998
10115SOL    HW131244   3.483   1.319   3.996
10115SOL    HW231245   3.340   1.317   4.075
10116SOL     OW31246   5.836   0.235   5.424
10116SOL    HW131247   5.853   0.192   5.512
10116SOL    HW231248   5.917   0.285   5.395
10117SOL     OW31249   6.530   5.195   5.338
10117SOL    HW131250   6.624   5.161   5.332
10117SOL    HW231251   6.466   5.119   5.322
10118SOL     OW31252   2.510   4.962   4.609
10118SOL    HW131253   2.480   4.940   4.701
10118SOL    HW231254   2.489   5.058   4.589
10119SOL     OW31255   0.198   4.802   4.053
10119SOL    HW131256   0.173   4.885   4.104
10119SOL    HW231257   0.260   4.826   3.978
10120SOL     OW31258   1.515   2.752   3.151
10120SOL    HW131259   1.581   2.800   3.208
10120SOL    HW231260   1.423   2.783   3.173
10121SOL     OW31261   6.585   4.725   0.631
10121SOL    HW131262   6.599   4.630   0.659
10121SOL    HW231263   6.587   4.731   0.531
10122SOL     OW31264   6.791   1.970   4.118
10122SOL    HW131265   6.707   2.012   4.154
10122SOL    HW231266   6.794   1.981   4.019
10123SOL     OW31267   5.542   6.360   0.990
10123SOL    HW131268   5.579   6.403   1.072
10123SOL    HW231269   5.612   6.301   0.949
10124SOL     OW31270   1.263   5.398   2.370
10124SOL    HW131271   1.185   5.435   2.319
10124SOL    HW231272   1.347   5.420   2.322
10125SOL     OW31273   1.924   1.565   1.076
10125SOL    HW131274   1.863   1.612   1.139
10125SOL    HW231275   1.991   1.512   1.128
10126SOL     OW31276   6.081   0.881   6.871
10126SOL    HW131277   6.115   0.793   6.905
10126SOL    HW231278   6.149   0.952   6.887
10127SOL     OW31279   1.342   4.569   5.668
10127SOL    HW131280   1.334   4.549   5.571
10127SOL    HW231281   1.299   4.658   5.688
10128SOL     OW31282   3.278   0.858   0.354
10128SOL    HW131283   3.368   0.887   0.384
10128SOL    HW231284   3.271   0.758   0.359
10129SOL     OW31285   6.050   1.720   2.881
10129SOL    HW131286   6.082   1.648   2.942
10129SOL    HW231287   5.981   1.775   2.927
10130SOL     OW31288   0.820   2.478   2.360
10130SOL    HW131289   0.729   2.508   2.331
10130SOL    HW231290   0.822   2.466   2.459
10131SOL     OW31291   2.208   0.628   4.749
10131SOL    HW131292   2.255   0.714   4.731
10131SOL    HW231293   2.109   0.640   4.737
10132SOL     OW31294   6.830   0.160   2.642
10132SOL    HW131295   6.892   0.192   2.714
10132SOL    HW231296   6.867   0.076   2.602
10133SOL     OW31297   4.753   5.370   0.712
10133SOL    HW131298   4.667   5.382   0.762
10133SOL    HW231299   4.763   5.274   0.686
10134SOL     OW31300   5.884   0.866   1.976
10134SOL    HW131301   5.811   0.839   1.913
10134SOL    HW231302   5.882   0.808   2.057
10135SOL     OW31303   5.469   0.490   3.999
10135SOL    HW131304   5.448   0.532   4.088
10135SOL    HW231305   5.542   0.543   3.954
10136SOL     OW31306   5.169   2.035   2.843
10136SOL    HW131307   5.074   2.052   2.868
10136SOL    HW231308   5.189   1.938   2.851
10137SOL     OW31309   0.086   5.667   5.897
10137SOL    HW131310   0.007   5.664   5.836
10137SOL    HW231311   0.169   5.643   5.847
10138SOL     OW31312   5.893   1.629   0.452
10138SOL    HW131313   5.852   1.697   0.392
10138SOL    HW231314   5.987   1.610   0.423
10139SOL     OW31315   3.045   3.509   6.038
10139SOL    HW131316   3.140   3.489   6.014
10139SOL    HW231317   3.040   3.596   6.085
10140SOL     OW31318   7.012   5.999   6.427
10140SOL    HW131319   0.047   5.935   6.379
10140SOL    HW231320   6.918   5.987   6.396
10141SOL     OW31321   3.670   1.322   3.989
10141SOL    HW131322   3.711   1.413   3.990
10141SOL    HW231323   3.697   1.274   3.905
10142SOL     OW31324   5.672   6.463   4.900
10142SOL    HW131325   5.648   6.429   4.809
10142SOL    HW231326   5.763   6.505   4.897
10143SOL     OW31327   5.440   3.199   0.593
10143SOL    HW131328   5.422   3.145   0.511
10143SOL    HW231329   5.510   3.153   0.648
10144SOL     OW31330   4.038   6.253   5.475
10144SOL    HW131331   4.094   6.269   5.394
10144SOL    HW231332   4.016   6.341   5.518
10145SOL     OW31333   4.871   5.899   1.341
10145SOL    HW131334   4.922   5.956   1.406
10145SOL    HW231335   4.928   5.822   1.313
10146SOL     OW31336   0.170   3.877   3.785
10146SOL    HW131337   0.265   3.874   3.815
10146SOL    HW231338   0.168   3.889   3.686
10147SOL     OW31339   4.601   5.456   6.649
10147SOL    HW131340   4.539   5.379   6.663
10147SOL    HW231341   4.551   5.531   6.605
10148SOL     OW31342   0.531   4.777   0.208
10148SOL    HW131343   0.542   4.876   0.219
10148SOL    HW231344   0.617   4.738   0.176
10149SOL     OW31345   4.932   5.075   1.707
10149SOL    HW131346   4.918   5.088   1.805
10149SOL    HW231347   4.845   5.053   1.663
10150SOL     OW31348   4.926   3.726   0.682
10150SOL    HW131349   4.995   3.678   0.736
10150SOL    HW231350   4.835   3.692   0.706
10151SOL     OW31351   6.691   0.158   5.934
10151SOL    HW131352   6.615   0.100   5.905
10151SOL    HW231353   6.659   0.252   5.948
10152SOL     OW31354   6.036   6.176   2.633
10152SOL    HW131355   6.066   6.192   2.539
10152SOL    HW231356   6.015   6.264   2.677
10153SOL     OW31357   4.537   5.624   3.889
10153SOL    HW131358   4.529   5.609   3.988
10153SOL    HW231359   4.613   5.570   3.854
10154SOL     OW31360   3.942   5.019   5.935
10154SOL    HW131361   3.951   4.921   5.917
10154SOL    HW231362   3.846   5.044   5.936
10155SOL     OW31363   4.553   2.336   5.832
10155SOL    HW131364   4.497   2.367   5.909
10155SOL    HW231365   4.550   2.236   5.826
10156SOL     OW31366   5.073   0.401   0.901
10156SOL    HW131367   5.063   0.455   0.818
10156SOL    HW231368   4.985   0.359   0.925
10157SOL     OW31369   6.970   2.430   1.264
10157SOL    HW131370   0.035   2.414   1.304
10157SOL    HW231371   6.929   2.512   1.304
10158SOL     OW31372   5.048   6.727   2.462
10158SOL    HW131373   4.964   6.781   2.468
10158SOL    HW231374   5.032   6.637   2.503
10159SOL     OW31375   3.671   3.267   2.782
10159SOL    HW131376   3.631   3.342   2.835
10159SOL    HW231377   3.599   3.224   2.727
10160SOL     OW31378   1.696   4.242   2.487
10160SOL    HW131379   1.641   4.325   2.488
10160SOL    HW231380   1.669   4.184   2.564
10161SOL     OW31381   3.697   4.697   6.333
10161SOL    HW131382   3.637   4.705   6.413
10161SOL    HW231383   3.695   4.783   6.282
10162SOL     OW31384   2.056   4.239   1.621
10162SOL    HW131385   1.977   4.204   1.572
10162SOL    HW231386   2.100   4.312   1.568
10163SOL     OW31387   1.485   6.355   5.259
10163SOL    HW131388   1.468   6.341   5.356
10163SOL    HW231389   1.564   6.300   5.231
10164SOL     OW31390   6.462   3.019   3.590
10164SOL    HW131391   6.453   3.109   3.548
10164SOL    HW231392   6.529   3.023   3.664
10165SOL     OW31393   6.050   2.660   3.962
10165SOL    HW131394   6.110   2.660   3.883
10165SOL    HW231395   5.981   2.732   3.953
10166SOL     OW31396   0.776   2.844   0.875
10166SOL    HW131397   0.863   2.846   0.925
10166SOL    HW231398   0.793   2.862   0.778
10167SOL     OW31399   0.429   5.357   6.259
10167SOL    HW131400   0.416   5.260   6.240
10167SOL    HW231401   0.344   5.406   6.244
10168SOL     OW31402   5.900   1.562   6.863
10168SOL    HW131403   5.955   1.482   6.886
10168SOL    HW231404   5.923   1.638   6.925
10169SOL     OW31405   6.828   3.955   3.151
10169SOL    HW131406   6.744   3.976   3.199
10169SOL    HW231407   6.823   3.863   3.113
10170SOL     OW31408   6.450   6.027   0.238
10170SOL    HW131409   6.442   6.113   0.290
10170SOL    HW231410   6.476   5.953   0.299
10171SOL     OW31411   1.913   2.954   5.071
10171SOL    HW131412   1.993   2.993   5.118
10171SOL    HW231413   1.920   2.854   5.072
10172SOL     OW31414   6.542   6.969   3.086
10172SOL    HW131415   6.531   6.876   3.119
10172SOL    HW231416   6.626   6.976   3.032
10173SOL     OW31417   3.686   4.927   6.657
10173SOL    HW131418   3.619   4.856   6.634
10173SOL    HW231419   3.765   4.886   6.702
10174SOL     OW31420   5.265   6.844   3.277
10174SOL    HW131421   5.326   6.899   3.221
10174SOL    HW231422   5.316   6.770   3.320
10175SOL     OW31423   6.694   2.047   3.561
10175SOL    HW131424   6.615   2.075   3.505
10175SOL    HW231425   6.681   1.954   3.594
10176SOL     OW31426   6.596   3.188   5.795
10176SOL    HW131427   6.674   3.125   5.794
10176SOL    HW231428   6.624   3.276   5.756
10177SOL     OW31429   2.485   0.530   1.702
10177SOL    HW131430   2.435   0.462   1.756
10177SOL    HW231431   2.472   0.512   1.605
10178SOL     OW31432   1.972   1.855   0.464
10178SOL    HW131433   1.965   1.824   0.369
10178SOL    HW231434   1.886   1.834   0.512
10179SOL     OW31435   7.009   4.277   0.588
10179SOL    HW131436   6.964   4.188   0.590
10179SOL    HW231437   0.060   4.277   0.653
10180SOL     OW31438   4.385   6.880   6.161
10180SOL    HW131439   4.412   6.942   6.235
10180SOL    HW231440   4.408   6.786   6.187
10181SOL     OW31441   6.423   3.960   1.359
10181SOL    HW131442   6.481   4.040   1.373
10181SOL    HW231443   6.363   3.975   1.281
10182SOL     OW31444   5.681   1.820   0.295
10182SOL    HW131445   5.596   1.873   0.297
10182SOL    HW231446   5.661   1.725   0.321
10183SOL     OW31447   6.786   2.334   6.040
10183SOL    HW131448   6.865   2.376   6.083
10183SOL    HW231449   6.817   2.268   5.972
10184SOL     OW31450   6.131   3.978   6.430
10184SOL    HW131451   6.220   3.967   6.475
10184SOL    HW231452   6.064   4.011   6.496
10185SOL     OW31453   3.848   5.878   2.225
10185SOL    HW131454   3.876   5.803   2.164
10185SOL    HW231455   3.819   5.840   2.312
10186SOL     OW31456   4.926   4.341   5.505
10186SOL    HW131457   4.853   4.379   5.449
10186SOL    HW231458   4.992   4.293   5.446
10187SOL     OW31459   2.458   4.332   5.735
10187SOL    HW131460   2.529   4.302   5.671
10187SOL    HW231461   2.445   4.431   5.727
10188SOL     OW31462   2.589   6.446   6.601
10188SOL    HW131463   2.590   6.461   6.700
10188SOL    HW231464   2.676   6.404   6.573
10189SOL     OW31465   1.289   1.080   6.505
10189SOL    HW131466   1.295   1.179   6.507
10189SOL    HW231467   1.306   1.044   6.597
10190SOL     OW31468   2.854   4.024   1.395
10190SOL    HW131469   2.768   4.025   1.446
10190SOL    HW231470   2.837   3.992   1.302
10191SOL     OW31471   6.032   5.541   0.310
10191SOL    HW131472   6.055   5.573   0.218
10191SOL    HW231473   5.999   5.618   0.365
10192SOL     OW31474   2.513   1.828   5.369
10192SOL    HW131475   2.414   1.843   5.376
10192SOL    HW231476   2.543   1.766   5.441
10193SOL     OW31477   4.141   3.300   2.310
10193SOL    HW131478   4.060   3.333   2.358
10193SOL    HW231479   4.204   3.259   2.376
10194SOL     OW31480   4.060   0.188   4.738
10194SOL    HW131481   4.069   0.287   4.736
10194SOL    HW231482   4.099   0.148   4.656
10195SOL     OW31483   5.468   0.154   1.928
10195SOL    HW131484   5.501   0.075   1.979
10195SOL    HW231485   5.483   0.238   1.981
10196SOL     OW31486   5.602   1.906   3.703
10196SOL    HW131487   5.635   1.920   3.796
10196SOL    HW231488   5.679   1.913   3.639
10197SOL     OW31489   5.920   0.131   2.996
10197SOL    HW131490   5.870   0.147   2.911
10197SOL    HW231491   5.858   0.090   3.063
10198SOL     OW31492   3.256   6.476   1.222
10198SOL    HW131493   3.198   6.455   1.300
10198SOL    HW231494   3.317   6.398   1.204
10199SOL     OW31495   1.396   1.871   6.853
10199SOL    HW131496   1.344   1.786   6.848
10199SOL    HW231497   1.477   1.864   6.796
10200SOL     OW31498   5.920   4.058   6.140
10200SOL    HW131499   5.860   4.137   6.143
10200SOL    HW231500   6.013   4.088   6.116
10201SOL     OW31501   0.469   5.533   2.551
10201SOL    HW131502   0.476   5.509   2.454
10201SOL    HW231503   0.553   5.504   2.598
10202SOL     OW31504   6.937   3.958   1.254
10202SOL    HW131505   6.837   3.947   1.258
10202SOL    HW231506   6.966   4.030   1.317
10203SOL     OW31507   1.838   3.172   2.374
10203SOL    HW131508   1.835   3.102   2.446
10203SOL    HW231509   1.890   3.251   2.406
10204SOL     OW31510   3.243   4.694   5.658
10204SOL    HW131511   3.196   4.617   5.614
10204SOL    HW231512   3.206   4.780   5.623
10205SOL     OW31513   4.990   1.531   3.717
10205SOL    HW131514   5.019   1.486   3.801
10205SOL    HW231515   5.067   1.581   3.677
10206SOL     OW31516   5.794   6.616   6.257
10206SOL    HW131517   5.846   6.678   6.316
10206SOL    HW231518   5.823   6.629   6.162
10207SOL     OW31519   2.289   1.315   2.271
10207SOL    HW131520   2.255   1.291   2.180
10207SOL    HW231521   2.219   1.293   2.339
10208SOL     OW31522   5.973   5.711   4.919
10208SOL    HW131523   5.944   5.615   4.914
10208SOL    HW231524   5.905   5.763   4.971
10209SOL     OW31525   0.232   1.155   6.270
10209SOL    HW131526   0.139   1.184   6.248
10209SOL    HW231527   0.273   1.109   6.191
10210SOL     OW31528   5.748   6.908   2.066
10210SOL    HW131529   5.682   6.898   2.141
10210SOL    HW231530   5.761   6.819   2.022
10211SOL     OW31531   3.816   6.392   5.212
10211SOL    HW131532   3.899   6.428   5.169
10211SOL    HW231533   3.841   6.322   5.279
10212SOL     OW31534   0.528   1.076   4.358
10212SOL    HW131535   0.596   1.131   4.309
10212SOL    HW231536   0.459   1.136   4.398
10213SOL     OW31537   5.518   1.749   2.734
10213SOL    HW131538   5.529   1.788   2.825
10213SOL    HW231539   5.480   1.657   2.742
10214SOL     OW31540   6.331   0.800   1.798
10214SOL    HW131541   6.423   0.837   1.789
10214SOL    HW231542   6.330   0.705   1.768
10215SOL     OW31543   2.960   3.413   5.757
10215SOL    HW131544   3.004   3.472   5.824
10215SOL    HW231545   2.957   3.459   5.668
10216SOL     OW31546   6.600   7.000   0.931
10216SOL    HW131547   6.538   0.028   0.874
10216SOL    HW231548   6.659   0.038   0.983
10217SOL     OW31549   2.414   1.549   4.610
10217SOL    HW131550   2.419   1.554   4.710
10217SOL    HW231551   2.392   1.640   4.573
10218SOL     OW31552   1.083   1.877   1.279
10218SOL    HW131553   1.126   1.805   1.225
10218SOL    HW231554   1.152   1.945   1.304
10219SOL     OW31555   0.509   2.110   2.048
10219SOL    HW131556   0.467   2.133   2.135
10219SOL    HW231557   0.569   2.031   2.059
10220SOL     OW31558   4.071   1.671   1.439
10220SOL    HW131559   4.069   1.594   1.504
10220SOL    HW231560   4.140   1.654   1.369
10221SOL     OW31561   2.669   1.096   5.020
10221SOL    HW131562   2.731   1.168   4.988
10221SOL    HW231563   2.648   1.034   4.944
10222SOL     OW31564   1.039   3.839   5.369
10222SOL    HW131565   0.980   3.920   5.367
10222SOL    HW231566   1.024   3.789   5.454
10223SOL     OW31567   1.234   4.801   6.892
10223SOL    HW131568   1.286   4.881   6.864
10223SOL    HW231569   1.142   4.806   6.854
10224SOL     OW31570   1.621   0.989   4.751
10224SOL    HW131571   1.664   1.076   4.774
10224SOL    HW231572   1.596   0.941   4.835
10225SOL     OW31573   0.562   6.016   4.594
10225SOL    HW131574   0.598   5.972   4.676
10225SOL    HW231575   0.551   5.947   4.522
10226SOL     OW31576   3.011   1.208   6.588
10226SOL    HW131577   3.085   1.158   6.543
10226SOL    HW231578   3.043   1.243   6.676
10227SOL     OW31579   4.926   4.516   0.327
10227SOL    HW131580   4.919   4.551   0.234
10227SOL    HW231581   5.021   4.489   0.345
10228SOL     OW31582   0.532   5.553   2.282
10228SOL    HW131583   0.504   5.610   2.204
10228SOL    HW231584   0.503   5.459   2.266
10229SOL     OW31585   0.927   0.968   3.539
10229SOL    HW131586   0.970   0.890   3.583
10229SOL    HW231587   0.926   1.046   3.602
10230SOL     OW31588   0.160   0.248   3.368
10230SOL    HW131589   0.198   0.242   3.460
10230SOL    HW231590   0.060   0.248   3.373
10231SOL     OW31591   6.696   6.857   4.986
10231SOL    HW131592   6.669   6.895   5.074
10231SOL    HW231593   6.655   6.767   4.974
10232SOL     OW31594   4.131   1.286   4.423
10232SOL    HW131595   4.221   1.307   4.383
10232SOL    HW231596   4.144   1.238   4.510
10233SOL     OW31597   4.469   2.980   5.605
10233SOL    HW131598   4.440   2.952   5.514
10233SOL    HW231599   4.389   3.008   5.659
10234SOL     OW31600   4.855   0.789   0.441
10234SOL    HW131601   4.817   0.745   0.523
10234SOL    HW231602   4.918   0.861   0.469
10235SOL     OW31603   4.505   0.883   0.540
10235SOL    HW131604   4.553   0.832   0.468
10235SOL    HW231605   4.424   0.832   0.569
10236SOL     OW31606   1.951   6.709   1.876
10236SOL    HW131607   1.974   6.701   1.779
10236SOL    HW231608   2.034   6.702   1.931
10237SOL     OW31609   6.273   4.130   1.560
10237SOL    HW131610   6.356   4.076   1.573
10237SOL    HW231611   6.292   4.207   1.500
10238SOL     OW31612   3.947   3.894   5.230
10238SOL    HW131613   3.914   3.816   5.178
10238SOL    HW231614   3.892   3.975   5.210
10239SOL     OW31615   0.940   4.176   5.734
10239SOL    HW131616   0.995   4.137   5.807
10239SOL    HW231617   0.999   4.217   5.665
10240SOL     OW31618   0.868   4.493   2.483
10240SOL    HW131619   0.912   4.461   2.567
10240SOL    HW231620   0.891   4.589   2.468
10241SOL     OW31621   0.403   1.088   1.996
10241SOL    HW131622   0.374   1.121   1.906
10241SOL    HW231623   0.352   1.005   2.018
10242SOL     OW31624   0.572   1.823   6.038
10242SOL    HW131625   0.620   1.795   6.122
10242SOL    HW231626   0.513   1.901   6.058
10243SOL     OW31627   0.185   5.349   1.325
10243SOL    HW131628   0.130   5.292   1.264
10243SOL    HW231629   0.253   5.292   1.371
10244SOL     OW31630   1.986   4.624   6.789
10244SOL    HW131631   1.990   4.685   6.869
10244SOL    HW231632   2.070   4.633   6.736
10245SOL     OW31633   2.329   3.671   6.761
10245SOL    HW131634   2.257   3.618   6.715
10245SOL    HW231635   2.383   3.720   6.693
10246SOL     OW31636   3.046   3.753   4.807
10246SOL    HW131637   3.100   3.825   4.849
10246SOL    HW231638   2.971   3.726   4.868
10247SOL     OW31639   0.597   5.381   5.477
10247SOL    HW131640   0.522   5.355   5.537
10247SOL    HW231641   0.666   5.432   5.530
10248SOL     OW31642   3.277   0.273   2.389
10248SOL    HW131643   3.223   0.258   2.306
10248SOL    HW231644   3.218   0.308   2.461
10249SOL     OW31645   3.388   0.596   5.316
10249SOL    HW131646   3.442   0.586   5.233
10249SOL    HW231647   3.324   0.519   5.323
10250SOL     OW31648   6.994   1.544   1.048
10250SOL    HW131649   0.021   1.598   1.113
10250SOL    HW231650   6.896   1.559   1.062
10251SOL     OW31651   2.383   2.941   5.835
10251SOL    HW131652   2.442   2.886   5.895
10251SOL    HW231653   2.406   3.037   5.845
10252SOL     OW31654   6.031   6.765   0.525
10252SOL    HW131655   5.973   6.831   0.572
10252SOL    HW231656   6.011   6.673   0.559
10253SOL     OW31657   4.958   5.152   0.109
10253SOL    HW131658   4.914   5.213   0.044
10253SOL    HW231659   5.004   5.206   0.180
10254SOL     OW31660   3.527   1.849   4.378
10254SOL    HW131661   3.457   1.889   4.318
10254SOL    HW231662   3.493   1.846   4.472
10255SOL     OW31663   1.982   6.290   1.518
10255SOL    HW131664   2.018   6.245   1.600
10255SOL    HW231665   2.051   6.351   1.480
10256SOL     OW31666   5.434   0.412   0.721
10256SOL    HW131667   5.414   0.319   0.689
10256SOL    HW231668   5.429   0.476   0.644
10257SOL     OW31669   0.734   4.684   4.986
10257SOL    HW131670   0.655   4.623   4.980
10257SOL    HW231671   0.811   4.635   5.028
10258SOL     OW31672   5.320   6.783   3.647
10258SOL    HW131673   5.410   6.741   3.642
10258SOL    HW231674   5.255   6.733   3.589
10259SOL     OW31675   1.138   5.230   3.578
10259SOL    HW131676   1.221   5.228   3.634
10259SOL    HW231677   1.163   5.229   3.481
10260SOL     OW31678   6.834   6.791   2.935
10260SOL    HW131679   6.800   6.703   2.967
10260SOL    HW231680   6.784   6.819   2.853
10261SOL     OW31681   0.064   6.318   2.145
10261SOL    HW131682   0.121   6.267   2.081
10261SOL    HW231683   7.023   6.373   2.095
10262SOL     OW31684   3.523   5.339   4.799
10262SOL    HW131685   3.511   5.431   4.837
10262SOL    HW231686   3.435   5.291   4.801
10263SOL     OW31687   4.727   1.664   6.713
10263SOL    HW131688   4.764   1.594   6.651
10263SOL    HW231689   4.760   1.648   6.806
10264SOL     OW31690   6.140   1.829   6.860
10264SOL    HW131691   6.141   1.928   6.873
10264SOL    HW231692   6.051   1.792   6.886
10265SOL     OW31693   3.111   1.411   2.983
10265SOL    HW131694   3.087   1.421   2.887
10265SOL    HW231695   3.030   1.425   3.039
10266SOL     OW31696   3.881   3.690   5.732
10266SOL    HW131697   3.784   3.716   5.727
10266SOL    HW231698   3.932   3.762   5.780
10267SOL     OW31699   6.613   1.967   0.049
10267SOL    HW131700   6.535   2.011   0.004
10267SOL    HW231701   6.583   1.926   0.135
10268SOL     OW31702   5.273   6.455   1.317
10268SOL    HW131703   5.194   6.477   1.373
10268SOL    HW231704   5.338   6.531   1.321
10269SOL     OW31705   2.317   1.523   5.574
10269SOL    HW131706   2.293   1.426   5.577
10269SOL    HW231707   2.369   1.542   5.491
10270SOL     OW31708   2.423   5.816   1.161
10270SOL    HW131709   2.509   5.778   1.196
10270SOL    HW231710   2.399   5.897   1.213
10271SOL     OW31711   3.009   3.563   0.146
10271SOL    HW131712   2.956   3.526   0.222
10271SOL    HW231713   3.085   3.502   0.125
10272SOL     OW31714   0.765   0.840   4.222
10272SOL    HW131715   0.740   0.937   4.219
10272SOL    HW231716   0.864   0.831   4.212
10273SOL     OW31717   4.016   5.742   4.091
10273SOL    HW131718   4.020   5.719   3.994
10273SOL    HW231719   3.988   5.661   4.143
10274SOL     OW31720   1.291   4.848   5.469
10274SOL    HW131721   1.252   4.893   5.389
10274SOL    HW231722   1.390   4.858   5.468
10275SOL     OW31723   1.233   0.161   2.755
10275SOL    HW131724   1.134   0.169   2.745
10275SOL    HW231725   1.268   0.240   2.806
10276SOL     OW31726   6.967   5.377   6.037
10276SOL    HW131727   6.999   5.459   6.083
10276SOL    HW231728   6.983   5.298   6.096
10277SOL     OW31729   2.925   6.052   4.098
10277SOL    HW131730   2.950   6.110   4.175
10277SOL    HW231731   2.926   5.956   4.126
10278SOL     OW31732   6.442   1.479   5.621
10278SOL    HW131733   6.457   1.388   5.660
10278SOL    HW231734   6.417   1.543   5.694
10279SOL     OW31735   3.609   0.383   3.959
10279SOL    HW131736   3.690   0.325   3.954
10279SOL    HW231737   3.532   0.330   3.992
10280SOL     OW31738   2.157   4.609   1.086
10280SOL    HW131739   2.124   4.648   1.000
10280SOL    HW231740   2.172   4.682   1.152
10281SOL     OW31741   5.225   2.256   2.715
10281SOL    HW131742   5.171   2.171   2.710
10281SOL    HW231743   5.321   2.234   2.729
10282SOL     OW31744   6.716   3.257   4.046
10282SOL    HW131745   6.728   3.322   3.971
10282SOL    HW231746   6.769   3.174   4.028
10283SOL     OW31747   1.202   3.246   1.114
10283SOL    HW131748   1.198   3.227   1.212
10283SOL    HW231749   1.266   3.183   1.070
10284SOL     OW31750   5.840   4.310   5.470
10284SOL    HW131751   5.914   4.308   5.403
10284SOL    HW231752   5.870   4.356   5.553
10285SOL     OW31753   4.500   0.265   1.416
10285SOL    HW131754   4.435   0.336   1.388
10285SOL    HW231755   4.575   0.306   1.468
10286SOL     OW31756   3.425   1.864   2.719
10286SOL    HW131757   3.332   1.848   2.754
10286SOL    HW231758   3.429   1.838   2.623
10287SOL     OW31759   2.184   0.141   1.774
10287SOL    HW131760   2.177   0.124   1.676
10287SOL    HW231761   2.201   0.054   1.822
10288SOL     OW31762   5.373   5.888   2.344
10288SOL    HW131763   5.381   5.912   2.247
10288SOL    HW231764   5.413   5.797   2.359
10289SOL     OW31765   3.451   1.029   1.496
10289SOL    HW131766   3.506   1.015   1.414
10289SOL    HW231767   3.355   1.010   1.476
10290SOL     OW31768   3.748   4.070   2.806
10290SOL    HW131769   3.679   4.044   2.737
10290SOL    HW231770   3.740   4.167   2.826
10291SOL     OW31771   4.096   0.646   4.086
10291SOL    HW131772   4.001   0.660   4.116
10291SOL    HW231773   4.108   0.550   4.059
10292SOL     OW31774   0.591   1.934   4.604
10292SOL    HW131775   0.549   2.023   4.617
10292SOL    HW231776   0.524   1.862   4.622
10293SOL     OW31777   1.527   6.747   3.060
10293SOL    HW131778   1.429   6.761   3.048
10293SOL    HW231779   1.563   6.693   2.984
10294SOL     OW31780   4.885   3.342   3.227
10294SOL    HW131781   4.882   3.266   3.292
10294SOL    HW231782   4.904   3.427   3.276
10295SOL     OW31783   5.761   4.737   5.586
10295SOL    HW131784   5.859   4.740   5.564
10295SOL    HW231785   5.739   4.650   5.630
10296SOL     OW31786   5.826   4.557   5.991
10296SOL    HW131787   5.918   4.594   5.981
10296SOL    HW231788   5.761   4.632   6.004
10297SOL     OW31789   2.429   6.579   4.283
10297SOL    HW131790   2.370   6.505   4.316
10297SOL    HW231791   2.404   6.665   4.328
10298SOL     OW31792   4.539   4.387   3.330
10298SOL    HW131793   4.549   4.386   3.430
10298SOL    HW231794   4.630   4.392   3.288
10299SOL     OW31795   4.446   4.608   3.226
10299SOL    HW131796   4.377   4.645   3.288
10299SOL    HW231797   4.470   4.515   3.254
10300SOL     OW31798   1.643   4.015   1.962
10300SOL    HW131799   1.646   4.094   1.902
10300SOL    HW231800   1.736   3.983   1.981
10301SOL     OW31801   5.739   1.863   3.280
10301SOL    HW131802   5.725   1.951   3.325
10301SOL    HW231803   5.666   1.847   3.214
10302SOL     OW31804   1.346   6.395   2.280
10302SOL    HW131805   1.324   6.490   2.260
10302SOL    HW231806   1.307   6.370   2.369
10303SOL     OW31807   3.899   3.924   1.376
10303SOL    HW131808   3.958   3.843   1.378
10303SOL    HW231809   3.837   3.922   1.454
10304SOL     OW31810   5.909   0.366   4.140
10304SOL    HW131811   5.961   0.294   4.185
10304SOL    HW231812   5.970   0.442   4.115
10305SOL     OW31813   1.258   6.149   0.044
10305SOL    HW131814   1.247   6.246   0.021
10305SOL    HW231815   1.341   6.113   0.000
10306SOL     OW31816   4.602   5.058   7.006
10306SOL    HW131817   4.655   5.050   0.066
10306SOL    HW231818   4.533   5.129   7.018
10307SOL     OW31819   1.416   1.254   4.961
10307SOL    HW131820   1.376   1.234   4.871
10307SOL    HW231821   1.467   1.340   4.956
10308SOL     OW31822   3.424   5.122   3.775
10308SOL    HW131823   3.450   5.208   3.819
10308SOL    HW231824   3.393   5.141   3.682
10309SOL     OW31825   6.157   6.598   3.250
10309SOL    HW131826   6.187   6.583   3.156
10309SOL    HW231827   6.162   6.696   3.272
10310SOL     OW31828   2.921   3.667   2.073
10310SOL    HW131829   2.985   3.619   2.013
10310SOL    HW231830   2.871   3.735   2.020
10311SOL     OW31831   0.867   5.694   0.756
10311SOL    HW131832   0.826   5.757   0.821
10311SOL    HW231833   0.876   5.603   0.798
10312SOL     OW31834   3.619   4.919   0.766
10312SOL    HW131835   3.668   5.002   0.792
10312SOL    HW231836   3.640   4.845   0.830
10313SOL     OW31837   4.279   7.007   2.464
10313SOL    HW131838   4.264   6.998   2.563
10313SOL    HW231839   4.194   6.986   2.416
10314SOL     OW31840   6.241   0.611   0.685
10314SOL    HW131841   6.314   0.572   0.630
10314SOL    HW231842   6.256   0.589   0.781
10315SOL     OW31843   5.689   6.183   5.401
10315SOL    HW131844   5.738   6.248   5.343
10315SOL    HW231845   5.613   6.230   5.446
10316SOL     OW31846   0.442   3.377   5.054
10316SOL    HW131847   0.533   3.338   5.039
10316SOL    HW231848   0.445   3.438   5.134
10317SOL     OW31849   3.650   4.939   6.168
10317SOL    HW131850   3.622   4.991   6.249
10317SOL    HW231851   3.718   4.992   6.117
10318SOL     OW31852   6.133   5.393   1.539
10318SOL    HW131853   6.217   5.445   1.552
10318SOL    HW231854   6.129   5.319   1.607
10319SOL     OW31855   0.078   4.770   4.580
10319SOL    HW131856   0.074   4.723   4.491
10319SOL    HW231857   0.059   4.704   4.653
10320SOL     OW31858   0.873   0.234   1.099
10320SOL    HW131859   0.883   0.135   1.098
10320SOL    HW231860   0.909   0.272   1.014
10321SOL     OW31861   3.797   6.107   4.962
10321SOL    HW131862   3.774   6.154   4.877
10321SOL    HW231863   3.892   6.125   4.986
10322SOL     OW31864   6.632   6.199   0.603
10322SOL    HW131865   6.703   6.237   0.663
10322SOL    HW231866   6.573   6.138   0.657
10323SOL     OW31867   6.614   3.513   6.549
10323SOL    HW131868   6.555   3.433   6.537
10323SOL    HW231869   6.586   3.584   6.484
10324SOL     OW31870   3.659   3.094   3.090
10324SOL    HW131871   3.750   3.085   3.130
10324SOL    HW231872   3.593   3.041   3.145
10325SOL     OW31873   6.885   4.481   3.583
10325SOL    HW131874   6.808   4.525   3.536
10325SOL    HW231875   6.871   4.485   3.681
10326SOL     OW31876   5.076   2.351   0.329
10326SOL    HW131877   5.110   2.416   0.262
10326SOL    HW231878   5.062   2.397   0.416
10327SOL     OW31879   1.958   1.328   3.105
10327SOL    HW131880   1.901   1.302   3.026
10327SOL    HW231881   2.021   1.400   3.078
10328SOL     OW31882   5.435   3.583   2.674
10328SOL    HW131883   5.506   3.517   2.699
10328SOL    HW231884   5.474   3.651   2.612
10329SOL     OW31885   2.928   0.545   3.725
10329SOL    HW131886   3.016   0.541   3.677
10329SOL    HW231887   2.859   0.585   3.665
10330SOL     OW31888   3.650   5.220   3.013
10330SOL    HW131889   3.552   5.212   3.035
10330SOL    HW231890   3.703   5.213   3.098
10331SOL     OW31891   5.733   0.663   3.340
10331SOL    HW131892   5.815   0.717   3.360
10331SOL    HW231893   5.652   0.721   3.348
10332SOL     OW31894   0.016   2.099   0.805
10332SOL    HW131895   6.953   2.055   0.825
10332SOL    HW231896   0.067   2.042   0.741
10333SOL     OW31897   5.591   4.950   3.868
10333SOL    HW131898   5.602   4.869   3.925
10333SOL    HW231899   5.494   4.973   3.862
10334SOL     OW31900   1.804   4.834   3.677
10334SOL    HW131901   1.751   4.814   3.759
10334SOL    HW231902   1.786   4.766   3.607
10335SOL     OW31903   2.139   5.218   6.653
10335SOL    HW131904   2.091   5.220   6.740
10335SOL    HW231905   2.135   5.308   6.609
10336SOL     OW31906   4.314   7.015   2.132
10336SOL    HW131907   4.227   7.010   2.181
10336SOL    HW231908   4.372   0.060   2.174
10337SOL     OW31909   0.164   5.164   4.894
10337SOL    HW131910   0.216   5.092   4.939
10337SOL    HW231911   0.146   5.138   4.799
10338SOL     OW31912   3.856   6.891   1.214
10338SOL    HW131913   3.950   6.857   1.204
10338SOL    HW231914   3.811   6.891   1.125
10339SOL     OW31915   3.756   5.648   0.918
10339SOL    HW131916   3.711   5.727   0.876
10339SOL    HW231917   3.826   5.681   0.982
10340SOL     OW31918   2.469   5.438   6.658
10340SOL    HW131919   2.548   5.388   6.623
10340SOL    HW231920   2.450   5.516   6.599
10341SOL     OW31921   2.473   2.570   2.335
10341SOL    HW131922   2.481   2.623   2.420
10341SOL    HW231923   2.560   2.523   2.318
10342SOL     OW31924   2.235   6.613   6.414
10342SOL    HW131925   2.186   6.528   6.430
10342SOL    HW231926   2.234   6.636   6.317
10343SOL     OW31927   2.061   4.191   6.375
10343SOL    HW131928   2.106   4.138   6.447
10343SOL    HW231929   2.093   4.286   6.378
10344SOL     OW31930   4.158   3.696   4.385
10344SOL    HW131931   4.199   3.605   4.372
10344SOL    HW231932   4.133   3.707   4.481
10345SOL     OW31933   2.733   1.319   0.270
10345SOL    HW131934   2.768   1.278   0.185
10345SOL    HW231935   2.634   1.309   0.273
10346SOL     OW31936   5.645   6.900   6.966
10346SOL    HW131937   5.570   6.967   6.970
10346SOL    HW231938   5.730   6.947   6.941
10347SOL     OW31939   5.235   1.838   1.013
10347SOL    HW131940   5.279   1.785   1.085
10347SOL    HW231941   5.268   1.933   1.017
10348SOL     OW31942   6.330   1.459   6.270
10348SOL    HW131943   6.391   1.381   6.261
10348SOL    HW231944   6.236   1.427   6.282
10349SOL     OW31945   5.950   1.019   0.960
10349SOL    HW131946   5.963   0.925   0.990
10349SOL    HW231947   5.870   1.057   1.006
10350SOL     OW31948   3.640   5.916   4.319
10350SOL    HW131949   3.599   5.825   4.309
10350SOL    HW231950   3.656   5.955   4.228
10351SOL     OW31951   6.038   5.283   5.134
10351SOL    HW131952   6.085   5.267   5.221
10351SOL    HW231953   5.999   5.376   5.133
10352SOL     OW31954   5.765   2.081   0.131
10352SOL    HW131955   5.799   2.046   0.044
10352SOL    HW231956   5.669   2.054   0.143
10353SOL     OW31957   6.977   3.403   3.423
10353SOL    HW131958   6.927   3.338   3.366
10353SOL    HW231959   6.920   3.432   3.499
10354SOL     OW31960   0.435   3.966   0.762
10354SOL    HW131961   0.364   3.900   0.784
10354SOL    HW231962   0.474   3.945   0.672
10355SOL     OW31963   1.157   1.668   1.135
10355SOL    HW131964   1.104   1.589   1.104
10355SOL    HW231965   1.247   1.638   1.166
10356SOL     OW31966   0.631   3.096   6.424
10356SOL    HW131967   0.575   3.171   6.390
10356SOL    HW231968   0.684   3.127   6.504
10357SOL     OW31969   1.638   2.386   6.540
10357SOL    HW131970   1.575   2.423   6.472
10357SOL    HW231971   1.713   2.450   6.555
10358SOL     OW31972   1.513   2.595   2.593
10358SOL    HW131973   1.417   2.570   2.586
10358SOL    HW231974   1.528   2.646   2.678
10359SOL     OW31975   5.002   2.348   2.874
10359SOL    HW131976   5.071   2.312   2.810
10359SOL    HW231977   4.984   2.280   2.944
10360SOL     OW31978   5.303   5.287   3.068
10360SOL    HW131979   5.375   5.290   3.137
10360SOL    HW231980   5.217   5.319   3.107
10361SOL     OW31981   2.179   1.524   1.603
10361SOL    HW131982   2.268   1.541   1.560
10361SOL    HW231983   2.116   1.597   1.579
10362SOL     OW31984   0.323   5.531   2.053
10362SOL    HW131985   0.295   5.467   2.124
10362SOL    HW231986   0.246   5.590   2.028
10363SOL     OW31987   4.732   3.260   0.536
10363SOL    HW131988   4.828   3.232   0.548
10363SOL    HW231989   4.693   3.282   0.625
10364SOL     OW31990   5.323   5.039   1.045
10364SOL    HW131991   5.292   5.133   1.058
10364SOL    HW231992   5.250   4.985   1.004
10365SOL     OW31993   5.748   5.109   0.123
10365SOL    HW131994   5.754   5.035   0.189
10365SOL    HW231995   5.701   5.076   0.041
10366SOL     OW31996   4.167   6.590   3.033
10366SOL    HW131997   4.072   6.622   3.036
10366SOL    HW231998   4.205   6.588   3.125
10367SOL     OW31999   6.614   1.836   1.668
10367SOL    HW132000   6.691   1.850   1.606
10367SOL    HW232001   6.600   1.919   1.723
10368SOL     OW32002   3.027   0.972   2.579
10368SOL    HW132003   3.097   1.042   2.570
10368SOL    HW232004   3.067   0.889   2.618
10369SOL     OW32005   2.934   6.188   5.528
10369SOL    HW132006   2.839   6.170   5.502
10369SOL    HW232007   2.991   6.192   5.445
10370SOL     OW32008   6.236   1.297   4.289
10370SOL    HW132009   6.305   1.315   4.218
10370SOL    HW232010   6.149   1.338   4.262
10371SOL     OW32011   3.688   6.610   3.041
10371SOL    HW132012   3.758   6.544   3.016
10371SOL    HW232013   3.606   6.595   2.986
10372SOL     OW32014   2.984   0.480   1.746
10372SOL    HW132015   3.062   0.421   1.725
10372SOL    HW232016   2.945   0.514   1.661
10373SOL     OW32017   0.545   6.834   4.999
10373SOL    HW132018   0.448   6.819   5.014
10373SOL    HW232019   0.591   6.747   4.981
10374SOL     OW32020   2.781   6.454   4.423
10374SOL    HW132021   2.767   6.519   4.497
10374SOL    HW232022   2.712   6.381   4.429
10375SOL     OW32023   3.025   2.793   6.008
10375SOL    HW132024   3.053   2.735   6.084
10375SOL    HW232025   3.000   2.884   6.042
10376SOL     OW32026   1.208   6.266   3.347
10376SOL    HW132027   1.142   6.340   3.340
10376SOL    HW232028   1.299   6.300   3.324
10377SOL     OW32029   7.011   1.777   1.882
10377SOL    HW132030   0.043   1.711   1.833
10377SOL    HW232031   6.915   1.747   1.878
10378SOL     OW32032   0.243   5.677   5.455
10378SOL    HW132033   0.270   5.619   5.532
10378SOL    HW232034   0.237   5.772   5.485
10379SOL     OW32035   2.554   6.228   4.623
10379SOL    HW132036   2.609   6.230   4.539
10379SOL    HW232037   2.457   6.218   4.600
10380SOL     OW32038   1.280   1.968   4.845
10380SOL    HW132039   1.255   1.908   4.922
10380SOL    HW232040   1.263   2.063   4.870
10381SOL     OW32041   3.765   4.201   1.430
10381SOL    HW132042   3.806   4.268   1.492
10381SOL    HW232043   3.794   4.109   1.456
10382SOL     OW32044   2.445   5.887   2.143
10382SOL    HW132045   2.379   5.960   2.165
10382SOL    HW232046   2.477   5.899   2.049
10383SOL     OW32047   2.084   4.280   6.991
10383SOL    HW132048   2.055   4.309   6.899
10383SOL    HW232049   2.183   4.270   6.993
10384SOL     OW32050   5.970   6.418   1.078
10384SOL    HW132051   5.962   6.325   1.042
10384SOL    HW232052   6.050   6.425   1.137
10385SOL     OW32053   3.718   5.180   6.000
10385SOL    HW132054   3.619   5.185   5.985
10385SOL    HW232055   3.753   5.271   6.024
10386SOL     OW32056   0.159   1.255   5.959
10386SOL    HW132057   0.114   1.320   5.898
10386SOL    HW232058   0.100   1.239   6.039
10387SOL     OW32059   5.361   3.115   3.630
10387SOL    HW132060   5.290   3.142   3.564
10387SOL    HW232061   5.449   3.112   3.583
10388SOL     OW32062   2.812   0.207   6.808
10388SOL    HW132063   2.893   0.222   6.752
10388SOL    HW232064   2.793   0.110   6.814
10389SOL     OW32065   6.365   3.717   0.291
10389SOL    HW132066   6.383   3.677   0.201
10389SOL    HW232067   6.324   3.649   0.350
10390SOL     OW32068   1.543   2.661   0.741
10390SOL    HW132069   1.474   2.607   0.692
10390SOL    HW232070   1.602   2.599   0.793
10391SOL     OW32071   1.483   6.353   3.481
10391SOL    HW132072   1.504   6.386   3.389
10391SOL    HW232073   1.567   6.323   3.526
10392SOL     OW32074   5.782   5.336   5.460
10392SOL    HW132075   5.742   5.304   5.374
10392SOL    HW232076   5.797   5.259   5.522
10393SOL     OW32077   1.731   3.785   3.598
10393SOL    HW132078   1.825   3.808   3.624
10393SOL    HW232079   1.731   3.707   3.536
10394SOL     OW32080   2.562   5.508   4.232
10394SOL    HW132081   2.568   5.607   4.241
10394SOL    HW232082   2.569   5.466   4.322
10395SOL     OW32083   0.571   6.471   1.705
10395SOL    HW132084   0.503   6.529   1.660
10395SOL    HW232085   0.543   6.376   1.698
10396SOL     OW32086   4.255   1.626   4.078
10396SOL    HW132087   4.311   1.569   4.019
10396SOL    HW232088   4.176   1.573   4.111
10397SOL     OW32089   3.029   2.194   3.135
10397SOL    HW132090   3.023   2.209   3.234
10397SOL    HW232091   3.105   2.133   3.115
10398SOL     OW32092   5.930   2.514   0.897
10398SOL    HW132093   5.957   2.606   0.924
10398SOL    HW232094   5.877   2.519   0.812
10399SOL     OW32095   5.163   2.121   3.744
10399SOL    HW132096   5.182   2.034   3.700
10399SOL    HW232097   5.076   2.157   3.709
10400SOL     OW32098   4.262   6.457   0.200
10400SOL    HW132099   4.253   6.494   0.292
10400SOL    HW232100   4.210   6.372   0.193
10401SOL     OW32101   6.750   0.458   3.445
10401SOL    HW132102   6.744   0.487   3.350
10401SOL    HW232103   6.661   0.425   3.475
10402SOL     OW32104   6.267   3.416   5.390
10402SOL    HW132105   6.182   3.384   5.346
10402SOL    HW232106   6.246   3.452   5.481
10403SOL     OW32107   4.825   1.192   3.570
10403SOL    HW132108   4.787   1.252   3.640
10403SOL    HW232109   4.803   1.097   3.591
10404SOL     OW32110   6.278   6.635   5.356
10404SOL    HW132111   6.319   6.698   5.421
10404SOL    HW232112   6.262   6.547   5.401
10405SOL     OW32113   0.650   0.801   5.238
10405SOL    HW132114   0.743   0.797   5.273
10405SOL    HW232115   0.615   0.895   5.247
10406SOL     OW32116   2.989   4.988   3.065
10406SOL    HW132117   3.059   4.965   3.132
10406SOL    HW232118   2.982   5.088   3.057
10407SOL     OW32119   3.001   6.875   5.745
10407SOL    HW132120   2.926   6.921   5.794
10407SOL    HW232121   2.963   6.812   5.677
10408SOL     OW32122   4.498   0.134   1.166
10408SOL    HW132123   4.577   0.077   1.148
10408SOL    HW232124   4.506   0.175   1.257
10409SOL     OW32125   0.183   4.459   0.938
10409SOL    HW132126   0.263   4.427   0.887
10409SOL    HW232127   0.111   4.485   0.874
10410SOL     OW32128   5.319   2.101   0.964
10410SOL    HW132129   5.352   2.153   0.885
10410SOL    HW232130   5.231   2.139   0.994
10411SOL     OW32131   3.621   6.710   3.829
10411SOL    HW132132   3.582   6.775   3.764
10411SOL    HW232133   3.614   6.747   3.921
10412SOL     OW32134   0.312   1.383   0.314
10412SOL    HW132135   0.342   1.300   0.268
10412SOL    HW232136   0.294   1.454   0.245
10413SOL     OW32137   6.424   2.941   0.747
10413SOL    HW132138   6.352   2.893   0.697
10413SOL    HW232139   6.390   2.970   0.836
10414SOL     OW32140   4.227   4.510   5.738
10414SOL    HW132141   4.167   4.510   5.818
10414SOL    HW232142   4.174   4.490   5.656
10415SOL     OW32143   1.555   3.550   4.597
10415SOL    HW132144   1.610   3.472   4.566
10415SOL    HW232145   1.498   3.522   4.675
10416SOL     OW32146   6.119   0.261   4.797
10416SOL    HW132147   6.060   0.318   4.854
10416SOL    HW232148   6.214   0.290   4.809
10417SOL     OW32149   3.006   5.453   4.356
10417SOL    HW132150   3.033   5.539   4.400
10417SOL    HW232151   2.949   5.400   4.418
10418SOL     OW32152   0.036   4.518   6.623
10418SOL    HW132153   0.108   4.572   6.668
10418SOL    HW232154   0.077   4.439   6.577
10419SOL     OW32155   1.725   6.941   6.230
10419SOL    HW132156   1.662   6.865   6.212
10419SOL    HW232157   1.717   6.968   6.326
10420SOL     OW32158   6.222   4.064   3.045
10420SOL    HW132159   6.246   3.996   3.115
10420SOL    HW232160   6.303   4.116   3.020
10421SOL     OW32161   0.103   1.758   3.156
10421SOL    HW132162   0.189   1.807   3.141
10421SOL    HW232163   0.114   1.694   3.232
10422SOL     OW32164   6.739   3.358   5.202
10422SOL    HW132165   6.706   3.270   5.237
10422SOL    HW232166   6.838   3.354   5.188
10423SOL     OW32167   6.106   5.418   4.692
10423SOL    HW132168   6.028   5.413   4.755
10423SOL    HW232169   6.191   5.400   4.742
10424SOL     OW32170   5.759   2.750   0.767
10424SOL    HW132171   5.682   2.768   0.830
10424SOL    HW232172   5.761   2.652   0.745
10425SOL     OW32173   0.868   0.149   1.949
10425SOL    HW132174   0.817   0.235   1.943
10425SOL    HW232175   0.934   0.154   2.023
10426SOL     OW32176   6.687   4.786   0.385
10426SOL    HW132177   6.706   4.884   0.398
10426SOL    HW232178   6.599   4.775   0.339
10427SOL     OW32179   3.634   0.262   6.517
10427SOL    HW132180   3.599   0.184   6.465
10427SOL    HW232181   3.734   0.259   6.519
10428SOL     OW32182   2.970   1.301   4.238
10428SOL    HW132183   2.880   1.282   4.201
10428SOL    HW232184   2.989   1.399   4.231
10429SOL     OW32185   0.235   5.017   0.867
10429SOL    HW132186   0.284   4.940   0.908
10429SOL    HW232187   0.256   5.100   0.918
10430SOL     OW32188   4.797   6.426   3.963
10430SOL    HW132189   4.831   6.334   3.978
10430SOL    HW232190   4.840   6.488   4.030
10431SOL     OW32191   3.139   5.692   4.048
10431SOL    HW132192   3.209   5.741   4.100
10431SOL    HW232193   3.048   5.721   4.079
10432SOL     OW32194   6.318   6.719   5.093
10432SOL    HW132195   6.238   6.676   5.051
10432SOL    HW232196   6.314   6.708   5.192
10433SOL     OW32197   2.262   6.023   1.317
10433SOL    HW132198   2.295   6.018   1.411
10433SOL    HW232199   2.168   5.989   1.312
10434SOL     OW32200   3.955   6.778   3.565
10434SOL    HW132201   3.859   6.754   3.550
10434SOL    HW232202   3.999   6.798   3.478
10435SOL     OW32203   0.495   0.084   4.648
10435SOL    HW132204   0.455   0.103   4.737
10435SOL    HW232205   0.580   0.137   4.637
10436SOL     OW32206   0.796   5.198   6.051
10436SOL    HW132207   0.742   5.119   6.022
10436SOL    HW232208   0.761   5.281   6.007
10437SOL     OW32209   6.213   5.551   6.068
10437SOL    HW132210   6.254   5.502   6.145
10437SOL    HW232211   6.235   5.503   5.983
10438SOL     OW32212   5.988   6.524   0.675
10438SOL    HW132213   5.893   6.501   0.655
10438SOL    HW232214   6.033   6.446   0.717
10439SOL     OW32215   4.055   1.272   6.445
10439SOL    HW132216   4.141   1.221   6.442
10439SOL    HW232217   3.979   1.207   6.447
10440SOL     OW32218   1.011   6.502   0.365
10440SOL    HW132219   1.010   6.431   0.295
10440SOL    HW232220   1.076   6.573   0.341
10441SOL     OW32221   3.943   0.554   0.239
10441SOL    HW132222   3.954   0.457   0.222
10441SOL    HW232223   3.973   0.576   0.332
10442SOL     OW32224   3.491   6.200   6.025
10442SOL    HW132225   3.562   6.270   6.012
10442SOL    HW232226   3.401   6.243   6.020
10443SOL     OW32227   4.938   3.898   4.987
10443SOL    HW132228   4.867   3.827   4.992
10443SOL    HW232229   4.897   3.987   5.010
10444SOL     OW32230   3.856   6.352   4.504
10444SOL    HW132231   3.836   6.401   4.419
10444SOL    HW232232   3.898   6.264   4.483
10445SOL     OW32233   1.193   5.630   4.333
10445SOL    HW132234   1.104   5.667   4.358
10445SOL    HW232235   1.182   5.535   4.302
10446SOL     OW32236   0.912   2.922   5.568
10446SOL    HW132237   0.876   2.864   5.496
10446SOL    HW232238   0.929   2.867   5.650
10447SOL     OW32239   0.161   0.974   2.337
10447SOL    HW132240   0.235   1.040   2.345
10447SOL    HW232241   0.081   1.007   2.388
10448SOL     OW32242   3.542   1.536   1.533
10448SOL    HW132243   3.480   1.510   1.607
10448SOL    HW232244   3.627   1.573   1.571
10449SOL     OW32245   2.214   5.428   4.415
10449SOL    HW132246   2.271   5.498   4.459
10449SOL    HW232247   2.126   5.423   4.461
10450SOL     OW32248   0.755   2.218   0.364
10450SOL    HW132249   0.771   2.274   0.283
10450SOL    HW232250   0.667   2.243   0.405
10451SOL     OW32251   2.126   5.381   2.616
10451SOL    HW132252   2.100   5.309   2.680
10451SOL    HW232253   2.130   5.469   2.664
10452SOL     OW32254   5.592   3.487   3.311
10452SOL    HW132255   5.552   3.541   3.237
10452SOL    HW232256   5.586   3.538   3.397
10453SOL     OW32257   4.847   5.771   1.715
10453SOL    HW132258   4.802   5.856   1.743
10453SOL    HW232259   4.828   5.753   1.619
10454SOL     OW32260   4.289   2.807   1.185
10454SOL    HW132261   4.340   2.830   1.267
10454SOL    HW232262   4.192   2.793   1.208
10455SOL     OW32263   6.669   5.552   2.228
10455SOL    HW132264   6.744   5.561   2.294
10455SOL    HW232265   6.651   5.641   2.186
10456SOL     OW32266   3.328   6.089   1.043
10456SOL    HW132267   3.288   6.116   0.956
10456SOL    HW232268   3.313   5.991   1.057
10457SOL     OW32269   3.283   2.909   2.623
10457SOL    HW132270   3.338   2.833   2.589
10457SOL    HW232271   3.227   2.946   2.548
10458SOL     OW32272   0.122   0.855   6.639
10458SOL    HW132273   0.047   0.824   6.697
10458SOL    HW232274   0.116   0.809   6.550
10459SOL     OW32275   5.272   5.005   2.940
10459SOL    HW132276   5.327   5.089   2.944
10459SOL    HW232277   5.329   4.930   2.905
10460SOL     OW32278   1.454   5.317   1.311
10460SOL    HW132279   1.392   5.353   1.382
10460SOL    HW232280   1.539   5.369   1.313
10461SOL     OW32281   1.235   5.761   4.975
10461SOL    HW132282   1.177   5.749   4.895
10461SOL    HW232283   1.183   5.805   5.048
10462SOL     OW32284   5.503   1.870   2.984
10462SOL    HW132285   5.458   1.886   3.071
10462SOL    HW232286   5.493   1.950   2.925
10463SOL     OW32287   3.932   2.694   5.546
10463SOL    HW132288   3.879   2.638   5.483
10463SOL    HW232289   4.025   2.707   5.511
10464SOL     OW32290   5.788   6.602   0.946
10464SOL    HW132291   5.792   6.553   1.033
10464SOL    HW232292   5.826   6.544   0.873
10465SOL     OW32293   5.918   6.933   0.682
10465SOL    HW132294   5.870   6.912   0.767
10465SOL    HW232295   5.864   6.997   0.628
10466SOL     OW32296   4.716   4.966   5.261
10466SOL    HW132297   4.632   4.978   5.314
10466SOL    HW232298   4.701   4.997   5.167
10467SOL     OW32299   0.919   1.891   5.026
10467SOL    HW132300   0.977   1.967   5.056
10467SOL    HW232301   0.885   1.910   4.934
10468SOL     OW32302   3.672   4.886   3.167
10468SOL    HW132303   3.627   4.901   3.080
10468SOL    HW232304   3.769   4.911   3.160
10469SOL     OW32305   3.443   2.570   6.706
10469SOL    HW132306   3.442   2.637   6.780
10469SOL    HW232307   3.357   2.520   6.704
10470SOL     OW32308   2.646   1.710   3.176
10470SOL    HW132309   2.552   1.717   3.141
10470SOL    HW232310   2.647   1.738   3.272
10471SOL     OW32311   2.209   3.237   1.016
10471SOL    HW132312   2.237   3.308   1.080
10471SOL    HW232313   2.110   3.240   1.004
10472SOL     OW32314   3.407   5.816   0.813
10472SOL    HW132315   3.424   5.726   0.771
10472SOL    HW232316   3.454   5.887   0.760
10473SOL     OW32317   5.641   0.196   0.207
10473SOL    HW132318   5.551   0.212   0.165
10473SOL    HW232319   5.661   0.269   0.272
10474SOL     OW32320   4.617   1.289   5.016
10474SOL    HW132321   4.626   1.189   5.016
10474SOL    HW232322   4.636   1.325   5.107
10475SOL     OW32323   4.577   6.146   2.115
10475SOL    HW132324   4.489   6.102   2.131
10475SOL    HW232325   4.567   6.214   2.042
10476SOL     OW32326   0.170   5.446   6.208
10476SOL    HW132327   0.132   5.425   6.298
10476SOL    HW232328   0.156   5.368   6.147
10477SOL     OW32329   6.081   2.444   5.057
10477SOL    HW132330   5.987   2.478   5.064
10477SOL    HW232331   6.096   2.406   4.966
10478SOL     OW32332   0.241   0.300   0.798
10478SOL    HW132333   0.319   0.240   0.816
10478SOL    HW232334   0.165   0.247   0.762
10479SOL     OW32335   0.270   2.754   1.954
10479SOL    HW132336   0.322   2.668   1.959
10479SOL    HW232337   0.270   2.786   1.859
10480SOL     OW32338   5.893   0.279   1.233
10480SOL    HW132339   5.933   0.188   1.221
10480SOL    HW232340   5.956   0.336   1.286
10481SOL     OW32341   2.512   0.885   5.437
10481SOL    HW132342   2.579   0.929   5.378
10481SOL    HW232343   2.426   0.872   5.387
10482SOL     OW32344   0.813   5.937   4.307
10482SOL    HW132345   0.732   5.878   4.308
10482SOL    HW232346   0.827   5.972   4.215
10483SOL     OW32347   0.192   5.113   0.271
10483SOL    HW132348   0.170   5.183   0.339
10483SOL    HW232349   0.269   5.057   0.303
10484SOL     OW32350   6.984   0.407   1.046
10484SOL    HW132351   7.019   0.501   1.040
10484SOL    HW232352   0.035   0.344   1.065
10485SOL     OW32353   3.577   2.881   2.550
10485SOL    HW132354   3.565   2.894   2.451
10485SOL    HW232355   3.636   2.953   2.586
10486SOL     OW32356   6.340   0.963   6.093
10486SOL    HW132357   6.256   1.013   6.114
10486SOL    HW232358   6.408   0.982   6.163
10487SOL     OW32359   4.260   2.127   1.378
10487SOL    HW132360   4.298   2.039   1.349
10487SOL    HW232361   4.293   2.148   1.470
10488SOL     OW32362   2.009   2.202   6.043
10488SOL    HW132363   2.028   2.269   5.971
10488SOL    HW232364   2.025   2.244   6.132
10489SOL     OW32365   5.521   6.033   4.173
10489SOL    HW132366   5.457   6.110   4.171
10489SOL    HW232367   5.473   5.949   4.150
10490SOL     OW32368   5.794   1.276   0.700
10490SOL    HW132369   5.825   1.345   0.766
10490SOL    HW232370   5.774   1.191   0.749
10491SOL     OW32371   2.204   2.958   6.189
10491SOL    HW132372   2.270   2.882   6.185
10491SOL    HW232373   2.234   3.024   6.258
10492SOL     OW32374   4.048   5.713   0.580
10492SOL    HW132375   3.982   5.771   0.533
10492SOL    HW232376   4.135   5.715   0.531
10493SOL     OW32377   3.304   5.475   1.389
10493SOL    HW132378   3.315   5.531   1.307
10493SOL    HW232379   3.220   5.422   1.382
10494SOL     OW32380   0.117   4.393   5.546
10494SOL    HW132381   0.036   4.374   5.601
10494SOL    HW232382   0.124   4.491   5.530
10495SOL     OW32383   6.204   6.467   0.332
10495SOL    HW132384   6.158   6.555   0.320
10495SOL    HW232385   6.302   6.478   0.317
10496SOL     OW32386   6.333   4.532   4.950
10496SOL    HW132387   6.389   4.464   4.998
10496SOL    HW232388   6.239   4.528   4.984
10497SOL     OW32389   1.241   6.982   1.908
10497SOL    HW132390   1.166   6.971   1.843
10497SOL    HW232391   1.300   6.902   1.905
10498SOL     OW32392   5.529   5.985   1.051
10498SOL    HW132393   5.474   6.012   1.130
10498SOL    HW232394   5.486   5.908   1.004
10499SOL     OW32395   4.941   6.112   0.801
10499SOL    HW132396   5.037   6.136   0.814
10499SOL    HW232397   4.884   6.178   0.848
10500SOL     OW32398   5.340   2.613   5.384
10500SOL    HW132399   5.373   2.640   5.294
10500SOL    HW232400   5.242   2.629   5.390
10501SOL     OW32401   2.355   6.202   2.756
10501SOL    HW132402   2.256   6.199   2.751
10501SOL    HW232403   2.394   6.124   2.706
10502SOL     OW32404   2.332   3.522   0.825
10502SOL    HW132405   2.422   3.480   0.817
10502SOL    HW232406   2.289   3.494   0.911
10503SOL     OW32407   6.197   4.188   6.831
10503SOL    HW132408   6.212   4.281   6.866
10503SOL    HW232409   6.104   4.160   6.852
10504SOL     OW32410   0.702   2.361   5.486
10504SOL    HW132411   0.677   2.356   5.390
10504SOL    HW232412   0.743   2.274   5.515
10505SOL     OW32413   5.275   6.228   1.615
10505SOL    HW132414   5.284   6.219   1.516
10505SOL    HW232415   5.346   6.289   1.650
10506SOL     OW32416   0.347   3.550   0.132
10506SOL    HW132417   0.322   3.587   0.221
10506SOL    HW232418   0.286   3.474   0.108
10507SOL     OW32419   1.833   5.553   6.778
10507SOL    HW132420   1.800   5.602   6.858
10507SOL    HW232421   1.891   5.613   6.724
10508SOL     OW32422   1.359   5.864   3.776
10508SOL    HW132423   1.373   5.773   3.736
10508SOL    HW232424   1.446   5.912   3.781
10509SOL     OW32425   5.998   4.176   4.398
10509SOL    HW132426   6.041   4.260   4.431
10509SOL    HW232427   6.069   4.110   4.373
10510SOL     OW32428   4.865   6.821   0.015
10510SOL    HW132429   4.846   6.838   6.944
10510SOL    HW232430   4.963   6.835   0.033
10511SOL     OW32431   2.692   1.750   2.238
10511SOL    HW132432   2.605   1.750   2.190
10511SOL    HW232433   2.738   1.838   2.225
10512SOL     OW32434   4.110   6.781   5.689
10512SOL    HW132435   4.012   6.769   5.706
10512SOL    HW232436   4.154   6.821   5.769
10513SOL     OW32437   6.536   2.765   3.063
10513SOL    HW132438   6.600   2.832   3.101
10513SOL    HW232439   6.446   2.779   3.104
10514SOL     OW32440   1.606   1.717   1.560
10514SOL    HW132441   1.525   1.670   1.596
10514SOL    HW232442   1.581   1.809   1.531
10515SOL     OW32443   2.747   2.267   3.793
10515SOL    HW132444   2.771   2.361   3.818
10515SOL    HW232445   2.683   2.269   3.716
10516SOL     OW32446   2.675   1.688   0.321
10516SOL    HW132447   2.725   1.676   0.235
10516SOL    HW232448   2.714   1.628   0.391
10517SOL     OW32449   1.501   4.263   1.377
10517SOL    HW132450   1.466   4.187   1.323
10517SOL    HW232451   1.504   4.345   1.320
10518SOL     OW32452   0.147   5.729   2.072
10518SOL    HW132453   0.074   5.700   2.134
10518SOL    HW232454   0.182   5.818   2.101
10519SOL     OW32455   2.724   4.451   1.391
10519SOL    HW132456   2.630   4.419   1.400
10519SOL    HW232457   2.725   4.551   1.394
10520SOL     OW32458   6.970   2.078   6.202
10520SOL    HW132459   6.943   2.173   6.183
10520SOL    HW232460   0.041   2.075   6.229
10521SOL     OW32461   6.496   5.148   1.239
10521SOL    HW132462   6.470   5.243   1.252
10521SOL    HW232463   6.522   5.134   1.143
10522SOL     OW32464   0.394   2.580   2.884
10522SOL    HW132465   0.476   2.527   2.861
10522SOL    HW232466   0.413   2.677   2.875
10523SOL     OW32467   0.295   4.609   3.090
10523SOL    HW132468   0.244   4.689   3.057
10523SOL    HW232469   0.377   4.640   3.139
10524SOL     OW32470   0.539   5.898   3.884
10524SOL    HW132471   0.542   5.971   3.815
10524SOL    HW232472   0.458   5.911   3.942
10525SOL     OW32473   3.871   6.848   5.303
10525SOL    HW132474   3.930   6.793   5.244
10525SOL    HW232475   3.920   6.929   5.334
10526SOL     OW32476   0.583   6.468   1.168
10526SOL    HW132477   0.674   6.430   1.180
10526SOL    HW232478   0.561   6.470   1.070
10527SOL     OW32479   0.856   0.314   5.985
10527SOL    HW132480   0.922   0.310   5.911
10527SOL    HW232481   0.811   0.404   5.985
10528SOL     OW32482   0.314   4.091   6.677
10528SOL    HW132483   0.259   4.017   6.715
10528SOL    HW232484   0.374   4.127   6.748
10529SOL     OW32485   1.392   5.912   4.651
10529SOL    HW132486   1.305   5.960   4.653
10529SOL    HW232487   1.439   5.925   4.739
10530SOL     OW32488   0.725   6.575   5.940
10530SOL    HW132489   0.748   6.575   5.843
10530SOL    HW232490   0.787   6.514   5.989
10531SOL     OW32491   2.936   2.229   4.234
10531SOL    HW132492   2.875   2.150   4.222
10531SOL    HW232493   2.882   2.310   4.253
10532SOL     OW32494   6.012   6.751   6.866
10532SOL    HW132495   6.056   6.781   6.951
10532SOL    HW232496   6.038   6.657   6.846
10533SOL     OW32497   3.017   5.754   4.354
10533SOL    HW132498   3.049   5.848   4.340
10533SOL    HW232499   2.970   5.722   4.272
10534SOL     OW32500   6.989   5.914   2.187
10534SOL    HW132501   6.982   5.922   2.087
10534SOL    HW232502   6.956   5.824   2.216
10535SOL     OW32503   2.047   1.525   1.875
10535SOL    HW132504   2.124   1.510   1.813
10535SOL    HW232505   1.961   1.518   1.823
10536SOL     OW32506   4.164   0.057   3.981
10536SOL    HW132507   4.126   7.001   4.025
10536SOL    HW232508   4.251   0.033   3.937
10537SOL     OW32509   5.125   6.559   3.558
10537SOL    HW132510   5.061   6.558   3.635
10537SOL    HW232511   5.179   6.475   3.559
10538SOL     OW32512   5.760   4.366   2.508
10538SOL    HW132513   5.843   4.395   2.556
10538SOL    HW232514   5.680   4.405   2.554
10539SOL     OW32515   5.793   5.365   1.443
10539SOL    HW132516   5.809   5.272   1.408
10539SOL    HW232517   5.866   5.425   1.410
10540SOL     OW32518   2.453   4.573   6.147
10540SOL    HW132519   2.392   4.493   6.148
10540SOL    HW232520   2.539   4.550   6.193
10541SOL     OW32521   3.573   2.899   3.870
10541SOL    HW132522   3.485   2.910   3.823
10541SOL    HW232523   3.597   2.802   3.872
10542SOL     OW32524   6.771   0.133   4.876
10542SOL    HW132525   6.763   0.184   4.790
10542SOL    HW232526   6.682   0.127   4.920
10543SOL     OW32527   0.251   2.286   5.010
10543SOL    HW132528   0.251   2.190   5.040
10543SOL    HW232529   0.277   2.345   5.086
10544SOL     OW32530   2.212   6.393   3.256
10544SOL    HW132531   2.254   6.311   3.293
10544SOL    HW232532   2.113   6.378   3.246
10545SOL     OW32533   1.171   2.831   2.267
10545SOL    HW132534   1.088   2.835   2.211
10545SOL    HW232535   1.187   2.920   2.309
10546SOL     OW32536   3.696   6.118   1.080
10546SOL    HW132537   3.719   6.061   1.002
10546SOL    HW232538   3.597   6.118   1.094
10547SOL     OW32539   5.026   0.926   4.426
10547SOL    HW132540   4.983   0.839   4.450
10547SOL    HW232541   5.116   0.932   4.469
10548SOL     OW32542   0.733   4.187   4.530
10548SOL    HW132543   0.795   4.156   4.458
10548SOL    HW232544   0.648   4.219   4.488
10549SOL     OW32545   0.630   1.288   0.476
10549SOL    HW132546   0.547   1.336   0.506
10549SOL    HW232547   0.660   1.325   0.388
10550SOL     OW32548   4.008   6.664   3.278
10550SOL    HW132549   4.096   6.696   3.244
10550SOL    HW232550   3.951   6.744   3.300
10551SOL     OW32551   2.125   1.883   6.389
10551SOL    HW132552   2.101   1.938   6.469
10551SOL    HW232553   2.098   1.788   6.404
10552SOL     OW32554   2.448   0.607   5.325
10552SOL    HW132555   2.435   0.702   5.354
10552SOL    HW232556   2.373   0.551   5.361
10553SOL     OW32557   0.018   4.587   0.783
10553SOL    HW132558   6.971   4.556   0.720
10553SOL    HW232559   0.055   4.674   0.750
10554SOL     OW32560   5.616   5.476   2.548
10554SOL    HW132561   5.575   5.536   2.616
10554SOL    HW232562   5.659   5.398   2.593
10555SOL     OW32563   2.895   2.238   0.894
10555SOL    HW132564   2.934   2.311   0.951
10555SOL    HW232565   2.893   2.268   0.799
10556SOL     OW32566   3.023   1.581   3.854
10556SOL    HW132567   2.945   1.617   3.802
10556SOL    HW232568   3.081   1.526   3.794
10557SOL     OW32569   1.822   3.369   4.350
10557SOL    HW132570   1.893   3.420   4.398
10557SOL    HW232571   1.862   3.287   4.308
10558SOL     OW32572   3.163   5.483   5.961
10558SOL    HW132573   3.257   5.470   5.930
10558SOL    HW232574   3.120   5.557   5.908
10559SOL     OW32575   3.633   0.903   0.703
10559SOL    HW132576   3.569   0.884   0.778
10559SOL    HW232577   3.686   0.821   0.682
10560SOL     OW32578   4.320   6.357   1.536
10560SOL    HW132579   4.228   6.362   1.574
10560SOL    HW232580   4.350   6.262   1.533
10561SOL     OW32581   3.720   4.640   1.600
10561SOL    HW132582   3.677   4.593   1.677
10561SOL    HW232583   3.662   4.634   1.519
10562SOL     OW32584   3.517   5.792   0.253
10562SOL    HW132585   3.438   5.732   0.241
10562SOL    HW232586   3.587   5.769   0.185
10563SOL     OW32587   1.311   0.647   0.860
10563SOL    HW132588   1.319   0.660   0.761
10563SOL    HW232589   1.321   0.735   0.906
10564SOL     OW32590   6.168   5.908   3.762
10564SOL    HW132591   6.102   5.952   3.824
10564SOL    HW232592   6.255   5.958   3.765
10565SOL     OW32593   6.372   6.743   5.595
10565SOL    HW132594   6.427   6.825   5.584
10565SOL    HW232595   6.390   6.702   5.685
10566SOL     OW32596   2.690   2.546   0.088
10566SOL    HW132597   2.606   2.492   0.087
10566SOL    HW232598   2.765   2.492   0.049
10567SOL     OW32599   2.323   2.448   5.705
10567SOL    HW132600   2.360   2.415   5.618
10567SOL    HW232601   2.303   2.545   5.698
10568SOL     OW32602   6.081   2.609   6.881
10568SOL    HW132603   6.072   2.535   6.948
10568SOL    HW232604   5.998   2.612   6.825
10569SOL     OW32605   5.462   0.957   1.659
10569SOL    HW132606   5.559   0.941   1.641
10569SOL    HW232607   5.407   0.908   1.592
10570SOL     OW32608   1.282   4.667   3.391
10570SOL    HW132609   1.274   4.568   3.377
10570SOL    HW232610   1.339   4.706   3.318
10571SOL     OW32611   0.374   4.055   5.927
10571SOL    HW132612   0.343   4.047   5.832
10571SOL    HW232613   0.461   4.105   5.929
10572SOL     OW32614   0.096   5.160   2.135
10572SOL    HW132615   0.113   5.083   2.196
10572SOL    HW232616   0.175   5.220   2.134
10573SOL     OW32617   4.738   0.422   5.436
10573SOL    HW132618   4.767   0.501   5.382
10573SOL    HW232619   4.778   0.339   5.397
10574SOL     OW32620   6.731   1.085   3.883
10574SOL    HW132621   6.691   1.063   3.972
10574SOL    HW232622   6.830   1.092   3.891
10575SOL     OW32623   5.896   0.827   3.541
10575SOL    HW132624   5.862   0.920   3.527
10575SOL    HW232625   5.872   0.796   3.633
10576SOL     OW32626   1.113   5.354   2.916
10576SOL    HW132627   1.065   5.306   2.843
10576SOL    HW232628   1.125   5.450   2.891
10577SOL     OW32629   2.395   5.266   0.503
10577SOL    HW132630   2.314   5.310   0.541
10577SOL    HW232631   2.398   5.170   0.531
10578SOL     OW32632   5.195   0.958   2.915
10578SOL    HW132633   5.147   0.973   2.828
10578SOL    HW232634   5.131   0.918   2.981
10579SOL     OW32635   3.325   3.100   1.274
10579SOL    HW132636   3.322   3.047   1.189
10579SOL    HW232637   3.244   3.080   1.329
10580SOL     OW32638   6.403   6.473   6.341
10580SOL    HW132639   6.366   6.562   6.312
10580SOL    HW232640   6.500   6.482   6.361
10581SOL     OW32641   4.833   0.133   3.017
10581SOL    HW132642   4.754   0.144   2.956
10581SOL    HW232643   4.914   0.111   2.964
10582SOL     OW32644   5.785   4.995   6.509
10582SOL    HW132645   5.759   5.072   6.451
10582SOL    HW232646   5.750   4.910   6.470
10583SOL     OW32647   4.618   0.262   4.769
10583SOL    HW132648   4.570   0.201   4.706
10583SOL    HW232649   4.622   0.220   4.860
10584SOL     OW32650   6.514   0.325   6.565
10584SOL    HW132651   6.480   0.322   6.471
10584SOL    HW232652   6.567   0.243   6.585
10585SOL     OW32653   1.944   1.954   5.573
10585SOL    HW132654   2.020   1.992   5.626
10585SOL    HW232655   1.864   1.943   5.633
10586SOL     OW32656   4.877   4.497   5.162
10586SOL    HW132657   4.970   4.530   5.177
10586SOL    HW232658   4.814   4.575   5.162
10587SOL     OW32659   0.118   5.721   6.599
10587SOL    HW132660   0.139   5.818   6.608
10587SOL    HW232661   0.020   5.706   6.611
10588SOL     OW32662   2.166   2.004   5.081
10588SOL    HW132663   2.087   1.959   5.039
10588SOL    HW232664   2.150   2.015   5.179
10589SOL     OW32665   5.127   6.512   4.280
10589SOL    HW132666   5.198   6.568   4.238
10589SOL    HW232667   5.165   6.422   4.304
10590SOL     OW32668   0.540   6.200   1.664
10590SOL    HW132669   0.613   6.171   1.726
10590SOL    HW232670   0.556   6.161   1.573
10591SOL     OW32671   2.447   1.818   1.447
10591SOL    HW132672   2.411   1.725   1.435
10591SOL    HW232673   2.419   1.854   1.536
10592SOL     OW32674   5.854   2.765   4.232
10592SOL    HW132675   5.772   2.732   4.184
10592SOL    HW232676   5.849   2.740   4.328
10593SOL     OW32677   1.179   6.555   0.642
10593SOL    HW132678   1.140   6.465   0.629
10593SOL    HW232679   1.226   6.584   0.559
10594SOL     OW32680   4.257   1.567   3.089
10594SOL    HW132681   4.187   1.508   3.129
10594SOL    HW232682   4.340   1.513   3.072
10595SOL     OW32683   6.237   0.478   0.170
10595SOL    HW132684   6.336   0.475   0.153
10595SOL    HW232685   6.192   0.529   0.097
10596SOL     OW32686   4.868   1.326   6.959
10596SOL    HW132687   4.882   1.401   7.024
10596SOL    HW232688   4.770   1.305   6.953
10597SOL     OW32689   2.131   0.729   5.551
10597SOL    HW132690   2.038   0.693   5.548
10597SOL    HW232691   2.151   0.763   5.642
10598SOL     OW32692   2.716   2.532   6.452
10598SOL    HW132693   2.676   2.607   6.505
10598SOL    HW232694   2.658   2.451   6.460
10599SOL     OW32695   6.475   4.369   6.268
10599SOL    HW132696   6.397   4.308   6.253
10599SOL    HW232697   6.458   4.426   6.348
10600SOL     OW32698   3.821   1.657   1.631
10600SOL    HW132699   3.809   1.753   1.607
10600SOL    HW232700   3.886   1.614   1.568
10601SOL     OW32701   1.111   5.451   5.627
10601SOL    HW132702   1.189   5.457   5.691
10601SOL    HW232703   1.110   5.532   5.569
10602SOL     OW32704   0.956   1.098   0.829
10602SOL    HW132705   0.890   1.171   0.810
10602SOL    HW232706   1.019   1.128   0.901
10603SOL     OW32707   4.788   6.627   3.107
10603SOL    HW132708   4.749   6.548   3.154
10603SOL    HW232709   4.882   6.607   3.081
10604SOL     OW32710   0.087   5.992   4.848
10604SOL    HW132711   0.046   6.073   4.805
10604SOL    HW232712   0.170   5.967   4.799
10605SOL     OW32713   1.743   0.061   6.716
10605SOL    HW132714   1.788   0.009   6.643
10605SOL    HW232715   1.812   0.093   6.782
10606SOL     OW32716   6.820   0.695   1.831
10606SOL    HW132717   6.767   0.777   1.808
10606SOL    HW232718   6.758   0.616   1.838
10607SOL     OW32719   4.110   4.312   0.768
10607SOL    HW132720   4.145   4.385   0.827
10607SOL    HW232721   4.174   4.236   0.769
10608SOL     OW32722   6.554   3.717   3.357
10608SOL    HW132723   6.604   3.641   3.316
10608SOL    HW232724   6.617   3.774   3.411
10609SOL     OW32725   2.526   6.737   6.746
10609SOL    HW132726   2.535   6.649   6.793
10609SOL    HW232727   2.588   6.739   6.667
10610SOL     OW32728   6.793   2.347   4.495
10610SOL    HW132729   6.822   2.441   4.478
10610SOL    HW232730   6.778   2.301   4.408
10611SOL     OW32731   2.653   5.313   5.890
10611SOL    HW132732   2.575   5.251   5.879
10611SOL    HW232733   2.677   5.353   5.801
10612SOL     OW32734   5.138   1.810   4.495
10612SOL    HW132735   5.233   1.781   4.509
10612SOL    HW232736   5.077   1.749   4.547
10613SOL     OW32737   5.831   6.068   5.041
10613SOL    HW132738   5.781   5.993   5.084
10613SOL    HW232739   5.774   6.150   5.039
10614SOL     OW32740   5.250   1.165   4.839
10614SOL    HW132741   5.310   1.169   4.919
10614SOL    HW232742   5.209   1.254   4.823
10615SOL     OW32743   3.668   1.082   5.684
10615SOL    HW132744   3.599   1.019   5.719
10615SOL    HW232745   3.729   1.109   5.758
10616SOL     OW32746   2.943   6.249   6.348
10616SOL    HW132747   2.933   6.315   6.274
10616SOL    HW232748   3.023   6.192   6.331
10617SOL     OW32749   2.178   4.291   1.305
10617SOL    HW132750   2.271   4.306   1.338
10617SOL    HW232751   2.116   4.358   1.345
10618SOL     OW32752   0.690   5.452   5.231
10618SOL    HW132753   0.763   5.385   5.217
10618SOL    HW232754   0.641   5.430   5.316
10619SOL     OW32755   0.662   2.687   3.243
10619SOL    HW132756   0.727   2.693   3.318
10619SOL    HW232757   0.570   2.672   3.279
10620SOL     OW32758   1.097   0.141   5.217
10620SOL    HW132759   1.017   0.148   5.277
10620SOL    HW232760   1.070   0.102   5.129
10621SOL     OW32761   0.087   4.579   2.104
10621SOL    HW132762   0.081   4.560   2.006
10621SOL    HW232763   0.181   4.567   2.136
10622SOL     OW32764   4.577   2.541   1.469
10622SOL    HW132765   4.654   2.568   1.410
10622SOL    HW232766   4.513   2.617   1.476
10623SOL     OW32767   6.100   6.120   5.038
10623SOL    HW132768   6.011   6.076   5.022
10623SOL    HW232769   6.089   6.196   5.101
10624SOL     OW32770   0.204   3.093   4.831
10624SOL    HW132771   0.245   3.085   4.740
10624SOL    HW232772   0.221   3.186   4.866
10625SOL     OW32773   0.760   3.826   1.549
10625SOL    HW132774   0.781   3.883   1.629
10625SOL    HW232775   0.814   3.857   1.471
10626SOL     OW32776   3.520   2.544   1.063
10626SOL    HW132777   3.615   2.576   1.056
10626SOL    HW232778   3.474   2.594   1.136
10627SOL     OW32779   6.153   1.506   6.610
10627SOL    HW132780   6.064   1.500   6.653
10627SOL    HW232781   6.177   1.602   6.594
10628SOL     OW32782   4.648   6.904   0.881
10628SOL    HW132783   4.578   6.848   0.836
10628SOL    HW232784   4.652   6.994   0.837
10629SOL     OW32785   3.231   5.002   4.664
10629SOL    HW132786   3.317   5.049   4.683
10629SOL    HW232787   3.160   5.036   4.726
10630SOL     OW32788   5.884   1.102   2.211
10630SOL    HW132789   5.857   1.021   2.262
10630SOL    HW232790   5.826   1.179   2.237
10631SOL     OW32791   3.860   4.374   5.251
10631SOL    HW132792   3.817   4.387   5.340
10631SOL    HW232793   3.955   4.407   5.255
10632SOL     OW32794   4.793   6.075   3.086
10632SOL    HW132795   4.702   6.107   3.111
10632SOL    HW232796   4.832   6.025   3.164
10633SOL     OW32797   2.723   2.423   1.678
10633SOL    HW132798   2.795   2.375   1.728
10633SOL    HW232799   2.655   2.457   1.742
10634SOL     OW32800   1.774   5.324   0.295
10634SOL    HW132801   1.786   5.360   0.387
10634SOL    HW232802   1.713   5.384   0.243
10635SOL     OW32803   2.178   3.349   0.049
10635SOL    HW132804   2.266   3.368   0.092
10635SOL    HW232805   2.193   3.319   6.980
10636SOL     OW32806   0.238   1.846   1.388
10636SOL    HW132807   0.153   1.888   1.356
10636SOL    HW232808   0.316   1.887   1.341
10637SOL     OW32809   1.582   5.595   6.418
10637SOL    HW132810   1.631   5.650   6.350
10637SOL    HW232811   1.497   5.560   6.378
10638SOL     OW32812   5.395   6.279   2.665
10638SOL    HW132813   5.375   6.371   2.633
10638SOL    HW232814   5.494   6.265   2.667
10639SOL     OW32815   1.839   3.752   2.255
10639SOL    HW132816   1.741   3.734   2.262
10639SOL    HW232817   1.884   3.728   2.341
10640SOL     OW32818   4.927   0.366   3.360
10640SOL    HW132819   4.916   0.275   3.399
10640SOL    HW232820   4.849   0.386   3.300
10641SOL     OW32821   2.117   1.575   3.633
10641SOL    HW132822   2.137   1.478   3.629
10641SOL    HW232823   2.040   1.590   3.696
10642SOL     OW32824   6.087   1.867   0.535
10642SOL    HW132825   6.113   1.775   0.506
10642SOL    HW232826   6.167   1.926   0.535
10643SOL     OW32827   2.255   6.088   5.198
10643SOL    HW132828   2.169   6.040   5.183
10643SOL    HW232829   2.303   6.049   5.276
10644SOL     OW32830   5.835   3.448   1.448
10644SOL    HW132831   5.856   3.545   1.436
10644SOL    HW232832   5.920   3.396   1.457
10645SOL     OW32833   2.155   2.472   3.939
10645SOL    HW132834   2.215   2.412   3.991
10645SOL    HW232835   2.123   2.546   3.999
10646SOL     OW32836   6.659   0.679   5.828
10646SOL    HW132837   6.724   0.753   5.806
10646SOL    HW232838   6.620   0.695   5.919
10647SOL     OW32839   3.610   5.145   5.031
10647SOL    HW132840   3.677   5.191   4.973
10647SOL    HW232841   3.589   5.202   5.110
10648SOL     OW32842   5.851   5.604   6.652
10648SOL    HW132843   5.871   5.571   6.745
10648SOL    HW232844   5.844   5.704   6.653
10649SOL     OW32845   0.961   3.792   3.171
10649SOL    HW132846   1.007   3.844   3.099
10649SOL    HW232847   0.862   3.802   3.162
10650SOL     OW32848   0.593   0.266   4.131
10650SOL    HW132849   0.572   0.169   4.142
10650SOL    HW232850   0.523   0.310   4.076
10651SOL     OW32851   6.304   6.072   6.023
10651SOL    HW132852   6.214   6.045   5.987
10651SOL    HW232853   6.332   6.010   6.095
10652SOL     OW32854   1.951   6.688   6.078
10652SOL    HW132855   1.929   6.672   6.174
10652SOL    HW232856   1.929   6.782   6.053
10653SOL     OW32857   3.532   6.033   5.258
10653SOL    HW132858   3.610   5.977   5.285
10653SOL    HW232859   3.516   6.023   5.160
10654SOL     OW32860   4.769   0.648   5.961
10654SOL    HW132861   4.764   0.698   6.048
10654SOL    HW232862   4.807   0.708   5.891
10655SOL     OW32863   1.844   4.623   0.079
10655SOL    HW132864   1.908   4.563   0.127
10655SOL    HW232865   1.888   4.712   0.063
10656SOL     OW32866   6.801   1.351   2.388
10656SOL    HW132867   6.719   1.294   2.381
10656SOL    HW232868   6.787   1.435   2.337
10657SOL     OW32869   6.142   0.840   4.635
10657SOL    HW132870   6.084   0.784   4.576
10657SOL    HW232871   6.217   0.784   4.671
10658SOL     OW32872   5.981   4.437   4.762
10658SOL    HW132873   5.975   4.470   4.856
10658SOL    HW232874   5.964   4.512   4.699
10659SOL     OW32875   1.303   4.582   0.964
10659SOL    HW132876   1.351   4.661   0.925
10659SOL    HW232877   1.364   4.502   0.961
10660SOL     OW32878   5.901   4.040   5.844
10660SOL    HW132879   5.880   4.041   5.942
10660SOL    HW232880   5.817   4.021   5.793
10661SOL     OW32881   1.690   6.117   0.895
10661SOL    HW132882   1.759   6.068   0.843
10661SOL    HW232883   1.658   6.061   0.971
10662SOL     OW32884   4.570   0.678   2.400
10662SOL    HW132885   4.621   0.757   2.435
10662SOL    HW232886   4.600   0.658   2.306
10663SOL     OW32887   0.762   1.166   2.835
10663SOL    HW132888   0.668   1.133   2.845
10663SOL    HW232889   0.802   1.128   2.751
10664SOL     OW32890   6.356   4.310   5.342
10664SOL    HW132891   6.398   4.369   5.273
10664SOL    HW232892   6.419   4.296   5.418
10665SOL     OW32893   2.090   2.432   7.007
10665SOL    HW132894   2.120   2.492   6.932
10665SOL    HW232895   2.004   2.467   0.020
10666SOL     OW32896   3.120   3.919   2.520
10666SOL    HW132897   3.133   3.954   2.427
10666SOL    HW232898   3.070   3.833   2.517
10667SOL     OW32899   4.814   2.018   3.753
10667SOL    HW132900   4.839   2.053   3.663
10667SOL    HW232901   4.870   1.938   3.775
10668SOL     OW32902   3.537   1.335   4.807
10668SOL    HW132903   3.493   1.402   4.748
10668SOL    HW232904   3.561   1.377   4.894
10669SOL     OW32905   6.488   0.318   1.256
10669SOL    HW132906   6.552   0.267   1.313
10669SOL    HW232907   6.413   0.351   1.312
10670SOL     OW32908   5.600   4.567   4.872
10670SOL    HW132909   5.515   4.603   4.834
10670SOL    HW232910   5.579   4.518   4.957
10671SOL     OW32911   1.443   1.743   4.299
10671SOL    HW132912   1.470   1.704   4.387
10671SOL    HW232913   1.494   1.827   4.283
10672SOL     OW32914   6.434   4.265   1.782
10672SOL    HW132915   6.452   4.168   1.762
10672SOL    HW232916   6.343   4.274   1.823
10673SOL     OW32917   0.611   0.446   0.520
10673SOL    HW132918   0.656   0.535   0.528
10673SOL    HW232919   0.656   0.393   0.448
10674SOL     OW32920   4.143   3.306   3.955
10674SOL    HW132921   4.217   3.343   3.899
10674SOL    HW232922   4.110   3.376   4.018
10675SOL     OW32923   2.179   0.353   6.653
10675SOL    HW132924   2.262   0.376   6.704
10675SOL    HW232925   2.122   0.434   6.643
10676SOL     OW32926   0.329   6.187   5.159
10676SOL    HW132927   0.266   6.194   5.236
10676SOL    HW232928   0.342   6.090   5.136
10677SOL     OW32929   1.479   0.492   1.570
10677SOL    HW132930   1.412   0.432   1.614
10677SOL    HW232931   1.432   0.573   1.534
10678SOL     OW32932   4.280   5.052   4.378
10678SOL    HW132933   4.363   5.025   4.427
10678SOL    HW232934   4.204   5.059   4.442
10679SOL     OW32935   3.936   5.468   6.379
10679SOL    HW132936   3.868   5.413   6.427
10679SOL    HW232937   3.963   5.421   6.295
10680SOL     OW32938   3.735   2.106   3.869
10680SOL    HW132939   3.710   2.014   3.898
10680SOL    HW232940   3.653   2.156   3.842
10681SOL     OW32941   6.818   3.634   0.479
10681SOL    HW132942   6.865   3.721   0.466
10681SOL    HW232943   6.721   3.650   0.496
10682SOL     OW32944   0.173   2.762   5.317
10682SOL    HW132945   0.200   2.838   5.258
10682SOL    HW232946   0.110   2.703   5.268
10683SOL     OW32947   4.890   0.703   3.743
10683SOL    HW132948   4.861   0.642   3.817
10683SOL    HW232949   4.926   0.650   3.667
10684SOL     OW32950   4.293   4.734   2.579
10684SOL    HW132951   4.321   4.676   2.655
10684SOL    HW232952   4.329   4.698   2.493
10685SOL     OW32953   0.578   5.653   1.098
10685SOL    HW132954   0.579   5.691   1.191
10685SOL    HW232955   0.639   5.706   1.040
10686SOL     OW32956   1.513   3.949   5.747
10686SOL    HW132957   1.468   4.008   5.814
10686SOL    HW232958   1.480   3.971   5.655
10687SOL     OW32959   6.117   5.449   4.246
10687SOL    HW132960   6.134   5.407   4.335
10687SOL    HW232961   6.084   5.379   4.182
10688SOL     OW32962   5.739   3.164   2.951
10688SOL    HW132963   5.823   3.182   3.002
10688SOL    HW232964   5.752   3.082   2.895
10689SOL     OW32965   6.643   0.373   2.877
10689SOL    HW132966   6.588   0.292   2.856
10689SOL    HW232967   6.724   0.346   2.930
10690SOL     OW32968   0.131   5.574   3.761
10690SOL    HW132969   0.138   5.674   3.767
10690SOL    HW232970   0.070   5.541   3.833
10691SOL     OW32971   1.668   1.942   2.258
10691SOL    HW132972   1.625   1.909   2.342
10691SOL    HW232973   1.607   1.926   2.181
10692SOL     OW32974   2.371   0.142   3.830
10692SOL    HW132975   2.365   0.073   3.758
10692SOL    HW232976   2.431   0.217   3.800
10693SOL     OW32977   1.392   6.038   1.416
10693SOL    HW132978   1.407   6.030   1.515
10693SOL    HW232979   1.480   6.054   1.371
10694SOL     OW32980   5.064   6.194   6.929
10694SOL    HW132981   5.004   6.228   6.856
10694SOL    HW232982   5.124   6.268   6.960
10695SOL     OW32983   1.524   2.176   2.773
10695SOL    HW132984   1.574   2.246   2.824
10695SOL    HW232985   1.548   2.182   2.676
10696SOL     OW32986   6.303   4.511   3.460
10696SOL    HW132987   6.357   4.589   3.491
10696SOL    HW232988   6.308   4.438   3.529
10697SOL     OW32989   0.537   0.026   5.191
10697SOL    HW132990   0.438   0.033   5.202
10697SOL    HW232991   0.558   0.002   5.096
10698SOL     OW32992   5.230   4.692   6.842
10698SOL    HW132993   5.303   4.761   6.846
10698SOL    HW232994   5.180   4.691   6.929
10699SOL     OW32995   3.989   4.610   1.685
10699SOL    HW132996   3.982   4.659   1.771
10699SOL    HW232997   3.899   4.607   1.641
10700SOL     OW32998   5.577   6.338   0.522
10700SOL    HW132999   5.480   6.322   0.538
10700SOL    HW233000   5.592   6.355   0.424
10701SOL     OW33001   2.484   6.526   6.367
10701SOL    HW133002   2.524   6.499   6.455
10701SOL    HW233003   2.397   6.572   6.383
10702SOL     OW33004   5.572   3.146   1.729
10702SOL    HW133005   5.656   3.197   1.709
10702SOL    HW233006   5.540   3.170   1.820
10703SOL     OW33007   2.666   3.080   5.351
10703SOL    HW133008   2.584   3.056   5.299
10703SOL    HW233009   2.728   3.001   5.352
10704SOL     OW33010   6.237   5.510   1.994
10704SOL    HW133011   6.289   5.430   1.961
10704SOL    HW233012   6.143   5.504   1.961
10705SOL     OW33013   6.143   5.185   1.767
10705SOL    HW133014   6.198   5.113   1.724
10705SOL    HW233015   6.173   5.197   1.861
10706SOL     OW33016   4.436   0.438   3.061
10706SOL    HW133017   4.337   0.445   3.048
10706SOL    HW233018   4.455   0.382   3.142
10707SOL     OW33019   0.336   6.684   4.385
10707SOL    HW133020   0.422   6.674   4.334
10707SOL    HW233021   0.268   6.621   4.349
10708SOL     OW33022   3.788   1.355   1.253
10708SOL    HW133023   3.827   1.330   1.342
10708SOL    HW233024   3.730   1.435   1.264
10709SOL     OW33025   5.816   5.608   5.551
10709SOL    HW133026   5.803   5.527   5.493
10709SOL    HW233027   5.735   5.621   5.608
10710SOL     OW33028   6.338   0.636   4.276
10710SOL    HW133029   6.348   0.598   4.184
10710SOL    HW233030   6.262   0.591   4.323
10711SOL     OW33031   2.007   6.479   4.466
10711SOL    HW133032   1.947   6.471   4.387
10711SOL    HW233033   1.956   6.516   4.543
10712SOL     OW33034   3.037   0.631   2.173
10712SOL    HW133035   2.989   0.641   2.086
10712SOL    HW233036   3.132   0.606   2.157
10713SOL     OW33037   0.598   3.383   1.624
10713SOL    HW133038   0.656   3.447   1.574
10713SOL    HW233039   0.516   3.363   1.569
10714SOL     OW33040   5.694   3.724   5.082
10714SOL    HW133041   5.679   3.689   5.175
10714SOL    HW233042   5.743   3.656   5.028
10715SOL     OW33043   4.621   0.616   2.144
10715SOL    HW133044   4.554   0.612   2.070
10715SOL    HW233045   4.710   0.590   2.109
10716SOL     OW33046   5.911   1.853   3.567
10716SOL    HW133047   5.854   1.771   3.566
10716SOL    HW233048   5.973   1.849   3.645
10717SOL     OW33049   1.127   2.663   1.265
10717SOL    HW133050   1.154   2.620   1.179
10717SOL    HW233051   1.170   2.615   1.342
10718SOL     OW33052   0.967   3.144   6.859
10718SOL    HW133053   1.052   3.179   6.818
10718SOL    HW233054   0.989   3.079   6.932
10719SOL     OW33055   6.614   5.669   2.637
10719SOL    HW133056   6.542   5.638   2.575
10719SOL    HW233057   6.703   5.652   2.596
10720SOL     OW33058   0.455   4.623   5.182
10720SOL    HW133059   0.387   4.551   5.167
10720SOL    HW233060   0.451   4.689   5.107
10721SOL     OW33061   5.570   4.086   5.143
10721SOL    HW133062   5.568   4.096   5.044
10721SOL    HW233063   5.657   4.044   5.171
10722SOL     OW33064   0.967   4.817   6.755
10722SOL    HW133065   0.965   4.798   6.656
10722SOL    HW233066   0.890   4.771   6.799
10723SOL     OW33067   0.668   2.944   5.693
10723SOL    HW133068   0.690   2.876   5.762
10723SOL    HW233069   0.749   2.964   5.638
10724SOL     OW33070   6.656   1.736   6.905
10724SOL    HW133071   6.634   1.763   6.812
10724SOL    HW233072   6.633   1.810   6.968
10725SOL     OW33073   1.514   5.485   4.136
10725SOL    HW133074   1.477   5.443   4.219
10725SOL    HW233075   1.520   5.416   4.064
10726SOL     OW33076   5.472   0.254   5.228
10726SOL    HW133077   5.410   0.329   5.209
10726SOL    HW233078   5.512   0.265   5.319
10727SOL     OW33079   0.491   5.125   5.245
10727SOL    HW133080   0.523   5.051   5.304
10727SOL    HW233081   0.487   5.210   5.297
10728SOL     OW33082   0.401   5.859   6.417
10728SOL    HW133083   0.469   5.928   6.390
10728SOL    HW233084   0.315   5.878   6.371
10729SOL     OW33085   5.682   1.858   2.084
10729SOL    HW133086   5.664   1.866   1.986
10729SOL    HW233087   5.649   1.940   2.131
10730SOL     OW33088   1.897   1.110   1.396
10730SOL    HW133089   1.803   1.143   1.382
10730SOL    HW233090   1.918   1.110   1.494
10731SOL     OW33091   3.336   6.667   0.682
10731SOL    HW133092   3.250   6.716   0.674
10731SOL    HW233093   3.329   6.579   0.635
10732SOL     OW33094   5.853   5.113   4.750
10732SOL    HW133095   5.906   5.035   4.716
10732SOL    HW233096   5.814   5.164   4.673
10733SOL     OW33097   6.712   1.647   1.069
10733SOL    HW133098   6.742   1.655   0.974
10733SOL    HW233099   6.624   1.693   1.080
10734SOL     OW33100   0.886   0.968   0.033
10734SOL    HW133101   0.817   1.024   0.079
10734SOL    HW233102   0.842   0.887   7.018
10735SOL     OW33103   0.575   3.063   2.956
10735SOL    HW133104   0.598   3.155   2.988
10735SOL    HW233105   0.640   2.997   2.993
10736SOL     OW33106   1.411   0.285   3.695
10736SOL    HW133107   1.462   0.349   3.637
10736SOL    HW233108   1.315   0.312   3.698
10737SOL     OW33109   1.721   2.141   1.012
10737SOL    HW133110   1.814   2.172   0.991
10737SOL    HW233111   1.710   2.047   0.979
10738SOL     OW33112   2.595   0.315   3.361
10738SOL    HW133113   2.502   0.346   3.379
10738SOL    HW233114   2.651   0.391   3.329
10739SOL     OW33115   1.176   1.813   0.891
10739SOL    HW133116   1.164   1.796   0.989
10739SOL    HW233117   1.184   1.726   0.843
10740SOL     OW33118   6.966   4.499   5.153
10740SOL    HW133119   7.009   4.539   5.234
10740SOL    HW233120   6.932   4.572   5.094
10741SOL     OW33121   5.645   0.316   1.109
10741SOL    HW133122   5.732   0.316   1.159
10741SOL    HW233123   5.570   0.327   1.173
10742SOL     OW33124   5.279   0.715   0.603
10742SOL    HW133125   5.207   0.660   0.645
10742SOL    HW233126   5.343   0.654   0.555
10743SOL     OW33127   2.605   1.182   5.628
10743SOL    HW133128   2.626   1.088   5.603
10743SOL    HW233129   2.509   1.201   5.607
10744SOL     OW33130   3.626   1.565   1.194
10744SOL    HW133131   3.651   1.659   1.214
10744SOL    HW233132   3.607   1.556   1.096
10745SOL     OW33133   0.072   5.940   6.815
10745SOL    HW133134   0.016   5.988   6.883
10745SOL    HW233135   0.111   6.006   6.751
10746SOL     OW33136   1.727   4.745   1.478
10746SOL    HW133137   1.737   4.807   1.400
10746SOL    HW233138   1.638   4.760   1.521
10747SOL     OW33139   3.898   1.234   4.315
10747SOL    HW133140   3.991   1.231   4.350
10747SOL    HW233141   3.841   1.289   4.376
10748SOL     OW33142   5.114   0.853   0.999
10748SOL    HW133143   5.146   0.928   0.941
10748SOL    HW233144   5.182   0.780   1.000
10749SOL     OW33145   0.956   5.854   2.779
10749SOL    HW133146   0.990   5.803   2.858
10749SOL    HW233147   0.962   5.797   2.697
10750SOL     OW33148   4.433   6.152   5.093
10750SOL    HW133149   4.485   6.067   5.085
10750SOL    HW233150   4.420   6.191   5.002
10751SOL     OW33151   1.804   4.004   4.444
10751SOL    HW133152   1.770   4.090   4.482
10751SOL    HW233153   1.768   3.927   4.498
10752SOL     OW33154   6.251   4.173   6.280
10752SOL    HW133155   6.154   4.194   6.283
10752SOL    HW233156   6.265   4.079   6.311
10753SOL     OW33157   4.665   6.054   4.123
10753SOL    HW133158   4.689   6.010   4.037
10753SOL    HW233159   4.679   6.153   4.114
10754SOL     OW33160   0.694   1.432   3.013
10754SOL    HW133161   0.636   1.400   3.087
10754SOL    HW233162   0.734   1.353   2.966
10755SOL     OW33163   6.538   0.995   6.262
10755SOL    HW133164   6.625   0.967   6.222
10755SOL    HW233165   6.546   0.994   6.362
10756SOL     OW33166   6.842   4.700   0.111
10756SOL    HW133167   6.917   4.678   0.049
10756SOL    HW233168   6.755   4.674   0.069
10757SOL     OW33169   2.234   2.969   0.263
10757SOL    HW133170   2.143   3.009   0.278
10757SOL    HW233171   2.260   2.914   0.342
10758SOL     OW33172   0.384   6.767   4.054
10758SOL    HW133173   0.441   6.807   3.982
10758SOL    HW233174   0.437   6.700   4.106
10759SOL     OW33175   1.962   3.213   1.302
10759SOL    HW133176   1.887   3.252   1.355
10759SOL    HW233177   1.941   3.117   1.280
10760SOL     OW33178   6.195   1.526   2.144
10760SOL    HW133179   6.279   1.536   2.090
10760SOL    HW233180   6.118   1.508   2.083
10761SOL     OW33181   0.899   6.956   6.242
10761SOL    HW133182   0.836   6.913   6.307
10761SOL    HW233183   0.846   7.010   6.176
10762SOL     OW33184   3.855   2.163   4.130
10762SOL    HW133185   3.826   2.156   4.035
10762SOL    HW233186   3.795   2.108   4.188
10763SOL     OW33187   5.074   6.457   2.507
10763SOL    HW133188   5.083   6.443   2.605
10763SOL    HW233189   5.139   6.399   2.458
10764SOL     OW33190   4.985   2.519   5.974
10764SOL    HW133191   4.950   2.605   5.935
10764SOL    HW233192   5.082   2.531   5.998
10765SOL     OW33193   5.482   2.005   0.141
10765SOL    HW133194   5.408   1.958   0.094
10765SOL    HW233195   5.445   2.084   0.190
10766SOL     OW33196   4.868   3.808   0.390
10766SOL    HW133197   4.824   3.897   0.396
10766SOL    HW233198   4.894   3.778   0.482
10767SOL     OW33199   1.080   0.684   0.251
10767SOL    HW133200   1.018   0.618   0.294
10767SOL    HW233201   1.039   0.775   0.255
10768SOL     OW33202   4.633   4.053   1.676
10768SOL    HW133203   4.562   4.083   1.740
10768SOL    HW233204   4.722   4.056   1.722
10769SOL     OW33205   2.374   4.442   5.181
10769SOL    HW133206   2.307   4.450   5.255
10769SOL    HW233207   2.465   4.467   5.215
10770SOL     OW33208   5.565   1.011   5.213
10770SOL    HW133209   5.643   1.064   5.179
10770SOL    HW233210   5.485   1.071   5.220
10771SOL     OW33211   6.136   0.588   3.432
10771SOL    HW133212   6.219   0.549   3.391
10771SOL    HW233213   6.119   0.546   3.521
10772SOL     OW33214   5.860   6.808   4.332
10772SOL    HW133215   5.871   6.727   4.276
10772SOL    HW233216   5.906   6.886   4.288
10773SOL     OW33217   6.426   5.890   7.010
10773SOL    HW133218   6.474   5.943   6.940
10773SOL    HW233219   6.468   5.908   0.074
10774SOL     OW33220   2.322   1.436   0.182
10774SOL    HW133221   2.372   1.356   0.214
10774SOL    HW233222   2.339   1.513   0.245
10775SOL     OW33223   0.383   4.553   1.580
10775SOL    HW133224   0.468   4.596   1.548
10775SOL    HW233225   0.308   4.578   1.520
10776SOL     OW33226   6.955   0.837   6.843
10776SOL    HW133227   6.871   0.879   6.878
10776SOL    HW233228   7.023   0.832   6.917
10777SOL     OW33229   3.539   5.466   2.971
10777SOL    HW133230   3.539   5.502   3.064
10777SOL    HW233231   3.551   5.367   2.973
10778SOL     OW33232   6.056   0.188   4.290
10778SOL    HW133233   6.014   0.167   4.378
10778SOL    HW233234   6.076   0.102   4.241
10779SOL     OW33235   6.627   3.426   3.850
10779SOL    HW133236   6.655   3.507   3.901
10779SOL    HW233237   6.528   3.416   3.855
10780SOL     OW33238   2.129   0.669   3.883
10780SOL    HW133239   2.121   0.710   3.792
10780SOL    HW233240   2.188   0.589   3.878
10781SOL     OW33241   4.540   1.022   4.067
10781SOL    HW133242   4.534   1.025   4.167
10781SOL    HW233243   4.574   0.933   4.038
10782SOL     OW33244   6.373   1.806   1.510
10782SOL    HW133245   6.454   1.834   1.561
10782SOL    HW233246   6.314   1.885   1.496
10783SOL     OW33247   0.416   3.393   2.868
10783SOL    HW133248   0.472   3.391   2.950
10783SOL    HW233249   0.353   3.315   2.868
10784SOL     OW33250   3.537   6.431   4.335
10784SOL    HW133251   3.596   6.375   4.277
10784SOL    HW233252   3.581   6.520   4.351
10785SOL     OW33253   0.266   4.384   1.190
10785SOL    HW133254   0.256   4.472   1.238
10785SOL    HW233255   0.256   4.399   1.091
10786SOL     OW33256   6.003   4.264   3.487
10786SOL    HW133257   6.089   4.267   3.539
10786SOL    HW233258   5.941   4.335   3.521
10787SOL     OW33259   2.435   1.462   5.317
10787SOL    HW133260   2.510   1.488   5.255
10787SOL    HW233261   2.396   1.375   5.287
10788SOL     OW33262   1.957   4.734   5.985
10788SOL    HW133263   2.008   4.682   5.916
10788SOL    HW233264   1.868   4.691   6.000
10789SOL     OW33265   6.969   2.892   6.444
10789SOL    HW133266   0.007   2.883   6.521
10789SOL    HW233267   7.021   2.901   6.359
10790SOL     OW33268   1.290   0.577   1.851
10790SOL    HW133269   1.320   0.540   1.939
10790SOL    HW233270   1.267   0.674   1.863
10791SOL     OW33271   6.522   0.130   1.774
10791SOL    HW133272   6.481   0.046   1.811
10791SOL    HW233273   6.461   0.207   1.792
10792SOL     OW33274   2.969   3.785   4.234
10792SOL    HW133275   3.057   3.828   4.251
10792SOL    HW233276   2.912   3.791   4.316
10793SOL     OW33277   5.349   3.181   4.548
10793SOL    HW133278   5.336   3.237   4.467
10793SOL    HW233279   5.357   3.239   4.629
10794SOL     OW33280   2.940   3.593   3.712
10794SOL    HW133281   3.011   3.654   3.676
10794SOL    HW233282   2.872   3.576   3.640
10795SOL     OW33283   6.709   4.915   1.754
10795SOL    HW133284   6.654   4.998   1.762
10795SOL    HW233285   6.783   4.931   1.689
10796SOL     OW33286   5.861   0.499   6.383
10796SOL    HW133287   5.959   0.480   6.390
10796SOL    HW233288   5.846   0.579   6.325
10797SOL     OW33289   3.754   2.626   1.446
10797SOL    HW133290   3.755   2.713   1.397
10797SOL    HW233291   3.773   2.551   1.382
10798SOL     OW33292   2.826   0.331   0.285
10798SOL    HW133293   2.839   0.416   0.234
10798SOL    HW233294   2.762   0.347   0.360
10799SOL     OW33295   3.851   0.901   1.762
10799SOL    HW133296   3.883   0.812   1.794
10799SOL    HW233297   3.773   0.931   1.818
10800SOL     OW33298   6.926   6.718   6.165
10800SOL    HW133299   7.001   6.698   6.101
10800SOL    HW233300   6.921   6.645   6.233
10801SOL     OW33301   0.704   6.180   5.832
10801SOL    HW133302   0.750   6.235   5.901
10801SOL    HW233303   0.662   6.239   5.763
10802SOL     OW33304   0.909   0.627   2.911
10802SOL    HW133305   0.960   0.711   2.927
10802SOL    HW233306   0.892   0.616   2.813
10803SOL     OW33307   2.057   4.969   5.887
10803SOL    HW133308   2.037   4.878   5.922
10803SOL    HW233309   2.067   5.033   5.963
10804SOL     OW33310   5.608   3.271   2.193
10804SOL    HW133311   5.626   3.311   2.283
10804SOL    HW233312   5.521   3.305   2.158
10805SOL     OW33313   4.676   6.539   6.334
10805SOL    HW133314   4.733   6.618   6.355
10805SOL    HW233315   4.669   6.481   6.416
10806SOL     OW33316   4.082   4.166   6.456
10806SOL    HW133317   4.148   4.210   6.395
10806SOL    HW233318   4.100   4.068   6.458
10807SOL     OW33319   1.630   0.133   2.312
10807SOL    HW133320   1.539   0.135   2.271
10807SOL    HW233321   1.630   0.071   2.390
10808SOL     OW33322   0.162   3.040   5.641
10808SOL    HW133323   0.080   3.088   5.608
10808SOL    HW233324   0.243   3.091   5.613
10809SOL     OW33325   3.170   4.900   3.600
10809SOL    HW133326   3.140   4.995   3.608
10809SOL    HW233327   3.162   4.855   3.689
10810SOL     OW33328   1.146   0.020   4.240
10810SOL    HW133329   1.207   7.008   4.309
10810SOL    HW233330   1.118   0.113   4.266
10811SOL     OW33331   4.288   4.323   5.979
10811SOL    HW133332   4.238   4.237   5.970
10811SOL    HW233333   4.351   4.334   5.902
10812SOL     OW33334   0.778   3.772   0.538
10812SOL    HW133335   0.779   3.835   0.616
10812SOL    HW233336   0.687   3.732   0.528
10813SOL     OW33337   1.730   3.804   6.674
10813SOL    HW133338   1.715   3.818   6.576
10813SOL    HW233339   1.703   3.710   6.698
10814SOL     OW33340   1.261   6.883   6.194
10814SOL    HW133341   1.282   6.966   6.141
10814SOL    HW233342   1.242   6.909   6.289
10815SOL     OW33343   4.789   4.174   3.230
10815SOL    HW133344   4.825   4.206   3.142
10815SOL    HW233345   4.807   4.076   3.240
10816SOL     OW33346   3.243   3.584   2.589
10816SOL    HW133347   3.272   3.621   2.500
10816SOL    HW233348   3.282   3.640   2.662
10817SOL     OW33349   4.344   0.441   3.629
10817SOL    HW133350   4.304   0.532   3.623
10817SOL    HW233351   4.443   0.447   3.621
10818SOL     OW33352   4.688   4.524   4.938
10818SOL    HW133353   4.772   4.473   4.920
10818SOL    HW233354   4.630   4.521   4.856
10819SOL     OW33355   6.875   5.160   6.205
10819SOL    HW133356   6.820   5.101   6.144
10819SOL    HW233357   6.894   5.110   6.290
10820SOL     OW33358   0.163   5.045   4.396
10820SOL    HW133359   0.241   4.984   4.410
10820SOL    HW233360   0.126   5.074   4.484
10821SOL     OW33361   4.658   0.530   3.625
10821SOL    HW133362   4.646   0.498   3.531
10821SOL    HW233363   4.755   0.527   3.648
10822SOL     OW33364   6.241   2.412   2.968
10822SOL    HW133365   6.187   2.339   2.926
10822SOL    HW233366   6.186   2.496   2.971
10823SOL     OW33367   1.156   0.765   2.109
10823SOL    HW133368   1.095   0.844   2.113
10823SOL    HW233369   1.107   0.687   2.071
10824SOL     OW33370   6.690   1.324   3.130
10824SOL    HW133371   6.590   1.321   3.125
10824SOL    HW233372   6.720   1.419   3.137
10825SOL     OW33373   2.287   2.194   6.374
10825SOL    HW133374   2.197   2.161   6.401
10825SOL    HW233375   2.297   2.186   6.274
10826SOL     OW33376   0.711   2.553   3.536
10826SOL    HW133377   0.768   2.620   3.489
10826SOL    HW233378   0.769   2.494   3.592
10827SOL     OW33379   0.266   3.478   4.860
10827SOL    HW133380   0.325   3.439   4.931
10827SOL    HW233381   0.303   3.453   4.770
10828SOL     OW33382   1.500   4.366   0.936
10828SOL    HW133383   1.568   4.438   0.925
10828SOL    HW233384   1.464   4.340   0.847
10829SOL     OW33385   4.547   2.991   0.351
10829SOL    HW133386   4.638   3.032   0.352
10829SOL    HW233387   4.547   2.909   0.408
10830SOL     OW33388   4.790   1.727   2.951
10830SOL    HW133389   4.768   1.630   2.946
10830SOL    HW233390   4.706   1.780   2.947
10831SOL     OW33391   3.002   6.203   3.035
10831SOL    HW133392   2.974   6.119   3.080
10831SOL    HW233393   2.967   6.204   2.941
10832SOL     OW33394   0.803   3.217   5.965
10832SOL    HW133395   0.760   3.212   5.875
10832SOL    HW233396   0.902   3.214   5.955
10833SOL     OW33397   0.795   1.059   2.206
10833SOL    HW133398   0.762   0.969   2.238
10833SOL    HW233399   0.718   1.123   2.203
10834SOL     OW33400   0.233   1.610   0.828
10834SOL    HW133401   0.308   1.564   0.779
10834SOL    HW233402   0.243   1.594   0.926
10835SOL     OW33403   6.030   2.511   0.468
10835SOL    HW133404   6.047   2.609   0.457
10835SOL    HW233405   6.081   2.477   0.547
10836SOL     OW33406   6.440   1.690   4.634
10836SOL    HW133407   6.407   1.615   4.577
10836SOL    HW233408   6.394   1.688   4.723
10837SOL     OW33409   6.523   5.414   0.900
10837SOL    HW133410   6.557   5.325   0.931
10837SOL    HW233411   6.500   5.409   0.803
10838SOL     OW33412   6.860   5.778   3.596
10838SOL    HW133413   6.761   5.770   3.588
10838SOL    HW233414   6.904   5.699   3.552
10839SOL     OW33415   4.351   3.092   1.741
10839SOL    HW133416   4.323   2.996   1.744
10839SOL    HW233417   4.436   3.102   1.794
10840SOL     OW33418   3.189   6.214   2.584
10840SOL    HW133419   3.149   6.156   2.513
10840SOL    HW233420   3.245   6.158   2.645
10841SOL     OW33421   6.387   5.018   5.679
10841SOL    HW133422   6.424   4.966   5.603
10841SOL    HW233423   6.410   5.115   5.669
10842SOL     OW33424   4.924   2.108   1.607
10842SOL    HW133425   4.923   2.120   1.508
10842SOL    HW233426   4.846   2.051   1.635
10843SOL     OW33427   0.976   1.601   1.675
10843SOL    HW133428   0.927   1.633   1.756
10843SOL    HW233429   0.976   1.673   1.605
10844SOL     OW33430   0.645   5.989   3.176
10844SOL    HW133431   0.581   6.053   3.218
10844SOL    HW233432   0.595   5.912   3.136
10845SOL     OW33433   3.466   6.590   5.251
10845SOL    HW133434   3.492   6.495   5.268
10845SOL    HW233435   3.531   6.652   5.295
10846SOL     OW33436   5.967   1.239   0.481
10846SOL    HW133437   5.927   1.281   0.562
10846SOL    HW233438   5.973   1.140   0.494
10847SOL     OW33439   3.402   2.818   0.202
10847SOL    HW133440   3.415   2.852   0.295
10847SOL    HW233441   3.465   2.742   0.184
10848SOL     OW33442   2.600   3.926   0.650
10848SOL    HW133443   2.681   3.884   0.691
10848SOL    HW233444   2.518   3.878   0.680
10849SOL     OW33445   2.233   4.809   3.972
10849SOL    HW133446   2.161   4.753   4.013
10849SOL    HW233447   2.320   4.761   3.979
10850SOL     OW33448   2.319   6.174   6.106
10850SOL    HW133449   2.392   6.232   6.142
10850SOL    HW233450   2.268   6.134   6.182
10851SOL     OW33451   2.121   3.463   0.418
10851SOL    HW133452   2.042   3.511   0.380
10851SOL    HW233453   2.106   3.448   0.516
10852SOL     OW33454   1.008   0.243   6.924
10852SOL    HW133455   0.979   0.297   6.844
10852SOL    HW233456   1.082   0.182   6.898
10853SOL     OW33457   1.639   2.657   5.003
10853SOL    HW133458   1.544   2.666   4.974
10853SOL    HW233459   1.698   2.711   4.944
10854SOL     OW33460   4.792   4.791   5.638
10854SOL    HW133461   4.722   4.855   5.671
10854SOL    HW233462   4.749   4.707   5.606
10855SOL     OW33463   3.763   0.677   0.619
10855SOL    HW133464   3.796   0.587   0.648
10855SOL    HW233465   3.762   0.681   0.519
10856SOL     OW33466   5.245   1.246   0.286
10856SOL    HW133467   5.195   1.323   0.326
10856SOL    HW233468   5.183   1.191   0.231
10857SOL     OW33469   0.397   2.161   2.952
10857SOL    HW133470   0.298   2.151   2.964
10857SOL    HW233471   0.437   2.071   2.933
10858SOL     OW33472   1.004   1.768   6.754
10858SOL    HW133473   1.000   1.772   6.654
10858SOL    HW233474   1.095   1.739   6.783
10859SOL     OW33475   1.110   4.116   4.585
10859SOL    HW133476   1.179   4.187   4.576
10859SOL    HW233477   1.075   4.091   4.495
10860SOL     OW33478   0.268   2.811   5.046
10860SOL    HW133479   0.260   2.729   4.989
10860SOL    HW233480   0.179   2.857   5.052
10861SOL     OW33481   3.297   3.983   3.711
10861SOL    HW133482   3.281   4.015   3.618
10861SOL    HW233483   3.214   3.942   3.747
10862SOL     OW33484   2.172   1.459   6.554
10862SOL    HW133485   2.152   1.455   6.652
10862SOL    HW233486   2.143   1.548   6.518
10863SOL     OW33487   3.608   0.648   3.904
10863SOL    HW133488   3.544   0.669   3.979
10863SOL    HW233489   3.637   0.553   3.911
10864SOL     OW33490   2.005   6.521   0.609
10864SOL    HW133491   1.974   6.535   0.514
10864SOL    HW233492   1.997   6.424   0.631
10865SOL     OW33493   0.386   1.480   1.478
10865SOL    HW133494   0.313   1.424   1.438
10865SOL    HW233495   0.346   1.562   1.519
10866SOL     OW33496   5.612   4.024   0.566
10866SOL    HW133497   5.639   3.929   0.579
10866SOL    HW233498   5.664   4.083   0.627
10867SOL     OW33499   3.624   3.753   6.836
10867SOL    HW133500   3.641   3.851   6.830
10867SOL    HW233501   3.568   3.724   6.758
10868SOL     OW33502   4.915   1.346   4.099
10868SOL    HW133503   4.938   1.367   4.194
10868SOL    HW233504   4.996   1.358   4.041
10869NA      NA33505   6.238   2.797   5.393
10870NA      NA33506   4.531   4.567   5.109
10871NA      NA33507   1.839   3.175   2.136
10872NA      NA33508   5.126   3.815   4.858
10873NA      NA33509   4.243   2.347   5.258
10874NA      NA33510   3.553   4.795   1.693
10875NA      NA33511   6.918   4.709   0.369
10876NA      NA33512   3.401   3.720   4.116
10877NA      NA33513   4.994   6.098   0.315
10878NA      NA33514   3.222   6.554   5.179
10879NA      NA33515   5.726   5.350   1.672
10880NA      NA33516   2.031   0.272   4.392
10881NA      NA33517   3.672   5.258   2.564
10882NA      NA33518   3.862   3.800   2.174
   7.02494   7.02494   7.02494
