Generated by trjconv : CNT in water t= 401.00000
33518
    1C        C    1   2.845   2.768   4.748
    1C        C    2   2.900   2.717   4.868
    1C        C    3   2.843   2.767   4.986
    1C        C    4   2.849   2.771   4.261
    1C        C    5   2.902   2.726   4.384
    1C        C    6   2.844   2.767   4.506
    1C        C    7   3.014   2.638   4.628
    1C        C    8   2.898   2.718   4.627
    1C        C    9   3.078   2.599   4.747
    1C        C   10   3.010   2.629   4.867
    1C        C   11   3.186   2.496   4.978
    1C        C   12   3.063   2.562   4.979
    1C        C   13   2.847   2.766   3.772
    1C        C   14   2.900   2.718   3.894
    1C        C   15   2.850   2.770   4.015
    1C        C   16   3.016   2.642   4.140
    1C        C   17   2.902   2.726   4.138
    1C        C   18   3.079   2.607   4.262
    1C        C   19   3.020   2.647   4.384
    1C        C   20   3.210   2.557   4.506
    1C        C   21   3.078   2.607   4.506
    1C        C   22   3.280   2.532   4.626
    1C        C   23   3.211   2.547   4.748
    1C        C   24   3.416   2.483   4.870
    1C        C   25   3.274   2.499   4.866
    1C        C   26   3.493   2.487   4.987
    1C        C   27   2.850   2.770   3.283
    1C        C   28   2.905   2.725   3.405
    1C        C   29   2.850   2.768   3.528
    1C        C   30   3.020   2.642   3.650
    1C        C   31   2.902   2.720   3.650
    1C        C   32   3.078   2.602   3.772
    1C        C   33   3.016   2.637   3.895
    1C        C   34   3.208   2.554   4.018
    1C        C   35   3.076   2.604   4.018
    1C        C   36   3.277   2.530   4.139
    1C        C   37   3.210   2.554   4.262
    1C        C   38   3.416   2.505   4.384
    1C        C   39   3.278   2.536   4.384
    1C        C   40   3.489   2.497   4.505
    1C        C   41   3.418   2.501   4.628
    1C        C   42   3.631   2.484   4.748
    1C        C   43   3.489   2.479   4.748
    1C        C   44   3.707   2.486   4.866
    1C        C   45   3.631   2.479   4.984
    1C        C   46   2.832   2.749   2.794
    1C        C   47   2.895   2.716   2.916
    1C        C   48   2.840   2.760   3.039
    1C        C   49   3.014   2.638   3.162
    1C        C   50   2.898   2.718   3.161
    1C        C   51   3.079   2.604   3.283
    1C        C   52   3.014   2.636   3.405
    1C        C   53   3.207   2.546   3.529
    1C        C   54   3.078   2.602   3.527
    1C        C   55   3.274   2.522   3.651
    1C        C   56   3.207   2.545   3.773
    1C        C   57   3.415   2.507   3.895
    1C        C   58   3.276   2.533   3.896
    1C        C   59   3.486   2.500   4.018
    1C        C   60   3.415   2.504   4.140
    1C        C   61   3.627   2.510   4.259
    1C        C   62   3.486   2.500   4.262
    1C        C   63   3.700   2.510   4.380
    1C        C   64   3.630   2.499   4.503
    1C        C   65   3.835   2.543   4.620
    1C        C   66   3.699   2.507   4.626
    1C        C   67   3.903   2.564   4.742
    1C        C   68   3.843   2.524   4.863
    1C        C   69   4.053   2.585   4.976
    1C        C   70   3.921   2.538   4.979
    1C        C   71   2.826   2.734   2.309
    1C        C   72   2.885   2.696   2.431
    1C        C   73   2.837   2.750   2.552
    1C        C   74   3.009   2.626   2.673
    1C        C   75   2.893   2.706   2.674
    1C        C   76   3.075   2.601   2.796
    1C        C   77   3.015   2.641   2.917
    1C        C   78   3.206   2.550   3.039
    1C        C   79   3.074   2.602   3.039
    1C        C   80   3.274   2.530   3.161
    1C        C   81   3.208   2.546   3.285
    1C        C   82   3.414   2.501   3.403
    1C        C   83   3.274   2.520   3.407
    1C        C   84   3.483   2.503   3.526
    1C        C   85   3.413   2.500   3.649
    1C        C   86   3.624   2.500   3.770
    1C        C   87   3.483   2.493   3.772
    1C        C   88   3.695   2.515   3.891
    1C        C   89   3.627   2.509   4.015
    1C        C   90   3.834   2.556   4.134
    1C        C   91   3.697   2.519   4.137
    1C        C   92   3.901   2.578   4.256
    1C        C   93   3.835   2.550   4.378
    1C        C   94   4.026   2.642   4.497
    1C        C   95   3.903   2.573   4.500
    1C        C   96   4.090   2.672   4.619
    1C        C   97   4.031   2.627   4.739
    1C        C   98   4.191   2.767   4.864
    1C        C   99   4.099   2.657   4.860
    1C        C  100   4.212   2.848   4.976
    1C        C  101   2.821   2.737   2.073
    1C        C  102   2.989   2.590   2.192
    1C        C  103   2.876   2.678   2.188
    1C        C  104   3.066   2.575   2.311
    1C        C  105   3.001   2.615   2.430
    1C        C  106   3.200   2.536   2.550
    1C        C  107   3.067   2.585   2.551
    1C        C  108   3.270   2.522   2.672
    1C        C  109   3.206   2.547   2.795
    1C        C  110   3.413   2.505   2.917
    1C        C  111   3.274   2.528   2.917
    1C        C  112   3.485   2.500   3.038
    1C        C  113   3.414   2.511   3.160
    1C        C  114   3.627   2.502   3.281
    1C        C  115   3.486   2.504   3.281
    1C        C  116   3.696   2.508   3.405
    1C        C  117   3.624   2.503   3.527
    1C        C  118   3.831   2.551   3.645
    1C        C  119   3.694   2.514   3.649
    1C        C  120   3.896   2.576   3.768
    1C        C  121   3.832   2.550   3.891
    1C        C  122   4.025   2.644   4.014
    1C        C  123   3.900   2.577   4.011
    1C        C  124   4.090   2.677   4.134
    1C        C  125   4.029   2.638   4.256
    1C        C  126   4.198   2.770   4.377
    1C        C  127   4.088   2.681   4.376
    1C        C  128   4.249   2.818   4.499
    1C        C  129   4.197   2.764   4.619
    1C        C  130   4.327   2.932   4.739
    1C        C  131   4.242   2.818   4.742
    1C        C  132   4.359   3.001   4.858
    1C        C  133   4.285   2.966   4.971
    1C        C  134   3.171   2.469   2.083
    1C        C  135   3.037   2.510   2.083
    1C        C  136   3.260   2.472   2.191
    1C        C  137   3.197   2.520   2.309
    1C        C  138   3.406   2.479   2.429
    1C        C  139   3.267   2.502   2.430
    1C        C  140   3.478   2.485   2.550
    1C        C  141   3.408   2.495   2.672
    1C        C  142   3.623   2.498   2.792
    1C        C  143   3.481   2.494   2.793
    1C        C  144   3.694   2.513   2.913
    1C        C  145   3.626   2.504   3.037
    1C        C  146   3.836   2.534   3.156
    1C        C  147   3.698   2.505   3.159
    1C        C  148   3.900   2.562   3.278
    1C        C  149   3.833   2.543   3.401
    1C        C  150   4.025   2.635   3.522
    1C        C  151   3.899   2.571   3.523
    1C        C  152   4.081   2.678   3.645
    1C        C  153   4.020   2.644   3.767
    1C        C  154   4.195   2.764   3.887
    1C        C  155   4.078   2.685   3.889
    1C        C  156   4.250   2.811   4.009
    1C        C  157   4.203   2.762   4.133
    1C        C  158   4.340   2.926   4.251
    1C        C  159   4.252   2.815   4.254
    1C        C  160   4.379   2.983   4.374
    1C        C  161   4.333   2.932   4.497
    1C        C  162   4.441   3.115   4.615
    1C        C  163   4.373   2.991   4.619
    1C        C  164   4.467   3.185   4.735
    1C        C  165   4.438   3.119   4.856
    1C        C  166   4.510   3.321   4.972
    1C        C  167   4.482   3.185   4.971
    1C        C  168   3.477   2.442   2.073
    1C        C  169   3.400   2.459   2.188
    1C        C  170   3.619   2.471   2.308
    1C        C  171   3.477   2.471   2.307
    1C        C  172   3.693   2.492   2.427
    1C        C  173   3.619   2.498   2.547
    1C        C  174   3.827   2.547   2.665
    1C        C  175   3.691   2.509   2.668
    1C        C  176   3.895   2.566   2.787
    1C        C  177   3.831   2.545   2.912
    1C        C  178   4.027   2.626   3.034
    1C        C  179   3.901   2.561   3.033
    1C        C  180   4.087   2.666   3.156
    1C        C  181   4.023   2.631   3.277
    1C        C  182   4.196   2.755   3.400
    1C        C  183   4.084   2.669   3.399
    1C        C  184   4.251   2.805   3.520
    1C        C  185   4.195   2.762   3.643
    1C        C  186   4.343   2.914   3.767
    1C        C  187   4.250   2.808   3.764
    1C        C  188   4.384   2.978   3.886
    1C        C  189   4.339   2.921   4.007
    1C        C  190   4.448   3.105   4.127
    1C        C  191   4.382   2.981   4.128
    1C        C  192   4.472   3.172   4.250
    1C        C  193   4.446   3.108   4.373
    1C        C  194   4.512   3.314   4.490
    1C        C  195   4.473   3.178   4.492
    1C        C  196   4.523   3.387   4.610
    1C        C  197   4.506   3.321   4.734
    1C        C  198   4.559   3.534   4.848
    1C        C  199   4.530   3.394   4.854
    1C        C  200   4.582   3.619   4.961
    1C        C  201   3.616   2.421   2.074
    1C        C  202   3.827   2.515   2.181
    1C        C  203   3.693   2.465   2.186
    1C        C  204   3.897   2.543   2.301
    1C        C  205   3.831   2.521   2.424
    1C        C  206   4.023   2.620   2.544
    1C        C  207   3.899   2.551   2.544
    1C        C  208   4.085   2.655   2.666
    1C        C  209   4.022   2.627   2.789
    1C        C  210   4.199   2.747   2.908
    1C        C  211   4.085   2.663   2.911
    1C        C  212   4.248   2.799   3.029
    1C        C  213   4.198   2.753   3.153
    1C        C  214   4.335   2.912   3.275
    1C        C  215   4.247   2.801   3.277
    1C        C  216   4.379   2.971   3.396
    1C        C  217   4.343   2.913   3.520
    1C        C  218   4.440   3.098   3.638
    1C        C  219   4.380   2.971   3.643
    1C        C  220   4.470   3.167   3.758
    1C        C  221   4.452   3.102   3.882
    1C        C  222   4.506   3.306   4.004
    1C        C  223   4.478   3.168   4.004
    1C        C  224   4.521   3.379   4.124
    1C        C  225   4.509   3.308   4.246
    1C        C  226   4.524   3.523   4.364
    1C        C  227   4.516   3.382   4.366
    1C        C  228   4.518   3.596   4.485
    1C        C  229   4.527   3.528   4.609
    1C        C  230   4.499   3.741   4.725
    1C        C  231   4.538   3.604   4.727
    1C        C  232   4.494   3.817   4.844
    1C        C  233   4.543   3.753   4.959
    1C        C  234   4.018   2.608   2.061
    1C        C  235   3.899   2.537   2.063
    1C        C  236   4.082   2.648   2.178
    1C        C  237   4.023   2.610   2.301
    1C        C  238   4.203   2.729   2.422
    1C        C  239   4.085   2.650   2.421
    1C        C  240   4.259   2.778   2.542
    1C        C  241   4.196   2.743   2.663
    1C        C  242   4.341   2.900   2.786
    1C        C  243   4.250   2.792   2.784
    1C        C  244   4.384   2.960   2.906
    1C        C  245   4.338   2.908   3.029
    1C        C  246   4.444   3.090   3.148
    1C        C  247   4.379   2.965   3.152
    1C        C  248   4.463   3.160   3.270
    1C        C  249   4.436   3.100   3.395
    1C        C  250   4.498   3.303   3.515
    1C        C  251   4.463   3.167   3.516
    1C        C  252   4.514   3.374   3.637
    1C        C  253   4.504   3.304   3.759
    1C        C  254   4.524   3.516   3.878
    1C        C  255   4.518   3.375   3.881
    1C        C  256   4.521   3.588   3.999
    1C        C  257   4.522   3.520   4.123
    1C        C  258   4.487   3.733   4.241
    1C        C  259   4.514   3.594   4.243
    1C        C  260   4.467   3.803   4.361
    1C        C  261   4.483   3.733   4.483
    1C        C  262   4.418   3.938   4.603
    1C        C  263   4.466   3.805   4.603
    1C        C  264   4.395   4.008   4.723
    1C        C  265   4.427   3.941   4.844
    1C        C  266   4.322   4.132   4.958
    1C        C  267   4.388   4.010   4.960
    1C        C  268   4.270   2.770   2.066
    1C        C  269   4.199   2.728   2.179
    1C        C  270   4.344   2.886   2.300
    1C        C  271   4.256   2.775   2.299
    1C        C  272   4.383   2.950   2.420
    1C        C  273   4.346   2.889   2.542
    1C        C  274   4.448   3.079   2.660
    1C        C  275   4.384   2.954   2.662
    1C        C  276   4.472   3.150   2.780
    1C        C  277   4.450   3.085   2.904
    1C        C  278   4.507   3.290   3.025
    1C        C  279   4.475   3.152   3.025
    1C        C  280   4.514   3.363   3.145
    1C        C  281   4.503   3.295   3.268
    1C        C  282   4.520   3.507   3.387
    1C        C  283   4.514   3.366   3.390
    1C        C  284   4.513   3.581   3.508
    1C        C  285   4.517   3.516   3.633
    1C        C  286   4.489   3.725   3.752
    1C        C  287   4.513   3.586   3.756
    1C        C  288   4.471   3.795   3.874
    1C        C  289   4.491   3.726   3.996
    1C        C  290   4.423   3.930   4.117
    1C        C  291   4.474   3.798   4.116
    1C        C  292   4.397   3.999   4.237
    1C        C  293   4.424   3.938   4.362
    1C        C  294   4.323   4.128   4.480
    1C        C  295   4.392   4.005   4.482
    1C        C  296   4.282   4.189   4.601
    1C        C  297   4.326   4.132   4.722
    1C        C  298   4.200   4.314   4.840
    1C        C  299   4.284   4.199   4.841
    1C        C  300   4.172   4.409   4.944
    1C        C  301   4.357   2.878   2.064
    1C        C  302   4.470   3.067   2.177
    1C        C  303   4.400   2.942   2.181
    1C        C  304   4.483   3.141   2.298
    1C        C  305   4.450   3.075   2.418
    1C        C  306   4.511   3.282   2.534
    1C        C  307   4.475   3.146   2.538
    1C        C  308   4.518   3.356   2.654
    1C        C  309   4.502   3.288   2.777
    1C        C  310   4.521   3.497   2.898
    1C        C  311   4.515   3.356   2.900
    1C        C  312   4.516   3.572   3.018
    1C        C  313   4.511   3.505   3.142
    1C        C  314   4.480   3.714   3.262
    1C        C  315   4.509   3.576   3.264
    1C        C  316   4.467   3.785   3.383
    1C        C  317   4.489   3.720   3.507
    1C        C  318   4.423   3.924   3.628
    1C        C  319   4.470   3.790   3.628
    1C        C  320   4.395   3.990   3.749
    1C        C  321   4.420   3.926   3.873
    1C        C  322   4.317   4.113   3.991
    1C        C  323   4.393   3.993   3.994
    1C        C  324   4.278   4.172   4.113
    1C        C  325   4.324   4.120   4.236
    1C        C  326   4.186   4.286   4.354
    1C        C  327   4.283   4.182   4.355
    1C        C  328   4.135   4.337   4.475
    1C        C  329   4.189   4.296   4.599
    1C        C  330   4.026   4.439   4.714
    1C        C  331   4.137   4.350   4.718
    1C        C  332   3.972   4.498   4.831
    1C        C  333   4.053   4.483   4.945
    1C        C  334   4.560   3.262   2.065
    1C        C  335   4.538   3.124   2.065
    1C        C  336   4.536   3.349   2.173
    1C        C  337   4.509   3.280   2.293
    1C        C  338   4.527   3.494   2.411
    1C        C  339   4.528   3.353   2.413
    1C        C  340   4.522   3.568   2.531
    1C        C  341   4.522   3.497   2.653
    1C        C  342   4.487   3.705   2.770
    1C        C  343   4.516   3.567   2.775
    1C        C  344   4.470   3.777   2.891
    1C        C  345   4.490   3.711   3.014
    1C        C  346   4.425   3.912   3.137
    1C        C  347   4.468   3.777   3.136
    1C        C  348   4.394   3.977   3.258
    1C        C  349   4.421   3.918   3.384
    1C        C  350   4.321   4.107   3.503
    1C        C  351   4.393   3.986   3.505
    1C        C  352   4.279   4.168   3.624
    1C        C  353   4.322   4.111   3.746
    1C        C  354   4.179   4.269   3.866
    1C        C  355   4.276   4.166   3.868
    1C        C  356   4.128   4.322   3.987
    1C        C  357   4.181   4.276   4.110
    1C        C  358   4.015   4.409   4.231
    1C        C  359   4.131   4.327   4.231
    1C        C  360   3.954   4.449   4.352
    1C        C  361   4.019   4.418   4.473
    1C        C  362   3.830   4.520   4.593
    1C        C  363   3.961   4.467   4.592
    1C        C  364   3.761   4.548   4.713
    1C        C  365   3.839   4.544   4.830
    1C        C  366   3.631   4.596   4.945
    1C        C  367   3.768   4.573   4.947
    1C        C  368   4.509   3.564   2.053
    1C        C  369   4.520   3.489   2.171
    1C        C  370   4.502   3.706   2.287
    1C        C  371   4.522   3.566   2.289
    1C        C  372   4.485   3.779   2.407
    1C        C  373   4.498   3.707   2.528
    1C        C  374   4.424   3.908   2.649
    1C        C  375   4.477   3.777   2.649
    1C        C  376   4.392   3.973   2.770
    1C        C  377   4.422   3.910   2.893
    1C        C  378   4.319   4.095   3.015
    1C        C  379   4.396   3.976   3.014
    1C        C  380   4.279   4.156   3.136
    1C        C  381   4.321   4.098   3.258
    1C        C  382   4.179   4.259   3.377
    1C        C  383   4.276   4.156   3.379
    1C        C  384   4.124   4.305   3.498
    1C        C  385   4.177   4.266   3.623
    1C        C  386   4.009   4.396   3.743
    1C        C  387   4.126   4.317   3.744
    1C        C  388   3.948   4.434   3.865
    1C        C  389   4.011   4.400   3.987
    1C        C  390   3.817   4.488   4.108
    1C        C  391   3.948   4.434   4.109
    1C        C  392   3.751   4.513   4.230
    1C        C  393   3.824   4.505   4.351
    1C        C  394   3.618   4.552   4.473
    1C        C  395   3.758   4.532   4.472
    1C        C  396   3.547   4.563   4.594
    1C        C  397   3.620   4.561   4.715
    1C        C  398   3.408   4.551   4.839
    1C        C  399   3.547   4.572   4.835
    1C        C  400   3.339   4.517   4.956
    1C        C  401   4.500   3.703   2.051
    1C        C  402   4.453   3.915   2.167
    1C        C  403   4.498   3.781   2.167
    1C        C  404   4.411   3.977   2.287
    1C        C  405   4.439   3.912   2.409
    1C        C  406   4.325   4.097   2.527
    1C        C  407   4.396   3.975   2.528
    1C        C  408   4.279   4.152   2.649
    1C        C  409   4.318   4.094   2.771
    1C        C  410   4.174   4.250   2.889
    1C        C  411   4.272   4.148   2.893
    1C        C  412   4.124   4.298   3.012
    1C        C  413   4.177   4.253   3.135
    1C        C  414   4.003   4.378   3.253
    1C        C  415   4.123   4.303   3.255
    1C        C  416   3.943   4.413   3.376
    1C        C  417   4.007   4.385   3.499
    1C        C  418   3.815   4.475   3.620
    1C        C  419   3.949   4.430   3.620
    1C        C  420   3.750   4.500   3.742
    1C        C  421   3.817   4.487   3.865
    1C        C  422   3.609   4.530   3.986
    1C        C  423   3.749   4.512   3.987
    1C        C  424   3.540   4.536   4.109
    1C        C  425   3.611   4.529   4.231
    1C        C  426   3.401   4.541   4.358
    1C        C  427   3.542   4.543   4.354
    1C        C  428   3.329   4.539   4.479
    1C        C  429   3.406   4.552   4.597
    1C        C  430   3.197   4.510   4.725
    1C        C  431   3.335   4.546   4.718
    1C        C  432   3.124   4.492   4.846
    1C        C  433   3.201   4.495   4.963
    1C        C  434   4.383   4.120   2.050
    1C        C  435   4.449   3.997   2.054
    1C        C  436   4.306   4.164   2.163
    1C        C  437   4.334   4.097   2.285
    1C        C  438   4.180   4.250   2.402
    1C        C  439   4.280   4.150   2.404
    1C        C  440   4.127   4.299   2.523
    1C        C  441   4.179   4.251   2.645
    1C        C  442   4.006   4.377   2.764
    1C        C  443   4.121   4.296   2.767
    1C        C  444   3.945   4.412   2.887
    1C        C  445   4.007   4.378   3.009
    1C        C  446   3.811   4.464   3.129
    1C        C  447   3.942   4.411   3.130
    1C        C  448   3.747   4.491   3.252
    1C        C  449   3.815   4.471   3.375
    1C        C  450   3.608   4.518   3.499
    1C        C  451   3.746   4.488   3.497
    1C        C  452   3.538   4.533   3.620
    1C        C  453   3.611   4.528   3.741
    1C        C  454   3.399   4.541   3.865
    1C        C  455   3.540   4.540   3.863
    1C        C  456   3.332   4.527   3.988
    1C        C  457   3.399   4.536   4.112
    1C        C  458   3.195   4.495   4.238
    1C        C  459   3.332   4.530   4.236
    1C        C  460   3.124   4.482   4.360
    1C        C  461   3.192   4.505   4.482
    1C        C  462   2.996   4.434   4.604
    1C        C  463   3.126   4.489   4.605
    1C        C  464   2.928   4.400   4.723
    1C        C  465   2.990   4.443   4.844
    1C        C  466   2.802   4.333   4.964
    1C        C  467   2.908   4.425   4.960
    1C        C  468   4.118   4.278   2.043
    1C        C  469   4.188   4.245   2.160
    1C        C  470   4.005   4.366   2.278
    1C        C  471   4.129   4.296   2.279
    1C        C  472   3.941   4.401   2.399
    1C        C  473   4.008   4.375   2.521
    1C        C  474   3.812   4.462   2.643
    1C        C  475   3.944   4.411   2.642
    1C        C  476   3.744   4.484   2.765
    1C        C  477   3.813   4.462   2.886
    1C        C  478   3.607   4.518   3.011
    1C        C  479   3.745   4.489   3.007
    1C        C  480   3.536   4.526   3.133
    1C        C  481   3.608   4.515   3.254
    1C        C  482   3.397   4.524   3.376
    1C        C  483   3.538   4.526   3.376
    1C        C  484   3.326   4.524   3.498
    1C        C  485   3.397   4.535   3.620
    1C        C  486   3.190   4.497   3.745
    1C        C  487   3.328   4.528   3.743
    1C        C  488   3.128   4.475   3.870
    1C        C  489   3.193   4.498   3.993
    1C        C  490   2.998   4.418   4.117
    1C        C  491   3.128   4.474   4.115
    1C        C  492   2.936   4.387   4.240
    1C        C  493   2.993   4.430   4.361
    1C        C  494   2.823   4.305   4.483
    1C        C  495   2.935   4.390   4.484
    1C        C  496   2.770   4.259   4.606
    1C        C  497   2.812   4.317   4.728
    1C        C  498   2.665   4.163   4.846
    1C        C  499   2.752   4.274   4.848
    1C        C  500   2.598   4.111   4.958
    1C        C  501   3.998   4.346   2.041
    1C        C  502   3.814   4.462   2.156
    1C        C  503   3.940   4.399   2.157
    1C        C  504   3.744   4.479   2.277
    1C        C  505   3.811   4.456   2.399
    1C        C  506   3.605   4.509   2.521
    1C        C  507   3.744   4.483   2.521
    1C        C  508   3.535   4.514   2.644
    1C        C  509   3.605   4.505   2.766
    1C        C  510   3.395   4.520   2.886
    1C        C  511   3.536   4.521   2.888
    1C        C  512   3.324   4.515   3.009
    1C        C  513   3.395   4.528   3.131
    1C        C  514   3.188   4.492   3.256
    1C        C  515   3.326   4.521   3.254
    1C        C  516   3.122   4.469   3.378
    1C        C  517   3.190   4.490   3.501
    1C        C  518   2.995   4.412   3.624
    1C        C  519   3.122   4.473   3.623
    1C        C  520   2.939   4.376   3.749
    1C        C  521   3.002   4.410   3.871
    1C        C  522   2.831   4.288   3.996
    1C        C  523   2.942   4.375   3.994
    1C        C  524   2.782   4.243   4.120
    1C        C  525   2.825   4.300   4.242
    1C        C  526   2.689   4.136   4.366
    1C        C  527   2.773   4.249   4.364
    1C        C  528   2.652   4.078   4.489
    1C        C  529   2.688   4.144   4.608
    1C        C  530   2.584   3.958   4.733
    1C        C  531   2.636   4.091   4.729
    1C        C  532   2.538   3.900   4.854
    1C        C  533   2.525   3.992   4.963
    1C        C  534   3.618   4.552   2.040
    1C        C  535   3.751   4.507   2.039
    1C        C  536   3.535   4.533   2.155
    1C        C  537   3.605   4.509   2.277
    1C        C  538   3.393   4.511   2.401
    1C        C  539   3.535   4.514   2.399
    1C        C  540   3.323   4.505   2.524
    1C        C  541   3.393   4.511   2.646
    1C        C  542   3.182   4.482   2.768
    1C        C  543   3.320   4.509   2.767
    1C        C  544   3.118   4.462   2.892
    1C        C  545   3.187   4.482   3.013
    1C        C  546   2.990   4.407   3.134
    1C        C  547   3.118   4.466   3.136
    1C        C  548   2.936   4.368   3.258
    1C        C  549   2.994   4.408   3.380
    1C        C  550   2.826   4.281   3.505
    1C        C  551   2.934   4.372   3.503
    1C        C  552   2.779   4.233   3.629
    1C        C  553   2.832   4.284   3.750
    1C        C  554   2.698   4.123   3.878
    1C        C  555   2.783   4.235   3.874
    1C        C  556   2.659   4.066   4.001
    1C        C  557   2.697   4.130   4.121
    1C        C  558   2.599   3.943   4.246
    1C        C  559   2.659   4.071   4.244
    1C        C  560   2.569   3.880   4.369
    1C        C  561   2.594   3.949   4.489
    1C        C  562   2.529   3.750   4.616
    1C        C  563   2.566   3.886   4.613
    1C        C  564   2.507   3.680   4.737
    1C        C  565   2.511   3.759   4.854
    1C        C  566   2.524   3.547   4.976
    1C        C  567   2.524   3.686   4.973
    1C        C  568   3.324   4.481   2.042
    1C        C  569   3.395   4.508   2.159
    1C        C  570   3.182   4.473   2.281
    1C        C  571   3.321   4.504   2.280
    1C        C  572   3.116   4.450   2.404
    1C        C  573   3.184   4.480   2.524
    1C        C  574   2.987   4.400   2.648
    1C        C  575   3.113   4.464   2.645
    1C        C  576   2.927   4.362   2.770
    1C        C  577   2.993   4.395   2.890
    1C        C  578   2.822   4.274   3.017
    1C        C  579   2.929   4.366   3.013
    1C        C  580   2.775   4.224   3.140
    1C        C  581   2.828   4.276   3.261
    1C        C  582   2.689   4.117   3.386
    1C        C  583   2.782   4.225   3.384
    1C        C  584   2.654   4.063   3.512
    1C        C  585   2.693   4.120   3.635
    1C        C  586   2.592   3.936   3.758
    1C        C  587   2.653   4.063   3.758
    1C        C  588   2.571   3.873   3.883
    1C        C  589   2.598   3.938   4.005
    1C        C  590   2.529   3.738   4.126
    1C        C  591   2.569   3.873   4.127
    1C        C  592   2.521   3.673   4.251
    1C        C  593   2.531   3.744   4.373
    1C        C  594   2.519   3.535   4.497
    1C        C  595   2.517   3.676   4.496
    1C        C  596   2.513   3.463   4.619
    1C        C  597   2.507   3.538   4.738
    1C        C  598   2.528   3.327   4.861
    1C        C  599   2.517   3.467   4.861
    1C        C  600   2.526   3.246   4.975
    1C        C  601   3.193   4.437   2.045
    1C        C  602   2.979   4.393   2.161
    1C        C  603   3.115   4.438   2.161
    1C        C  604   2.923   4.352   2.285
    1C        C  605   2.987   4.394   2.404
    1C        C  606   2.817   4.270   2.529
    1C        C  607   2.927   4.359   2.527
    1C        C  608   2.766   4.222   2.651
    1C        C  609   2.817   4.273   2.772
    1C        C  610   2.687   4.108   2.895
    1C        C  611   2.771   4.222   2.896
    1C        C  612   2.651   4.051   3.018
    1C        C  613   2.689   4.112   3.140
    1C        C  614   2.591   3.929   3.266
    1C        C  615   2.649   4.058   3.264
    1C        C  616   2.569   3.868   3.391
    1C        C  617   2.594   3.935   3.513
    1C        C  618   2.535   3.733   3.636
    1C        C  619   2.570   3.870   3.635
    1C        C  620   2.519   3.667   3.760
    1C        C  621   2.529   3.738   3.882
    1C        C  622   2.516   3.526   4.010
    1C        C  623   2.520   3.667   4.004
    1C        C  624   2.519   3.458   4.134
    1C        C  625   2.514   3.531   4.255
    1C        C  626   2.543   3.322   4.381
    1C        C  627   2.517   3.460   4.377
    1C        C  628   2.562   3.251   4.502
    1C        C  629   2.536   3.324   4.621
    1C        C  630   2.598   3.119   4.744
    1C        C  631   2.551   3.253   4.742
    1C        C  632   2.621   3.048   4.865
    1C        C  633   2.566   3.111   4.981
    1C        C  634   2.783   4.301   2.055
    1C        C  635   2.889   4.393   2.050
    1C        C  636   2.743   4.229   2.169
    1C        C  637   2.804   4.274   2.288
    1C        C  638   2.673   4.109   2.412
    1C        C  639   2.757   4.222   2.410
    1C        C  640   2.633   4.051   2.534
    1C        C  641   2.679   4.110   2.654
    1C        C  642   2.580   3.921   2.776
    1C        C  643   2.643   4.048   2.775
    1C        C  644   2.559   3.857   2.900
    1C        C  645   2.588   3.925   3.021
    1C        C  646   2.528   3.725   3.147
    1C        C  647   2.562   3.862   3.145
    1C        C  648   2.519   3.660   3.272
    1C        C  649   2.533   3.731   3.393
    1C        C  650   2.518   3.519   3.518
    1C        C  651   2.521   3.660   3.515
    1C        C  652   2.515   3.453   3.643
    1C        C  653   2.516   3.526   3.764
    1C        C  654   2.547   3.318   3.891
    1C        C  655   2.524   3.457   3.887
    1C        C  656   2.553   3.249   4.014
    1C        C  657   2.540   3.318   4.137
    1C        C  658   2.607   3.118   4.256
    1C        C  659   2.561   3.252   4.260
    1C        C  660   2.634   3.053   4.379
    1C        C  661   2.607   3.117   4.502
    1C        C  662   2.715   2.936   4.625
    1C        C  663   2.636   3.054   4.624
    1C        C  664   2.752   2.876   4.747
    1C        C  665   2.703   2.931   4.868
    1C        C  666   2.750   2.871   4.985
    1C        C  667   2.677   4.025   2.055
    1C        C  668   2.673   4.107   2.169
    1C        C  669   2.585   3.913   2.293
    1C        C  670   2.638   4.045   2.291
    1C        C  671   2.557   3.848   2.415
    1C        C  672   2.580   3.920   2.535
    1C        C  673   2.512   3.718   2.660
    1C        C  674   2.549   3.854   2.656
    1C        C  675   2.505   3.650   2.783
    1C        C  676   2.527   3.720   2.904
    1C        C  677   2.512   3.510   3.030
    1C        C  678   2.519   3.651   3.027
    1C        C  679   2.506   3.443   3.154
    1C        C  680   2.512   3.519   3.273
    1C        C  681   2.534   3.308   3.402
    1C        C  682   2.521   3.449   3.396
    1C        C  683   2.554   3.242   3.525
    1C        C  684   2.540   3.314   3.646
    1C        C  685   2.611   3.116   3.770
    1C        C  686   2.560   3.248   3.769
    1C        C  687   2.641   3.054   3.894
    1C        C  688   2.606   3.118   4.015
    1C        C  689   2.716   2.934   4.137
    1C        C  690   2.642   3.054   4.135
    1C        C  691   2.759   2.880   4.261
    1C        C  692   2.711   2.935   4.382
    1C        C  693   2.756   2.878   4.503
    1C        C  694   2.633   3.893   2.062
    1C        C  695   2.533   3.700   2.178
    1C        C  696   2.575   3.835   2.176
    1C        C  697   2.502   3.636   2.300
    1C        C  698   2.520   3.712   2.418
    1C        C  699   2.490   3.503   2.543
    1C        C  700   2.502   3.643   2.540
    1C        C  701   2.504   3.435   2.667
    1C        C  702   2.500   3.509   2.787
    1C        C  703   2.528   3.297   2.913
    1C        C  704   2.505   3.437   2.909
    1C        C  705   2.545   3.233   3.037
    1C        C  706   2.531   3.304   3.159
    1C        C  707   2.595   3.102   3.280
    1C        C  708   2.548   3.236   3.281
    1C        C  709   2.629   3.042   3.403
    1C        C  710   2.606   3.111   3.525
    1C        C  711   2.710   2.928   3.650
    1C        C  712   2.638   3.050   3.648
    1C        C  713   2.755   2.873   3.772
    1C        C  714   2.719   2.936   3.892
    1C        C  715   2.756   2.876   4.015
    1C        C  716   2.454   3.498   2.061
    1C        C  717   2.489   3.633   2.063
    1C        C  718   2.458   3.421   2.181
    1C        C  719   2.474   3.497   2.300
    1C        C  720   2.525   3.292   2.423
    1C        C  721   2.492   3.429   2.423
    1C        C  722   2.537   3.224   2.547
    1C        C  723   2.523   3.295   2.668
    1C        C  724   2.596   3.097   2.791
    1C        C  725   2.547   3.229   2.791
    1C        C  726   2.618   3.032   2.914
    1C        C  727   2.588   3.098   3.036
    1C        C  728   2.703   2.920   3.159
    1C        C  729   2.622   3.036   3.158
    1C        C  730   2.749   2.869   3.283
    1C        C  731   2.710   2.926   3.406
    1C        C  732   2.753   2.870   3.528
    1C        C  733   2.490   3.199   2.072
    1C        C  734   2.483   3.280   2.186
    1C        C  735   2.580   3.084   2.304
    1C        C  736   2.525   3.215   2.305
    1C        C  737   2.609   3.018   2.426
    1C        C  738   2.587   3.092   2.544
    1C        C  739   2.699   2.915   2.671
    1C        C  740   2.621   3.032   2.667
    1C        C  741   2.742   2.858   2.793
    1C        C  742   2.695   2.914   2.914
    1C        C  743   2.744   2.863   3.037
    1C        C  744   2.539   3.069   2.074
    1C        C  745   2.679   2.894   2.190
    1C        C  746   2.604   3.013   2.185
    1C        C  747   2.729   2.838   2.310
    1C        C  748   2.684   2.898   2.429
    1C        C  749   2.737   2.850   2.551
    1C        C  750   2.725   2.837   2.070
    1C        C  751   3.657   2.305   1.992
    1C        O  752   3.625   2.189   2.030
    1C        O  753   3.653   2.305   1.852
    1C        C  754   4.637   3.050   1.983
    1C        O  755   4.621   3.047   1.858
    1C        O  756   4.737   2.970   2.038
    1C        C  757   4.440   4.207   1.945
    1C        O  758   4.485   4.321   1.978
    1C        O  759   4.428   4.170   1.811
    1C        C  760   3.600   4.676   1.961
    1C        O  761   3.616   4.786   2.020
    1C        O  762   3.636   4.681   1.826
    1C        C  763   2.862   4.513   1.968
    1C        O  764   2.876   4.527   1.844
    1C        O  765   2.760   4.599   2.008
    1C        C  766   2.344   3.488   1.962
    1C        O  767   2.370   3.471   1.840
    1C        O  768   2.209   3.513   1.990
    1C        C  769   4.687   3.595   5.063
    1C        O  770   4.674   3.624   5.185
    1C        O  771   4.821   3.565   5.033
    1C        C  772   4.272   4.462   5.039
    1C        O  773   4.293   4.409   5.151
    1C        O  774   4.367   4.557   5.001
    1C        C  775   4.148   2.508   5.058
    1C        O  776   4.229   2.422   5.014
    1C        O  777   4.135   2.487   5.196
    1C        C  778   2.866   4.548   5.030
    1C        O  779   2.772   4.619   4.987
    1C        O  780   2.909   4.578   5.160
    1C        C  781   2.469   3.030   5.058
    1C        O  782   2.351   3.009   5.018
    1C        O  783   2.490   3.001   5.192
    1C        C  784   2.403   3.995   5.047
    1C        O  785   2.311   4.063   4.994
    1C        O  786   2.412   3.994   5.186
    1C        C  787   2.948   2.440   1.988
    1C        O  788   2.903   2.501   1.888
    1C        O  789   2.946   2.301   1.982
    1C        C  790   3.210   2.405   5.093
    1C        O  791   3.184   2.282   5.081
    1C        O  792   3.199   2.459   5.222
    1C        H  793   4.305   3.018   5.063
    1C        H  794   4.170   2.822   5.071
    1C        H  795   4.544   3.125   5.035
    1C        H  796   4.528   3.372   5.065
    1C        H  797   4.557   3.812   5.047
    1C        H  798   4.401   3.966   5.056
    1C        H  799   4.263   4.151   5.046
    1C        H  800   4.017   4.503   5.044
    1C        H  801   3.808   4.571   5.047
    1C        H  802   3.586   4.642   5.031
    1C        H  803   3.388   4.463   5.034
    1C        H  804   3.151   4.518   5.055
    1C        H  805   3.903   2.474   5.062
    1C        H  806   3.677   2.420   5.060
    1C        H  807   2.990   2.526   5.048
    1C        H  808   3.454   2.539   5.073
    1C        H  809   2.905   2.768   5.073
    1C        H  810   2.684   2.872   5.070
    1C        H  811   2.460   3.282   5.051
    1C        H  812   2.484   3.504   5.065
    1C        H  813   2.573   3.730   5.058
    1C        H  814   2.623   4.157   5.052
    1C        H  815   2.734   4.343   5.046
    1C        H  816   2.684   2.873   1.978
    1C        H  817   2.874   2.725   1.981
    1C        H  818   3.222   2.471   1.989
    1C        H  819   3.435   2.484   1.984
    1C        H  820   3.891   2.461   1.988
    1C        H  821   4.051   2.637   1.963
    1C        H  822   4.261   2.717   1.973
    1C        H  823   4.398   2.913   1.972
    1C        H  824   4.605   3.313   1.982
    1C        H  825   4.492   3.519   1.958
    1C        H  826   4.498   3.752   1.956
    1C        H  827   3.777   4.461   1.946
    1C        H  828   3.962   4.373   1.944
    1C        H  829   4.163   4.265   1.946
    1C        H  830   4.526   3.983   1.981
    1C        H  831   2.656   3.829   1.979
    1C        H  832   2.690   4.062   1.955
    1C        H  833   2.730   4.283   1.964
    1C        H  834   3.383   4.483   1.953
    1C        H  835   3.163   4.369   1.968
    1C        H  836   2.497   3.005   1.999
    1C        H  837   2.452   3.242   1.981
    1C        H  838   2.466   3.696   1.979
    2V3OU   H29  839   2.807   3.551   4.680
    2V3OU   C27  840   2.797   3.503   4.781
    2V3OU   H27  841   2.734   3.573   4.842
    2V3OU   H28  842   2.746   3.405   4.764
    2V3OU   O11  843   2.919   3.470   4.848
    2V3OU   C15  844   2.922   3.400   4.967
    2V3OU   C13  845   3.051   3.382   5.019
    2V3OU   C14  846   3.075   3.276   5.108
    2V3OU   C16  847   2.974   3.189   5.150
    2V3OU    H6  848   2.993   3.103   5.215
    2V3OU   C12  849   3.212   3.232   5.143
    2V3OU    O2  850   3.238   3.129   5.209
    2V3OU   C10  851   3.327   3.307   5.091
    2V3OU    C8  852   3.458   3.265   5.106
    2V3OU   O10  853   3.487   3.156   5.183
    2V3OU   H26  854   3.402   3.112   5.199
    2V3OU    C6  855   3.565   3.347   5.061
    2V3OU    C5  856   3.539   3.470   5.000
    2V3OU    C4  857   3.703   3.292   5.067
    2V3OU    H4  858   3.726   3.227   5.157
    2V3OU    H5  859   3.716   3.225   4.977
    2V3OU    C2  860   3.816   3.395   5.061
    2V3OU    O6  861   3.811   3.479   5.177
    2V3OU   H21  862   3.764   3.555   5.140
    2V3OU    C3  863   3.784   3.498   4.951
    2V3OU    H2  864   3.865   3.575   4.946
    2V3OU    H3  865   3.783   3.440   4.856
    2V3OU   C25  866   3.950   3.324   5.040
    2V3OU    O7  867   4.001   3.301   4.931
    2V3OU   C26  868   4.028   3.290   5.166
    2V3OU   H22  869   4.062   3.385   5.214
    2V3OU   H23  870   4.116   3.225   5.141
    2V3OU    O8  871   3.956   3.210   5.257
    2V3OU   H24  872   3.929   3.272   5.326
    2V3OU    C1  873   3.650   3.567   4.969
    2V3OU    H1  874   3.624   3.620   4.873
    2V3OU    O3  875   3.664   3.656   5.080
    2V3OU   C19  876   3.620   3.792   5.072
    2V3OU    H9  877   3.524   3.804   5.013
    2V3OU    O4  878   3.716   3.847   4.986
    2V3OU   C20  879   3.846   3.874   5.040
    2V3OU   H10  880   3.885   3.769   5.052
    2V3OU   C24  881   3.607   3.857   5.210
    2V3OU   H16  882   3.539   3.794   5.273
    2V3OU   H17  883   3.564   3.958   5.189
    2V3OU   C23  884   3.748   3.873   5.268
    2V3OU   H15  885   3.791   3.768   5.278
    2V3OU    N1  886   3.736   3.958   5.385
    2V3OU   H19  887   3.810   3.918   5.439
    2V3OU   H20  888   3.646   3.946   5.427
    2V3OU   C21  889   3.848   3.947   5.175
    2V3OU   H11  890   3.953   3.926   5.212
    2V3OU    O5  891   3.829   4.088   5.167
    2V3OU   H18  892   3.783   4.102   5.252
    2V3OU   C22  893   3.913   3.952   4.929
    2V3OU   H12  894   3.864   4.052   4.917
    2V3OU   H13  895   3.909   3.893   4.834
    2V3OU   H14  896   4.021   3.970   4.952
    2V3OU   C11  897   3.162   3.472   4.985
    2V3OU    O1  898   3.139   3.588   4.944
    2V3OU    C9  899   3.298   3.428   5.022
    2V3OU    C7  900   3.403   3.508   4.979
    2V3OU    O9  901   3.382   3.623   4.905
    2V3OU   H25  902   3.287   3.635   4.891
    2V3OU   C17  903   2.824   3.315   5.023
    2V3OU    H7  904   2.726   3.353   5.048
    2V3OU   C18  905   2.843   3.207   5.108
    2V3OU    H8  906   2.756   3.153   5.150
    3SOL     OW  907   3.397   4.020   4.958
    3SOL    HW1  908   3.391   4.059   5.050
    3SOL    HW2  909   3.313   3.971   4.936
    4SOL     OW  910   6.944   0.388   0.478
    4SOL    HW1  911   6.849   0.364   0.498
    4SOL    HW2  912   6.956   0.397   0.379
    5SOL     OW  913   4.378   1.048   1.221
    5SOL    HW1  914   4.310   1.121   1.233
    5SOL    HW2  915   4.372   0.984   1.297
    6SOL     OW  916   5.630   0.726   3.308
    6SOL    HW1  917   5.564   0.764   3.373
    6SOL    HW2  918   5.713   0.781   3.309
    7SOL     OW  919   0.962   4.308   5.045
    7SOL    HW1  920   0.914   4.328   4.960
    7SOL    HW2  921   0.905   4.336   5.123
    8SOL     OW  922   2.027   2.476   5.629
    8SOL    HW1  923   1.963   2.466   5.706
    8SOL    HW2  924   2.028   2.571   5.599
    9SOL     OW  925   6.234   1.532   6.493
    9SOL    HW1  926   6.209   1.605   6.557
    9SOL    HW2  927   6.241   1.569   6.401
   10SOL     OW  928   5.139   4.567   2.654
   10SOL    HW1  929   5.088   4.559   2.569
   10SOL    HW2  930   5.230   4.528   2.643
   11SOL     OW  931   2.039   1.518   0.317
   11SOL    HW1  932   2.022   1.510   0.416
   11SOL    HW2  933   2.077   1.432   0.283
   12SOL     OW  934   2.922   4.801   3.455
   12SOL    HW1  935   2.892   4.895   3.470
   12SOL    HW2  936   2.846   4.739   3.478
   13SOL     OW  937   4.647   6.006   2.386
   13SOL    HW1  938   4.560   6.041   2.420
   13SOL    HW2  939   4.670   5.921   2.433
   14SOL     OW  940   4.967   4.633   5.038
   14SOL    HW1  941   4.887   4.689   5.061
   14SOL    HW2  942   4.943   4.536   5.049
   15SOL     OW  943   0.589   5.584   5.717
   15SOL    HW1  944   0.502   5.535   5.712
   15SOL    HW2  945   0.646   5.559   5.639
   16SOL     OW  946   6.752   2.783   5.839
   16SOL    HW1  947   6.783   2.740   5.924
   16SOL    HW2  948   6.784   2.878   5.836
   17SOL     OW  949   6.297   0.393   5.910
   17SOL    HW1  950   6.297   0.480   5.860
   17SOL    HW2  951   6.248   0.324   5.857
   18SOL     OW  952   3.245   0.047   5.002
   18SOL    HW1  953   3.261   0.062   4.905
   18SOL    HW2  954   3.151   0.070   5.025
   19SOL     OW  955   0.871   1.565   3.235
   19SOL    HW1  956   0.864   1.650   3.287
   19SOL    HW2  957   0.861   1.585   3.137
   20SOL     OW  958   5.555   2.901   5.387
   20SOL    HW1  959   5.498   2.849   5.450
   20SOL    HW2  960   5.623   2.954   5.438
   21SOL     OW  961   4.252   6.624   2.719
   21SOL    HW1  962   4.238   6.680   2.637
   21SOL    HW2  963   4.301   6.678   2.788
   22SOL     OW  964   2.254   6.222   5.116
   22SOL    HW1  965   2.219   6.315   5.111
   22SOL    HW2  966   2.271   6.197   5.211
   23SOL     OW  967   5.548   4.458   2.024
   23SOL    HW1  968   5.646   4.472   2.006
   23SOL    HW2  969   5.504   4.423   1.941
   24SOL     OW  970   4.139   0.639   1.689
   24SOL    HW1  971   4.131   0.615   1.785
   24SOL    HW2  972   4.230   0.614   1.656
   25SOL     OW  973   2.761   6.875   3.272
   25SOL    HW1  974   2.714   6.935   3.336
   25SOL    HW2  975   2.834   6.927   3.225
   26SOL     OW  976   1.098   2.555   6.649
   26SOL    HW1  977   1.014   2.509   6.678
   26SOL    HW2  978   1.174   2.489   6.651
   27SOL     OW  979   6.265   1.379   2.178
   27SOL    HW1  980   6.351   1.338   2.149
   27SOL    HW2  981   6.283   1.467   2.221
   28SOL     OW  982   2.273   0.597   4.730
   28SOL    HW1  983   2.255   0.614   4.633
   28SOL    HW2  984   2.262   0.500   4.750
   29SOL     OW  985   6.995   0.903   0.383
   29SOL    HW1  986   6.998   0.806   0.356
   29SOL    HW2  987   6.907   0.922   0.426
   30SOL     OW  988   4.335   0.247   4.988
   30SOL    HW1  989   4.273   0.255   5.066
   30SOL    HW2  990   4.402   0.322   4.991
   31SOL     OW  991   0.862   2.723   5.447
   31SOL    HW1  992   0.895   2.760   5.360
   31SOL    HW2  993   0.842   2.798   5.510
   32SOL     OW  994   1.255   0.652   1.171
   32SOL    HW1  995   1.206   0.564   1.174
   32SOL    HW2  996   1.347   0.639   1.207
   33SOL     OW  997   0.536   3.970   6.844
   33SOL    HW1  998   0.628   3.931   6.846
   33SOL    HW2  999   0.471   3.901   6.811
   34SOL     OW 1000   1.734   5.176   5.067
   34SOL    HW1 1001   1.806   5.243   5.048
   34SOL    HW2 1002   1.646   5.214   5.039
   35SOL     OW 1003   3.838   3.061   6.913
   35SOL    HW1 1004   3.861   3.157   6.899
   35SOL    HW2 1005   3.855   3.010   6.829
   36SOL     OW 1006   4.818   0.774   3.889
   36SOL    HW1 1007   4.849   0.741   3.799
   36SOL    HW2 1008   4.770   0.861   3.878
   37SOL     OW 1009   2.164   1.185   3.917
   37SOL    HW1 1010   2.178   1.152   4.011
   37SOL    HW2 1011   2.156   1.285   3.918
   38SOL     OW 1012   1.315   5.327   2.173
   38SOL    HW1 1013   1.412   5.308   2.190
   38SOL    HW2 1014   1.267   5.241   2.156
   39SOL     OW 1015   5.613   4.872   6.343
   39SOL    HW1 1016   5.694   4.830   6.382
   39SOL    HW2 1017   5.585   4.822   6.261
   40SOL     OW 1018   2.975   0.946   6.056
   40SOL    HW1 1019   2.983   0.896   5.970
   40SOL    HW2 1020   2.981   0.882   6.133
   41SOL     OW 1021   5.945   4.173   2.034
   41SOL    HW1 1022   5.893   4.184   1.949
   41SOL    HW2 1023   6.039   4.149   2.014
   42SOL     OW 1024   2.580   5.820   5.031
   42SOL    HW1 1025   2.571   5.734   4.980
   42SOL    HW2 1026   2.601   5.799   5.127
   43SOL     OW 1027   5.021   6.720   5.017
   43SOL    HW1 1028   4.987   6.673   4.936
   43SOL    HW2 1029   5.106   6.676   5.048
   44SOL     OW 1030   5.344   2.610   5.184
   44SOL    HW1 1031   5.351   2.678   5.111
   44SOL    HW2 1032   5.354   2.656   5.273
   45SOL     OW 1033   4.040   5.354   0.342
   45SOL    HW1 1034   4.024   5.422   0.413
   45SOL    HW2 1035   4.011   5.390   0.254
   46SOL     OW 1036   0.613   3.065   4.448
   46SOL    HW1 1037   0.646   3.118   4.370
   46SOL    HW2 1038   0.515   3.049   4.438
   47SOL     OW 1039   5.416   3.199   1.906
   47SOL    HW1 1040   5.431   3.154   1.993
   47SOL    HW2 1041   5.326   3.242   1.905
   48SOL     OW 1042   6.428   4.001   6.917
   48SOL    HW1 1043   6.433   4.020   6.819
   48SOL    HW2 1044   6.352   3.939   6.936
   49SOL     OW 1045   4.988   2.992   0.202
   49SOL    HW1 1046   4.908   2.969   0.146
   49SOL    HW2 1047   5.039   2.908   0.224
   50SOL     OW 1048   6.144   2.129   6.720
   50SOL    HW1 1049   6.240   2.118   6.748
   50SOL    HW2 1050   6.140   2.152   6.623
   51SOL     OW 1051   1.902   4.741   3.243
   51SOL    HW1 1052   1.871   4.829   3.279
   51SOL    HW2 1053   1.993   4.752   3.203
   52SOL     OW 1054   5.752   2.911   1.644
   52SOL    HW1 1055   5.723   2.827   1.689
   52SOL    HW2 1056   5.800   2.970   1.709
   53SOL     OW 1057   4.655   0.785   3.108
   53SOL    HW1 1058   4.641   0.865   3.050
   53SOL    HW2 1059   4.583   0.718   3.091
   54SOL     OW 1060   5.378   6.175   0.065
   54SOL    HW1 1061   5.384   6.194   6.991
   54SOL    HW2 1062   5.470   6.162   0.103
   55SOL     OW 1063   2.078   2.781   6.385
   55SOL    HW1 1064   1.994   2.753   6.431
   55SOL    HW2 1065   2.149   2.799   6.452
   56SOL     OW 1066   1.539   2.194   6.889
   56SOL    HW1 1067   1.552   2.252   6.809
   56SOL    HW2 1068   1.617   2.207   6.951
   57SOL     OW 1069   3.845   0.745   0.654
   57SOL    HW1 1070   3.747   0.723   0.650
   57SOL    HW2 1071   3.857   0.844   0.657
   58SOL     OW 1072   0.949   0.801   6.337
   58SOL    HW1 1073   1.035   0.750   6.341
   58SOL    HW2 1074   0.872   0.739   6.355
   59SOL     OW 1075   6.052   3.608   6.333
   59SOL    HW1 1076   6.125   3.616   6.265
   59SOL    HW2 1077   5.969   3.650   6.297
   60SOL     OW 1078   5.493   0.731   2.805
   60SOL    HW1 1079   5.429   0.654   2.806
   60SOL    HW2 1080   5.503   0.768   2.897
   61SOL     OW 1081   0.166   0.949   4.964
   61SOL    HW1 1082   0.166   0.851   4.947
   61SOL    HW2 1083   0.076   0.978   4.995
   62SOL     OW 1084   0.080   1.946   2.250
   62SOL    HW1 1085   0.076   2.006   2.330
   62SOL    HW2 1086   0.131   1.991   2.177
   63SOL     OW 1087   4.045   6.541   4.745
   63SOL    HW1 1088   4.006   6.477   4.679
   63SOL    HW2 1089   4.048   6.632   4.705
   64SOL     OW 1090   1.308   4.152   6.554
   64SOL    HW1 1091   1.306   4.091   6.475
   64SOL    HW2 1092   1.354   4.108   6.630
   65SOL     OW 1093   0.617   0.453   5.324
   65SOL    HW1 1094   0.605   0.515   5.246
   65SOL    HW2 1095   0.712   0.425   5.331
   66SOL     OW 1096   3.910   0.107   2.225
   66SOL    HW1 1097   3.892   0.187   2.282
   66SOL    HW2 1098   3.878   0.124   2.132
   67SOL     OW 1099   0.364   2.173   1.263
   67SOL    HW1 1100   0.296   2.225   1.211
   67SOL    HW2 1101   0.338   2.076   1.263
   68SOL     OW 1102   6.983   2.410   5.654
   68SOL    HW1 1103   0.035   2.391   5.716
   68SOL    HW2 1104   6.968   2.508   5.647
   69SOL     OW 1105   0.762   5.222   5.590
   69SOL    HW1 1106   0.698   5.155   5.555
   69SOL    HW2 1107   0.831   5.177   5.646
   70SOL     OW 1108   5.412   3.753   4.742
   70SOL    HW1 1109   5.446   3.700   4.820
   70SOL    HW2 1110   5.373   3.690   4.674
   71SOL     OW 1111   4.464   2.021   4.786
   71SOL    HW1 1112   4.512   2.100   4.824
   71SOL    HW2 1113   4.522   1.976   4.719
   72SOL     OW 1114   6.635   0.482   3.708
   72SOL    HW1 1115   6.731   0.505   3.727
   72SOL    HW2 1116   6.585   0.565   3.685
   73SOL     OW 1117   2.836   0.506   0.920
   73SOL    HW1 1118   2.925   0.515   0.965
   73SOL    HW2 1119   2.840   0.433   0.853
   74SOL     OW 1120   2.084   1.615   6.878
   74SOL    HW1 1121   2.113   1.545   6.813
   74SOL    HW2 1122   2.058   1.572   6.964
   75SOL     OW 1123   4.476   1.504   0.986
   75SOL    HW1 1124   4.376   1.506   0.980
   75SOL    HW2 1125   4.505   1.542   1.074
   76SOL     OW 1126   3.014   4.353   5.298
   76SOL    HW1 1127   3.094   4.379   5.352
   76SOL    HW2 1128   2.975   4.434   5.255
   77SOL     OW 1129   1.903   5.326   4.481
   77SOL    HW1 1130   1.969   5.254   4.506
   77SOL    HW2 1131   1.855   5.299   4.398
   78SOL     OW 1132   4.172   1.300   1.242
   78SOL    HW1 1133   4.139   1.270   1.332
   78SOL    HW2 1134   4.147   1.396   1.228
   79SOL     OW 1135   1.987   5.076   1.807
   79SOL    HW1 1136   1.967   4.978   1.798
   79SOL    HW2 1137   1.912   5.129   1.767
   80SOL     OW 1138   5.047   1.926   5.398
   80SOL    HW1 1139   4.968   1.863   5.396
   80SOL    HW2 1140   5.052   1.975   5.311
   81SOL     OW 1141   2.690   5.894   1.257
   81SOL    HW1 1142   2.640   5.848   1.330
   81SOL    HW2 1143   2.789   5.889   1.275
   82SOL     OW 1144   1.037   5.727   1.639
   82SOL    HW1 1145   1.071   5.763   1.727
   82SOL    HW2 1146   1.086   5.771   1.564
   83SOL     OW 1147   5.668   2.267   5.563
   83SOL    HW1 1148   5.703   2.346   5.513
   83SOL    HW2 1149   5.703   2.269   5.657
   84SOL     OW 1150   6.194   3.050   3.654
   84SOL    HW1 1151   6.278   3.051   3.599
   84SOL    HW2 1152   6.176   2.957   3.686
   85SOL     OW 1153   2.057   0.015   4.278
   85SOL    HW1 1154   2.042   0.056   4.368
   85SOL    HW2 1155   2.131   6.971   4.283
   86SOL     OW 1156   5.469   1.478   6.312
   86SOL    HW1 1157   5.477   1.567   6.358
   86SOL    HW2 1158   5.381   1.436   6.336
   87SOL     OW 1159   3.990   4.207   6.428
   87SOL    HW1 1160   4.040   4.182   6.510
   87SOL    HW2 1161   3.914   4.267   6.452
   88SOL     OW 1162   3.076   3.267   6.514
   88SOL    HW1 1163   3.060   3.169   6.530
   88SOL    HW2 1164   3.092   3.282   6.416
   89SOL     OW 1165   2.972   3.412   3.052
   89SOL    HW1 1166   2.967   3.314   3.069
   89SOL    HW2 1167   2.951   3.429   2.955
   90SOL     OW 1168   4.908   3.362   2.836
   90SOL    HW1 1169   4.852   3.331   2.760
   90SOL    HW2 1170   4.899   3.461   2.846
   91SOL     OW 1171   5.510   5.227   5.803
   91SOL    HW1 1172   5.504   5.253   5.706
   91SOL    HW2 1173   5.604   5.203   5.825
   92SOL     OW 1174   5.216   4.427   6.843
   92SOL    HW1 1175   5.295   4.484   6.866
   92SOL    HW2 1176   5.197   4.364   6.918
   93SOL     OW 1177   2.376   2.994   1.084
   93SOL    HW1 1178   2.335   3.047   1.158
   93SOL    HW2 1179   2.426   3.055   1.023
   94SOL     OW 1180   3.131   0.690   5.581
   94SOL    HW1 1181   3.095   0.641   5.661
   94SOL    HW2 1182   3.224   0.660   5.562
   95SOL     OW 1183   0.190   0.350   4.216
   95SOL    HW1 1184   0.245   0.433   4.209
   95SOL    HW2 1185   0.109   0.358   4.158
   96SOL     OW 1186   4.690   4.926   6.821
   96SOL    HW1 1187   4.776   4.877   6.810
   96SOL    HW2 1188   4.638   4.888   6.898
   97SOL     OW 1189   1.987   5.345   5.644
   97SOL    HW1 1190   1.961   5.273   5.580
   97SOL    HW2 1191   2.086   5.352   5.647
   98SOL     OW 1192   0.963   2.920   2.412
   98SOL    HW1 1193   0.938   2.902   2.507
   98SOL    HW2 1194   0.963   3.018   2.395
   99SOL     OW 1195   3.635   2.996   3.912
   99SOL    HW1 1196   3.609   2.949   3.996
   99SOL    HW2 1197   3.705   3.065   3.932
  100SOL     OW 1198   6.857   6.872   3.939
  100SOL    HW1 1199   6.795   6.818   3.882
  100SOL    HW2 1200   6.899   6.813   4.008
  101SOL     OW 1201   1.213   4.171   3.023
  101SOL    HW1 1202   1.284   4.193   3.091
  101SOL    HW2 1203   1.184   4.076   3.035
  102SOL     OW 1204   2.738   6.370   1.601
  102SOL    HW1 1205   2.766   6.309   1.675
  102SOL    HW2 1206   2.712   6.316   1.521
  103SOL     OW 1207   1.948   1.176   1.914
  103SOL    HW1 1208   1.851   1.190   1.931
  103SOL    HW2 1209   1.997   1.170   2.001
  104SOL     OW 1210   1.274   4.609   1.850
  104SOL    HW1 1211   1.349   4.615   1.915
  104SOL    HW2 1212   1.278   4.522   1.802
  105SOL     OW 1213   4.923   1.637   6.647
  105SOL    HW1 1214   4.953   1.610   6.555
  105SOL    HW2 1215   4.828   1.668   6.643
  106SOL     OW 1216   5.379   5.148   2.364
  106SOL    HW1 1217   5.417   5.187   2.281
  106SOL    HW2 1218   5.444   5.161   2.439
  107SOL     OW 1219   6.090   1.351   0.590
  107SOL    HW1 1220   6.068   1.320   0.497
  107SOL    HW2 1221   6.012   1.331   0.650
  108SOL     OW 1222   1.621   0.624   5.081
  108SOL    HW1 1223   1.526   0.598   5.100
  108SOL    HW2 1224   1.657   0.676   5.159
  109SOL     OW 1225   3.164   1.025   3.308
  109SOL    HW1 1226   3.142   1.101   3.369
  109SOL    HW2 1227   3.116   1.037   3.221
  110SOL     OW 1228   2.716   4.841   5.806
  110SOL    HW1 1229   2.644   4.888   5.754
  110SOL    HW2 1230   2.771   4.786   5.744
  111SOL     OW 1231   6.072   1.480   2.457
  111SOL    HW1 1232   6.081   1.420   2.536
  111SOL    HW2 1233   6.033   1.429   2.380
  112SOL     OW 1234   3.866   0.082   6.794
  112SOL    HW1 1235   3.794   0.105   6.860
  112SOL    HW2 1236   3.851   7.012   6.760
  113SOL     OW 1237   6.351   5.668   2.941
  113SOL    HW1 1238   6.268   5.714   2.908
  113SOL    HW2 1239   6.422   5.736   2.960
  114SOL     OW 1240   1.353   4.178   4.374
  114SOL    HW1 1241   1.392   4.096   4.416
  114SOL    HW2 1242   1.406   4.203   4.293
  115SOL     OW 1243   5.891   0.932   3.327
  115SOL    HW1 1244   5.966   0.994   3.350
  115SOL    HW2 1245   5.818   0.943   3.395
  116SOL     OW 1246   1.127   5.595   0.733
  116SOL    HW1 1247   1.173   5.522   0.783
  116SOL    HW2 1248   1.086   5.659   0.798
  117SOL     OW 1249   2.389   1.569   0.001
  117SOL    HW1 1250   2.331   1.649   0.017
  117SOL    HW2 1251   2.336   1.486   0.020
  118SOL     OW 1252   1.191   1.932   4.326
  118SOL    HW1 1253   1.278   1.945   4.280
  118SOL    HW2 1254   1.146   2.020   4.340
  119SOL     OW 1255   0.161   6.748   6.414
  119SOL    HW1 1256   0.254   6.720   6.440
  119SOL    HW2 1257   0.162   6.843   6.383
  120SOL     OW 1258   4.288   1.323   4.745
  120SOL    HW1 1259   4.248   1.341   4.655
  120SOL    HW2 1260   4.324   1.408   4.783
  121SOL     OW 1261   1.298   3.443   6.345
  121SOL    HW1 1262   1.242   3.482   6.273
  121SOL    HW2 1263   1.284   3.344   6.349
  122SOL     OW 1264   0.680   4.384   6.938
  122SOL    HW1 1265   0.598   4.440   6.922
  122SOL    HW2 1266   0.727   4.368   6.851
  123SOL     OW 1267   0.957   1.681   1.763
  123SOL    HW1 1268   0.926   1.586   1.760
  123SOL    HW2 1269   0.956   1.713   1.858
  124SOL     OW 1270   2.834   2.335   0.976
  124SOL    HW1 1271   2.787   2.368   1.058
  124SOL    HW2 1272   2.931   2.359   0.983
  125SOL     OW 1273   3.600   2.268   0.011
  125SOL    HW1 1274   3.552   2.342   6.986
  125SOL    HW2 1275   3.584   2.181   6.988
  126SOL     OW 1276   4.028   3.190   4.204
  126SOL    HW1 1277   4.103   3.215   4.264
  126SOL    HW2 1278   3.969   3.124   4.250
  127SOL     OW 1279   0.516   5.964   6.401
  127SOL    HW1 1280   0.589   6.032   6.401
  127SOL    HW2 1281   0.552   5.874   6.425
  128SOL     OW 1282   4.550   3.541   1.210
  128SOL    HW1 1283   4.522   3.625   1.257
  128SOL    HW2 1284   4.499   3.532   1.124
  129SOL     OW 1285   2.201   6.159   1.030
  129SOL    HW1 1286   2.292   6.121   1.015
  129SOL    HW2 1287   2.146   6.150   0.947
  130SOL     OW 1288   5.631   2.364   4.425
  130SOL    HW1 1289   5.675   2.355   4.514
  130SOL    HW2 1290   5.567   2.289   4.412
  131SOL     OW 1291   0.064   2.296   3.901
  131SOL    HW1 1292   0.038   2.251   3.987
  131SOL    HW2 1293   0.103   2.229   3.838
  132SOL     OW 1294   3.582   4.157   1.781
  132SOL    HW1 1295   3.495   4.202   1.758
  132SOL    HW2 1296   3.656   4.223   1.770
  133SOL     OW 1297   5.332   6.989   4.987
  133SOL    HW1 1298   5.303   6.920   4.921
  133SOL    HW2 1299   5.365   0.047   4.939
  134SOL     OW 1300   5.551   1.117   2.321
  134SOL    HW1 1301   5.601   1.175   2.386
  134SOL    HW2 1302   5.483   1.172   2.273
  135SOL     OW 1303   4.930   3.502   4.481
  135SOL    HW1 1304   4.923   3.598   4.509
  135SOL    HW2 1305   4.936   3.496   4.381
  136SOL     OW 1306   2.975   6.625   5.098
  136SOL    HW1 1307   2.959   6.705   5.155
  136SOL    HW2 1308   2.897   6.610   5.038
  137SOL     OW 1309   3.430   2.036   4.799
  137SOL    HW1 1310   3.429   2.043   4.899
  137SOL    HW2 1311   3.352   2.085   4.761
  138SOL     OW 1312   0.633   5.527   4.834
  138SOL    HW1 1313   0.571   5.545   4.911
  138SOL    HW2 1314   0.581   5.493   4.756
  139SOL     OW 1315   1.958   6.131   6.213
  139SOL    HW1 1316   1.874   6.118   6.160
  139SOL    HW2 1317   1.991   6.225   6.201
  140SOL     OW 1318   2.130   1.146   3.151
  140SOL    HW1 1319   2.123   1.151   3.251
  140SOL    HW2 1320   2.103   1.233   3.111
  141SOL     OW 1321   6.691   4.306   0.509
  141SOL    HW1 1322   6.683   4.236   0.580
  141SOL    HW2 1323   6.670   4.396   0.549
  142SOL     OW 1324   1.265   4.337   1.805
  142SOL    HW1 1325   1.348   4.325   1.860
  142SOL    HW2 1326   1.241   4.251   1.761
  143SOL     OW 1327   5.362   6.708   1.795
  143SOL    HW1 1328   5.433   6.638   1.791
  143SOL    HW2 1329   5.303   6.692   1.874
  144SOL     OW 1330   3.297   4.935   3.205
  144SOL    HW1 1331   3.244   4.996   3.263
  144SOL    HW2 1332   3.377   4.902   3.255
  145SOL     OW 1333   6.716   4.549   2.829
  145SOL    HW1 1334   6.793   4.610   2.809
  145SOL    HW2 1335   6.665   4.532   2.745
  146SOL     OW 1336   5.871   1.771   5.920
  146SOL    HW1 1337   5.891   1.673   5.919
  146SOL    HW2 1338   5.841   1.799   5.829
  147SOL     OW 1339   4.778   1.465   5.986
  147SOL    HW1 1340   4.713   1.400   5.946
  147SOL    HW2 1341   4.829   1.420   6.059
  148SOL     OW 1342   1.408   4.805   1.261
  148SOL    HW1 1343   1.394   4.706   1.261
  148SOL    HW2 1344   1.365   4.846   1.181
  149SOL     OW 1345   2.122   2.233   5.671
  149SOL    HW1 1346   2.183   2.224   5.592
  149SOL    HW2 1347   2.089   2.327   5.677
  150SOL     OW 1348   4.311   1.242   5.133
  150SOL    HW1 1349   4.228   1.275   5.088
  150SOL    HW2 1350   4.343   1.311   5.198
  151SOL     OW 1351   4.156   1.712   1.016
  151SOL    HW1 1352   4.191   1.757   1.097
  151SOL    HW2 1353   4.207   1.743   0.936
  152SOL     OW 1354   0.951   0.850   0.132
  152SOL    HW1 1355   1.014   0.927   0.140
  152SOL    HW2 1356   1.002   0.765   0.130
  153SOL     OW 1357   2.643   1.138   3.932
  153SOL    HW1 1358   2.716   1.070   3.931
  153SOL    HW2 1359   2.682   1.229   3.915
  154SOL     OW 1360   6.067   2.061   1.512
  154SOL    HW1 1361   6.119   2.007   1.446
  154SOL    HW2 1362   6.100   2.156   1.512
  155SOL     OW 1363   0.590   6.954   1.645
  155SOL    HW1 1364   0.527   7.000   1.707
  155SOL    HW2 1365   0.623   7.019   1.576
  156SOL     OW 1366   4.641   1.262   0.479
  156SOL    HW1 1367   4.740   1.267   0.464
  156SOL    HW2 1368   4.616   1.321   0.556
  157SOL     OW 1369   5.274   4.405   0.999
  157SOL    HW1 1370   5.300   4.394   0.904
  157SOL    HW2 1371   5.267   4.502   1.021
  158SOL     OW 1372   0.718   2.630   3.126
  158SOL    HW1 1373   0.692   2.713   3.175
  158SOL    HW2 1374   0.809   2.601   3.156
  159SOL     OW 1375   5.430   5.571   0.438
  159SOL    HW1 1376   5.509   5.573   0.377
  159SOL    HW2 1377   5.404   5.664   0.464
  160SOL     OW 1378   5.982   6.707   0.494
  160SOL    HW1 1379   6.036   6.708   0.409
  160SOL    HW2 1380   6.017   6.777   0.556
  161SOL     OW 1381   0.925   0.268   0.338
  161SOL    HW1 1382   0.885   0.313   0.418
  161SOL    HW2 1383   0.897   0.172   0.336
  162SOL     OW 1384   2.693   6.220   0.238
  162SOL    HW1 1385   2.639   6.282   0.180
  162SOL    HW2 1386   2.728   6.270   0.317
  163SOL     OW 1387   7.017   3.965   3.903
  163SOL    HW1 1388   6.962   3.999   3.827
  163SOL    HW2 1389   0.003   3.866   3.896
  164SOL     OW 1390   1.887   1.803   2.801
  164SOL    HW1 1391   1.787   1.808   2.811
  164SOL    HW2 1392   1.930   1.821   2.890
  165SOL     OW 1393   0.890   5.463   2.333
  165SOL    HW1 1394   0.890   5.366   2.311
  165SOL    HW2 1395   0.974   5.486   2.382
  166SOL     OW 1396   6.469   4.269   2.538
  166SOL    HW1 1397   6.465   4.232   2.445
  166SOL    HW2 1398   6.500   4.197   2.600
  167SOL     OW 1399   4.952   1.728   0.419
  167SOL    HW1 1400   4.858   1.703   0.393
  167SOL    HW2 1401   4.957   1.827   0.432
  168SOL     OW 1402   5.126   4.037   2.163
  168SOL    HW1 1403   5.133   4.107   2.092
  168SOL    HW2 1404   5.216   4.022   2.204
  169SOL     OW 1405   5.973   2.357   1.368
  169SOL    HW1 1406   6.026   2.358   1.283
  169SOL    HW2 1407   6.031   2.380   1.445
  170SOL     OW 1408   0.824   5.194   2.298
  170SOL    HW1 1409   0.852   5.141   2.377
  170SOL    HW2 1410   0.767   5.138   2.238
  171SOL     OW 1411   2.496   3.941   0.596
  171SOL    HW1 1412   2.496   3.843   0.612
  171SOL    HW2 1413   2.509   3.990   0.682
  172SOL     OW 1414   6.129   2.121   1.967
  172SOL    HW1 1415   6.145   2.214   1.999
  172SOL    HW2 1416   6.200   2.096   1.900
  173SOL     OW 1417   6.618   1.476   5.687
  173SOL    HW1 1418   6.710   1.465   5.725
  173SOL    HW2 1419   6.551   1.442   5.754
  174SOL     OW 1420   5.709   5.372   5.330
  174SOL    HW1 1421   5.806   5.386   5.351
  174SOL    HW2 1422   5.699   5.341   5.236
  175SOL     OW 1423   1.157   0.384   0.219
  175SOL    HW1 1424   1.148   0.322   0.141
  175SOL    HW2 1425   1.072   0.382   0.272
  176SOL     OW 1426   5.400   4.863   2.673
  176SOL    HW1 1427   5.359   4.857   2.582
  176SOL    HW2 1428   5.461   4.784   2.686
  177SOL     OW 1429   5.742   2.016   4.315
  177SOL    HW1 1430   5.655   2.059   4.338
  177SOL    HW2 1431   5.728   1.940   4.252
  178SOL     OW 1432   1.922   6.440   5.183
  178SOL    HW1 1433   1.917   6.494   5.267
  178SOL    HW2 1434   2.003   6.467   5.131
  179SOL     OW 1435   4.391   5.224   0.725
  179SOL    HW1 1436   4.301   5.218   0.769
  179SOL    HW2 1437   4.406   5.142   0.669
  180SOL     OW 1438   4.001   0.880   1.135
  180SOL    HW1 1439   4.029   0.968   1.097
  180SOL    HW2 1440   3.938   0.835   1.072
  181SOL     OW 1441   3.427   2.744   5.341
  181SOL    HW1 1442   3.498   2.783   5.399
  181SOL    HW2 1443   3.407   2.650   5.371
  182SOL     OW 1444   5.041   2.564   6.634
  182SOL    HW1 1445   5.091   2.542   6.718
  182SOL    HW2 1446   5.079   2.511   6.558
  183SOL     OW 1447   3.272   1.374   4.084
  183SOL    HW1 1448   3.302   1.465   4.057
  183SOL    HW2 1449   3.207   1.381   4.160
  184SOL     OW 1450   7.011   6.214   3.120
  184SOL    HW1 1451   6.954   6.221   3.202
  184SOL    HW2 1452   7.023   6.305   3.080
  185SOL     OW 1453   0.592   1.579   3.986
  185SOL    HW1 1454   0.543   1.504   3.942
  185SOL    HW2 1455   0.548   1.601   4.073
  186SOL     OW 1456   4.620   5.227   4.482
  186SOL    HW1 1457   4.613   5.325   4.460
  186SOL    HW2 1458   4.548   5.203   4.548
  187SOL     OW 1459   3.987   5.646   2.608
  187SOL    HW1 1460   4.057   5.641   2.679
  187SOL    HW2 1461   3.907   5.693   2.645
  188SOL     OW 1462   2.390   2.467   2.592
  188SOL    HW1 1463   2.423   2.378   2.560
  188SOL    HW2 1464   2.455   2.504   2.659
  189SOL     OW 1465   6.423   5.688   6.646
  189SOL    HW1 1466   6.353   5.713   6.713
  189SOL    HW2 1467   6.475   5.770   6.619
  190SOL     OW 1468   5.810   5.904   0.431
  190SOL    HW1 1469   5.862   5.859   0.503
  190SOL    HW2 1470   5.713   5.900   0.452
  191SOL     OW 1471   6.057   0.876   6.156
  191SOL    HW1 1472   6.088   0.807   6.090
  191SOL    HW2 1473   6.116   0.956   6.150
  192SOL     OW 1474   0.210   5.482   1.140
  192SOL    HW1 1475   0.249   5.522   1.223
  192SOL    HW2 1476   0.235   5.385   1.134
  193SOL     OW 1477   3.122   4.971   6.445
  193SOL    HW1 1478   3.109   4.964   6.346
  193SOL    HW2 1479   3.219   4.960   6.467
  194SOL     OW 1480   4.152   6.680   2.125
  194SOL    HW1 1481   4.136   6.625   2.043
  194SOL    HW2 1482   4.118   6.773   2.111
  195SOL     OW 1483   3.190   0.942   1.481
  195SOL    HW1 1484   3.108   0.887   1.498
  195SOL    HW2 1485   3.225   0.921   1.389
  196SOL     OW 1486   2.326   0.715   6.354
  196SOL    HW1 1487   2.406   0.774   6.366
  196SOL    HW2 1488   2.246   0.757   6.398
  197SOL     OW 1489   2.734   5.409   0.258
  197SOL    HW1 1490   2.761   5.364   0.173
  197SOL    HW2 1491   2.805   5.397   0.327
  198SOL     OW 1492   4.114   6.456   0.280
  198SOL    HW1 1493   4.074   6.388   0.342
  198SOL    HW2 1494   4.209   6.471   0.304
  199SOL     OW 1495   5.753   6.898   2.474
  199SOL    HW1 1496   5.714   6.807   2.459
  199SOL    HW2 1497   5.841   6.889   2.520
  200SOL     OW 1498   1.238   4.118   2.758
  200SOL    HW1 1499   1.249   4.148   2.853
  200SOL    HW2 1500   1.153   4.155   2.721
  201SOL     OW 1501   2.769   0.942   6.689
  201SOL    HW1 1502   2.727   0.892   6.764
  201SOL    HW2 1503   2.778   1.039   6.713
  202SOL     OW 1504   4.047   6.973   3.759
  202SOL    HW1 1505   3.978   6.957   3.688
  202SOL    HW2 1506   4.007   6.960   3.849
  203SOL     OW 1507   5.441   3.339   6.326
  203SOL    HW1 1508   5.417   3.400   6.251
  203SOL    HW2 1509   5.443   3.244   6.292
  204SOL     OW 1510   1.742   7.003   0.388
  204SOL    HW1 1511   1.662   6.963   0.432
  204SOL    HW2 1512   1.714   0.062   0.338
  205SOL     OW 1513   5.829   1.576   1.295
  205SOL    HW1 1514   5.853   1.669   1.265
  205SOL    HW2 1515   5.890   1.549   1.369
  206SOL     OW 1516   0.610   4.618   1.364
  206SOL    HW1 1517   0.597   4.521   1.383
  206SOL    HW2 1518   0.643   4.630   1.271
  207SOL     OW 1519   4.702   0.642   5.824
  207SOL    HW1 1520   4.678   0.735   5.851
  207SOL    HW2 1521   4.763   0.602   5.893
  208SOL     OW 1522   5.300   4.994   6.131
  208SOL    HW1 1523   5.333   5.050   6.055
  208SOL    HW2 1524   5.200   4.991   6.129
  209SOL     OW 1525   7.021   6.247   5.879
  209SOL    HW1 1526   7.000   6.188   5.801
  209SOL    HW2 1527   0.061   6.319   5.850
  210SOL     OW 1528   3.752   2.028   1.824
  210SOL    HW1 1529   3.705   1.940   1.841
  210SOL    HW2 1530   3.714   2.097   1.886
  211SOL     OW 1531   1.093   1.219   1.286
  211SOL    HW1 1532   1.014   1.227   1.347
  211SOL    HW2 1533   1.150   1.301   1.294
  212SOL     OW 1534   0.774   4.905   3.243
  212SOL    HW1 1535   0.778   4.882   3.146
  212SOL    HW2 1536   0.866   4.930   3.275
  213SOL     OW 1537   5.035   1.318   0.219
  213SOL    HW1 1538   5.070   1.227   0.195
  213SOL    HW2 1539   5.035   1.328   0.318
  214SOL     OW 1540   0.758   6.327   2.765
  214SOL    HW1 1541   0.849   6.318   2.726
  214SOL    HW2 1542   0.695   6.266   2.718
  215SOL     OW 1543   3.988   3.195   2.171
  215SOL    HW1 1544   3.898   3.195   2.126
  215SOL    HW2 1545   4.042   3.272   2.137
  216SOL     OW 1546   1.067   0.318   4.987
  216SOL    HW1 1547   1.037   0.308   4.892
  216SOL    HW2 1548   1.121   0.401   4.997
  217SOL     OW 1549   1.816   2.601   3.868
  217SOL    HW1 1550   1.766   2.687   3.859
  217SOL    HW2 1551   1.782   2.535   3.801
  218SOL     OW 1552   1.132   2.804   4.892
  218SOL    HW1 1553   1.094   2.742   4.961
  218SOL    HW2 1554   1.065   2.875   4.871
  219SOL     OW 1555   4.163   3.913   0.497
  219SOL    HW1 1556   4.252   3.946   0.530
  219SOL    HW2 1557   4.153   3.816   0.520
  220SOL     OW 1558   2.833   5.369   0.006
  220SOL    HW1 1559   2.897   5.446   0.001
  220SOL    HW2 1560   2.817   5.332   6.938
  221SOL     OW 1561   5.130   3.119   3.897
  221SOL    HW1 1562   5.034   3.137   3.877
  221SOL    HW2 1563   5.163   3.185   3.964
  222SOL     OW 1564   1.181   5.804   5.697
  222SOL    HW1 1565   1.084   5.799   5.672
  222SOL    HW2 1566   1.202   5.729   5.760
  223SOL     OW 1567   0.081   3.502   1.967
  223SOL    HW1 1568   0.132   3.580   1.931
  223SOL    HW2 1569   0.136   3.419   1.959
  224SOL     OW 1570   2.662   2.386   1.950
  224SOL    HW1 1571   2.752   2.425   1.930
  224SOL    HW2 1572   2.669   2.286   1.948
  225SOL     OW 1573   5.798   0.792   6.868
  225SOL    HW1 1574   5.824   0.740   6.949
  225SOL    HW2 1575   5.809   0.890   6.886
  226SOL     OW 1576   1.052   6.127   0.431
  226SOL    HW1 1577   1.060   6.102   0.334
  226SOL    HW2 1578   1.022   6.221   0.438
  227SOL     OW 1579   2.084   3.864   3.791
  227SOL    HW1 1580   2.156   3.853   3.723
  227SOL    HW2 1581   2.057   3.774   3.825
  228SOL     OW 1582   4.133   6.807   4.217
  228SOL    HW1 1583   4.079   6.839   4.139
  228SOL    HW2 1584   4.128   6.707   4.222
  229SOL     OW 1585   6.224   5.803   1.741
  229SOL    HW1 1586   6.282   5.810   1.822
  229SOL    HW2 1587   6.229   5.888   1.689
  230SOL     OW 1588   2.202   3.994   4.770
  230SOL    HW1 1589   2.196   3.901   4.734
  230SOL    HW2 1590   2.256   3.993   4.855
  231SOL     OW 1591   0.002   3.229   6.875
  231SOL    HW1 1592   6.966   3.216   6.955
  231SOL    HW2 1593   0.001   3.326   6.849
  232SOL     OW 1594   1.646   3.786   6.307
  232SOL    HW1 1595   1.723   3.843   6.280
  232SOL    HW2 1596   1.668   3.690   6.293
  233SOL     OW 1597   2.523   1.401   5.503
  233SOL    HW1 1598   2.501   1.410   5.600
  233SOL    HW2 1599   2.586   1.474   5.476
  234SOL     OW 1600   2.839   5.000   6.978
  234SOL    HW1 1601   2.840   4.903   6.954
  234SOL    HW2 1602   2.817   5.054   6.898
  235SOL     OW 1603   3.195   2.949   4.217
  235SOL    HW1 1604   3.227   3.037   4.181
  235SOL    HW2 1605   3.186   2.884   4.141
  236SOL     OW 1606   6.938   2.674   5.609
  236SOL    HW1 1607   6.863   2.681   5.675
  236SOL    HW2 1608   6.905   2.702   5.519
  237SOL     OW 1609   0.096   6.904   1.200
  237SOL    HW1 1610   0.167   6.839   1.171
  237SOL    HW2 1611   0.118   6.937   1.292
  238SOL     OW 1612   6.000   3.580   1.967
  238SOL    HW1 1613   6.024   3.672   1.998
  238SOL    HW2 1614   5.933   3.540   2.030
  239SOL     OW 1615   6.995   5.379   6.617
  239SOL    HW1 1616   0.017   5.459   6.579
  239SOL    HW2 1617   0.038   5.306   6.633
  240SOL     OW 1618   0.699   3.635   6.345
  240SOL    HW1 1619   0.604   3.641   6.376
  240SOL    HW2 1620   0.717   3.707   6.278
  241SOL     OW 1621   0.211   1.158   3.594
  241SOL    HW1 1622   0.232   1.060   3.602
  241SOL    HW2 1623   0.114   1.172   3.612
  242SOL     OW 1624   1.458   3.799   4.813
  242SOL    HW1 1625   1.407   3.869   4.863
  242SOL    HW2 1626   1.399   3.759   4.742
  243SOL     OW 1627   5.707   0.339   5.588
  243SOL    HW1 1628   5.608   0.335   5.578
  243SOL    HW2 1629   5.731   0.372   5.679
  244SOL     OW 1630   5.670   2.143   5.127
  244SOL    HW1 1631   5.666   2.224   5.068
  244SOL    HW2 1632   5.655   2.061   5.071
  245SOL     OW 1633   6.263   2.419   4.661
  245SOL    HW1 1634   6.335   2.414   4.592
  245SOL    HW2 1635   6.302   2.453   4.747
  246SOL     OW 1636   5.016   3.892   3.436
  246SOL    HW1 1637   5.103   3.933   3.407
  246SOL    HW2 1638   5.005   3.803   3.392
  247SOL     OW 1639   2.065   1.432   3.993
  247SOL    HW1 1640   2.131   1.500   3.960
  247SOL    HW2 1641   1.973   1.468   3.984
  248SOL     OW 1642   4.949   1.857   4.259
  248SOL    HW1 1643   4.951   1.905   4.347
  248SOL    HW2 1644   5.036   1.868   4.212
  249SOL     OW 1645   3.118   6.674   4.893
  249SOL    HW1 1646   3.070   6.624   4.821
  249SOL    HW2 1647   3.089   6.640   4.982
  250SOL     OW 1648   5.205   3.794   5.699
  250SOL    HW1 1649   5.214   3.732   5.620
  250SOL    HW2 1650   5.140   3.755   5.764
  251SOL     OW 1651   4.580   3.096   6.642
  251SOL    HW1 1652   4.677   3.105   6.662
  251SOL    HW2 1653   4.527   3.105   6.726
  252SOL     OW 1654   6.637   1.181   5.947
  252SOL    HW1 1655   6.692   1.177   6.030
  252SOL    HW2 1656   6.581   1.264   5.947
  253SOL     OW 1657   2.872   3.280   0.658
  253SOL    HW1 1658   2.902   3.375   0.653
  253SOL    HW2 1659   2.783   3.270   0.614
  254SOL     OW 1660   6.672   3.152   4.487
  254SOL    HW1 1661   6.620   3.211   4.426
  254SOL    HW2 1662   6.768   3.151   4.459
  255SOL     OW 1663   2.727   2.391   3.323
  255SOL    HW1 1664   2.794   2.348   3.263
  255SOL    HW2 1665   2.757   2.383   3.418
  256SOL     OW 1666   6.180   5.368   6.833
  256SOL    HW1 1667   6.256   5.344   6.773
  256SOL    HW2 1668   6.144   5.285   6.876
  257SOL     OW 1669   3.028   5.654   6.072
  257SOL    HW1 1670   3.072   5.657   6.162
  257SOL    HW2 1671   3.061   5.731   6.017
  258SOL     OW 1672   5.653   3.981   4.434
  258SOL    HW1 1673   5.573   3.938   4.393
  258SOL    HW2 1674   5.657   4.077   4.407
  259SOL     OW 1675   1.359   2.989   2.617
  259SOL    HW1 1676   1.299   2.945   2.551
  259SOL    HW2 1677   1.364   2.933   2.701
  260SOL     OW 1678   5.381   0.440   6.189
  260SOL    HW1 1679   5.434   0.434   6.274
  260SOL    HW2 1680   5.442   0.430   6.111
  261SOL     OW 1681   0.905   3.816   2.022
  261SOL    HW1 1682   0.960   3.735   2.042
  261SOL    HW2 1683   0.880   3.861   2.107
  262SOL     OW 1684   1.183   3.154   1.943
  262SOL    HW1 1685   1.172   3.180   1.847
  262SOL    HW2 1686   1.173   3.235   2.001
  263SOL     OW 1687   0.597   2.240   5.066
  263SOL    HW1 1688   0.539   2.279   5.138
  263SOL    HW2 1689   0.579   2.142   5.059
  264SOL     OW 1690   1.593   4.491   6.008
  264SOL    HW1 1691   1.578   4.467   6.104
  264SOL    HW2 1692   1.639   4.415   5.962
  265SOL     OW 1693   4.972   4.560   3.999
  265SOL    HW1 1694   4.940   4.579   3.906
  265SOL    HW2 1695   4.945   4.635   4.060
  266SOL     OW 1696   3.922   1.427   0.874
  266SOL    HW1 1697   3.832   1.470   0.886
  266SOL    HW2 1698   3.922   1.370   0.792
  267SOL     OW 1699   1.840   2.457   6.382
  267SOL    HW1 1700   1.876   2.518   6.453
  267SOL    HW2 1701   1.885   2.477   6.295
  268SOL     OW 1702   4.262   4.722   4.537
  268SOL    HW1 1703   4.246   4.819   4.521
  268SOL    HW2 1704   4.289   4.708   4.632
  269SOL     OW 1705   1.303   2.163   6.299
  269SOL    HW1 1706   1.232   2.178   6.367
  269SOL    HW2 1707   1.271   2.097   6.231
  270SOL     OW 1708   4.985   0.798   2.040
  270SOL    HW1 1709   5.080   0.766   2.045
  270SOL    HW2 1710   4.938   0.776   2.125
  271SOL     OW 1711   1.435   0.290   0.052
  271SOL    HW1 1712   1.358   0.229   0.031
  271SOL    HW2 1713   1.504   0.240   0.104
  272SOL     OW 1714   3.399   5.344   3.361
  272SOL    HW1 1715   3.443   5.300   3.283
  272SOL    HW2 1716   3.461   5.343   3.439
  273SOL     OW 1717   1.745   5.970   4.894
  273SOL    HW1 1718   1.653   5.971   4.853
  273SOL    HW2 1719   1.787   5.881   4.879
  274SOL     OW 1720   6.315   2.789   2.638
  274SOL    HW1 1721   6.221   2.772   2.609
  274SOL    HW2 1722   6.323   2.776   2.737
  275SOL     OW 1723   6.675   6.544   5.583
  275SOL    HW1 1724   6.768   6.556   5.617
  275SOL    HW2 1725   6.657   6.608   5.509
  276SOL     OW 1726   6.381   5.934   3.826
  276SOL    HW1 1727   6.431   5.924   3.912
  276SOL    HW2 1728   6.412   5.864   3.762
  277SOL     OW 1729   3.380   1.916   5.515
  277SOL    HW1 1730   3.473   1.890   5.491
  277SOL    HW2 1731   3.325   1.924   5.432
  278SOL     OW 1732   5.636   3.699   2.359
  278SOL    HW1 1733   5.567   3.763   2.395
  278SOL    HW2 1734   5.591   3.631   2.301
  279SOL     OW 1735   7.000   2.710   3.034
  279SOL    HW1 1736   6.991   2.613   3.057
  279SOL    HW2 1737   0.053   2.722   2.971
  280SOL     OW 1738   4.911   0.095   4.145
  280SOL    HW1 1739   4.882   0.180   4.100
  280SOL    HW2 1740   4.955   0.035   4.078
  281SOL     OW 1741   4.894   6.048   4.165
  281SOL    HW1 1742   4.808   6.016   4.126
  281SOL    HW2 1743   4.955   6.078   4.092
  282SOL     OW 1744   4.497   2.084   6.833
  282SOL    HW1 1745   4.428   2.132   6.887
  282SOL    HW2 1746   4.457   2.001   6.793
  283SOL     OW 1747   6.401   0.940   4.834
  283SOL    HW1 1748   6.436   1.026   4.796
  283SOL    HW2 1749   6.305   0.929   4.808
  284SOL     OW 1750   6.631   4.793   4.776
  284SOL    HW1 1751   6.711   4.763   4.827
  284SOL    HW2 1752   6.549   4.780   4.832
  285SOL     OW 1753   4.132   0.359   6.809
  285SOL    HW1 1754   4.149   0.360   6.908
  285SOL    HW2 1755   4.064   0.429   6.786
  286SOL     OW 1756   3.836   4.961   4.605
  286SOL    HW1 1757   3.811   4.946   4.510
  286SOL    HW2 1758   3.919   4.909   4.626
  287SOL     OW 1759   2.879   6.364   5.991
  287SOL    HW1 1760   2.781   6.344   5.991
  287SOL    HW2 1761   2.900   6.429   5.918
  288SOL     OW 1762   3.630   0.960   0.920
  288SOL    HW1 1763   3.541   0.926   0.890
  288SOL    HW2 1764   3.632   1.059   0.912
  289SOL     OW 1765   0.302   6.527   4.591
  289SOL    HW1 1766   0.313   6.614   4.543
  289SOL    HW2 1767   0.228   6.536   4.658
  290SOL     OW 1768   3.910   0.764   3.829
  290SOL    HW1 1769   3.906   0.852   3.780
  290SOL    HW2 1770   3.844   0.765   3.903
  291SOL     OW 1771   5.134   0.544   4.216
  291SOL    HW1 1772   5.051   0.564   4.164
  291SOL    HW2 1773   5.212   0.587   4.172
  292SOL     OW 1774   3.400   0.187   3.749
  292SOL    HW1 1775   3.470   0.120   3.771
  292SOL    HW2 1776   3.439   0.259   3.691
  293SOL     OW 1777   5.887   6.443   2.784
  293SOL    HW1 1778   5.944   6.407   2.858
  293SOL    HW2 1779   5.895   6.543   2.781
  294SOL     OW 1780   5.641   1.147   5.600
  294SOL    HW1 1781   5.558   1.134   5.545
  294SOL    HW2 1782   5.716   1.096   5.558
  295SOL     OW 1783   1.300   1.966   5.168
  295SOL    HW1 1784   1.387   2.014   5.154
  295SOL    HW2 1785   1.225   2.029   5.149
  296SOL     OW 1786   6.576   1.189   1.484
  296SOL    HW1 1787   6.592   1.206   1.581
  296SOL    HW2 1788   6.628   1.109   1.455
  297SOL     OW 1789   5.209   4.131   3.574
  297SOL    HW1 1790   5.201   4.226   3.602
  297SOL    HW2 1791   5.233   4.127   3.477
  298SOL     OW 1792   4.037   0.434   0.550
  298SOL    HW1 1793   4.069   0.528   0.559
  298SOL    HW2 1794   4.049   0.386   0.637
  299SOL     OW 1795   3.045   1.345   6.800
  299SOL    HW1 1796   2.994   1.326   6.884
  299SOL    HW2 1797   3.045   1.263   6.743
  300SOL     OW 1798   3.382   1.141   2.445
  300SOL    HW1 1799   3.425   1.231   2.435
  300SOL    HW2 1800   3.428   1.090   2.517
  301SOL     OW 1801   6.053   5.794   1.980
  301SOL    HW1 1802   6.089   5.849   1.904
  301SOL    HW2 1803   6.019   5.855   2.052
  302SOL     OW 1804   0.018   6.365   1.731
  302SOL    HW1 1805   6.990   6.360   1.817
  302SOL    HW2 1806   6.978   6.353   1.654
  303SOL     OW 1807   6.502   5.823   2.542
  303SOL    HW1 1808   6.572   5.818   2.612
  303SOL    HW2 1809   6.477   5.730   2.512
  304SOL     OW 1810   1.185   0.081   5.055
  304SOL    HW1 1811   1.136   0.018   5.114
  304SOL    HW2 1812   1.138   0.169   5.054
  305SOL     OW 1813   1.777   2.802   1.655
  305SOL    HW1 1814   1.798   2.708   1.681
  305SOL    HW2 1815   1.803   2.816   1.560
  306SOL     OW 1816   6.684   0.772   3.457
  306SOL    HW1 1817   6.703   0.687   3.408
  306SOL    HW2 1818   6.731   0.848   3.412
  307SOL     OW 1819   3.158   3.712   1.756
  307SOL    HW1 1820   3.094   3.729   1.831
  307SOL    HW2 1821   3.199   3.622   1.767
  308SOL     OW 1822   5.402   0.697   4.037
  308SOL    HW1 1823   5.462   0.767   3.999
  308SOL    HW2 1824   5.449   0.649   4.112
  309SOL     OW 1825   0.633   6.748   6.570
  309SOL    HW1 1826   0.721   6.769   6.613
  309SOL    HW2 1827   0.648   6.721   6.474
  310SOL     OW 1828   5.179   5.657   4.780
  310SOL    HW1 1829   5.193   5.751   4.812
  310SOL    HW2 1830   5.212   5.649   4.686
  311SOL     OW 1831   1.511   5.462   2.980
  311SOL    HW1 1832   1.490   5.458   2.883
  311SOL    HW2 1833   1.493   5.555   3.014
  312SOL     OW 1834   4.759   2.175   3.407
  312SOL    HW1 1835   4.660   2.178   3.420
  312SOL    HW2 1836   4.797   2.266   3.424
  313SOL     OW 1837   3.881   3.577   2.765
  313SOL    HW1 1838   3.902   3.545   2.673
  313SOL    HW2 1839   3.806   3.522   2.803
  314SOL     OW 1840   1.782   6.534   4.924
  314SOL    HW1 1841   1.819   6.462   4.983
  314SOL    HW2 1842   1.800   6.624   4.964
  315SOL     OW 1843   6.423   1.192   3.415
  315SOL    HW1 1844   6.407   1.273   3.359
  315SOL    HW2 1845   6.438   1.112   3.356
  316SOL     OW 1846   4.072   1.365   5.262
  316SOL    HW1 1847   4.143   1.368   5.331
  316SOL    HW2 1848   4.037   1.272   5.253
  317SOL     OW 1849   1.501   1.598   1.247
  317SOL    HW1 1850   1.530   1.531   1.179
  317SOL    HW2 1851   1.436   1.662   1.205
  318SOL     OW 1852   6.792   0.561   5.655
  318SOL    HW1 1853   6.809   0.582   5.751
  318SOL    HW2 1854   6.790   0.462   5.643
  319SOL     OW 1855   1.078   2.080   2.641
  319SOL    HW1 1856   1.064   2.144   2.566
  319SOL    HW2 1857   1.163   2.029   2.627
  320SOL     OW 1858   5.357   2.060   6.906
  320SOL    HW1 1859   5.305   2.108   6.977
  320SOL    HW2 1860   5.429   2.120   6.872
  321SOL     OW 1861   3.858   3.285   0.797
  321SOL    HW1 1862   3.922   3.210   0.778
  321SOL    HW2 1863   3.802   3.262   0.876
  322SOL     OW 1864   4.324   3.472   6.978
  322SOL    HW1 1865   4.303   3.527   6.897
  322SOL    HW2 1866   4.393   3.404   6.955
  323SOL     OW 1867   0.384   2.775   3.444
  323SOL    HW1 1868   0.420   2.855   3.397
  323SOL    HW2 1869   0.287   2.765   3.424
  324SOL     OW 1870   1.490   0.459   2.984
  324SOL    HW1 1871   1.563   0.528   2.978
  324SOL    HW2 1872   1.442   0.469   3.071
  325SOL     OW 1873   1.409   3.481   2.370
  325SOL    HW1 1874   1.374   3.389   2.390
  325SOL    HW2 1875   1.466   3.477   2.288
  326SOL     OW 1876   2.098   5.524   6.303
  326SOL    HW1 1877   2.064   5.529   6.209
  326SOL    HW2 1878   2.024   5.543   6.367
  327SOL     OW 1879   3.463   5.636   3.320
  327SOL    HW1 1880   3.452   5.537   3.328
  327SOL    HW2 1881   3.387   5.682   3.366
  328SOL     OW 1882   1.566   4.248   1.678
  328SOL    HW1 1883   1.499   4.209   1.742
  328SOL    HW2 1884   1.555   4.206   1.588
  329SOL     OW 1885   3.137   4.003   1.880
  329SOL    HW1 1886   3.083   4.053   1.812
  329SOL    HW2 1887   3.145   3.907   1.852
  330SOL     OW 1888   3.738   5.090   0.260
  330SOL    HW1 1889   3.667   5.022   0.244
  330SOL    HW2 1890   3.710   5.178   0.223
  331SOL     OW 1891   4.934   5.338   0.960
  331SOL    HW1 1892   4.967   5.380   0.875
  331SOL    HW2 1893   4.869   5.266   0.938
  332SOL     OW 1894   5.592   1.986   3.465
  332SOL    HW1 1895   5.661   2.029   3.406
  332SOL    HW2 1896   5.635   1.956   3.550
  333SOL     OW 1897   3.709   0.697   5.255
  333SOL    HW1 1898   3.631   0.696   5.318
  333SOL    HW2 1899   3.697   0.770   5.188
  334SOL     OW 1900   4.014   3.361   3.007
  334SOL    HW1 1901   4.032   3.443   3.062
  334SOL    HW2 1902   4.007   3.282   3.068
  335SOL     OW 1903   3.646   6.818   0.061
  335SOL    HW1 1904   3.701   6.735   0.049
  335SOL    HW2 1905   3.584   6.828   7.006
  336SOL     OW 1906   2.359   1.045   3.463
  336SOL    HW1 1907   2.370   1.045   3.562
  336SOL    HW2 1908   2.288   0.980   3.437
  337SOL     OW 1909   1.535   1.682   5.862
  337SOL    HW1 1910   1.557   1.778   5.845
  337SOL    HW2 1911   1.530   1.633   5.775
  338SOL     OW 1912   4.174   3.054   1.591
  338SOL    HW1 1913   4.253   2.996   1.612
  338SOL    HW2 1914   4.196   3.113   1.513
  339SOL     OW 1915   4.223   4.976   4.602
  339SOL    HW1 1916   4.145   4.997   4.542
  339SOL    HW2 1917   4.189   4.944   4.690
  340SOL     OW 1918   4.850   2.492   5.041
  340SOL    HW1 1919   4.894   2.576   5.069
  340SOL    HW2 1920   4.767   2.513   4.989
  341SOL     OW 1921   5.844   6.190   4.078
  341SOL    HW1 1922   5.889   6.158   4.162
  341SOL    HW2 1923   5.773   6.256   4.101
  342SOL     OW 1924   4.971   3.448   0.724
  342SOL    HW1 1925   4.913   3.368   0.714
  342SOL    HW2 1926   4.916   3.531   0.716
  343SOL     OW 1927   1.080   5.661   2.711
  343SOL    HW1 1928   1.115   5.722   2.640
  343SOL    HW2 1929   0.992   5.623   2.682
  344SOL     OW 1930   1.208   1.616   1.640
  344SOL    HW1 1931   1.266   1.678   1.694
  344SOL    HW2 1932   1.115   1.617   1.677
  345SOL     OW 1933   6.802   2.415   4.384
  345SOL    HW1 1934   6.796   2.316   4.394
  345SOL    HW2 1935   6.762   2.442   4.296
  346SOL     OW 1936   1.747   0.151   2.734
  346SOL    HW1 1937   1.785   0.170   2.825
  346SOL    HW2 1938   1.649   0.136   2.742
  347SOL     OW 1939   2.450   5.812   0.458
  347SOL    HW1 1940   2.532   5.868   0.453
  347SOL    HW2 1941   2.419   5.789   0.365
  348SOL     OW 1942   4.944   4.939   2.368
  348SOL    HW1 1943   4.856   4.957   2.412
  348SOL    HW2 1944   5.000   5.022   2.370
  349SOL     OW 1945   6.854   4.210   1.220
  349SOL    HW1 1946   6.943   4.165   1.218
  349SOL    HW2 1947   6.864   4.305   1.190
  350SOL     OW 1948   3.620   3.076   0.083
  350SOL    HW1 1949   3.595   2.980   0.097
  350SOL    HW2 1950   3.707   3.081   0.035
  351SOL     OW 1951   3.404   3.991   0.726
  351SOL    HW1 1952   3.345   3.914   0.752
  351SOL    HW2 1953   3.382   4.019   0.632
  352SOL     OW 1954   4.202   6.100   3.863
  352SOL    HW1 1955   4.207   6.109   3.764
  352SOL    HW2 1956   4.280   6.046   3.895
  353SOL     OW 1957   2.907   6.697   5.868
  353SOL    HW1 1958   2.996   6.717   5.828
  353SOL    HW2 1959   2.889   6.759   5.944
  354SOL     OW 1960   5.732   2.838   1.020
  354SOL    HW1 1961   5.766   2.804   1.107
  354SOL    HW2 1962   5.714   2.762   0.958
  355SOL     OW 1963   2.057   3.556   2.751
  355SOL    HW1 1964   2.095   3.646   2.731
  355SOL    HW2 1965   1.966   3.549   2.710
  356SOL     OW 1966   1.919   0.423   5.182
  356SOL    HW1 1967   1.897   0.506   5.233
  356SOL    HW2 1968   1.906   0.343   5.242
  357SOL     OW 1969   6.181   6.695   4.464
  357SOL    HW1 1970   6.086   6.666   4.466
  357SOL    HW2 1971   6.217   6.686   4.372
  358SOL     OW 1972   5.075   5.890   0.879
  358SOL    HW1 1973   4.998   5.839   0.918
  358SOL    HW2 1974   5.057   5.906   0.781
  359SOL     OW 1975   3.179   1.137   2.136
  359SOL    HW1 1976   3.136   1.179   2.216
  359SOL    HW2 1977   3.128   1.162   2.054
  360SOL     OW 1978   0.985   4.953   4.587
  360SOL    HW1 1979   1.077   4.952   4.547
  360SOL    HW2 1980   0.990   4.926   4.684
  361SOL     OW 1981   6.388   6.022   2.970
  361SOL    HW1 1982   6.463   5.959   2.987
  361SOL    HW2 1983   6.420   6.116   2.978
  362SOL     OW 1984   3.769   4.132   0.570
  362SOL    HW1 1985   3.759   4.046   0.621
  362SOL    HW2 1986   3.772   4.208   0.635
  363SOL     OW 1987   6.499   4.853   2.529
  363SOL    HW1 1988   6.490   4.783   2.600
  363SOL    HW2 1989   6.507   4.809   2.439
  364SOL     OW 1990   0.144   4.216   6.669
  364SOL    HW1 1991   0.078   4.207   6.743
  364SOL    HW2 1992   0.103   4.266   6.593
  365SOL     OW 1993   3.600   0.685   1.913
  365SOL    HW1 1994   3.512   0.726   1.938
  365SOL    HW2 1995   3.645   0.652   1.996
  366SOL     OW 1996   6.105   3.268   6.899
  366SOL    HW1 1997   6.125   3.245   6.995
  366SOL    HW2 1998   6.019   3.319   6.894
  367SOL     OW 1999   4.942   2.419   5.907
  367SOL    HW1 2000   4.990   2.393   5.991
  367SOL    HW2 2001   4.969   2.511   5.881
  368SOL     OW 2002   6.729   2.029   6.236
  368SOL    HW1 2003   6.665   2.057   6.164
  368SOL    HW2 2004   6.746   2.106   6.297
  369SOL     OW 2005   5.916   4.308   3.118
  369SOL    HW1 2006   5.856   4.353   3.052
  369SOL    HW2 2007   5.884   4.215   3.134
  370SOL     OW 2008   1.861   2.236   3.983
  370SOL    HW1 2009   1.870   2.254   4.081
  370SOL    HW2 2010   1.902   2.147   3.962
  371SOL     OW 2011   2.162   4.040   6.714
  371SOL    HW1 2012   2.122   3.952   6.740
  371SOL    HW2 2013   2.235   4.063   6.778
  372SOL     OW 2014   1.969   6.936   5.012
  372SOL    HW1 2015   1.896   6.882   4.968
  372SOL    HW2 2016   1.932   6.983   5.092
  373SOL     OW 2017   6.100   6.491   5.264
  373SOL    HW1 2018   6.100   6.394   5.288
  373SOL    HW2 2019   6.159   6.541   5.327
  374SOL     OW 2020   1.954   1.546   2.807
  374SOL    HW1 2021   2.047   1.532   2.772
  374SOL    HW2 2022   1.924   1.639   2.787
  375SOL     OW 2023   0.528   5.602   5.086
  375SOL    HW1 2024   0.493   5.677   5.141
  375SOL    HW2 2025   0.451   5.548   5.051
  376SOL     OW 2026   2.480   1.112   4.743
  376SOL    HW1 2027   2.522   1.198   4.715
  376SOL    HW2 2028   2.425   1.128   4.825
  377SOL     OW 2029   1.846   2.447   6.999
  377SOL    HW1 2030   1.874   2.354   6.975
  377SOL    HW2 2031   1.875   2.467   0.069
  378SOL     OW 2032   3.587   1.220   6.497
  378SOL    HW1 2033   3.578   1.184   6.403
  378SOL    HW2 2034   3.677   1.194   6.533
  379SOL     OW 2035   5.441   2.370   0.057
  379SOL    HW1 2036   5.514   2.333   7.023
  379SOL    HW2 2037   5.472   2.455   0.100
  380SOL     OW 2038   3.102   1.327   1.446
  380SOL    HW1 2039   3.191   1.282   1.445
  380SOL    HW2 2040   3.092   1.384   1.364
  381SOL     OW 2041   2.022   4.476   4.577
  381SOL    HW1 2042   2.069   4.395   4.612
  381SOL    HW2 2043   2.065   4.558   4.615
  382SOL     OW 2044   6.311   0.243   0.592
  382SOL    HW1 2045   6.397   0.253   0.643
  382SOL    HW2 2046   6.317   0.294   0.506
  383SOL     OW 2047   4.435   3.094   0.524
  383SOL    HW1 2048   4.380   3.174   0.502
  383SOL    HW2 2049   4.388   3.040   0.595
  384SOL     OW 2050   0.349   3.688   4.095
  384SOL    HW1 2051   0.336   3.787   4.095
  384SOL    HW2 2052   0.363   3.657   4.001
  385SOL     OW 2053   3.837   5.462   6.297
  385SOL    HW1 2054   3.832   5.520   6.378
  385SOL    HW2 2055   3.869   5.517   6.219
  386SOL     OW 2056   4.380   0.550   3.859
  386SOL    HW1 2057   4.294   0.587   3.825
  386SOL    HW2 2058   4.422   0.614   3.922
  387SOL     OW 2059   1.375   4.942   2.449
  387SOL    HW1 2060   1.349   4.848   2.427
  387SOL    HW2 2061   1.295   4.993   2.479
  388SOL     OW 2062   2.367   2.325   6.776
  388SOL    HW1 2063   2.311   2.400   6.740
  388SOL    HW2 2064   2.311   2.269   6.838
  389SOL     OW 2065   3.684   3.373   2.824
  389SOL    HW1 2066   3.673   3.310   2.901
  389SOL    HW2 2067   3.611   3.358   2.757
  390SOL     OW 2068   2.509   0.834   3.580
  390SOL    HW1 2069   2.506   0.902   3.507
  390SOL    HW2 2070   2.450   0.757   3.555
  391SOL     OW 2071   2.058   3.098   6.659
  391SOL    HW1 2072   2.071   3.091   6.560
  391SOL    HW2 2073   2.098   3.183   6.692
  392SOL     OW 2074   1.871   5.158   1.220
  392SOL    HW1 2075   1.862   5.239   1.162
  392SOL    HW2 2076   1.791   5.150   1.280
  393SOL     OW 2077   6.154   4.465   5.409
  393SOL    HW1 2078   6.115   4.530   5.344
  393SOL    HW2 2079   6.229   4.509   5.460
  394SOL     OW 2080   0.639   6.874   0.057
  394SOL    HW1 2081   0.657   6.854   0.153
  394SOL    HW2 2082   0.540   6.876   0.041
  395SOL     OW 2083   4.780   4.015   2.455
  395SOL    HW1 2084   4.743   4.108   2.461
  395SOL    HW2 2085   4.738   3.968   2.377
  396SOL     OW 2086   3.895   3.962   2.500
  396SOL    HW1 2087   3.939   3.959   2.590
  396SOL    HW2 2088   3.925   3.884   2.445
  397SOL     OW 2089   4.174   3.016   5.858
  397SOL    HW1 2090   4.153   2.972   5.945
  397SOL    HW2 2091   4.096   3.071   5.828
  398SOL     OW 2092   1.144   5.825   1.868
  398SOL    HW1 2093   1.215   5.896   1.869
  398SOL    HW2 2094   1.155   5.765   1.948
  399SOL     OW 2095   5.401   5.972   2.769
  399SOL    HW1 2096   5.422   6.045   2.704
  399SOL    HW2 2097   5.486   5.940   2.812
  400SOL     OW 2098   0.176   0.232   6.018
  400SOL    HW1 2099   0.191   0.211   6.114
  400SOL    HW2 2100   0.263   0.250   5.973
  401SOL     OW 2101   4.637   0.912   5.932
  401SOL    HW1 2102   4.717   0.939   5.985
  401SOL    HW2 2103   4.579   0.852   5.988
  402SOL     OW 2104   6.216   6.547   3.036
  402SOL    HW1 2105   6.217   6.624   2.972
  402SOL    HW2 2106   6.205   6.462   2.985
  403SOL     OW 2107   4.210   2.647   6.136
  403SOL    HW1 2108   4.265   2.569   6.105
  403SOL    HW2 2109   4.131   2.615   6.188
  404SOL     OW 2110   1.599   6.687   3.542
  404SOL    HW1 2111   1.631   6.630   3.466
  404SOL    HW2 2112   1.500   6.680   3.549
  405SOL     OW 2113   2.051   2.452   1.072
  405SOL    HW1 2114   2.066   2.371   1.130
  405SOL    HW2 2115   1.958   2.449   1.036
  406SOL     OW 2116   1.186   2.502   4.156
  406SOL    HW1 2117   1.264   2.554   4.120
  406SOL    HW2 2118   1.219   2.416   4.195
  407SOL     OW 2119   2.348   0.289   3.992
  407SOL    HW1 2120   2.276   0.334   3.941
  407SOL    HW2 2121   2.363   0.197   3.955
  408SOL     OW 2122   1.309   0.809   3.166
  408SOL    HW1 2123   1.291   0.850   3.255
  408SOL    HW2 2124   1.372   0.868   3.114
  409SOL     OW 2125   5.752   2.915   2.067
  409SOL    HW1 2126   5.673   2.889   2.122
  409SOL    HW2 2127   5.802   2.988   2.114
  410SOL     OW 2128   2.304   0.136   6.960
  410SOL    HW1 2129   2.335   0.072   0.007
  410SOL    HW2 2130   2.361   0.125   6.878
  411SOL     OW 2131   6.003   6.273   6.617
  411SOL    HW1 2132   5.955   6.271   6.704
  411SOL    HW2 2133   6.054   6.359   6.608
  412SOL     OW 2134   4.693   0.050   3.357
  412SOL    HW1 2135   4.672   0.115   3.430
  412SOL    HW2 2136   4.697   0.099   3.270
  413SOL     OW 2137   4.282   4.589   1.380
  413SOL    HW1 2138   4.197   4.536   1.375
  413SOL    HW2 2139   4.357   4.527   1.402
  414SOL     OW 2140   3.998   5.140   2.942
  414SOL    HW1 2141   4.019   5.220   2.886
  414SOL    HW2 2142   4.006   5.057   2.886
  415SOL     OW 2143   1.236   5.975   0.573
  415SOL    HW1 2144   1.212   5.883   0.541
  415SOL    HW2 2145   1.193   6.043   0.515
  416SOL     OW 2146   4.368   5.997   5.220
  416SOL    HW1 2147   4.338   6.009   5.315
  416SOL    HW2 2148   4.288   5.979   5.162
  417SOL     OW 2149   2.640   6.468   0.873
  417SOL    HW1 2150   2.541   6.455   0.868
  417SOL    HW2 2151   2.660   6.544   0.935
  418SOL     OW 2152   4.871   6.080   0.558
  418SOL    HW1 2153   4.914   6.090   0.468
  418SOL    HW2 2154   4.895   6.159   0.615
  419SOL     OW 2155   1.234   0.295   1.272
  419SOL    HW1 2156   1.202   0.210   1.230
  419SOL    HW2 2157   1.329   0.285   1.301
  420SOL     OW 2158   6.344   3.420   1.196
  420SOL    HW1 2159   6.376   3.482   1.124
  420SOL    HW2 2160   6.261   3.457   1.237
  421SOL     OW 2161   0.665   5.046   6.214
  421SOL    HW1 2162   0.650   5.145   6.224
  421SOL    HW2 2163   0.667   5.023   6.117
  422SOL     OW 2164   6.243   5.850   0.738
  422SOL    HW1 2165   6.226   5.783   0.811
  422SOL    HW2 2166   6.185   5.829   0.660
  423SOL     OW 2167   6.854   3.244   0.060
  423SOL    HW1 2168   6.904   3.225   0.145
  423SOL    HW2 2169   6.789   3.318   0.076
  424SOL     OW 2170   3.029   3.559   1.079
  424SOL    HW1 2171   3.098   3.490   1.059
  424SOL    HW2 2172   2.940   3.516   1.091
  425SOL     OW 2173   5.400   1.237   2.090
  425SOL    HW1 2174   5.354   1.326   2.095
  425SOL    HW2 2175   5.391   1.201   1.997
  426SOL     OW 2176   5.601   2.159   4.712
  426SOL    HW1 2177   5.554   2.088   4.659
  426SOL    HW2 2178   5.697   2.132   4.726
  427SOL     OW 2179   5.584   5.109   2.551
  427SOL    HW1 2180   5.629   5.192   2.583
  427SOL    HW2 2181   5.536   5.065   2.627
  428SOL     OW 2182   4.657   6.987   5.103
  428SOL    HW1 2183   4.756   6.990   5.088
  428SOL    HW2 2184   4.611   0.008   5.027
  429SOL     OW 2185   2.796   4.795   1.354
  429SOL    HW1 2186   2.880   4.769   1.402
  429SOL    HW2 2187   2.798   4.757   1.262
  430SOL     OW 2188   0.451   6.833   4.236
  430SOL    HW1 2189   0.419   6.855   4.144
  430SOL    HW2 2190   0.550   6.823   4.235
  431SOL     OW 2191   3.764   0.344   0.609
  431SOL    HW1 2192   3.777   0.245   0.600
  431SOL    HW2 2193   3.844   0.391   0.572
  432SOL     OW 2194   6.644   2.433   1.421
  432SOL    HW1 2195   6.674   2.347   1.463
  432SOL    HW2 2196   6.621   2.418   1.325
  433SOL     OW 2197   3.114   6.401   3.551
  433SOL    HW1 2198   3.037   6.455   3.517
  433SOL    HW2 2199   3.086   6.350   3.632
  434SOL     OW 2200   5.147   5.351   1.709
  434SOL    HW1 2201   5.090   5.274   1.736
  434SOL    HW2 2202   5.143   5.363   1.610
  435SOL     OW 2203   3.772   2.482   5.338
  435SOL    HW1 2204   3.724   2.534   5.409
  435SOL    HW2 2205   3.845   2.538   5.300
  436SOL     OW 2206   2.489   6.551   1.367
  436SOL    HW1 2207   2.479   6.521   1.462
  436SOL    HW2 2208   2.441   6.638   1.354
  437SOL     OW 2209   0.695   0.067   6.346
  437SOL    HW1 2210   0.781   0.054   6.394
  437SOL    HW2 2211   0.622   0.020   6.396
  438SOL     OW 2212   2.148   3.353   2.391
  438SOL    HW1 2213   2.142   3.255   2.370
  438SOL    HW2 2214   2.241   3.385   2.376
  439SOL     OW 2215   6.003   4.201   3.490
  439SOL    HW1 2216   6.077   4.137   3.470
  439SOL    HW2 2217   6.034   4.270   3.555
  440SOL     OW 2218   0.746   1.892   4.915
  440SOL    HW1 2219   0.825   1.852   4.962
  440SOL    HW2 2220   0.663   1.870   4.965
  441SOL     OW 2221   0.474   2.094   3.097
  441SOL    HW1 2222   0.550   2.158   3.085
  441SOL    HW2 2223   0.481   2.021   3.029
  442SOL     OW 2224   2.059   5.075   6.873
  442SOL    HW1 2225   2.106   4.987   6.867
  442SOL    HW2 2226   2.114   5.145   6.827
  443SOL     OW 2227   0.934   3.898   5.155
  443SOL    HW1 2228   0.868   3.888   5.082
  443SOL    HW2 2229   0.984   3.984   5.144
  444SOL     OW 2230   5.484   2.667   6.016
  444SOL    HW1 2231   5.517   2.611   6.092
  444SOL    HW2 2232   5.384   2.660   6.010
  445SOL     OW 2233   1.586   5.374   3.326
  445SOL    HW1 2234   1.547   5.337   3.242
  445SOL    HW2 2235   1.620   5.299   3.383
  446SOL     OW 2236   4.093   4.909   3.148
  446SOL    HW1 2237   4.106   4.880   3.053
  446SOL    HW2 2238   4.144   4.994   3.164
  447SOL     OW 2239   0.482   3.471   7.017
  447SOL    HW1 2240   0.391   3.468   6.975
  447SOL    HW2 2241   0.486   3.408   0.070
  448SOL     OW 2242   3.240   0.515   4.980
  448SOL    HW1 2243   3.143   0.535   4.990
  448SOL    HW2 2244   3.283   0.586   4.924
  449SOL     OW 2245   4.458   0.678   5.275
  449SOL    HW1 2246   4.472   0.598   5.333
  449SOL    HW2 2247   4.546   0.721   5.255
  450SOL     OW 2248   1.023   5.731   3.326
  450SOL    HW1 2249   0.931   5.768   3.333
  450SOL    HW2 2250   1.023   5.636   3.355
  451SOL     OW 2251   1.959   1.816   3.050
  451SOL    HW1 2252   1.952   1.899   3.105
  451SOL    HW2 2253   1.892   1.749   3.083
  452SOL     OW 2254   6.449   6.055   1.223
  452SOL    HW1 2255   6.356   6.027   1.247
  452SOL    HW2 2256   6.461   6.050   1.124
  453SOL     OW 2257   3.512   0.108   4.649
  453SOL    HW1 2258   3.414   0.088   4.650
  453SOL    HW2 2259   3.552   0.089   4.739
  454SOL     OW 2260   0.357   5.224   6.161
  454SOL    HW1 2261   0.349   5.192   6.067
  454SOL    HW2 2262   0.423   5.299   6.165
  455SOL     OW 2263   6.906   0.866   4.099
  455SOL    HW1 2264   6.843   0.861   4.177
  455SOL    HW2 2265   6.917   0.775   4.059
  456SOL     OW 2266   4.516   5.450   4.271
  456SOL    HW1 2267   4.526   5.443   4.172
  456SOL    HW2 2268   4.420   5.468   4.293
  457SOL     OW 2269   2.045   3.280   3.637
  457SOL    HW1 2270   2.108   3.307   3.709
  457SOL    HW2 2271   2.073   3.321   3.550
  458SOL     OW 2272   4.803   6.228   4.507
  458SOL    HW1 2273   4.706   6.224   4.484
  458SOL    HW2 2274   4.857   6.197   4.429
  459SOL     OW 2275   1.584   6.966   3.885
  459SOL    HW1 2276   1.486   6.969   3.904
  459SOL    HW2 2277   1.626   6.892   3.938
  460SOL     OW 2278   1.475   0.820   2.553
  460SOL    HW1 2279   1.423   0.906   2.549
  460SOL    HW2 2280   1.554   0.832   2.613
  461SOL     OW 2281   5.944   6.492   4.717
  461SOL    HW1 2282   5.980   6.526   4.804
  461SOL    HW2 2283   5.845   6.490   4.720
  462SOL     OW 2284   4.007   2.445   5.866
  462SOL    HW1 2285   4.075   2.378   5.894
  462SOL    HW2 2286   3.948   2.406   5.795
  463SOL     OW 2287   6.011   6.016   3.734
  463SOL    HW1 2288   6.038   5.963   3.815
  463SOL    HW2 2289   5.986   6.108   3.761
  464SOL     OW 2290   2.651   1.721   6.262
  464SOL    HW1 2291   2.692   1.812   6.270
  464SOL    HW2 2292   2.611   1.694   6.349
  465SOL     OW 2293   1.359   2.484   4.533
  465SOL    HW1 2294   1.312   2.559   4.579
  465SOL    HW2 2295   1.292   2.414   4.509
  466SOL     OW 2296   0.771   5.252   3.148
  466SOL    HW1 2297   0.763   5.187   3.223
  466SOL    HW2 2298   0.716   5.220   3.070
  467SOL     OW 2299   1.205   0.794   6.058
  467SOL    HW1 2300   1.268   0.859   6.101
  467SOL    HW2 2301   1.149   0.842   5.990
  468SOL     OW 2302   3.203   6.406   6.660
  468SOL    HW1 2303   3.162   6.421   6.570
  468SOL    HW2 2304   3.215   6.307   6.675
  469SOL     OW 2305   2.767   4.553   0.511
  469SOL    HW1 2306   2.854   4.556   0.560
  469SOL    HW2 2307   2.698   4.604   0.563
  470SOL     OW 2308   3.967   0.616   2.333
  470SOL    HW1 2309   3.904   0.645   2.406
  470SOL    HW2 2310   3.978   0.517   2.336
  471SOL     OW 2311   1.927   2.299   4.232
  471SOL    HW1 2312   1.957   2.394   4.243
  471SOL    HW2 2313   1.975   2.241   4.297
  472SOL     OW 2314   4.946   3.953   6.829
  472SOL    HW1 2315   4.940   3.923   6.925
  472SOL    HW2 2316   4.939   4.053   6.826
  473SOL     OW 2317   0.548   3.187   1.692
  473SOL    HW1 2318   0.633   3.197   1.744
  473SOL    HW2 2319   0.497   3.274   1.695
  474SOL     OW 2320   4.668   4.924   3.761
  474SOL    HW1 2321   4.572   4.950   3.752
  474SOL    HW2 2322   4.725   4.987   3.708
  475SOL     OW 2323   6.000   1.272   6.077
  475SOL    HW1 2324   5.968   1.284   5.983
  475SOL    HW2 2325   5.926   1.296   6.140
  476SOL     OW 2326   0.271   3.891   2.055
  476SOL    HW1 2327   0.361   3.932   2.041
  476SOL    HW2 2328   0.270   3.843   2.143
  477SOL     OW 2329   2.337   4.760   5.440
  477SOL    HW1 2330   2.337   4.820   5.359
  477SOL    HW2 2331   2.266   4.791   5.503
  478SOL     OW 2332   3.045   6.650   2.742
  478SOL    HW1 2333   3.064   6.717   2.670
  478SOL    HW2 2334   3.006   6.697   2.821
  479SOL     OW 2335   4.603   1.881   0.051
  479SOL    HW1 2336   4.581   1.853   6.981
  479SOL    HW2 2337   4.588   1.804   0.113
  480SOL     OW 2338   2.372   0.915   0.007
  480SOL    HW1 2339   2.362   0.880   6.937
  480SOL    HW2 2340   2.341   0.846   0.072
  481SOL     OW 2341   2.077   0.562   6.481
  481SOL    HW1 2342   2.089   0.501   6.559
  481SOL    HW2 2343   2.106   0.654   6.507
  482SOL     OW 2344   4.456   4.604   3.349
  482SOL    HW1 2345   4.525   4.663   3.391
  482SOL    HW2 2346   4.416   4.652   3.270
  483SOL     OW 2347   6.890   1.593   2.260
  483SOL    HW1 2348   6.976   1.568   2.305
  483SOL    HW2 2349   6.894   1.688   2.231
  484SOL     OW 2350   0.941   2.848   5.211
  484SOL    HW1 2351   0.919   2.775   5.146
  484SOL    HW2 2352   0.897   2.932   5.182
  485SOL     OW 2353   4.278   5.568   2.398
  485SOL    HW1 2354   4.280   5.469   2.386
  485SOL    HW2 2355   4.329   5.612   2.324
  486SOL     OW 2356   0.016   1.673   1.238
  486SOL    HW1 2357   0.112   1.703   1.242
  486SOL    HW2 2358   7.017   1.651   1.143
  487SOL     OW 2359   0.976   1.849   0.597
  487SOL    HW1 2360   1.035   1.793   0.539
  487SOL    HW2 2361   0.938   1.924   0.543
  488SOL     OW 2362   0.634   1.617   1.245
  488SOL    HW1 2363   0.718   1.667   1.220
  488SOL    HW2 2364   0.633   1.529   1.197
  489SOL     OW 2365   3.591   6.344   6.164
  489SOL    HW1 2366   3.612   6.283   6.088
  489SOL    HW2 2367   3.558   6.431   6.129
  490SOL     OW 2368   6.747   5.638   3.531
  490SOL    HW1 2369   6.766   5.540   3.532
  490SOL    HW2 2370   6.830   5.688   3.557
  491SOL     OW 2371   0.132   3.072   1.974
  491SOL    HW1 2372   0.137   3.080   2.074
  491SOL    HW2 2373   0.177   3.152   1.933
  492SOL     OW 2374   2.999   0.343   4.664
  492SOL    HW1 2375   3.014   0.414   4.733
  492SOL    HW2 2376   3.085   0.325   4.616
  493SOL     OW 2377   5.602   6.397   5.344
  493SOL    HW1 2378   5.615   6.304   5.310
  493SOL    HW2 2379   5.531   6.397   5.414
  494SOL     OW 2380   0.247   0.194   6.821
  494SOL    HW1 2381   0.268   0.219   6.916
  494SOL    HW2 2382   0.295   0.256   6.759
  495SOL     OW 2383   4.453   5.789   2.865
  495SOL    HW1 2384   4.469   5.882   2.832
  495SOL    HW2 2385   4.541   5.743   2.879
  496SOL     OW 2386   5.190   3.679   2.751
  496SOL    HW1 2387   5.201   3.580   2.765
  496SOL    HW2 2388   5.253   3.728   2.810
  497SOL     OW 2389   3.377   1.046   4.928
  497SOL    HW1 2390   3.453   0.997   4.971
  497SOL    HW2 2391   3.405   1.076   4.837
  498SOL     OW 2392   1.522   4.070   1.457
  498SOL    HW1 2393   1.437   4.122   1.458
  498SOL    HW2 2394   1.520   4.001   1.529
  499SOL     OW 2395   3.101   0.195   3.983
  499SOL    HW1 2396   3.141   0.130   3.918
  499SOL    HW2 2397   3.068   0.275   3.934
  500SOL     OW 2398   1.204   3.291   2.555
  500SOL    HW1 2399   1.227   3.261   2.647
  500SOL    HW2 2400   1.256   3.238   2.488
  501SOL     OW 2401   2.842   6.620   0.365
  501SOL    HW1 2402   2.848   6.533   0.314
  501SOL    HW2 2403   2.875   6.606   0.458
  502SOL     OW 2404   6.680   4.493   6.422
  502SOL    HW1 2405   6.658   4.466   6.516
  502SOL    HW2 2406   6.669   4.414   6.361
  503SOL     OW 2407   5.285   5.953   6.142
  503SOL    HW1 2408   5.354   5.935   6.072
  503SOL    HW2 2409   5.327   5.948   6.233
  504SOL     OW 2410   2.257   5.318   3.025
  504SOL    HW1 2411   2.281   5.311   2.928
  504SOL    HW2 2412   2.215   5.406   3.042
  505SOL     OW 2413   3.479   6.182   5.104
  505SOL    HW1 2414   3.436   6.125   5.174
  505SOL    HW2 2415   3.413   6.202   5.032
  506SOL     OW 2416   1.309   5.047   4.769
  506SOL    HW1 2417   1.223   5.093   4.793
  506SOL    HW2 2418   1.381   5.116   4.758
  507SOL     OW 2419   2.804   0.895   3.447
  507SOL    HW1 2420   2.785   0.987   3.482
  507SOL    HW2 2421   2.731   0.833   3.474
  508SOL     OW 2422   6.564   3.593   2.417
  508SOL    HW1 2423   6.471   3.627   2.407
  508SOL    HW2 2424   6.609   3.594   2.328
  509SOL     OW 2425   2.780   1.174   1.510
  509SOL    HW1 2426   2.860   1.233   1.512
  509SOL    HW2 2427   2.710   1.214   1.451
  510SOL     OW 2428   6.501   4.853   6.131
  510SOL    HW1 2429   6.523   4.756   6.124
  510SOL    HW2 2430   6.570   4.906   6.082
  511SOL     OW 2431   6.982   0.092   6.588
  511SOL    HW1 2432   0.022   0.015   6.599
  511SOL    HW2 2433   0.004   0.165   6.535
  512SOL     OW 2434   0.497   3.141   0.409
  512SOL    HW1 2435   0.477   3.058   0.358
  512SOL    HW2 2436   0.522   3.117   0.503
  513SOL     OW 2437   5.737   6.250   2.998
  513SOL    HW1 2438   5.801   6.223   3.070
  513SOL    HW2 2439   5.644   6.247   3.033
  514SOL     OW 2440   6.994   2.725   3.710
  514SOL    HW1 2441   6.934   2.729   3.631
  514SOL    HW2 2442   0.026   2.641   3.706
  515SOL     OW 2443   2.137   0.849   6.495
  515SOL    HW1 2444   2.062   0.883   6.439
  515SOL    HW2 2445   2.139   0.898   6.582
  516SOL     OW 2446   2.599   4.481   1.767
  516SOL    HW1 2447   2.543   4.545   1.820
  516SOL    HW2 2448   2.695   4.505   1.776
  517SOL     OW 2449   5.055   5.836   1.965
  517SOL    HW1 2450   5.043   5.935   1.958
  517SOL    HW2 2451   5.044   5.807   2.060
  518SOL     OW 2452   2.649   2.399   2.433
  518SOL    HW1 2453   2.580   2.383   2.363
  518SOL    HW2 2454   2.730   2.441   2.391
  519SOL     OW 2455   1.143   1.083   4.724
  519SOL    HW1 2456   1.068   1.146   4.742
  519SOL    HW2 2457   1.186   1.106   4.637
  520SOL     OW 2458   6.307   5.022   0.136
  520SOL    HW1 2459   6.216   4.991   0.164
  520SOL    HW2 2460   6.371   4.945   0.136
  521SOL     OW 2461   6.510   3.438   6.610
  521SOL    HW1 2462   6.502   3.347   6.651
  521SOL    HW2 2463   6.422   3.467   6.573
  522SOL     OW 2464   3.566   3.673   5.501
  522SOL    HW1 2465   3.522   3.588   5.472
  522SOL    HW2 2466   3.516   3.751   5.465
  523SOL     OW 2467   0.801   4.533   1.920
  523SOL    HW1 2468   0.878   4.594   1.904
  523SOL    HW2 2469   0.726   4.586   1.961
  524SOL     OW 2470   1.574   0.801   6.733
  524SOL    HW1 2471   1.599   0.854   6.652
  524SOL    HW2 2472   1.476   0.813   6.751
  525SOL     OW 2473   2.770   3.972   6.832
  525SOL    HW1 2474   2.790   4.025   6.750
  525SOL    HW2 2475   2.810   3.881   6.824
  526SOL     OW 2476   3.661   6.943   3.919
  526SOL    HW1 2477   3.651   6.854   3.962
  526SOL    HW2 2478   3.662   6.932   3.820
  527SOL     OW 2479   6.111   3.206   6.229
  527SOL    HW1 2480   6.201   3.207   6.273
  527SOL    HW2 2481   6.121   3.173   6.135
  528SOL     OW 2482   0.867   2.016   4.122
  528SOL    HW1 2483   0.913   1.955   4.057
  528SOL    HW2 2484   0.934   2.080   4.160
  529SOL     OW 2485   0.858   6.086   4.463
  529SOL    HW1 2486   0.880   5.994   4.496
  529SOL    HW2 2487   0.781   6.122   4.516
  530SOL     OW 2488   2.658   3.100   5.380
  530SOL    HW1 2489   2.585   3.096   5.312
  530SOL    HW2 2490   2.725   3.028   5.362
  531SOL     OW 2491   0.136   0.493   1.530
  531SOL    HW1 2492   0.059   0.434   1.506
  531SOL    HW2 2493   0.110   0.589   1.518
  532SOL     OW 2494   1.052   2.234   6.829
  532SOL    HW1 2495   1.134   2.277   6.867
  532SOL    HW2 2496   0.971   2.275   6.871
  533SOL     OW 2497   3.804   6.498   4.012
  533SOL    HW1 2498   3.842   6.557   3.941
  533SOL    HW2 2499   3.776   6.411   3.971
  534SOL     OW 2500   5.502   5.076   3.393
  534SOL    HW1 2501   5.489   5.100   3.296
  534SOL    HW2 2502   5.415   5.082   3.441
  535SOL     OW 2503   0.600   3.693   4.748
  535SOL    HW1 2504   0.592   3.790   4.725
  535SOL    HW2 2505   0.696   3.671   4.765
  536SOL     OW 2506   0.244   4.481   2.170
  536SOL    HW1 2507   0.316   4.450   2.108
  536SOL    HW2 2508   0.206   4.402   2.218
  537SOL     OW 2509   1.688   6.026   3.586
  537SOL    HW1 2510   1.596   6.020   3.626
  537SOL    HW2 2511   1.753   5.979   3.646
  538SOL     OW 2512   2.081   4.518   3.600
  538SOL    HW1 2513   2.145   4.459   3.551
  538SOL    HW2 2514   2.130   4.565   3.674
  539SOL     OW 2515   0.788   5.976   0.452
  539SOL    HW1 2516   0.865   6.040   0.462
  539SOL    HW2 2517   0.743   5.993   0.365
  540SOL     OW 2518   6.794   0.989   1.638
  540SOL    HW1 2519   6.745   1.047   1.704
  540SOL    HW2 2520   6.753   0.898   1.637
  541SOL     OW 2521   2.850   6.574   4.412
  541SOL    HW1 2522   2.885   6.658   4.370
  541SOL    HW2 2523   2.918   6.501   4.403
  542SOL     OW 2524   6.676   0.422   0.081
  542SOL    HW1 2525   6.748   0.356   0.098
  542SOL    HW2 2526   6.587   0.381   0.101
  543SOL     OW 2527   1.170   5.436   4.753
  543SOL    HW1 2528   1.162   5.461   4.849
  543SOL    HW2 2529   1.102   5.486   4.700
  544SOL     OW 2530   2.073   4.117   0.816
  544SOL    HW1 2531   2.080   4.196   0.877
  544SOL    HW2 2532   2.145   4.121   0.747
  545SOL     OW 2533   3.274   1.473   3.450
  545SOL    HW1 2534   3.363   1.437   3.480
  545SOL    HW2 2535   3.279   1.495   3.352
  546SOL     OW 2536   1.559   3.339   0.195
  546SOL    HW1 2537   1.536   3.432   0.224
  546SOL    HW2 2538   1.658   3.332   0.184
  547SOL     OW 2539   2.674   1.485   6.152
  547SOL    HW1 2540   2.684   1.573   6.197
  547SOL    HW2 2541   2.754   1.428   6.170
  548SOL     OW 2542   3.770   3.010   2.892
  548SOL    HW1 2543   3.823   3.085   2.854
  548SOL    HW2 2544   3.826   2.958   2.956
  549SOL     OW 2545   4.596   3.096   1.357
  549SOL    HW1 2546   4.550   3.012   1.384
  549SOL    HW2 2547   4.648   3.133   1.434
  550SOL     OW 2548   6.960   4.427   3.515
  550SOL    HW1 2549   6.938   4.451   3.609
  550SOL    HW2 2550   0.003   4.491   3.478
  551SOL     OW 2551   0.101   1.371   1.111
  551SOL    HW1 2552   0.126   1.276   1.092
  551SOL    HW2 2553   0.140   1.399   1.198
  552SOL     OW 2554   4.755   5.141   0.871
  552SOL    HW1 2555   4.695   5.214   0.839
  552SOL    HW2 2556   4.705   5.054   0.873
  553SOL     OW 2557   2.132   0.234   1.867
  553SOL    HW1 2558   2.045   0.196   1.898
  553SOL    HW2 2559   2.204   0.167   1.879
  554SOL     OW 2560   4.940   6.345   6.108
  554SOL    HW1 2561   4.855   6.360   6.057
  554SOL    HW2 2562   4.917   6.312   6.200
  555SOL     OW 2563   2.067   5.440   4.160
  555SOL    HW1 2564   2.146   5.478   4.208
  555SOL    HW2 2565   1.997   5.510   4.148
  556SOL     OW 2566   6.045   2.363   4.138
  556SOL    HW1 2567   5.975   2.318   4.082
  556SOL    HW2 2568   6.015   2.455   4.162
  557SOL     OW 2569   0.650   5.351   6.760
  557SOL    HW1 2570   0.692   5.439   6.741
  557SOL    HW2 2571   0.655   5.331   6.857
  558SOL     OW 2572   3.387   3.973   4.444
  558SOL    HW1 2573   3.411   3.889   4.491
  558SOL    HW2 2574   3.342   3.951   4.357
  559SOL     OW 2575   6.012   6.604   7.005
  559SOL    HW1 2576   5.956   6.677   6.968
  559SOL    HW2 2577   6.070   6.640   0.055
  560SOL     OW 2578   4.075   6.235   0.555
  560SOL    HW1 2579   3.986   6.270   0.526
  560SOL    HW2 2580   4.087   6.251   0.653
  561SOL     OW 2581   6.733   0.338   6.856
  561SOL    HW1 2582   6.700   0.410   6.794
  561SOL    HW2 2583   6.729   0.372   6.950
  562SOL     OW 2584   4.615   0.551   6.608
  562SOL    HW1 2585   4.653   0.610   6.537
  562SOL    HW2 2586   4.521   0.526   6.585
  563SOL     OW 2587   2.471   0.433   3.283
  563SOL    HW1 2588   2.380   0.405   3.312
  563SOL    HW2 2589   2.467   0.469   3.190
  564SOL     OW 2590   2.423   2.223   6.252
  564SOL    HW1 2591   2.400   2.306   6.303
  564SOL    HW2 2592   2.339   2.176   6.227
  565SOL     OW 2593   4.384   3.168   5.310
  565SOL    HW1 2594   4.298   3.168   5.361
  565SOL    HW2 2595   4.394   3.254   5.260
  566SOL     OW 2596   5.108   3.909   3.698
  566SOL    HW1 2597   5.008   3.906   3.685
  566SOL    HW2 2598   5.143   3.995   3.662
  567SOL     OW 2599   3.002   3.683   3.167
  567SOL    HW1 2600   3.056   3.677   3.251
  567SOL    HW2 2601   3.008   3.596   3.118
  568SOL     OW 2602   3.553   2.600   1.124
  568SOL    HW1 2603   3.600   2.645   1.200
  568SOL    HW2 2604   3.564   2.501   1.133
  569SOL     OW 2605   2.059   2.993   0.420
  569SOL    HW1 2606   2.074   3.085   0.384
  569SOL    HW2 2607   2.010   2.938   0.353
  570SOL     OW 2608   1.975   6.350   5.592
  570SOL    HW1 2609   1.892   6.397   5.561
  570SOL    HW2 2610   1.949   6.263   5.634
  571SOL     OW 2611   3.648   6.995   2.857
  571SOL    HW1 2612   3.645   0.048   2.922
  571SOL    HW2 2613   3.576   6.929   2.880
  572SOL     OW 2614   2.795   5.185   6.050
  572SOL    HW1 2615   2.789   5.229   6.140
  572SOL    HW2 2616   2.726   5.224   5.989
  573SOL     OW 2617   4.231   2.011   5.242
  573SOL    HW1 2618   4.173   2.073   5.190
  573SOL    HW2 2619   4.257   1.933   5.185
  574SOL     OW 2620   2.149   2.072   3.701
  574SOL    HW1 2621   2.106   2.150   3.747
  574SOL    HW2 2622   2.130   2.077   3.603
  575SOL     OW 2623   5.993   3.889   6.069
  575SOL    HW1 2624   5.930   3.939   6.009
  575SOL    HW2 2625   6.020   3.804   6.025
  576SOL     OW 2626   1.382   2.287   1.971
  576SOL    HW1 2627   1.285   2.273   1.989
  576SOL    HW2 2628   1.411   2.374   2.010
  577SOL     OW 2629   2.116   1.396   3.417
  577SOL    HW1 2630   2.215   1.387   3.409
  577SOL    HW2 2631   2.089   1.379   3.512
  578SOL     OW 2632   6.930   3.133   3.761
  578SOL    HW1 2633   6.927   3.098   3.855
  578SOL    HW2 2634   6.858   3.088   3.707
  579SOL     OW 2635   3.118   2.410   0.965
  579SOL    HW1 2636   3.172   2.489   0.990
  579SOL    HW2 2637   3.165   2.358   0.894
  580SOL     OW 2638   0.665   4.497   6.625
  580SOL    HW1 2639   0.665   4.426   6.554
  580SOL    HW2 2640   0.571   4.526   6.645
  581SOL     OW 2641   3.213   3.375   2.802
  581SOL    HW1 2642   3.135   3.435   2.788
  581SOL    HW2 2643   3.242   3.380   2.898
  582SOL     OW 2644   5.238   5.059   2.758
  582SOL    HW1 2645   5.155   5.009   2.733
  582SOL    HW2 2646   5.315   4.996   2.761
  583SOL     OW 2647   2.943   4.824   6.562
  583SOL    HW1 2648   2.975   4.733   6.535
  583SOL    HW2 2649   3.012   4.892   6.538
  584SOL     OW 2650   0.977   5.566   5.540
  584SOL    HW1 2651   1.013   5.653   5.506
  584SOL    HW2 2652   0.895   5.542   5.488
  585SOL     OW 2653   6.578   2.953   6.128
  585SOL    HW1 2654   6.643   3.028   6.119
  585SOL    HW2 2655   6.500   2.968   6.069
  586SOL     OW 2656   3.528   0.187   0.222
  586SOL    HW1 2657   3.541   0.090   0.242
  586SOL    HW2 2658   3.615   0.229   0.197
  587SOL     OW 2659   1.962   2.339   5.395
  587SOL    HW1 2660   2.003   2.409   5.453
  587SOL    HW2 2661   1.870   2.367   5.368
  588SOL     OW 2662   2.986   6.182   0.993
  588SOL    HW1 2663   3.005   6.151   0.900
  588SOL    HW2 2664   2.890   6.162   1.016
  589SOL     OW 2665   3.857   5.302   2.183
  589SOL    HW1 2666   3.884   5.367   2.254
  589SOL    HW2 2667   3.884   5.209   2.210
  590SOL     OW 2668   6.549   3.031   1.723
  590SOL    HW1 2669   6.595   3.006   1.638
  590SOL    HW2 2670   6.480   3.101   1.704
  591SOL     OW 2671   3.697   6.913   3.644
  591SOL    HW1 2672   3.782   6.904   3.592
  591SOL    HW2 2673   3.652   6.823   3.650
  592SOL     OW 2674   4.086   0.578   0.858
  592SOL    HW1 2675   4.130   0.490   0.845
  592SOL    HW2 2676   4.108   0.639   0.782
  593SOL     OW 2677   4.515   2.100   3.651
  593SOL    HW1 2678   4.600   2.091   3.704
  593SOL    HW2 2679   4.494   2.012   3.608
  594SOL     OW 2680   4.245   3.182   6.629
  594SOL    HW1 2681   4.229   3.111   6.560
  594SOL    HW2 2682   4.250   3.139   6.719
  595SOL     OW 2683   4.639   6.383   4.070
  595SOL    HW1 2684   4.712   6.373   4.137
  595SOL    HW2 2685   4.676   6.416   3.984
  596SOL     OW 2686   1.164   3.952   1.310
  596SOL    HW1 2687   1.205   4.034   1.349
  596SOL    HW2 2688   1.201   3.936   1.219
  597SOL     OW 2689   4.595   0.229   5.693
  597SOL    HW1 2690   4.550   0.141   5.677
  597SOL    HW2 2691   4.692   0.220   5.674
  598SOL     OW 2692   3.576   4.231   0.376
  598SOL    HW1 2693   3.560   4.327   0.399
  598SOL    HW2 2694   3.655   4.197   0.427
  599SOL     OW 2695   0.371   0.828   3.332
  599SOL    HW1 2696   0.370   0.747   3.273
  599SOL    HW2 2697   0.317   0.810   3.414
  600SOL     OW 2698   0.759   0.032   0.672
  600SOL    HW1 2699   0.734   0.103   0.737
  600SOL    HW2 2700   0.858   0.019   0.673
  601SOL     OW 2701   3.360   6.264   3.271
  601SOL    HW1 2702   3.375   6.327   3.348
  601SOL    HW2 2703   3.337   6.317   3.190
  602SOL     OW 2704   0.634   1.340   0.578
  602SOL    HW1 2705   0.681   1.395   0.509
  602SOL    HW2 2706   0.535   1.357   0.571
  603SOL     OW 2707   4.174   1.851   3.809
  603SOL    HW1 2708   4.263   1.878   3.847
  603SOL    HW2 2709   4.113   1.823   3.884
  604SOL     OW 2710   0.724   3.247   0.756
  604SOL    HW1 2711   0.810   3.216   0.715
  604SOL    HW2 2712   0.647   3.209   0.705
  605SOL     OW 2713   6.567   5.496   3.222
  605SOL    HW1 2714   6.619   5.582   3.218
  605SOL    HW2 2715   6.621   5.422   3.182
  606SOL     OW 2716   5.049   0.786   5.974
  606SOL    HW1 2717   5.106   0.776   5.893
  606SOL    HW2 2718   5.021   0.882   5.984
  607SOL     OW 2719   5.699   1.044   4.424
  607SOL    HW1 2720   5.700   1.047   4.524
  607SOL    HW2 2721   5.790   1.017   4.391
  608SOL     OW 2722   3.339   6.789   0.392
  608SOL    HW1 2723   3.305   6.696   0.411
  608SOL    HW2 2724   3.262   6.851   0.382
  609SOL     OW 2725   3.570   3.268   4.497
  609SOL    HW1 2726   3.628   3.218   4.433
  609SOL    HW2 2727   3.570   3.221   4.586
  610SOL     OW 2728   5.619   2.205   2.974
  610SOL    HW1 2729   5.717   2.214   2.990
  610SOL    HW2 2730   5.571   2.285   3.012
  611SOL     OW 2731   0.855   0.323   6.813
  611SOL    HW1 2732   0.828   0.419   6.813
  611SOL    HW2 2733   0.789   0.270   6.866
  612SOL     OW 2734   3.346   5.794   5.850
  612SOL    HW1 2735   3.424   5.845   5.813
  612SOL    HW2 2736   3.272   5.859   5.871
  613SOL     OW 2737   4.627   1.006   5.352
  613SOL    HW1 2738   4.688   0.993   5.430
  613SOL    HW2 2739   4.532   0.992   5.382
  614SOL     OW 2740   5.797   4.918   1.103
  614SOL    HW1 2741   5.888   4.950   1.080
  614SOL    HW2 2742   5.736   4.997   1.116
  615SOL     OW 2743   0.961   0.703   6.834
  615SOL    HW1 2744   0.915   0.671   6.917
  615SOL    HW2 2745   0.961   0.803   6.831
  616SOL     OW 2746   5.903   1.699   3.903
  616SOL    HW1 2747   5.938   1.627   3.842
  616SOL    HW2 2748   5.970   1.773   3.908
  617SOL     OW 2749   0.380   4.212   6.819
  617SOL    HW1 2750   0.432   4.127   6.816
  617SOL    HW2 2751   0.326   4.222   6.736
  618SOL     OW 2752   5.780   3.597   1.209
  618SOL    HW1 2753   5.743   3.690   1.205
  618SOL    HW2 2754   5.776   3.564   1.304
  619SOL     OW 2755   3.465   6.829   6.745
  619SOL    HW1 2756   3.532   6.873   6.685
  619SOL    HW2 2757   3.466   6.730   6.730
  620SOL     OW 2758   5.766   3.486   1.459
  620SOL    HW1 2759   5.749   3.530   1.547
  620SOL    HW2 2760   5.835   3.415   1.470
  621SOL     OW 2761   2.789   0.151   4.942
  621SOL    HW1 2762   2.747   0.075   4.893
  621SOL    HW2 2763   2.762   0.238   4.900
  622SOL     OW 2764   0.862   2.391   5.331
  622SOL    HW1 2765   0.787   2.451   5.360
  622SOL    HW2 2766   0.851   2.368   5.234
  623SOL     OW 2767   6.505   6.906   5.248
  623SOL    HW1 2768   6.503   6.927   5.150
  623SOL    HW2 2769   6.415   6.874   5.277
  624SOL     OW 2770   6.679   1.482   6.661
  624SOL    HW1 2771   6.762   1.426   6.653
  624SOL    HW2 2772   6.640   1.470   6.752
  625SOL     OW 2773   1.834   0.678   0.053
  625SOL    HW1 2774   1.869   0.653   0.143
  625SOL    HW2 2775   1.897   0.741   0.009
  626SOL     OW 2776   1.058   5.397   2.788
  626SOL    HW1 2777   1.066   5.401   2.888
  626SOL    HW2 2778   1.093   5.481   2.748
  627SOL     OW 2779   6.596   6.122   0.211
  627SOL    HW1 2780   6.598   6.124   0.111
  627SOL    HW2 2781   6.607   6.027   0.242
  628SOL     OW 2782   5.636   3.953   4.849
  628SOL    HW1 2783   5.702   3.924   4.919
  628SOL    HW2 2784   5.643   3.893   4.770
  629SOL     OW 2785   0.311   1.289   0.395
  629SOL    HW1 2786   0.256   1.209   0.417
  629SOL    HW2 2787   0.273   1.334   0.314
  630SOL     OW 2788   6.489   1.474   0.470
  630SOL    HW1 2789   6.572   1.519   0.500
  630SOL    HW2 2790   6.421   1.476   0.543
  631SOL     OW 2791   3.117   1.922   4.521
  631SOL    HW1 2792   3.141   1.841   4.468
  631SOL    HW2 2793   3.019   1.941   4.511
  632SOL     OW 2794   4.601   2.738   0.206
  632SOL    HW1 2795   4.645   2.649   0.217
  632SOL    HW2 2796   4.625   2.797   0.283
  633SOL     OW 2797   2.181   5.084   1.003
  633SOL    HW1 2798   2.154   5.047   1.092
  633SOL    HW2 2799   2.106   5.071   0.938
  634SOL     OW 2800   3.335   3.388   3.410
  634SOL    HW1 2801   3.383   3.337   3.482
  634SOL    HW2 2802   3.313   3.326   3.335
  635SOL     OW 2803   4.811   0.171   6.740
  635SOL    HW1 2804   4.742   0.150   6.809
  635SOL    HW2 2805   4.829   0.269   6.739
  636SOL     OW 2806   3.594   0.279   5.017
  636SOL    HW1 2807   3.619   0.372   4.989
  636SOL    HW2 2808   3.505   0.255   4.979
  637SOL     OW 2809   6.021   1.777   2.659
  637SOL    HW1 2810   5.967   1.693   2.663
  637SOL    HW2 2811   6.001   1.825   2.574
  638SOL     OW 2812   5.700   3.494   3.945
  638SOL    HW1 2813   5.712   3.450   4.035
  638SOL    HW2 2814   5.740   3.585   3.947
  639SOL     OW 2815   5.490   4.596   3.264
  639SOL    HW1 2816   5.493   4.496   3.267
  639SOL    HW2 2817   5.396   4.626   3.246
  640SOL     OW 2818   0.336   3.738   3.641
  640SOL    HW1 2819   0.237   3.743   3.626
  640SOL    HW2 2820   0.382   3.719   3.554
  641SOL     OW 2821   1.287   4.796   5.601
  641SOL    HW1 2822   1.227   4.740   5.658
  641SOL    HW2 2823   1.361   4.833   5.656
  642SOL     OW 2824   1.478   3.355   4.615
  642SOL    HW1 2825   1.573   3.327   4.632
  642SOL    HW2 2826   1.471   3.391   4.522
  643SOL     OW 2827   6.877   6.540   7.017
  643SOL    HW1 2828   6.880   6.600   6.937
  643SOL    HW2 2829   6.899   6.446   6.988
  644SOL     OW 2830   0.941   0.762   4.434
  644SOL    HW1 2831   0.960   0.710   4.351
  644SOL    HW2 2832   0.927   0.858   4.411
  645SOL     OW 2833   3.532   4.920   3.057
  645SOL    HW1 2834   3.501   4.906   3.150
  645SOL    HW2 2835   3.454   4.917   2.994
  646SOL     OW 2836   4.124   0.753   4.620
  646SOL    HW1 2837   4.122   0.791   4.528
  646SOL    HW2 2838   4.046   0.788   4.673
  647SOL     OW 2839   5.177   1.850   5.036
  647SOL    HW1 2840   5.091   1.891   5.066
  647SOL    HW2 2841   5.173   1.830   4.938
  648SOL     OW 2842   6.581   3.004   3.120
  648SOL    HW1 2843   6.653   2.974   3.057
  648SOL    HW2 2844   6.559   2.930   3.183
  649SOL     OW 2845   2.052   4.623   6.779
  649SOL    HW1 2846   1.993   4.560   6.728
  649SOL    HW2 2847   2.030   4.616   6.876
  650SOL     OW 2848   6.819   5.507   0.405
  650SOL    HW1 2849   6.859   5.599   0.408
  650SOL    HW2 2850   6.858   5.456   0.329
  651SOL     OW 2851   2.126   0.612   5.823
  651SOL    HW1 2852   2.178   0.549   5.881
  651SOL    HW2 2853   2.112   0.698   5.872
  652SOL     OW 2854   4.126   6.489   1.860
  652SOL    HW1 2855   4.127   6.578   1.815
  652SOL    HW2 2856   4.031   6.458   1.870
  653SOL     OW 2857   0.677   6.806   0.312
  653SOL    HW1 2858   0.701   6.711   0.333
  653SOL    HW2 2859   0.581   6.822   0.335
  654SOL     OW 2860   6.897   6.481   6.059
  654SOL    HW1 2861   6.832   6.548   6.094
  654SOL    HW2 2862   6.848   6.413   6.004
  655SOL     OW 2863   0.103   5.450   1.807
  655SOL    HW1 2864   0.108   5.350   1.806
  655SOL    HW2 2865   0.149   5.485   1.888
  656SOL     OW 2866   2.381   6.415   0.988
  656SOL    HW1 2867   2.431   6.374   1.065
  656SOL    HW2 2868   2.286   6.383   0.989
  657SOL     OW 2869   2.987   3.485   1.454
  657SOL    HW1 2870   2.978   3.539   1.537
  657SOL    HW2 2871   3.043   3.536   1.388
  658SOL     OW 2872   1.633   4.299   4.974
  658SOL    HW1 2873   1.587   4.376   5.017
  658SOL    HW2 2874   1.683   4.247   5.043
  659SOL     OW 2875   3.214   5.501   4.873
  659SOL    HW1 2876   3.164   5.420   4.842
  659SOL    HW2 2877   3.191   5.520   4.968
  660SOL     OW 2878   4.865   5.411   2.230
  660SOL    HW1 2879   4.831   5.409   2.324
  660SOL    HW2 2880   4.964   5.399   2.229
  661SOL     OW 2881   5.060   4.379   4.661
  661SOL    HW1 2882   5.146   4.395   4.612
  661SOL    HW2 2883   5.080   4.352   4.755
  662SOL     OW 2884   4.087   2.196   6.677
  662SOL    HW1 2885   3.995   2.205   6.639
  662SOL    HW2 2886   4.087   2.126   6.749
  663SOL     OW 2887   0.322   4.930   6.806
  663SOL    HW1 2888   0.309   5.003   6.874
  663SOL    HW2 2889   0.415   4.895   6.811
  664SOL     OW 2890   1.786   5.485   0.040
  664SOL    HW1 2891   1.705   5.464   7.009
  664SOL    HW2 2892   1.761   5.547   0.115
  665SOL     OW 2893   4.448   5.760   1.313
  665SOL    HW1 2894   4.486   5.836   1.366
  665SOL    HW2 2895   4.522   5.713   1.265
  666SOL     OW 2896   3.313   1.734   0.461
  666SOL    HW1 2897   3.258   1.651   0.476
  666SOL    HW2 2898   3.351   1.733   0.369
  667SOL     OW 2899   0.649   2.638   4.026
  667SOL    HW1 2900   0.720   2.632   3.956
  667SOL    HW2 2901   0.602   2.550   4.034
  668SOL     OW 2902   4.367   5.782   6.671
  668SOL    HW1 2903   4.312   5.703   6.698
  668SOL    HW2 2904   4.307   5.859   6.651
  669SOL     OW 2905   1.504   6.686   3.254
  669SOL    HW1 2906   1.452   6.610   3.295
  669SOL    HW2 2907   1.564   6.650   3.183
  670SOL     OW 2908   2.996   3.829   2.949
  670SOL    HW1 2909   2.946   3.773   2.882
  670SOL    HW2 2910   2.990   3.786   3.039
  671SOL     OW 2911   2.291   6.149   5.947
  671SOL    HW1 2912   2.279   6.072   5.886
  671SOL    HW2 2913   2.352   6.123   6.023
  672SOL     OW 2914   1.367   3.369   3.679
  672SOL    HW1 2915   1.333   3.293   3.624
  672SOL    HW2 2916   1.414   3.435   3.620
  673SOL     OW 2917   4.381   6.975   6.632
  673SOL    HW1 2918   4.359   0.047   6.650
  673SOL    HW2 2919   4.476   6.968   6.602
  674SOL     OW 2920   0.061   2.886   4.162
  674SOL    HW1 2921   0.148   2.925   4.190
  674SOL    HW2 2922   0.066   2.860   4.065
  675SOL     OW 2923   1.028   2.114   5.071
  675SOL    HW1 2924   1.078   2.201   5.074
  675SOL    HW2 2925   0.983   2.104   4.982
  676SOL     OW 2926   3.195   4.862   4.265
  676SOL    HW1 2927   3.175   4.812   4.181
  676SOL    HW2 2928   3.112   4.867   4.322
  677SOL     OW 2929   5.915   0.701   0.422
  677SOL    HW1 2930   5.892   0.765   0.348
  677SOL    HW2 2931   5.836   0.642   0.439
  678SOL     OW 2932   2.505   1.333   5.188
  678SOL    HW1 2933   2.406   1.350   5.194
  678SOL    HW2 2934   2.542   1.318   5.280
  679SOL     OW 2935   4.173   1.395   4.508
  679SOL    HW1 2936   4.076   1.411   4.488
  679SOL    HW2 2937   4.227   1.406   4.425
  680SOL     OW 2938   5.831   4.513   5.634
  680SOL    HW1 2939   5.856   4.599   5.678
  680SOL    HW2 2940   5.786   4.453   5.701
  681SOL     OW 2941   6.572   6.862   1.076
  681SOL    HW1 2942   6.658   6.856   1.127
  681SOL    HW2 2943   6.591   6.862   0.978
  682SOL     OW 2944   2.543   6.693   6.023
  682SOL    HW1 2945   2.479   6.746   5.967
  682SOL    HW2 2946   2.530   6.596   6.004
  683SOL     OW 2947   3.476   0.342   5.884
  683SOL    HW1 2948   3.503   0.428   5.841
  683SOL    HW2 2949   3.418   0.290   5.821
  684SOL     OW 2950   6.413   1.335   6.158
  684SOL    HW1 2951   6.482   1.327   6.230
  684SOL    HW2 2952   6.456   1.373   6.075
  685SOL     OW 2953   4.926   0.684   5.397
  685SOL    HW1 2954   4.958   0.600   5.353
  685SOL    HW2 2955   4.838   0.667   5.443
  686SOL     OW 2956   5.953   3.168   3.543
  686SOL    HW1 2957   6.006   3.108   3.603
  686SOL    HW2 2958   5.997   3.172   3.453
  687SOL     OW 2959   6.792   3.317   6.566
  687SOL    HW1 2960   6.762   3.222   6.580
  687SOL    HW2 2961   6.775   3.370   6.649
  688SOL     OW 2962   2.048   3.599   0.165
  688SOL    HW1 2963   2.094   3.528   0.111
  688SOL    HW2 2964   2.115   3.665   0.198
  689SOL     OW 2965   1.239   4.341   5.441
  689SOL    HW1 2966   1.152   4.389   5.428
  689SOL    HW2 2967   1.257   4.332   5.539
  690SOL     OW 2968   0.904   3.117   3.077
  690SOL    HW1 2969   0.972   3.076   3.139
  690SOL    HW2 2970   0.936   3.108   2.983
  691SOL     OW 2971   2.067   2.035   6.515
  691SOL    HW1 2972   2.049   1.986   6.599
  691SOL    HW2 2973   2.158   2.077   6.519
  692SOL     OW 2974   2.962   0.093   3.497
  692SOL    HW1 2975   3.007   0.068   3.582
  692SOL    HW2 2976   2.867   0.062   3.499
  693SOL     OW 2977   6.710   1.372   3.676
  693SOL    HW1 2978   6.678   1.449   3.621
  693SOL    HW2 2979   6.708   1.397   3.773
  694SOL     OW 2980   3.695   5.667   2.050
  694SOL    HW1 2981   3.674   5.756   2.010
  694SOL    HW2 2982   3.718   5.678   2.147
  695SOL     OW 2983   4.592   5.086   4.934
  695SOL    HW1 2984   4.691   5.077   4.934
  695SOL    HW2 2985   4.564   5.160   4.996
  696SOL     OW 2986   3.127   5.245   2.353
  696SOL    HW1 2987   3.084   5.248   2.443
  696SOL    HW2 2988   3.155   5.337   2.327
  697SOL     OW 2989   1.306   2.851   6.035
  697SOL    HW1 2990   1.275   2.857   5.941
  697SOL    HW2 2991   1.227   2.852   6.097
  698SOL     OW 2992   5.872   0.013   4.508
  698SOL    HW1 2993   5.845   0.012   4.604
  698SOL    HW2 2994   5.878   6.942   4.474
  699SOL     OW 2995   1.234   4.411   0.315
  699SOL    HW1 2996   1.229   4.327   0.369
  699SOL    HW2 2997   1.155   4.417   0.254
  700SOL     OW 2998   2.720   2.049   3.486
  700SOL    HW1 2999   2.701   2.013   3.577
  700SOL    HW2 3000   2.813   2.025   3.459
  701SOL     OW 3001   1.259   4.850   6.747
  701SOL    HW1 3002   1.308   4.937   6.744
  701SOL    HW2 3003   1.163   4.866   6.727
  702SOL     OW 3004   5.816   6.182   6.025
  702SOL    HW1 3005   5.869   6.267   6.022
  702SOL    HW2 3006   5.729   6.199   6.071
  703SOL     OW 3007   4.077   3.162   0.098
  703SOL    HW1 3008   4.060   3.075   0.145
  703SOL    HW2 3009   4.165   3.200   0.127
  704SOL     OW 3010   1.645   1.074   6.113
  704SOL    HW1 3011   1.726   1.131   6.128
  704SOL    HW2 3012   1.563   1.129   6.126
  705SOL     OW 3013   4.605   6.992   3.694
  705SOL    HW1 3014   4.519   0.011   3.665
  705SOL    HW2 3015   4.674   0.040   3.711
  706SOL     OW 3016   4.569   1.638   3.650
  706SOL    HW1 3017   4.565   1.579   3.731
  706SOL    HW2 3018   4.529   1.591   3.572
  707SOL     OW 3019   4.529   6.975   2.076
  707SOL    HW1 3020   4.482   6.956   2.162
  707SOL    HW2 3021   4.585   0.034   2.085
  708SOL     OW 3022   4.475   7.002   1.245
  708SOL    HW1 3023   4.563   0.010   1.212
  708SOL    HW2 3024   4.405   7.017   1.175
  709SOL     OW 3025   1.258   5.403   0.910
  709SOL    HW1 3026   1.238   5.305   0.908
  709SOL    HW2 3027   1.224   5.442   0.995
  710SOL     OW 3028   3.665   3.868   3.058
  710SOL    HW1 3029   3.748   3.892   3.008
  710SOL    HW2 3030   3.670   3.905   3.151
  711SOL     OW 3031   0.455   2.233   5.842
  711SOL    HW1 3032   0.513   2.162   5.803
  711SOL    HW2 3033   0.442   2.215   5.940
  712SOL     OW 3034   1.702   4.408   0.968
  712SOL    HW1 3035   1.731   4.315   0.949
  712SOL    HW2 3036   1.700   4.424   1.067
  713SOL     OW 3037   3.531   4.163   1.147
  713SOL    HW1 3038   3.538   4.258   1.178
  713SOL    HW2 3039   3.441   4.127   1.172
  714SOL     OW 3040   5.837   4.073   5.377
  714SOL    HW1 3041   5.740   4.096   5.380
  714SOL    HW2 3042   5.892   4.154   5.398
  715SOL     OW 3043   5.005   5.953   0.012
  715SOL    HW1 3044   5.094   5.908   0.007
  715SOL    HW2 3045   5.013   6.048   7.008
  716SOL     OW 3046   1.050   5.488   1.388
  716SOL    HW1 3047   0.952   5.504   1.398
  716SOL    HW2 3048   1.086   5.451   1.473
  717SOL     OW 3049   6.191   4.843   6.549
  717SOL    HW1 3050   6.110   4.806   6.596
  717SOL    HW2 3051   6.200   4.799   6.459
  718SOL     OW 3052   3.673   2.198   6.262
  718SOL    HW1 3053   3.642   2.105   6.283
  718SOL    HW2 3054   3.695   2.205   6.165
  719SOL     OW 3055   6.510   2.260   1.853
  719SOL    HW1 3056   6.505   2.340   1.794
  719SOL    HW2 3057   6.606   2.235   1.868
  720SOL     OW 3058   2.481   1.796   5.461
  720SOL    HW1 3059   2.433   1.815   5.547
  720SOL    HW2 3060   2.479   1.877   5.403
  721SOL     OW 3061   1.889   0.901   4.707
  721SOL    HW1 3062   1.901   0.995   4.739
  721SOL    HW2 3063   1.835   0.850   4.774
  722SOL     OW 3064   4.257   6.656   4.983
  722SOL    HW1 3065   4.283   6.664   5.079
  722SOL    HW2 3066   4.336   6.675   4.925
  723SOL     OW 3067   2.122   3.115   1.849
  723SOL    HW1 3068   2.156   3.173   1.775
  723SOL    HW2 3069   2.123   3.167   1.935
  724SOL     OW 3070   1.581   1.666   5.045
  724SOL    HW1 3071   1.548   1.598   4.980
  724SOL    HW2 3072   1.514   1.677   5.119
  725SOL     OW 3073   2.543   5.003   1.965
  725SOL    HW1 3074   2.503   5.077   1.912
  725SOL    HW2 3075   2.640   5.022   1.981
  726SOL     OW 3076   3.990   4.656   0.185
  726SOL    HW1 3077   3.983   4.578   0.122
  726SOL    HW2 3078   4.070   4.644   0.243
  727SOL     OW 3079   4.031   6.188   4.173
  727SOL    HW1 3080   4.125   6.187   4.141
  727SOL    HW2 3081   3.997   6.282   4.176
  728SOL     OW 3082   6.920   4.173   5.210
  728SOL    HW1 3083   6.916   4.093   5.150
  728SOL    HW2 3084   7.009   4.177   5.254
  729SOL     OW 3085   2.313   0.390   0.387
  729SOL    HW1 3086   2.364   0.328   0.327
  729SOL    HW2 3087   2.224   0.411   0.345
  730SOL     OW 3088   5.814   0.418   3.424
  730SOL    HW1 3089   5.799   0.517   3.434
  730SOL    HW2 3090   5.825   0.396   3.327
  731SOL     OW 3091   5.466   3.247   5.978
  731SOL    HW1 3092   5.457   3.346   5.991
  731SOL    HW2 3093   5.450   3.201   6.065
  732SOL     OW 3094   0.588   3.672   0.803
  732SOL    HW1 3095   0.498   3.631   0.818
  732SOL    HW2 3096   0.638   3.618   0.736
  733SOL     OW 3097   5.814   4.288   4.401
  733SOL    HW1 3098   5.728   4.306   4.449
  733SOL    HW2 3099   5.870   4.370   4.402
  734SOL     OW 3100   6.982   4.835   2.438
  734SOL    HW1 3101   6.915   4.878   2.500
  734SOL    HW2 3102   6.981   4.736   2.451
  735SOL     OW 3103   2.977   2.682   0.802
  735SOL    HW1 3104   2.973   2.590   0.764
  735SOL    HW2 3105   2.902   2.695   0.866
  736SOL     OW 3106   6.922   6.737   3.039
  736SOL    HW1 3107   6.933   6.817   3.097
  736SOL    HW2 3108   7.012   6.707   3.005
  737SOL     OW 3109   5.008   3.238   1.356
  737SOL    HW1 3110   4.931   3.251   1.293
  737SOL    HW2 3111   4.974   3.224   1.448
  738SOL     OW 3112   1.615   4.885   4.179
  738SOL    HW1 3113   1.710   4.884   4.147
  738SOL    HW2 3114   1.554   4.864   4.103
  739SOL     OW 3115   5.078   6.214   5.862
  739SOL    HW1 3116   5.055   6.239   5.956
  739SOL    HW2 3117   5.088   6.297   5.807
  740SOL     OW 3118   5.351   0.361   0.613
  740SOL    HW1 3119   5.274   0.296   0.617
  740SOL    HW2 3120   5.335   0.427   0.540
  741SOL     OW 3121   1.838   6.507   3.496
  741SOL    HW1 3122   1.880   6.521   3.406
  741SOL    HW2 3123   1.793   6.418   3.498
  742SOL     OW 3124   2.263   0.154   2.244
  742SOL    HW1 3125   2.356   0.173   2.212
  742SOL    HW2 3126   2.242   0.058   2.231
  743SOL     OW 3127   1.807   4.320   4.355
  743SOL    HW1 3128   1.812   4.255   4.432
  743SOL    HW2 3129   1.717   4.362   4.353
  744SOL     OW 3130   6.719   6.821   6.434
  744SOL    HW1 3131   6.748   6.848   6.342
  744SOL    HW2 3132   6.786   6.757   6.472
  745SOL     OW 3133   1.071   6.494   3.889
  745SOL    HW1 3134   1.035   6.439   3.813
  745SOL    HW2 3135   1.053   6.448   3.976
  746SOL     OW 3136   0.268   6.726   4.910
  746SOL    HW1 3137   0.228   6.794   4.849
  746SOL    HW2 3138   0.199   6.693   4.973
  747SOL     OW 3139   4.299   5.090   4.229
  747SOL    HW1 3140   4.255   5.003   4.249
  747SOL    HW2 3141   4.326   5.093   4.132
  748SOL     OW 3142   4.283   4.980   2.553
  748SOL    HW1 3143   4.282   4.891   2.507
  748SOL    HW2 3144   4.363   5.032   2.524
  749SOL     OW 3145   6.833   3.227   4.779
  749SOL    HW1 3146   6.835   3.134   4.816
  749SOL    HW2 3147   6.922   3.271   4.795
  750SOL     OW 3148   1.937   3.124   0.645
  750SOL    HW1 3149   1.975   3.074   0.566
  750SOL    HW2 3150   1.837   3.122   0.641
  751SOL     OW 3151   3.868   1.894   6.167
  751SOL    HW1 3152   3.911   1.816   6.212
  751SOL    HW2 3153   3.781   1.915   6.213
  752SOL     OW 3154   4.635   2.342   1.981
  752SOL    HW1 3155   4.582   2.361   1.899
  752SOL    HW2 3156   4.579   2.358   2.062
  753SOL     OW 3157   2.095   3.279   4.209
  753SOL    HW1 3158   2.112   3.219   4.131
  753SOL    HW2 3159   1.998   3.274   4.235
  754SOL     OW 3160   5.865   3.362   6.867
  754SOL    HW1 3161   5.799   3.422   6.913
  754SOL    HW2 3162   5.878   3.393   6.773
  755SOL     OW 3163   1.317   5.862   0.048
  755SOL    HW1 3164   1.284   5.907   6.988
  755SOL    HW2 3165   1.371   5.782   0.022
  756SOL     OW 3166   4.916   6.812   1.101
  756SOL    HW1 3167   4.864   6.841   1.021
  756SOL    HW2 3168   4.988   6.749   1.073
  757SOL     OW 3169   0.683   6.083   3.257
  757SOL    HW1 3170   0.613   6.148   3.285
  757SOL    HW2 3171   0.704   6.021   3.333
  758SOL     OW 3172   4.077   1.207   1.487
  758SOL    HW1 3173   3.979   1.199   1.471
  758SOL    HW2 3174   4.110   1.124   1.533
  759SOL     OW 3175   6.981   1.305   0.519
  759SOL    HW1 3176   6.901   1.246   0.505
  759SOL    HW2 3177   6.988   1.328   0.616
  760SOL     OW 3178   4.191   1.436   6.589
  760SOL    HW1 3179   4.285   1.436   6.555
  760SOL    HW2 3180   4.189   1.476   6.681
  761SOL     OW 3181   5.076   3.564   7.006
  761SOL    HW1 3182   5.005   3.621   0.023
  761SOL    HW2 3183   5.122   3.614   6.933
  762SOL     OW 3184   2.112   5.919   3.266
  762SOL    HW1 3185   2.055   5.845   3.233
  762SOL    HW2 3186   2.085   6.005   3.222
  763SOL     OW 3187   4.100   5.647   6.692
  763SOL    HW1 3188   4.153   5.614   6.614
  763SOL    HW2 3189   4.012   5.682   6.659
  764SOL     OW 3190   4.486   0.049   4.160
  764SOL    HW1 3191   4.559   0.008   4.214
  764SOL    HW2 3192   4.526   0.114   4.095
  765SOL     OW 3193   1.631   6.258   1.154
  765SOL    HW1 3194   1.664   6.244   1.248
  765SOL    HW2 3195   1.563   6.189   1.132
  766SOL     OW 3196   0.082   1.922   6.885
  766SOL    HW1 3197   0.052   1.856   6.816
  766SOL    HW2 3198   0.104   1.874   6.970
  767SOL     OW 3199   1.168   6.294   1.971
  767SOL    HW1 3200   1.153   6.393   1.961
  767SOL    HW2 3201   1.201   6.276   2.064
  768SOL     OW 3202   1.897   0.746   2.548
  768SOL    HW1 3203   1.949   0.830   2.565
  768SOL    HW2 3204   1.935   0.700   2.468
  769SOL     OW 3205   3.012   6.713   4.057
  769SOL    HW1 3206   3.100   6.748   4.090
  769SOL    HW2 3207   3.003   6.617   4.084
  770SOL     OW 3208   2.090   4.394   3.061
  770SOL    HW1 3209   2.188   4.375   3.064
  770SOL    HW2 3210   2.042   4.315   3.024
  771SOL     OW 3211   2.029   5.457   2.426
  771SOL    HW1 3212   1.981   5.484   2.342
  771SOL    HW2 3213   1.977   5.387   2.474
  772SOL     OW 3214   6.549   5.271   0.710
  772SOL    HW1 3215   6.611   5.348   0.726
  772SOL    HW2 3216   6.456   5.305   0.701
  773SOL     OW 3217   0.662   3.471   3.741
  773SOL    HW1 3218   0.728   3.546   3.749
  773SOL    HW2 3219   0.708   3.384   3.757
  774SOL     OW 3220   0.987   1.835   2.011
  774SOL    HW1 3221   0.977   1.879   2.099
  774SOL    HW2 3222   0.975   1.902   1.938
  775SOL     OW 3223   1.382   2.366   3.935
  775SOL    HW1 3224   1.450   2.295   3.917
  775SOL    HW2 3225   1.423   2.438   3.990
  776SOL     OW 3226   6.721   0.914   6.436
  776SOL    HW1 3227   6.717   0.815   6.424
  776SOL    HW2 3228   6.765   0.936   6.523
  777SOL     OW 3229   3.450   7.015   1.107
  777SOL    HW1 3230   3.505   6.971   1.036
  777SOL    HW2 3231   3.353   7.002   1.087
  778SOL     OW 3232   3.493   1.390   3.586
  778SOL    HW1 3233   3.573   1.333   3.567
  778SOL    HW2 3234   3.516   1.457   3.656
  779SOL     OW 3235   0.760   1.869   2.950
  779SOL    HW1 3236   0.804   1.887   2.862
  779SOL    HW2 3237   0.767   1.771   2.972
  780SOL     OW 3238   5.983   3.510   4.692
  780SOL    HW1 3239   5.884   3.501   4.696
  780SOL    HW2 3240   6.010   3.551   4.605
  781SOL     OW 3241   6.219   1.097   6.121
  781SOL    HW1 3242   6.146   1.144   6.071
  781SOL    HW2 3243   6.288   1.163   6.150
  782SOL     OW 3244   1.402   4.189   0.136
  782SOL    HW1 3245   1.423   4.190   0.233
  782SOL    HW2 3246   1.308   4.157   0.122
  783SOL     OW 3247   4.048   4.391   0.642
  783SOL    HW1 3248   4.055   4.394   0.542
  783SOL    HW2 3249   3.988   4.465   0.673
  784SOL     OW 3250   5.381   0.025   5.631
  784SOL    HW1 3251   5.464   7.021   5.680
  784SOL    HW2 3252   5.307   0.039   5.697
  785SOL     OW 3253   6.532   2.119   3.219
  785SOL    HW1 3254   6.590   2.049   3.260
  785SOL    HW2 3255   6.539   2.114   3.119
  786SOL     OW 3256   0.862   0.439   0.565
  786SOL    HW1 3257   0.772   0.429   0.606
  786SOL    HW2 3258   0.858   0.508   0.492
  787SOL     OW 3259   2.995   1.411   6.080
  787SOL    HW1 3260   2.996   1.480   6.008
  787SOL    HW2 3261   3.065   1.343   6.062
  788SOL     OW 3262   2.462   2.590   5.124
  788SOL    HW1 3263   2.493   2.614   5.032
  788SOL    HW2 3264   2.495   2.659   5.189
  789SOL     OW 3265   5.856   4.328   1.448
  789SOL    HW1 3266   5.903   4.385   1.381
  789SOL    HW2 3267   5.768   4.298   1.409
  790SOL     OW 3268   2.412   1.519   4.095
  790SOL    HW1 3269   2.415   1.444   4.160
  790SOL    HW2 3270   2.348   1.589   4.127
  791SOL     OW 3271   3.550   0.401   3.642
  791SOL    HW1 3272   3.578   0.496   3.642
  791SOL    HW2 3273   3.609   0.348   3.581
  792SOL     OW 3274   6.863   0.277   1.186
  792SOL    HW1 3275   6.917   0.253   1.267
  792SOL    HW2 3276   6.905   0.357   1.141
  793SOL     OW 3277   4.445   6.397   2.399
  793SOL    HW1 3278   4.381   6.325   2.374
  793SOL    HW2 3279   4.427   6.478   2.343
  794SOL     OW 3280   2.297   3.751   5.212
  794SOL    HW1 3281   2.315   3.714   5.303
  794SOL    HW2 3282   2.352   3.833   5.197
  795SOL     OW 3283   2.759   5.416   4.953
  795SOL    HW1 3284   2.708   5.331   4.967
  795SOL    HW2 3285   2.843   5.414   5.006
  796SOL     OW 3286   0.614   2.387   6.308
  796SOL    HW1 3287   0.698   2.359   6.262
  796SOL    HW2 3288   0.550   2.310   6.310
  797SOL     OW 3289   5.312   2.859   2.578
  797SOL    HW1 3290   5.402   2.903   2.576
  797SOL    HW2 3291   5.297   2.811   2.491
  798SOL     OW 3292   4.881   0.200   0.968
  798SOL    HW1 3293   4.833   0.284   0.942
  798SOL    HW2 3294   4.949   0.178   0.899
  799SOL     OW 3295   6.601   1.050   3.933
  799SOL    HW1 3296   6.683   1.046   3.877
  799SOL    HW2 3297   6.620   1.101   4.017
  800SOL     OW 3298   5.797   0.840   2.391
  800SOL    HW1 3299   5.798   0.773   2.465
  800SOL    HW2 3300   5.707   0.840   2.347
  801SOL     OW 3301   1.411   3.671   3.042
  801SOL    HW1 3302   1.441   3.759   3.081
  801SOL    HW2 3303   1.415   3.676   2.942
  802SOL     OW 3304   4.343   1.101   0.467
  802SOL    HW1 3305   4.371   1.196   0.478
  802SOL    HW2 3306   4.243   1.095   0.471
  803SOL     OW 3307   0.066   5.989   5.442
  803SOL    HW1 3308   0.043   5.892   5.432
  803SOL    HW2 3309   0.138   5.998   5.512
  804SOL     OW 3310   6.294   6.797   6.888
  804SOL    HW1 3311   6.227   6.735   6.930
  804SOL    HW2 3312   6.283   6.796   6.789
  805SOL     OW 3313   4.196   2.224   5.969
  805SOL    HW1 3314   4.156   2.159   5.904
  805SOL    HW2 3315   4.169   2.200   6.062
  806SOL     OW 3316   3.935   1.920   4.924
  806SOL    HW1 3317   3.985   1.920   4.837
  806SOL    HW2 3318   3.908   2.013   4.947
  807SOL     OW 3319   0.517   2.261   3.489
  807SOL    HW1 3320   0.499   2.196   3.416
  807SOL    HW2 3321   0.582   2.221   3.554
  808SOL     OW 3322   5.222   3.261   6.549
  808SOL    HW1 3323   5.202   3.356   6.522
  808SOL    HW2 3324   5.208   3.201   6.470
  809SOL     OW 3325   1.257   4.827   1.513
  809SOL    HW1 3326   1.185   4.758   1.524
  809SOL    HW2 3327   1.311   4.806   1.432
  810SOL     OW 3328   4.134   2.742   0.696
  810SOL    HW1 3329   4.215   2.709   0.743
  810SOL    HW2 3330   4.138   2.714   0.600
  811SOL     OW 3331   4.716   5.082   3.470
  811SOL    HW1 3332   4.667   5.169   3.457
  811SOL    HW2 3333   4.814   5.100   3.479
  812SOL     OW 3334   0.138   0.817   1.837
  812SOL    HW1 3335   0.177   0.909   1.843
  812SOL    HW2 3336   0.052   0.821   1.787
  813SOL     OW 3337   4.054   5.093   3.931
  813SOL    HW1 3338   4.110   5.147   3.869
  813SOL    HW2 3339   4.069   4.995   3.914
  814SOL     OW 3340   5.042   6.455   3.706
  814SOL    HW1 3341   5.089   6.379   3.661
  814SOL    HW2 3342   4.971   6.490   3.645
  815SOL     OW 3343   6.419   3.065   2.080
  815SOL    HW1 3344   6.471   3.146   2.106
  815SOL    HW2 3345   6.341   3.054   2.142
  816SOL     OW 3346   0.162   6.818   7.000
  816SOL    HW1 3347   0.167   6.718   7.002
  816SOL    HW2 3348   0.232   6.857   0.035
  817SOL     OW 3349   2.004   3.826   2.230
  817SOL    HW1 3350   2.054   3.877   2.299
  817SOL    HW2 3351   1.998   3.881   2.146
  818SOL     OW 3352   6.631   2.715   0.941
  818SOL    HW1 3353   6.715   2.746   0.987
  818SOL    HW2 3354   6.656   2.660   0.861
  819SOL     OW 3355   6.175   3.176   4.036
  819SOL    HW1 3356   6.252   3.133   4.085
  819SOL    HW2 3357   6.208   3.216   3.951
  820SOL     OW 3358   1.427   3.104   6.100
  820SOL    HW1 3359   1.381   3.026   6.057
  820SOL    HW2 3360   1.428   3.181   6.036
  821SOL     OW 3361   2.600   4.461   0.128
  821SOL    HW1 3362   2.651   4.545   0.110
  821SOL    HW2 3363   2.505   4.473   0.102
  822SOL     OW 3364   0.809   5.292   4.672
  822SOL    HW1 3365   0.772   5.242   4.750
  822SOL    HW2 3366   0.781   5.388   4.677
  823SOL     OW 3367   4.530   4.454   0.246
  823SOL    HW1 3368   4.457   4.430   0.183
  823SOL    HW2 3369   4.612   4.479   0.195
  824SOL     OW 3370   5.203   1.336   5.609
  824SOL    HW1 3371   5.249   1.259   5.565
  824SOL    HW2 3372   5.235   1.421   5.569
  825SOL     OW 3373   1.964   3.321   1.639
  825SOL    HW1 3374   2.036   3.267   1.596
  825SOL    HW2 3375   2.005   3.388   1.701
  826SOL     OW 3376   5.930   4.327   0.831
  826SOL    HW1 3377   5.902   4.231   0.842
  826SOL    HW2 3378   5.894   4.363   0.745
  827SOL     OW 3379   2.968   5.195   5.527
  827SOL    HW1 3380   2.928   5.241   5.447
  827SOL    HW2 3381   2.911   5.214   5.608
  828SOL     OW 3382   6.424   0.349   5.318
  828SOL    HW1 3383   6.455   0.395   5.236
  828SOL    HW2 3384   6.486   0.274   5.340
  829SOL     OW 3385   3.129   3.633   4.685
  829SOL    HW1 3386   3.117   3.598   4.778
  829SOL    HW2 3387   3.052   3.693   4.662
  830SOL     OW 3388   4.843   4.423   5.893
  830SOL    HW1 3389   4.806   4.493   5.833
  830SOL    HW2 3390   4.925   4.383   5.852
  831SOL     OW 3391   0.111   0.219   4.574
  831SOL    HW1 3392   0.155   0.145   4.524
  831SOL    HW2 3393   0.180   0.285   4.604
  832SOL     OW 3394   1.985   0.902   6.942
  832SOL    HW1 3395   1.967   0.966   7.017
  832SOL    HW2 3396   1.989   0.953   6.856
  833SOL     OW 3397   0.490   5.456   6.082
  833SOL    HW1 3398   0.527   5.409   6.001
  833SOL    HW2 3399   0.542   5.540   6.098
  834SOL     OW 3400   3.859   4.008   1.651
  834SOL    HW1 3401   3.812   4.056   1.577
  834SOL    HW2 3402   3.837   4.053   1.738
  835SOL     OW 3403   3.817   6.754   4.450
  835SOL    HW1 3404   3.849   6.756   4.545
  835SOL    HW2 3405   3.888   6.792   4.390
  836SOL     OW 3406   3.252   6.151   6.722
  836SOL    HW1 3407   3.197   6.161   6.805
  836SOL    HW2 3408   3.344   6.122   6.747
  837SOL     OW 3409   5.048   7.009   6.718
  837SOL    HW1 3410   5.033   6.953   6.637
  837SOL    HW2 3411   4.970   0.046   6.732
  838SOL     OW 3412   0.682   0.399   4.792
  838SOL    HW1 3413   0.719   0.437   4.707
  838SOL    HW2 3414   0.674   0.471   4.860
  839SOL     OW 3415   2.721   1.552   2.120
  839SOL    HW1 3416   2.789   1.536   2.049
  839SOL    HW2 3417   2.768   1.577   2.205
  840SOL     OW 3418   6.107   1.026   5.281
  840SOL    HW1 3419   6.114   0.975   5.195
  840SOL    HW2 3420   6.160   1.110   5.274
  841SOL     OW 3421   5.995   4.644   0.333
  841SOL    HW1 3422   5.896   4.631   0.339
  841SOL    HW2 3423   6.038   4.610   0.417
  842SOL     OW 3424   4.310   5.227   3.594
  842SOL    HW1 3425   4.287   5.265   3.505
  842SOL    HW2 3426   4.249   5.265   3.664
  843SOL     OW 3427   5.330   2.129   0.412
  843SOL    HW1 3428   5.330   2.042   0.462
  843SOL    HW2 3429   5.268   2.121   0.333
  844SOL     OW 3430   4.571   6.577   0.721
  844SOL    HW1 3431   4.491   6.624   0.759
  844SOL    HW2 3432   4.542   6.520   0.644
  845SOL     OW 3433   6.076   3.138   4.305
  845SOL    HW1 3434   6.033   3.061   4.353
  845SOL    HW2 3435   6.021   3.162   4.225
  846SOL     OW 3436   5.212   1.394   6.450
  846SOL    HW1 3437   5.225   1.361   6.543
  846SOL    HW2 3438   5.124   1.440   6.442
  847SOL     OW 3439   6.281   3.601   0.946
  847SOL    HW1 3440   6.189   3.626   0.977
  847SOL    HW2 3441   6.280   3.587   0.847
  848SOL     OW 3442   5.528   1.192   6.693
  848SOL    HW1 3443   5.606   1.247   6.665
  848SOL    HW2 3444   5.498   1.219   6.785
  849SOL     OW 3445   0.280   5.712   5.502
  849SOL    HW1 3446   0.188   5.696   5.468
  849SOL    HW2 3447   0.302   5.642   5.570
  850SOL     OW 3448   4.545   0.925   3.421
  850SOL    HW1 3449   4.512   0.963   3.508
  850SOL    HW2 3450   4.500   0.837   3.404
  851SOL     OW 3451   0.218   1.240   0.789
  851SOL    HW1 3452   0.252   1.146   0.782
  851SOL    HW2 3453   0.120   1.238   0.810
  852SOL     OW 3454   2.608   2.489   0.009
  852SOL    HW1 3455   2.548   2.547   6.978
  852SOL    HW2 3456   2.590   2.393   7.011
  853SOL     OW 3457   0.950   3.559   3.711
  853SOL    HW1 3458   0.997   3.628   3.657
  853SOL    HW2 3459   0.992   3.554   3.802
  854SOL     OW 3460   5.325   6.097   2.332
  854SOL    HW1 3461   5.291   6.151   2.409
  854SOL    HW2 3462   5.363   6.011   2.366
  855SOL     OW 3463   5.895   6.963   0.957
  855SOL    HW1 3464   5.883   6.936   1.053
  855SOL    HW2 3465   5.866   0.034   0.945
  856SOL     OW 3466   2.013   0.757   5.051
  856SOL    HW1 3467   1.917   0.739   5.072
  856SOL    HW2 3468   2.070   0.721   5.125
  857SOL     OW 3469   5.853   5.342   1.395
  857SOL    HW1 3470   5.883   5.247   1.408
  857SOL    HW2 3471   5.756   5.343   1.373
  858SOL     OW 3472   2.549   4.741   1.875
  858SOL    HW1 3473   2.555   4.836   1.904
  858SOL    HW2 3474   2.621   4.688   1.920
  859SOL     OW 3475   5.775   5.417   6.464
  859SOL    HW1 3476   5.818   5.327   6.475
  859SOL    HW2 3477   5.845   5.485   6.443
  860SOL     OW 3478   4.925   4.144   0.394
  860SOL    HW1 3479   4.936   4.084   0.473
  860SOL    HW2 3480   4.900   4.236   0.426
  861SOL     OW 3481   2.142   6.991   4.673
  861SOL    HW1 3482   2.097   7.018   4.758
  861SOL    HW2 3483   2.142   0.045   4.609
  862SOL     OW 3484   6.221   3.985   5.068
  862SOL    HW1 3485   6.294   3.947   5.126
  862SOL    HW2 3486   6.262   4.041   4.997
  863SOL     OW 3487   1.089   6.845   0.431
  863SOL    HW1 3488   1.096   6.855   0.332
  863SOL    HW2 3489   1.180   6.845   0.471
  864SOL     OW 3490   5.289   4.508   3.636
  864SOL    HW1 3491   5.223   4.453   3.685
  864SOL    HW2 3492   5.249   4.597   3.614
  865SOL     OW 3493   0.458   0.037   4.655
  865SOL    HW1 3494   0.439   0.106   4.725
  865SOL    HW2 3495   0.545   0.056   4.611
  866SOL     OW 3496   2.100   1.683   2.052
  866SOL    HW1 3497   2.079   1.588   2.078
  866SOL    HW2 3498   2.099   1.741   2.134
  867SOL     OW 3499   3.268   2.629   1.035
  867SOL    HW1 3500   3.245   2.718   0.995
  867SOL    HW2 3501   3.339   2.642   1.104
  868SOL     OW 3502   6.208   6.712   1.550
  868SOL    HW1 3503   6.302   6.728   1.523
  868SOL    HW2 3504   6.146   6.756   1.485
  869SOL     OW 3505   6.167   5.258   3.207
  869SOL    HW1 3506   6.072   5.283   3.226
  869SOL    HW2 3507   6.229   5.315   3.261
  870SOL     OW 3508   6.282   4.135   1.677
  870SOL    HW1 3509   6.361   4.103   1.727
  870SOL    HW2 3510   6.290   4.109   1.580
  871SOL     OW 3511   0.322   3.352   1.622
  871SOL    HW1 3512   0.304   3.432   1.565
  871SOL    HW2 3513   0.270   3.273   1.587
  872SOL     OW 3514   6.523   3.364   4.353
  872SOL    HW1 3515   6.533   3.423   4.274
  872SOL    HW2 3516   6.499   3.419   4.433
  873SOL     OW 3517   4.406   0.841   2.746
  873SOL    HW1 3518   4.450   0.751   2.743
  873SOL    HW2 3519   4.457   0.900   2.809
  874SOL     OW 3520   1.458   4.479   5.309
  874SOL    HW1 3521   1.555   4.462   5.323
  874SOL    HW2 3522   1.405   4.430   5.379
  875SOL     OW 3523   5.155   4.442   0.715
  875SOL    HW1 3524   5.129   4.537   0.695
  875SOL    HW2 3525   5.082   4.398   0.767
  876SOL     OW 3526   6.644   4.409   3.493
  876SOL    HW1 3527   6.644   4.367   3.402
  876SOL    HW2 3528   6.714   4.366   3.550
  877SOL     OW 3529   4.637   4.953   0.205
  877SOL    HW1 3530   4.733   4.961   0.177
  877SOL    HW2 3531   4.607   5.039   0.245
  878SOL     OW 3532   3.583   5.167   0.013
  878SOL    HW1 3533   3.575   5.232   6.961
  878SOL    HW2 3534   3.491   5.140   0.044
  879SOL     OW 3535   4.221   1.836   2.257
  879SOL    HW1 3536   4.145   1.814   2.318
  879SOL    HW2 3537   4.305   1.795   2.292
  880SOL     OW 3538   3.133   4.241   7.012
  880SOL    HW1 3539   3.118   4.321   6.953
  880SOL    HW2 3540   3.060   4.235   0.056
  881SOL     OW 3541   4.113   4.905   4.850
  881SOL    HW1 3542   4.187   4.947   4.903
  881SOL    HW2 3543   4.031   4.896   4.908
  882SOL     OW 3544   2.002   1.701   4.178
  882SOL    HW1 3545   1.984   1.785   4.230
  882SOL    HW2 3546   1.922   1.677   4.124
  883SOL     OW 3547   4.411   4.828   5.416
  883SOL    HW1 3548   4.331   4.836   5.475
  883SOL    HW2 3549   4.381   4.811   5.322
  884SOL     OW 3550   6.830   3.475   1.948
  884SOL    HW1 3551   6.927   3.502   1.951
  884SOL    HW2 3552   6.824   3.376   1.937
  885SOL     OW 3553   5.881   6.381   0.035
  885SOL    HW1 3554   5.938   6.458   0.004
  885SOL    HW2 3555   5.878   6.312   6.986
  886SOL     OW 3556   4.077   1.094   0.371
  886SOL    HW1 3557   4.074   1.017   0.307
  886SOL    HW2 3558   4.002   1.157   0.351
  887SOL     OW 3559   4.324   6.438   5.983
  887SOL    HW1 3560   4.297   6.484   6.068
  887SOL    HW2 3561   4.352   6.507   5.916
  888SOL     OW 3562   6.787   6.487   3.689
  888SOL    HW1 3563   6.886   6.470   3.681
  888SOL    HW2 3564   6.753   6.526   3.603
  889SOL     OW 3565   0.304   6.754   5.958
  889SOL    HW1 3566   0.264   6.795   5.876
  889SOL    HW2 3567   0.238   6.694   6.001
  890SOL     OW 3568   2.779   4.822   2.159
  890SOL    HW1 3569   2.815   4.894   2.100
  890SOL    HW2 3570   2.783   4.734   2.110
  891SOL     OW 3571   5.721   3.683   1.711
  891SOL    HW1 3572   5.756   3.768   1.671
  891SOL    HW2 3573   5.798   3.628   1.743
  892SOL     OW 3574   3.800   3.642   0.459
  892SOL    HW1 3575   3.813   3.586   0.541
  892SOL    HW2 3576   3.742   3.721   0.482
  893SOL     OW 3577   1.461   0.710   0.573
  893SOL    HW1 3578   1.440   0.808   0.569
  893SOL    HW2 3579   1.542   0.690   0.519
  894SOL     OW 3580   1.842   4.707   4.346
  894SOL    HW1 3581   1.800   4.642   4.410
  894SOL    HW2 3582   1.917   4.663   4.298
  895SOL     OW 3583   2.256   6.874   4.437
  895SOL    HW1 3584   2.267   6.777   4.457
  895SOL    HW2 3585   2.242   6.925   4.522
  896SOL     OW 3586   5.920   6.151   4.337
  896SOL    HW1 3587   5.863   6.182   4.412
  896SOL    HW2 3588   6.001   6.209   4.330
  897SOL     OW 3589   4.931   1.315   0.582
  897SOL    HW1 3590   4.997   1.248   0.546
  897SOL    HW2 3591   4.915   1.298   0.679
  898SOL     OW 3592   5.272   6.080   4.035
  898SOL    HW1 3593   5.363   6.037   4.028
  898SOL    HW2 3594   5.275   6.152   4.104
  899SOL     OW 3595   0.400   5.104   0.240
  899SOL    HW1 3596   0.382   5.190   0.288
  899SOL    HW2 3597   0.352   5.030   0.287
  900SOL     OW 3598   6.386   5.888   1.957
  900SOL    HW1 3599   6.349   5.955   2.020
  900SOL    HW2 3600   6.448   5.827   2.006
  901SOL     OW 3601   0.285   1.471   4.157
  901SOL    HW1 3602   0.233   1.409   4.215
  901SOL    HW2 3603   0.369   1.498   4.205
  902SOL     OW 3604   0.156   0.441   6.533
  902SOL    HW1 3605   0.248   0.470   6.561
  902SOL    HW2 3606   0.106   0.407   6.612
  903SOL     OW 3607   6.302   4.755   0.438
  903SOL    HW1 3608   6.238   4.685   0.471
  903SOL    HW2 3609   6.392   4.739   0.479
  904SOL     OW 3610   1.580   1.745   3.661
  904SOL    HW1 3611   1.651   1.768   3.594
  904SOL    HW2 3612   1.514   1.820   3.667
  905SOL     OW 3613   5.175   2.282   0.012
  905SOL    HW1 3614   5.271   2.304   0.031
  905SOL    HW2 3615   5.131   2.360   6.991
  906SOL     OW 3616   7.000   4.605   6.939
  906SOL    HW1 3617   6.940   4.683   6.956
  906SOL    HW2 3618   0.027   4.583   7.023
  907SOL     OW 3619   5.944   1.954   2.862
  907SOL    HW1 3620   6.001   1.886   2.817
  907SOL    HW2 3621   5.950   1.944   2.961
  908SOL     OW 3622   1.005   6.935   4.221
  908SOL    HW1 3623   1.053   7.020   4.244
  908SOL    HW2 3624   1.011   6.872   4.298
  909SOL     OW 3625   2.430   1.170   0.292
  909SOL    HW1 3626   2.389   1.083   0.320
  909SOL    HW2 3627   2.516   1.184   0.340
  910SOL     OW 3628   1.891   0.389   0.857
  910SOL    HW1 3629   1.977   0.438   0.843
  910SOL    HW2 3630   1.885   0.312   0.793
  911SOL     OW 3631   0.097   5.024   1.312
  911SOL    HW1 3632   0.135   4.935   1.336
  911SOL    HW2 3633   0.090   5.080   1.394
  912SOL     OW 3634   0.127   1.542   5.647
  912SOL    HW1 3635   0.029   1.548   5.663
  912SOL    HW2 3636   0.149   1.455   5.604
  913SOL     OW 3637   2.195   0.589   3.943
  913SOL    HW1 3638   2.145   0.533   3.878
  913SOL    HW2 3639   2.148   0.677   3.954
  914SOL     OW 3640   2.392   5.678   4.605
  914SOL    HW1 3641   2.425   5.712   4.517
  914SOL    HW2 3642   2.363   5.583   4.596
  915SOL     OW 3643   0.529   3.303   0.208
  915SOL    HW1 3644   0.612   3.295   0.152
  915SOL    HW2 3645   0.533   3.236   0.282
  916SOL     OW 3646   2.148   1.962   2.427
  916SOL    HW1 3647   2.228   1.911   2.393
  916SOL    HW2 3648   2.126   1.932   2.519
  917SOL     OW 3649   3.902   0.891   1.402
  917SOL    HW1 3650   3.851   0.977   1.413
  917SOL    HW2 3651   3.934   0.884   1.308
  918SOL     OW 3652   3.248   6.092   6.456
  918SOL    HW1 3653   3.240   6.123   6.550
  918SOL    HW2 3654   3.243   5.992   6.453
  919SOL     OW 3655   1.502   6.351   2.072
  919SOL    HW1 3656   1.497   6.411   1.993
  919SOL    HW2 3657   1.500   6.256   2.042
  920SOL     OW 3658   2.498   0.476   3.020
  920SOL    HW1 3659   2.507   0.382   2.986
  920SOL    HW2 3660   2.476   0.536   2.943
  921SOL     OW 3661   6.087   4.560   4.385
  921SOL    HW1 3662   6.101   4.464   4.410
  921SOL    HW2 3663   5.989   4.581   4.386
  922SOL     OW 3664   3.250   3.878   0.157
  922SOL    HW1 3665   3.349   3.885   0.150
  922SOL    HW2 3666   3.215   3.952   0.213
  923SOL     OW 3667   2.798   5.658   0.358
  923SOL    HW1 3668   2.754   5.584   0.307
  923SOL    HW2 3669   2.780   5.645   0.456
  924SOL     OW 3670   5.556   3.015   2.519
  924SOL    HW1 3671   5.600   3.059   2.597
  924SOL    HW2 3672   5.481   3.072   2.486
  925SOL     OW 3673   0.115   1.784   6.076
  925SOL    HW1 3674   0.066   1.857   6.123
  925SOL    HW2 3675   0.206   1.773   6.117
  926SOL     OW 3676   5.708   6.756   0.518
  926SOL    HW1 3677   5.691   6.804   0.605
  926SOL    HW2 3678   5.806   6.748   0.503
  927SOL     OW 3679   4.768   4.135   3.997
  927SOL    HW1 3680   4.746   4.090   3.911
  927SOL    HW2 3681   4.866   4.131   4.014
  928SOL     OW 3682   1.320   0.074   0.595
  928SOL    HW1 3683   1.367   0.156   0.561
  928SOL    HW2 3684   1.376   0.029   0.664
  929SOL     OW 3685   0.377   2.964   2.010
  929SOL    HW1 3686   0.284   2.999   2.014
  929SOL    HW2 3687   0.394   2.908   2.092
  930SOL     OW 3688   5.932   4.936   4.032
  930SOL    HW1 3689   5.875   4.919   3.952
  930SOL    HW2 3690   5.912   4.869   4.103
  931SOL     OW 3691   0.635   3.061   3.105
  931SOL    HW1 3692   0.591   3.015   3.028
  931SOL    HW2 3693   0.731   3.080   3.082
  932SOL     OW 3694   3.859   6.290   2.143
  932SOL    HW1 3695   3.804   6.219   2.187
  932SOL    HW2 3696   3.953   6.259   2.135
  933SOL     OW 3697   0.997   4.323   3.200
  933SOL    HW1 3698   1.019   4.231   3.169
  933SOL    HW2 3699   0.913   4.321   3.254
  934SOL     OW 3700   2.722   1.024   4.878
  934SOL    HW1 3701   2.787   1.093   4.847
  934SOL    HW2 3702   2.653   1.009   4.807
  935SOL     OW 3703   4.739   3.732   6.430
  935SOL    HW1 3704   4.730   3.821   6.387
  935SOL    HW2 3705   4.772   3.744   6.524
  936SOL     OW 3706   0.577   6.941   1.266
  936SOL    HW1 3707   0.562   6.852   1.309
  936SOL    HW2 3708   0.630   6.928   1.182
  937SOL     OW 3709   5.126   1.609   4.384
  937SOL    HW1 3710   5.194   1.579   4.318
  937SOL    HW2 3711   5.035   1.583   4.352
  938SOL     OW 3712   0.165   4.400   6.301
  938SOL    HW1 3713   0.204   4.437   6.386
  938SOL    HW2 3714   0.236   4.399   6.230
  939SOL     OW 3715   4.879   1.327   6.210
  939SOL    HW1 3716   4.881   1.375   6.298
  939SOL    HW2 3717   4.797   1.271   6.204
  940SOL     OW 3718   0.418   1.284   2.677
  940SOL    HW1 3719   0.454   1.347   2.608
  940SOL    HW2 3720   0.466   1.298   2.763
  941SOL     OW 3721   5.428   1.157   3.647
  941SOL    HW1 3722   5.365   1.165   3.570
  941SOL    HW2 3723   5.486   1.238   3.652
  942SOL     OW 3724   5.293   0.182   5.239
  942SOL    HW1 3725   5.208   0.132   5.228
  942SOL    HW2 3726   5.367   0.134   5.192
  943SOL     OW 3727   6.852   3.417   2.499
  943SOL    HW1 3728   6.923   3.369   2.449
  943SOL    HW2 3729   6.810   3.486   2.439
  944SOL     OW 3730   6.245   3.490   4.751
  944SOL    HW1 3731   6.276   3.412   4.696
  944SOL    HW2 3732   6.147   3.503   4.737
  945SOL     OW 3733   4.707   4.694   4.371
  945SOL    HW1 3734   4.696   4.724   4.466
  945SOL    HW2 3735   4.680   4.598   4.364
  946SOL     OW 3736   5.911   2.449   6.476
  946SOL    HW1 3737   5.998   2.401   6.465
  946SOL    HW2 3738   5.878   2.479   6.387
  947SOL     OW 3739   3.113   3.568   6.323
  947SOL    HW1 3740   3.107   3.658   6.279
  947SOL    HW2 3741   3.153   3.578   6.414
  948SOL     OW 3742   3.359   0.915   0.274
  948SOL    HW1 3743   3.284   0.891   0.213
  948SOL    HW2 3744   3.347   1.009   0.307
  949SOL     OW 3745   6.607   5.462   6.096
  949SOL    HW1 3746   6.670   5.471   6.173
  949SOL    HW2 3747   6.519   5.503   6.119
  950SOL     OW 3748   4.009   5.094   2.267
  950SOL    HW1 3749   4.017   5.010   2.214
  950SOL    HW2 3750   4.010   5.072   2.364
  951SOL     OW 3751   0.637   0.559   1.578
  951SOL    HW1 3752   0.598   0.556   1.671
  951SOL    HW2 3753   0.615   0.473   1.531
  952SOL     OW 3754   5.426   1.489   2.544
  952SOL    HW1 3755   5.444   1.392   2.558
  952SOL    HW2 3756   5.365   1.501   2.465
  953SOL     OW 3757   4.173   5.853   5.459
  953SOL    HW1 3758   4.227   5.771   5.440
  953SOL    HW2 3759   4.230   5.934   5.445
  954SOL     OW 3760   6.218   0.172   1.347
  954SOL    HW1 3761   6.301   0.127   1.381
  954SOL    HW2 3762   6.178   0.227   1.421
  955SOL     OW 3763   1.023   4.767   3.864
  955SOL    HW1 3764   0.927   4.784   3.843
  955SOL    HW2 3765   1.071   4.855   3.870
  956SOL     OW 3766   1.345   1.416   1.430
  956SOL    HW1 3767   1.416   1.470   1.385
  956SOL    HW2 3768   1.291   1.475   1.490
  957SOL     OW 3769   1.817   5.042   5.760
  957SOL    HW1 3770   1.842   5.092   5.843
  957SOL    HW2 3771   1.726   5.070   5.731
  958SOL     OW 3772   4.804   2.317   0.948
  958SOL    HW1 3773   4.761   2.258   1.017
  958SOL    HW2 3774   4.882   2.270   0.908
  959SOL     OW 3775   2.968   4.862   3.162
  959SOL    HW1 3776   2.969   4.793   3.235
  959SOL    HW2 3777   3.048   4.921   3.172
  960SOL     OW 3778   1.420   6.234   3.977
  960SOL    HW1 3779   1.352   6.198   4.042
  960SOL    HW2 3780   1.384   6.315   3.932
  961SOL     OW 3781   4.449   6.956   2.355
  961SOL    HW1 3782   4.529   6.978   2.411
  961SOL    HW2 3783   4.376   6.922   2.414
  962SOL     OW 3784   1.323   0.894   3.457
  962SOL    HW1 3785   1.413   0.938   3.446
  962SOL    HW2 3786   1.259   0.960   3.497
  963SOL     OW 3787   6.090   0.206   0.764
  963SOL    HW1 3788   6.073   0.280   0.829
  963SOL    HW2 3789   6.163   0.233   0.701
  964SOL     OW 3790   5.516   2.992   1.078
  964SOL    HW1 3791   5.611   2.969   1.053
  964SOL    HW2 3792   5.511   3.089   1.102
  965SOL     OW 3793   6.147   1.493   1.022
  965SOL    HW1 3794   6.060   1.462   0.984
  965SOL    HW2 3795   6.207   1.413   1.037
  966SOL     OW 3796   6.232   1.799   3.015
  966SOL    HW1 3797   6.222   1.703   2.991
  966SOL    HW2 3798   6.226   1.855   2.932
  967SOL     OW 3799   1.473   5.641   0.774
  967SOL    HW1 3800   1.497   5.585   0.853
  967SOL    HW2 3801   1.505   5.597   0.690
  968SOL     OW 3802   5.195   2.812   2.857
  968SOL    HW1 3803   5.221   2.830   2.762
  968SOL    HW2 3804   5.096   2.802   2.863
  969SOL     OW 3805   3.526   5.868   5.681
  969SOL    HW1 3806   3.478   5.823   5.606
  969SOL    HW2 3807   3.559   5.957   5.651
  970SOL     OW 3808   4.216   1.850   5.474
  970SOL    HW1 3809   4.215   1.853   5.374
  970SOL    HW2 3810   4.263   1.931   5.510
  971SOL     OW 3811   0.026   1.067   2.542
  971SOL    HW1 3812   0.054   0.985   2.492
  971SOL    HW2 3813   0.025   1.146   2.479
  972SOL     OW 3814   6.121   4.963   0.773
  972SOL    HW1 3815   6.063   5.038   0.743
  972SOL    HW2 3816   6.197   4.952   0.710
  973SOL     OW 3817   0.499   4.606   6.247
  973SOL    HW1 3818   0.598   4.597   6.264
  973SOL    HW2 3819   0.449   4.565   6.323
  974SOL     OW 3820   3.377   0.768   2.560
  974SOL    HW1 3821   3.410   0.844   2.617
  974SOL    HW2 3822   3.301   0.723   2.607
  975SOL     OW 3823   3.208   6.252   6.232
  975SOL    HW1 3824   3.219   6.180   6.301
  975SOL    HW2 3825   3.199   6.341   6.277
  976SOL     OW 3826   6.988   2.922   2.255
  976SOL    HW1 3827   6.954   2.862   2.182
  976SOL    HW2 3828   6.925   2.917   2.333
  977SOL     OW 3829   1.985   1.283   4.236
  977SOL    HW1 3830   2.044   1.330   4.170
  977SOL    HW2 3831   1.906   1.341   4.257
  978SOL     OW 3832   5.266   3.989   4.707
  978SOL    HW1 3833   5.214   3.987   4.621
  978SOL    HW2 3834   5.326   3.910   4.712
  979SOL     OW 3835   6.380   1.246   3.713
  979SOL    HW1 3836   6.466   1.254   3.764
  979SOL    HW2 3837   6.400   1.222   3.618
  980SOL     OW 3838   5.408   2.163   3.788
  980SOL    HW1 3839   5.479   2.217   3.833
  980SOL    HW2 3840   5.451   2.089   3.736
  981SOL     OW 3841   1.141   1.825   4.927
  981SOL    HW1 3842   1.174   1.762   4.856
  981SOL    HW2 3843   1.218   1.879   4.961
  982SOL     OW 3844   2.007   2.660   2.561
  982SOL    HW1 3845   2.057   2.573   2.562
  982SOL    HW2 3846   1.990   2.687   2.466
  983SOL     OW 3847   5.945   2.446   3.668
  983SOL    HW1 3848   5.974   2.375   3.603
  983SOL    HW2 3849   5.894   2.517   3.619
  984SOL     OW 3850   3.927   0.539   5.156
  984SOL    HW1 3851   3.953   0.583   5.070
  984SOL    HW2 3852   3.869   0.601   5.209
  985SOL     OW 3853   4.339   4.953   0.017
  985SOL    HW1 3854   4.438   4.946   0.031
  985SOL    HW2 3855   4.295   4.976   0.104
  986SOL     OW 3856   5.282   5.765   6.416
  986SOL    HW1 3857   5.341   5.845   6.404
  986SOL    HW2 3858   5.321   5.706   6.487
  987SOL     OW 3859   3.526   6.809   1.629
  987SOL    HW1 3860   3.616   6.766   1.625
  987SOL    HW2 3861   3.536   6.908   1.623
  988SOL     OW 3862   3.870   2.360   0.995
  988SOL    HW1 3863   3.773   2.340   0.984
  988SOL    HW2 3864   3.922   2.275   0.998
  989SOL     OW 3865   0.581   0.795   5.940
  989SOL    HW1 3866   0.627   0.740   6.009
  989SOL    HW2 3867   0.551   0.737   5.864
  990SOL     OW 3868   4.772   6.718   3.788
  990SOL    HW1 3869   4.748   6.780   3.713
  990SOL    HW2 3870   4.734   6.754   3.874
  991SOL     OW 3871   1.911   1.962   4.813
  991SOL    HW1 3872   2.003   1.985   4.847
  991SOL    HW2 3873   1.881   1.875   4.854
  992SOL     OW 3874   0.463   2.896   6.799
  992SOL    HW1 3875   0.394   2.967   6.817
  992SOL    HW2 3876   0.453   2.822   6.866
  993SOL     OW 3877   2.288   5.498   2.321
  993SOL    HW1 3878   2.284   5.446   2.236
  993SOL    HW2 3879   2.197   5.500   2.363
  994SOL     OW 3880   3.634   3.982   2.424
  994SOL    HW1 3881   3.598   3.905   2.372
  994SOL    HW2 3882   3.716   3.953   2.474
  995SOL     OW 3883   2.118   2.495   6.253
  995SOL    HW1 3884   2.165   2.462   6.171
  995SOL    HW2 3885   2.104   2.594   6.247
  996SOL     OW 3886   1.872   3.723   4.088
  996SOL    HW1 3887   1.905   3.674   4.008
  996SOL    HW2 3888   1.916   3.687   4.170
  997SOL     OW 3889   0.434   0.268   1.612
  997SOL    HW1 3890   0.513   0.302   1.663
  997SOL    HW2 3891   0.360   0.245   1.675
  998SOL     OW 3892   4.711   0.134   3.099
  998SOL    HW1 3893   4.633   0.099   3.047
  998SOL    HW2 3894   4.782   0.064   3.103
  999SOL     OW 3895   5.353   6.009   1.446
  999SOL    HW1 3896   5.381   5.913   1.440
  999SOL    HW2 3897   5.257   6.014   1.474
 1000SOL     OW 3898   0.790   1.822   2.465
 1000SOL    HW1 3899   0.763   1.918   2.457
 1000SOL    HW2 3900   0.888   1.813   2.446
 1001SOL     OW 3901   4.295   6.548   6.239
 1001SOL    HW1 3902   4.198   6.569   6.249
 1001SOL    HW2 3903   4.349   6.621   6.281
 1002SOL     OW 3904   5.559   1.736   6.515
 1002SOL    HW1 3905   5.462   1.753   6.496
 1002SOL    HW2 3906   5.567   1.668   6.588
 1003SOL     OW 3907   2.632   6.842   1.755
 1003SOL    HW1 3908   2.658   6.842   1.658
 1003SOL    HW2 3909   2.552   6.785   1.768
 1004SOL     OW 3910   6.630   0.642   0.745
 1004SOL    HW1 3911   6.564   0.615   0.675
 1004SOL    HW2 3912   6.662   0.735   0.728
 1005SOL     OW 3913   6.822   0.918   3.278
 1005SOL    HW1 3914   6.762   0.893   3.201
 1005SOL    HW2 3915   6.804   1.012   3.305
 1006SOL     OW 3916   2.430   6.029   1.541
 1006SOL    HW1 3917   2.408   6.069   1.452
 1006SOL    HW2 3918   2.367   5.953   1.559
 1007SOL     OW 3919   5.822   6.777   3.304
 1007SOL    HW1 3920   5.900   6.794   3.364
 1007SOL    HW2 3921   5.765   6.705   3.344
 1008SOL     OW 3922   1.306   2.870   4.265
 1008SOL    HW1 3923   1.294   2.894   4.361
 1008SOL    HW2 3924   1.399   2.836   4.250
 1009SOL     OW 3925   6.615   5.359   3.923
 1009SOL    HW1 3926   6.517   5.339   3.919
 1009SOL    HW2 3927   6.667   5.276   3.903
 1010SOL     OW 3928   4.313   2.213   0.227
 1010SOL    HW1 3929   4.408   2.203   0.256
 1010SOL    HW2 3930   4.307   2.196   0.128
 1011SOL     OW 3931   3.154   5.240   3.131
 1011SOL    HW1 3932   3.142   5.168   3.199
 1011SOL    HW2 3933   3.239   5.223   3.080
 1012SOL     OW 3934   6.393   5.417   0.187
 1012SOL    HW1 3935   6.462   5.441   0.256
 1012SOL    HW2 3936   6.316   5.480   0.194
 1013SOL     OW 3937   0.472   1.292   6.826
 1013SOL    HW1 3938   0.535   1.314   6.901
 1013SOL    HW2 3939   0.399   1.360   6.823
 1014SOL     OW 3940   5.378   5.671   6.661
 1014SOL    HW1 3941   5.332   5.666   6.750
 1014SOL    HW2 3942   5.442   5.595   6.652
 1015SOL     OW 3943   3.677   6.739   5.080
 1015SOL    HW1 3944   3.585   6.721   5.114
 1015SOL    HW2 3945   3.697   6.677   5.004
 1016SOL     OW 3946   2.489   2.821   0.894
 1016SOL    HW1 3947   2.452   2.881   0.965
 1016SOL    HW2 3948   2.428   2.743   0.880
 1017SOL     OW 3949   4.805   2.848   1.066
 1017SOL    HW1 3950   4.804   2.778   1.138
 1017SOL    HW2 3951   4.772   2.934   1.104
 1018SOL     OW 3952   1.774   3.259   4.218
 1018SOL    HW1 3953   1.714   3.207   4.279
 1018SOL    HW2 3954   1.723   3.335   4.177
 1019SOL     OW 3955   0.514   0.904   0.761
 1019SOL    HW1 3956   0.542   0.956   0.680
 1019SOL    HW2 3957   0.415   0.909   0.770
 1020SOL     OW 3958   0.874   6.656   0.908
 1020SOL    HW1 3959   0.839   6.676   0.816
 1020SOL    HW2 3960   0.913   6.564   0.909
 1021SOL     OW 3961   5.708   1.169   1.567
 1021SOL    HW1 3962   5.805   1.153   1.582
 1021SOL    HW2 3963   5.684   1.147   1.472
 1022SOL     OW 3964   4.202   5.147   6.358
 1022SOL    HW1 3965   4.191   5.055   6.322
 1022SOL    HW2 3966   4.133   5.164   6.428
 1023SOL     OW 3967   6.989   0.343   2.673
 1023SOL    HW1 3968   0.040   0.366   2.735
 1023SOL    HW2 3969   7.013   0.261   2.621
 1024SOL     OW 3970   6.734   2.750   4.402
 1024SOL    HW1 3971   6.830   2.749   4.375
 1024SOL    HW2 3972   6.689   2.668   4.368
 1025SOL     OW 3973   3.775   4.549   0.332
 1025SOL    HW1 3974   3.684   4.545   0.292
 1025SOL    HW2 3975   3.830   4.616   0.282
 1026SOL     OW 3976   1.069   0.779   0.790
 1026SOL    HW1 3977   1.076   0.774   0.890
 1026SOL    HW2 3978   0.977   0.810   0.765
 1027SOL     OW 3979   3.069   5.803   1.530
 1027SOL    HW1 3980   3.120   5.816   1.445
 1027SOL    HW2 3981   3.040   5.891   1.566
 1028SOL     OW 3982   3.189   6.186   0.465
 1028SOL    HW1 3983   3.268   6.229   0.422
 1028SOL    HW2 3984   3.209   6.089   0.482
 1029SOL     OW 3985   1.935   0.642   0.307
 1029SOL    HW1 3986   1.988   0.725   0.287
 1029SOL    HW2 3987   1.940   0.622   0.404
 1030SOL     OW 3988   3.765   2.953   3.246
 1030SOL    HW1 3989   3.788   2.951   3.343
 1030SOL    HW2 3990   3.670   2.923   3.234
 1031SOL     OW 3991   4.623   5.552   1.203
 1031SOL    HW1 3992   4.560   5.582   1.131
 1031SOL    HW2 3993   4.629   5.452   1.201
 1032SOL     OW 3994   2.047   1.627   5.151
 1032SOL    HW1 3995   1.965   1.592   5.195
 1032SOL    HW2 3996   2.032   1.635   5.052
 1033SOL     OW 3997   1.753   6.731   1.474
 1033SOL    HW1 3998   1.686   6.757   1.404
 1033SOL    HW2 3999   1.811   6.809   1.495
 1034SOL     OW 4000   1.806   6.019   4.426
 1034SOL    HW1 4001   1.879   5.963   4.464
 1034SOL    HW2 4002   1.837   6.060   4.340
 1035SOL     OW 4003   2.488   1.638   3.343
 1035SOL    HW1 4004   2.549   1.562   3.321
 1035SOL    HW2 4005   2.447   1.674   3.259
 1036SOL     OW 4006   3.844   0.384   1.167
 1036SOL    HW1 4007   3.896   0.421   1.244
 1036SOL    HW2 4008   3.870   0.431   1.083
 1037SOL     OW 4009   1.274   0.923   1.458
 1037SOL    HW1 4010   1.189   0.876   1.436
 1037SOL    HW2 4011   1.334   0.863   1.510
 1038SOL     OW 4012   0.622   1.274   5.524
 1038SOL    HW1 4013   0.605   1.303   5.618
 1038SOL    HW2 4014   0.535   1.247   5.481
 1039SOL     OW 4015   4.608   1.713   5.498
 1039SOL    HW1 4016   4.642   1.759   5.580
 1039SOL    HW2 4017   4.573   1.781   5.434
 1040SOL     OW 4018   5.753   3.040   2.966
 1040SOL    HW1 4019   5.758   3.108   3.039
 1040SOL    HW2 4020   5.844   3.022   2.930
 1041SOL     OW 4021   6.513   0.166   4.303
 1041SOL    HW1 4022   6.481   0.216   4.383
 1041SOL    HW2 4023   6.533   0.230   4.229
 1042SOL     OW 4024   4.018   5.013   2.542
 1042SOL    HW1 4025   3.988   4.986   2.634
 1042SOL    HW2 4026   4.117   5.003   2.534
 1043SOL     OW 4027   4.166   0.931   6.415
 1043SOL    HW1 4028   4.079   0.885   6.432
 1043SOL    HW2 4029   4.180   1.003   6.483
 1044SOL     OW 4030   3.828   2.773   1.567
 1044SOL    HW1 4031   3.898   2.806   1.631
 1044SOL    HW2 4032   3.795   2.683   1.598
 1045SOL     OW 4033   3.311   0.453   1.862
 1045SOL    HW1 4034   3.219   0.475   1.896
 1045SOL    HW2 4035   3.346   0.530   1.809
 1046SOL     OW 4036   2.551   7.011   6.120
 1046SOL    HW1 4037   2.537   6.918   6.085
 1046SOL    HW2 4038   2.463   0.032   6.132
 1047SOL     OW 4039   1.482   5.567   2.701
 1047SOL    HW1 4040   1.579   5.573   2.675
 1047SOL    HW2 4041   1.451   5.656   2.734
 1048SOL     OW 4042   4.848   5.611   5.480
 1048SOL    HW1 4043   4.856   5.709   5.494
 1048SOL    HW2 4044   4.838   5.565   5.569
 1049SOL     OW 4045   0.429   3.899   5.074
 1049SOL    HW1 4046   0.357   3.854   5.126
 1049SOL    HW2 4047   0.507   3.837   5.064
 1050SOL     OW 4048   3.435   5.531   0.555
 1050SOL    HW1 4049   3.414   5.465   0.483
 1050SOL    HW2 4050   3.531   5.559   0.548
 1051SOL     OW 4051   4.015   4.371   0.359
 1051SOL    HW1 4052   3.938   4.412   0.310
 1051SOL    HW2 4053   4.011   4.272   0.350
 1052SOL     OW 4054   4.282   0.958   3.966
 1052SOL    HW1 4055   4.213   0.893   3.933
 1052SOL    HW2 4056   4.360   0.907   4.002
 1053SOL     OW 4057   5.817   5.806   3.570
 1053SOL    HW1 4058   5.864   5.819   3.482
 1053SOL    HW2 4059   5.883   5.775   3.638
 1054SOL     OW 4060   2.510   4.960   5.719
 1054SOL    HW1 4061   2.488   5.032   5.785
 1054SOL    HW2 4062   2.428   4.905   5.701
 1055SOL     OW 4063   5.699   5.900   4.736
 1055SOL    HW1 4064   5.779   5.856   4.695
 1055SOL    HW2 4065   5.636   5.831   4.771
 1056SOL     OW 4066   1.405   6.283   5.554
 1056SOL    HW1 4067   1.448   6.353   5.610
 1056SOL    HW2 4068   1.471   6.209   5.536
 1057SOL     OW 4069   3.372   4.024   3.402
 1057SOL    HW1 4070   3.356   3.946   3.462
 1057SOL    HW2 4071   3.297   4.031   3.336
 1058SOL     OW 4072   4.843   1.422   2.390
 1058SOL    HW1 4073   4.787   1.387   2.465
 1058SOL    HW2 4074   4.904   1.349   2.357
 1059SOL     OW 4075   3.667   0.866   1.604
 1059SOL    HW1 4076   3.729   0.791   1.630
 1059SOL    HW2 4077   3.650   0.924   1.684
 1060SOL     OW 4078   6.854   3.390   5.814
 1060SOL    HW1 4079   6.794   3.320   5.854
 1060SOL    HW2 4080   6.834   3.479   5.856
 1061SOL     OW 4081   4.203   4.353   0.877
 1061SOL    HW1 4082   4.157   4.287   0.936
 1061SOL    HW2 4083   4.158   4.355   0.788
 1062SOL     OW 4084   6.574   6.065   5.887
 1062SOL    HW1 4085   6.479   6.061   5.919
 1062SOL    HW2 4086   6.602   5.974   5.855
 1063SOL     OW 4087   1.475   4.166   0.401
 1063SOL    HW1 4088   1.539   4.242   0.415
 1063SOL    HW2 4089   1.507   4.085   0.450
 1064SOL     OW 4090   1.016   3.778   2.775
 1064SOL    HW1 4091   1.033   3.695   2.722
 1064SOL    HW2 4092   1.066   3.854   2.734
 1065SOL     OW 4093   4.888   0.655   4.131
 1065SOL    HW1 4094   4.826   0.671   4.207
 1065SOL    HW2 4095   4.842   0.678   4.045
 1066SOL     OW 4096   5.292   0.370   4.047
 1066SOL    HW1 4097   5.232   0.336   3.975
 1066SOL    HW2 4098   5.238   0.420   4.115
 1067SOL     OW 4099   0.950   2.592   0.676
 1067SOL    HW1 4100   1.021   2.589   0.747
 1067SOL    HW2 4101   0.993   2.604   0.586
 1068SOL     OW 4102   6.653   3.601   1.708
 1068SOL    HW1 4103   6.679   3.662   1.633
 1068SOL    HW2 4104   6.733   3.582   1.765
 1069SOL     OW 4105   4.736   4.455   1.261
 1069SOL    HW1 4106   4.809   4.394   1.230
 1069SOL    HW2 4107   4.745   4.544   1.216
 1070SOL     OW 4108   1.614   0.858   6.460
 1070SOL    HW1 4109   1.575   0.949   6.447
 1070SOL    HW2 4110   1.577   0.795   6.392
 1071SOL     OW 4111   3.750   0.468   3.180
 1071SOL    HW1 4112   3.802   0.492   3.261
 1071SOL    HW2 4113   3.663   0.518   3.180
 1072SOL     OW 4114   2.234   6.280   2.288
 1072SOL    HW1 4115   2.142   6.279   2.248
 1072SOL    HW2 4116   2.229   6.309   2.383
 1073SOL     OW 4117   3.543   5.768   2.334
 1073SOL    HW1 4118   3.556   5.856   2.288
 1073SOL    HW2 4119   3.508   5.784   2.427
 1074SOL     OW 4120   1.926   5.649   1.641
 1074SOL    HW1 4121   1.984   5.620   1.717
 1074SOL    HW2 4122   1.928   5.580   1.569
 1075SOL     OW 4123   4.872   5.169   3.185
 1075SOL    HW1 4124   4.929   5.194   3.263
 1075SOL    HW2 4125   4.923   5.185   3.100
 1076SOL     OW 4126   0.473   4.489   5.024
 1076SOL    HW1 4127   0.497   4.580   4.991
 1076SOL    HW2 4128   0.542   4.423   4.992
 1077SOL     OW 4129   6.122   0.100   0.052
 1077SOL    HW1 4130   6.096   0.035   0.123
 1077SOL    HW2 4131   6.058   0.091   6.998
 1078SOL     OW 4132   1.357   1.294   2.188
 1078SOL    HW1 4133   1.317   1.361   2.126
 1078SOL    HW2 4134   1.424   1.239   2.138
 1079SOL     OW 4135   2.314   4.899   3.513
 1079SOL    HW1 4136   2.302   4.841   3.433
 1079SOL    HW2 4137   2.305   4.995   3.487
 1080SOL     OW 4138   2.288   5.083   3.180
 1080SOL    HW1 4139   2.260   5.156   3.117
 1080SOL    HW2 4140   2.279   5.116   3.275
 1081SOL     OW 4141   0.647   1.486   5.373
 1081SOL    HW1 4142   0.557   1.508   5.335
 1081SOL    HW2 4143   0.637   1.413   5.441
 1082SOL     OW 4144   1.420   0.518   5.597
 1082SOL    HW1 4145   1.420   0.449   5.669
 1082SOL    HW2 4146   1.432   0.609   5.639
 1083SOL     OW 4147   4.111   3.744   2.175
 1083SOL    HW1 4148   4.190   3.689   2.203
 1083SOL    HW2 4149   4.043   3.745   2.249
 1084SOL     OW 4150   6.684   5.763   1.172
 1084SOL    HW1 4151   6.656   5.855   1.198
 1084SOL    HW2 4152   6.636   5.736   1.088
 1085SOL     OW 4153   2.019   4.350   3.933
 1085SOL    HW1 4154   1.954   4.312   4.000
 1085SOL    HW2 4155   1.970   4.372   3.848
 1086SOL     OW 4156   5.996   5.705   3.383
 1086SOL    HW1 4157   5.952   5.636   3.326
 1086SOL    HW2 4158   6.076   5.665   3.428
 1087SOL     OW 4159   4.740   2.931   5.836
 1087SOL    HW1 4160   4.778   3.010   5.883
 1087SOL    HW2 4161   4.647   2.914   5.868
 1088SOL     OW 4162   5.574   4.619   3.566
 1088SOL    HW1 4163   5.530   4.668   3.641
 1088SOL    HW2 4164   5.508   4.604   3.492
 1089SOL     OW 4165   0.396   0.602   4.259
 1089SOL    HW1 4166   0.457   0.584   4.182
 1089SOL    HW2 4167   0.445   0.589   4.345
 1090SOL     OW 4168   2.857   1.393   4.592
 1090SOL    HW1 4169   2.820   1.312   4.547
 1090SOL    HW2 4170   2.902   1.452   4.525
 1091SOL     OW 4171   1.639   1.886   3.894
 1091SOL    HW1 4172   1.737   1.898   3.911
 1091SOL    HW2 4173   1.625   1.852   3.801
 1092SOL     OW 4174   2.188   3.742   1.473
 1092SOL    HW1 4175   2.212   3.664   1.415
 1092SOL    HW2 4176   2.175   3.823   1.415
 1093SOL     OW 4177   1.583   1.658   2.549
 1093SOL    HW1 4178   1.659   1.680   2.488
 1093SOL    HW2 4179   1.614   1.594   2.620
 1094SOL     OW 4180   0.277   6.475   1.714
 1094SOL    HW1 4181   0.189   6.428   1.716
 1094SOL    HW2 4182   0.263   6.573   1.700
 1095SOL     OW 4183   6.167   2.297   6.500
 1095SOL    HW1 4184   6.164   2.244   6.416
 1095SOL    HW2 4185   6.225   2.377   6.487
 1096SOL     OW 4186   3.758   5.244   1.423
 1096SOL    HW1 4187   3.854   5.234   1.395
 1096SOL    HW2 4188   3.749   5.225   1.521
 1097SOL     OW 4189   1.196   5.102   5.099
 1097SOL    HW1 4190   1.153   5.123   5.187
 1097SOL    HW2 4191   1.166   5.168   5.030
 1098SOL     OW 4192   5.351   2.542   1.104
 1098SOL    HW1 4193   5.303   2.527   1.017
 1098SOL    HW2 4194   5.337   2.637   1.133
 1099SOL     OW 4195   4.323   1.819   4.582
 1099SOL    HW1 4196   4.274   1.822   4.495
 1099SOL    HW2 4197   4.416   1.853   4.569
 1100SOL     OW 4198   0.725   1.471   6.343
 1100SOL    HW1 4199   0.775   1.406   6.286
 1100SOL    HW2 4200   0.727   1.440   6.438
 1101SOL     OW 4201   5.471   3.548   1.604
 1101SOL    HW1 4202   5.560   3.589   1.620
 1101SOL    HW2 4203   5.468   3.457   1.644
 1102SOL     OW 4204   0.899   4.640   4.110
 1102SOL    HW1 4205   0.947   4.706   4.167
 1102SOL    HW2 4206   0.921   4.655   4.014
 1103SOL     OW 4207   2.064   1.922   1.694
 1103SOL    HW1 4208   2.061   1.969   1.782
 1103SOL    HW2 4209   2.083   1.988   1.622
 1104SOL     OW 4210   1.859   4.083   5.623
 1104SOL    HW1 4211   1.941   4.125   5.583
 1104SOL    HW2 4212   1.879   4.055   5.717
 1105SOL     OW 4213   4.720   4.115   6.695
 1105SOL    HW1 4214   4.652   4.166   6.644
 1105SOL    HW2 4215   4.788   4.178   6.733
 1106SOL     OW 4216   0.732   1.964   6.330
 1106SOL    HW1 4217   0.759   1.872   6.302
 1106SOL    HW2 4218   0.694   2.013   6.252
 1107SOL     OW 4219   0.974   0.248   6.578
 1107SOL    HW1 4220   0.940   0.259   6.671
 1107SOL    HW2 4221   1.020   0.333   6.549
 1108SOL     OW 4222   2.516   0.621   5.133
 1108SOL    HW1 4223   2.439   0.560   5.153
 1108SOL    HW2 4224   2.484   0.699   5.079
 1109SOL     OW 4225   3.624   5.701   4.662
 1109SOL    HW1 4226   3.652   5.619   4.712
 1109SOL    HW2 4227   3.528   5.692   4.635
 1110SOL     OW 4228   2.869   2.124   1.539
 1110SOL    HW1 4229   2.878   2.216   1.575
 1110SOL    HW2 4230   2.863   2.127   1.439
 1111SOL     OW 4231   4.991   6.847   6.501
 1111SOL    HW1 4232   4.921   6.777   6.490
 1111SOL    HW2 4233   5.044   6.854   6.416
 1112SOL     OW 4234   5.814   0.978   3.055
 1112SOL    HW1 4235   5.868   1.058   3.030
 1112SOL    HW2 4236   5.813   0.969   3.155
 1113SOL     OW 4237   6.231   3.125   2.324
 1113SOL    HW1 4238   6.210   3.157   2.232
 1113SOL    HW2 4239   6.172   3.171   2.391
 1114SOL     OW 4240   5.159   0.412   6.354
 1114SOL    HW1 4241   5.133   0.508   6.344
 1114SOL    HW2 4242   5.241   0.394   6.299
 1115SOL     OW 4243   4.146   2.073   0.370
 1115SOL    HW1 4244   4.173   2.069   0.467
 1115SOL    HW2 4245   4.210   2.133   0.321
 1116SOL     OW 4246   5.360   5.378   3.893
 1116SOL    HW1 4247   5.402   5.458   3.851
 1116SOL    HW2 4248   5.393   5.368   3.987
 1117SOL     OW 4249   2.723   2.875   1.386
 1117SOL    HW1 4250   2.808   2.829   1.410
 1117SOL    HW2 4251   2.712   2.874   1.286
 1118SOL     OW 4252   1.229   4.958   2.836
 1118SOL    HW1 4253   1.157   4.992   2.776
 1118SOL    HW2 4254   1.196   4.955   2.930
 1119SOL     OW 4255   4.034   4.265   1.639
 1119SOL    HW1 4256   4.110   4.313   1.684
 1119SOL    HW2 4257   4.069   4.209   1.564
 1120SOL     OW 4258   5.446   6.877   5.984
 1120SOL    HW1 4259   5.436   6.959   6.041
 1120SOL    HW2 4260   5.511   6.897   5.910
 1121SOL     OW 4261   5.256   2.768   2.315
 1121SOL    HW1 4262   5.171   2.716   2.318
 1121SOL    HW2 4263   5.332   2.706   2.298
 1122SOL     OW 4264   5.384   3.047   6.733
 1122SOL    HW1 4265   5.404   3.097   6.648
 1122SOL    HW2 4266   5.292   3.008   6.727
 1123SOL     OW 4267   4.640   1.338   1.699
 1123SOL    HW1 4268   4.721   1.298   1.743
 1123SOL    HW2 4269   4.564   1.339   1.764
 1124SOL     OW 4270   6.600   3.475   4.631
 1124SOL    HW1 4271   6.651   3.483   4.717
 1124SOL    HW2 4272   6.658   3.432   4.562
 1125SOL     OW 4273   2.978   2.029   5.258
 1125SOL    HW1 4274   2.999   2.049   5.162
 1125SOL    HW2 4275   2.885   1.993   5.264
 1126SOL     OW 4276   4.626   6.919   6.519
 1126SOL    HW1 4277   4.692   6.994   6.523
 1126SOL    HW2 4278   4.670   6.835   6.551
 1127SOL     OW 4279   2.894   4.249   6.026
 1127SOL    HW1 4280   2.878   4.240   5.928
 1127SOL    HW2 4281   2.869   4.341   6.056
 1128SOL     OW 4282   4.283   2.251   4.424
 1128SOL    HW1 4283   4.311   2.344   4.402
 1128SOL    HW2 4284   4.184   2.247   4.433
 1129SOL     OW 4285   3.850   0.029   0.099
 1129SOL    HW1 4286   3.774   0.036   0.035
 1129SOL    HW2 4287   3.816   0.008   0.191
 1130SOL     OW 4288   1.936   4.227   1.243
 1130SOL    HW1 4289   1.897   4.153   1.298
 1130SOL    HW2 4290   1.870   4.302   1.236
 1131SOL     OW 4291   0.556   6.130   5.807
 1131SOL    HW1 4292   0.570   6.041   5.763
 1131SOL    HW2 4293   0.644   6.176   5.819
 1132SOL     OW 4294   5.052   0.169   6.394
 1132SOL    HW1 4295   5.057   0.268   6.384
 1132SOL    HW2 4296   5.144   0.131   6.397
 1133SOL     OW 4297   0.024   2.071   1.671
 1133SOL    HW1 4298   0.108   2.109   1.633
 1133SOL    HW2 4299   6.989   2.146   1.703
 1134SOL     OW 4300   5.547   2.261   6.816
 1134SOL    HW1 4301   5.490   2.338   6.787
 1134SOL    HW2 4302   5.642   2.280   6.791
 1135SOL     OW 4303   2.896   2.188   3.160
 1135SOL    HW1 4304   2.974   2.175   3.098
 1135SOL    HW2 4305   2.811   2.181   3.108
 1136SOL     OW 4306   2.718   5.235   4.150
 1136SOL    HW1 4307   2.750   5.256   4.058
 1136SOL    HW2 4308   2.651   5.304   4.179
 1137SOL     OW 4309   0.936   2.001   6.739
 1137SOL    HW1 4310   0.885   2.050   6.668
 1137SOL    HW2 4311   1.017   2.054   6.764
 1138SOL     OW 4312   2.159   2.826   6.131
 1138SOL    HW1 4313   2.122   2.911   6.095
 1138SOL    HW2 4314   2.138   2.819   6.229
 1139SOL     OW 4315   1.783   6.013   3.019
 1139SOL    HW1 4316   1.735   5.990   3.103
 1139SOL    HW2 4317   1.800   5.930   2.966
 1140SOL     OW 4318   3.867   2.129   2.945
 1140SOL    HW1 4319   3.840   2.120   2.849
 1140SOL    HW2 4320   3.917   2.215   2.957
 1141SOL     OW 4321   5.394   5.685   6.014
 1141SOL    HW1 4322   5.309   5.653   6.054
 1141SOL    HW2 4323   5.382   5.700   5.916
 1142SOL     OW 4324   5.341   0.338   4.512
 1142SOL    HW1 4325   5.356   0.315   4.416
 1142SOL    HW2 4326   5.304   0.258   4.560
 1143SOL     OW 4327   3.992   2.122   2.183
 1143SOL    HW1 4328   3.894   2.124   2.202
 1143SOL    HW2 4329   4.007   2.122   2.084
 1144SOL     OW 4330   0.172   4.359   4.383
 1144SOL    HW1 4331   0.154   4.338   4.479
 1144SOL    HW2 4332   0.100   4.320   4.326
 1145SOL     OW 4333   0.018   5.365   3.266
 1145SOL    HW1 4334   0.007   5.362   3.167
 1145SOL    HW2 4335   0.071   5.286   3.297
 1146SOL     OW 4336   5.290   1.348   1.033
 1146SOL    HW1 4337   5.344   1.420   1.077
 1146SOL    HW2 4338   5.215   1.389   0.981
 1147SOL     OW 4339   1.166   3.753   1.522
 1147SOL    HW1 4340   1.147   3.810   1.443
 1147SOL    HW2 4341   1.089   3.692   1.540
 1148SOL     OW 4342   3.385   5.789   6.118
 1148SOL    HW1 4343   3.478   5.760   6.141
 1148SOL    HW2 4344   3.369   5.779   6.020
 1149SOL     OW 4345   5.895   3.519   2.838
 1149SOL    HW1 4346   5.886   3.441   2.776
 1149SOL    HW2 4347   5.989   3.524   2.871
 1150SOL     OW 4348   2.605   4.312   0.822
 1150SOL    HW1 4349   2.537   4.384   0.833
 1150SOL    HW2 4350   2.692   4.342   0.862
 1151SOL     OW 4351   5.661   5.791   6.404
 1151SOL    HW1 4352   5.639   5.783   6.307
 1151SOL    HW2 4353   5.665   5.888   6.430
 1152SOL     OW 4354   1.271   6.830   4.942
 1152SOL    HW1 4355   1.311   6.916   4.974
 1152SOL    HW2 4356   1.220   6.845   4.858
 1153SOL     OW 4357   2.213   6.531   3.130
 1153SOL    HW1 4358   2.162   6.556   3.047
 1153SOL    HW2 4359   2.268   6.608   3.160
 1154SOL     OW 4360   0.387   3.783   1.311
 1154SOL    HW1 4361   0.418   3.878   1.319
 1154SOL    HW2 4362   0.333   3.772   1.227
 1155SOL     OW 4363   3.462   5.992   0.028
 1155SOL    HW1 4364   3.423   5.909   7.013
 1155SOL    HW2 4365   3.517   5.969   0.109
 1156SOL     OW 4366   2.104   0.384   3.794
 1156SOL    HW1 4367   2.124   0.400   3.697
 1156SOL    HW2 4368   2.005   0.381   3.807
 1157SOL     OW 4369   0.118   2.236   5.104
 1157SOL    HW1 4370   0.100   2.335   5.105
 1157SOL    HW2 4371   0.128   2.205   5.010
 1158SOL     OW 4372   5.962   5.118   5.389
 1158SOL    HW1 4373   5.975   5.172   5.306
 1158SOL    HW2 4374   5.921   5.030   5.365
 1159SOL     OW 4375   4.221   0.241   2.638
 1159SOL    HW1 4376   4.158   0.179   2.591
 1159SOL    HW2 4377   4.189   0.335   2.628
 1160SOL     OW 4378   4.057   3.852   1.929
 1160SOL    HW1 4379   4.116   3.931   1.911
 1160SOL    HW2 4380   4.076   3.817   2.021
 1161SOL     OW 4381   5.544   0.222   5.155
 1161SOL    HW1 4382   5.589   0.246   5.069
 1161SOL    HW2 4383   5.531   0.305   5.210
 1162SOL     OW 4384   3.519   2.850   0.995
 1162SOL    HW1 4385   3.516   2.758   1.036
 1162SOL    HW2 4386   3.427   2.880   0.975
 1163SOL     OW 4387   5.200   2.325   2.096
 1163SOL    HW1 4388   5.104   2.308   2.117
 1163SOL    HW2 4389   5.222   2.421   2.112
 1164SOL     OW 4390   5.355   2.506   3.334
 1164SOL    HW1 4391   5.343   2.449   3.253
 1164SOL    HW2 4392   5.327   2.454   3.415
 1165SOL     OW 4393   1.375   3.497   3.942
 1165SOL    HW1 4394   1.370   3.453   3.852
 1165SOL    HW2 4395   1.434   3.443   4.003
 1166SOL     OW 4396   4.343   1.836   6.488
 1166SOL    HW1 4397   4.247   1.809   6.478
 1166SOL    HW2 4398   4.365   1.904   6.419
 1167SOL     OW 4399   3.431   6.965   5.730
 1167SOL    HW1 4400   3.378   0.026   5.740
 1167SOL    HW2 4401   3.476   6.964   5.641
 1168SOL     OW 4402   6.227   6.931   2.528
 1168SOL    HW1 4403   6.267   7.002   2.586
 1168SOL    HW2 4404   6.197   6.972   2.441
 1169SOL     OW 4405   0.176   3.126   0.723
 1169SOL    HW1 4406   0.138   3.043   0.682
 1169SOL    HW2 4407   0.115   3.159   0.794
 1170SOL     OW 4408   3.856   0.795   2.150
 1170SOL    HW1 4409   3.898   0.730   2.212
 1170SOL    HW2 4410   3.762   0.813   2.178
 1171SOL     OW 4411   2.936   5.728   1.013
 1171SOL    HW1 4412   2.879   5.659   1.058
 1171SOL    HW2 4413   2.937   5.811   1.069
 1172SOL     OW 4414   3.032   3.946   3.879
 1172SOL    HW1 4415   2.944   3.909   3.848
 1172SOL    HW2 4416   3.069   4.006   3.808
 1173SOL     OW 4417   3.317   0.201   5.712
 1173SOL    HW1 4418   3.302   0.216   5.614
 1173SOL    HW2 4419   3.230   0.175   5.755
 1174SOL     OW 4420   2.279   5.903   0.682
 1174SOL    HW1 4421   2.256   5.851   0.764
 1174SOL    HW2 4422   2.360   5.863   0.639
 1175SOL     OW 4423   5.500   5.036   6.959
 1175SOL    HW1 4424   5.452   5.112   7.003
 1175SOL    HW2 4425   5.575   5.005   7.017
 1176SOL     OW 4426   5.548   5.480   0.803
 1176SOL    HW1 4427   5.624   5.471   0.867
 1176SOL    HW2 4428   5.507   5.571   0.812
 1177SOL     OW 4429   0.136   2.617   5.390
 1177SOL    HW1 4430   0.115   2.550   5.461
 1177SOL    HW2 4431   0.063   2.684   5.384
 1178SOL     OW 4432   4.714   4.288   2.133
 1178SOL    HW1 4433   4.638   4.301   2.069
 1178SOL    HW2 4434   4.775   4.217   2.098
 1179SOL     OW 4435   1.745   4.272   0.598
 1179SOL    HW1 4436   1.801   4.338   0.647
 1179SOL    HW2 4437   1.766   4.276   0.500
 1180SOL     OW 4438   2.294   0.629   3.689
 1180SOL    HW1 4439   2.268   0.597   3.780
 1180SOL    HW2 4440   2.260   0.722   3.676
 1181SOL     OW 4441   1.016   4.462   4.517
 1181SOL    HW1 4442   0.928   4.495   4.484
 1181SOL    HW2 4443   1.085   4.474   4.445
 1182SOL     OW 4444   2.030   4.156   3.331
 1182SOL    HW1 4445   1.934   4.132   3.322
 1182SOL    HW2 4446   2.039   4.254   3.352
 1183SOL     OW 4447   4.381   5.750   1.835
 1183SOL    HW1 4448   4.418   5.827   1.783
 1183SOL    HW2 4449   4.454   5.685   1.855
 1184SOL     OW 4450   3.163   3.398   5.391
 1184SOL    HW1 4451   3.084   3.337   5.393
 1184SOL    HW2 4452   3.133   3.492   5.409
 1185SOL     OW 4453   2.362   0.695   0.138
 1185SOL    HW1 4454   2.394   0.623   0.076
 1185SOL    HW2 4455   2.265   0.682   0.156
 1186SOL     OW 4456   6.305   0.429   5.543
 1186SOL    HW1 4457   6.227   0.373   5.571
 1186SOL    HW2 4458   6.352   0.386   5.466
 1187SOL     OW 4459   5.313   5.931   4.742
 1187SOL    HW1 4460   5.309   6.020   4.789
 1187SOL    HW2 4461   5.392   5.880   4.774
 1188SOL     OW 4462   2.879   6.810   6.130
 1188SOL    HW1 4463   2.928   6.746   6.190
 1188SOL    HW2 4464   2.902   6.903   6.157
 1189SOL     OW 4465   5.075   1.707   2.444
 1189SOL    HW1 4466   5.033   1.778   2.388
 1189SOL    HW2 4467   5.061   1.729   2.541
 1190SOL     OW 4468   3.950   5.502   3.609
 1190SOL    HW1 4469   3.924   5.433   3.541
 1190SOL    HW2 4470   3.916   5.592   3.580
 1191SOL     OW 4471   3.804   5.261   5.965
 1191SOL    HW1 4472   3.888   5.235   6.012
 1191SOL    HW2 4473   3.725   5.234   6.020
 1192SOL     OW 4474   5.639   4.558   2.949
 1192SOL    HW1 4475   5.643   4.490   3.023
 1192SOL    HW2 4476   5.585   4.636   2.980
 1193SOL     OW 4477   5.433   0.002   4.346
 1193SOL    HW1 4478   5.495   6.986   4.278
 1193SOL    HW2 4479   5.469   7.008   4.438
 1194SOL     OW 4480   0.024   0.799   0.711
 1194SOL    HW1 4481   0.063   0.713   0.677
 1194SOL    HW2 4482   6.961   0.817   0.663
 1195SOL     OW 4483   6.144   1.267   6.566
 1195SOL    HW1 4484   6.162   1.363   6.543
 1195SOL    HW2 4485   6.204   1.208   6.513
 1196SOL     OW 4486   0.002   4.915   2.155
 1196SOL    HW1 4487   6.994   4.902   2.249
 1196SOL    HW2 4488   0.066   4.841   2.131
 1197SOL     OW 4489   4.038   5.842   5.713
 1197SOL    HW1 4490   4.088   5.864   5.630
 1197SOL    HW2 4491   3.986   5.922   5.743
 1198SOL     OW 4492   2.330   2.709   2.310
 1198SOL    HW1 4493   2.332   2.610   2.297
 1198SOL    HW2 4494   2.422   2.746   2.295
 1199SOL     OW 4495   3.748   4.038   2.812
 1199SOL    HW1 4496   3.661   4.022   2.860
 1199SOL    HW2 4497   3.729   4.067   2.719
 1200SOL     OW 4498   4.226   3.968   5.251
 1200SOL    HW1 4499   4.211   4.065   5.269
 1200SOL    HW2 4500   4.320   3.943   5.278
 1201SOL     OW 4501   1.487   1.530   4.850
 1201SOL    HW1 4502   1.408   1.471   4.867
 1201SOL    HW2 4503   1.523   1.512   4.759
 1202SOL     OW 4504   5.755   0.218   6.033
 1202SOL    HW1 4505   5.810   0.156   5.976
 1202SOL    HW2 4506   5.809   0.299   6.055
 1203SOL     OW 4507   5.464   0.271   1.172
 1203SOL    HW1 4508   5.411   0.295   1.091
 1203SOL    HW2 4509   5.561   0.286   1.154
 1204SOL     OW 4510   3.844   1.324   0.651
 1204SOL    HW1 4511   3.752   1.359   0.670
 1204SOL    HW2 4512   3.876   1.362   0.564
 1205SOL     OW 4513   5.797   2.930   7.022
 1205SOL    HW1 4514   5.850   2.936   6.937
 1205SOL    HW2 4515   5.754   3.019   0.016
 1206SOL     OW 4516   1.855   1.695   4.933
 1206SOL    HW1 4517   1.761   1.715   4.962
 1206SOL    HW2 4518   1.853   1.649   4.845
 1207SOL     OW 4519   6.660   6.383   0.621
 1207SOL    HW1 4520   6.635   6.436   0.702
 1207SOL    HW2 4521   6.606   6.414   0.542
 1208SOL     OW 4522   3.401   4.122   2.834
 1208SOL    HW1 4523   3.328   4.086   2.892
 1208SOL    HW2 4524   3.448   4.196   2.882
 1209SOL     OW 4525   6.543   5.701   5.434
 1209SOL    HW1 4526   6.483   5.621   5.434
 1209SOL    HW2 4527   6.488   5.784   5.427
 1210SOL     OW 4528   4.126   0.490   2.636
 1210SOL    HW1 4529   4.129   0.552   2.714
 1210SOL    HW2 4530   4.042   0.505   2.584
 1211SOL     OW 4531   1.602   3.432   3.542
 1211SOL    HW1 4532   1.616   3.341   3.503
 1211SOL    HW2 4533   1.663   3.498   3.497
 1212SOL     OW 4534   1.453   2.954   5.792
 1212SOL    HW1 4535   1.519   3.022   5.759
 1212SOL    HW2 4536   1.498   2.866   5.802
 1213SOL     OW 4537   6.265   2.796   4.969
 1213SOL    HW1 4538   6.314   2.838   4.892
 1213SOL    HW2 4539   6.167   2.794   4.948
 1214SOL     OW 4540   1.794   3.569   4.491
 1214SOL    HW1 4541   1.859   3.599   4.421
 1214SOL    HW2 4542   1.772   3.646   4.551
 1215SOL     OW 4543   2.473   4.547   2.681
 1215SOL    HW1 4544   2.463   4.549   2.581
 1215SOL    HW2 4545   2.565   4.576   2.705
 1216SOL     OW 4546   0.259   6.775   1.748
 1216SOL    HW1 4547   0.246   6.868   1.713
 1216SOL    HW2 4548   0.333   6.774   1.815
 1217SOL     OW 4549   0.905   6.356   0.289
 1217SOL    HW1 4550   0.966   6.427   0.255
 1217SOL    HW2 4551   0.909   6.276   0.229
 1218SOL     OW 4552   1.299   3.079   5.224
 1218SOL    HW1 4553   1.352   3.156   5.259
 1218SOL    HW2 4554   1.211   3.075   5.271
 1219SOL     OW 4555   4.559   4.956   0.873
 1219SOL    HW1 4556   4.543   4.891   0.798
 1219SOL    HW2 4557   4.490   4.941   0.944
 1220SOL     OW 4558   5.709   3.420   2.470
 1220SOL    HW1 4559   5.661   3.354   2.411
 1220SOL    HW2 4560   5.695   3.512   2.434
 1221SOL     OW 4561   5.880   3.987   0.170
 1221SOL    HW1 4562   5.840   4.077   0.188
 1221SOL    HW2 4563   5.970   3.998   0.128
 1222SOL     OW 4564   7.022   6.685   0.802
 1222SOL    HW1 4565   6.982   6.594   0.814
 1222SOL    HW2 4566   6.953   6.754   0.821
 1223SOL     OW 4567   5.917   0.119   6.880
 1223SOL    HW1 4568   5.924   0.196   6.817
 1223SOL    HW2 4569   5.821   0.104   6.904
 1224SOL     OW 4570   4.219   5.994   6.632
 1224SOL    HW1 4571   4.142   5.969   6.574
 1224SOL    HW2 4572   4.214   6.092   6.653
 1225SOL     OW 4573   4.029   1.510   1.123
 1225SOL    HW1 4574   4.048   1.602   1.088
 1225SOL    HW2 4575   4.003   1.451   1.047
 1226SOL     OW 4576   5.730   6.465   0.907
 1226SOL    HW1 4577   5.821   6.477   0.869
 1226SOL    HW2 4578   5.670   6.538   0.874
 1227SOL     OW 4579   5.823   4.629   5.346
 1227SOL    HW1 4580   5.736   4.593   5.312
 1227SOL    HW2 4581   5.840   4.595   5.438
 1228SOL     OW 4582   3.701   2.760   1.840
 1228SOL    HW1 4583   3.642   2.827   1.885
 1228SOL    HW2 4584   3.790   2.802   1.821
 1229SOL     OW 4585   0.703   6.857   2.029
 1229SOL    HW1 4586   0.747   6.819   2.109
 1229SOL    HW2 4587   0.760   6.842   1.948
 1230SOL     OW 4588   5.310   5.426   3.035
 1230SOL    HW1 4589   5.257   5.511   3.032
 1230SOL    HW2 4590   5.338   5.407   3.129
 1231SOL     OW 4591   1.852   2.542   6.122
 1231SOL    HW1 4592   1.845   2.642   6.115
 1231SOL    HW2 4593   1.947   2.514   6.110
 1232SOL     OW 4594   3.891   1.505   4.456
 1232SOL    HW1 4595   3.802   1.464   4.436
 1232SOL    HW2 4596   3.889   1.545   4.548
 1233SOL     OW 4597   1.340   4.675   3.568
 1233SOL    HW1 4598   1.317   4.588   3.525
 1233SOL    HW2 4599   1.256   4.729   3.578
 1234SOL     OW 4600   6.544   3.159   6.800
 1234SOL    HW1 4601   6.445   3.154   6.811
 1234SOL    HW2 4602   6.589   3.113   6.877
 1235SOL     OW 4603   5.996   5.162   6.951
 1235SOL    HW1 4604   5.987   5.064   6.964
 1235SOL    HW2 4605   6.008   5.207   0.017
 1236SOL     OW 4606   3.582   1.437   0.634
 1236SOL    HW1 4607   3.603   1.518   0.579
 1236SOL    HW2 4608   3.510   1.384   0.589
 1237SOL     OW 4609   1.683   0.489   4.712
 1237SOL    HW1 4610   1.735   0.404   4.721
 1237SOL    HW2 4611   1.663   0.506   4.615
 1238SOL     OW 4612   0.476   0.237   2.835
 1238SOL    HW1 4613   0.410   0.225   2.760
 1238SOL    HW2 4614   0.490   0.149   2.881
 1239SOL     OW 4615   6.800   4.900   4.584
 1239SOL    HW1 4616   6.753   4.988   4.577
 1239SOL    HW2 4617   6.761   4.848   4.660
 1240SOL     OW 4618   6.094   5.578   2.988
 1240SOL    HW1 4619   6.065   5.610   2.897
 1240SOL    HW2 4620   6.193   5.586   2.996
 1241SOL     OW 4621   6.814   5.317   4.252
 1241SOL    HW1 4622   6.899   5.304   4.203
 1241SOL    HW2 4623   6.759   5.388   4.207
 1242SOL     OW 4624   2.059   3.785   6.989
 1242SOL    HW1 4625   2.031   3.703   0.015
 1242SOL    HW2 4626   2.110   3.845   0.027
 1243SOL     OW 4627   0.706   2.865   5.775
 1243SOL    HW1 4628   0.695   2.899   5.681
 1243SOL    HW2 4629   0.786   2.908   5.817
 1244SOL     OW 4630   5.822   6.554   5.359
 1244SOL    HW1 4631   5.740   6.497   5.355
 1244SOL    HW2 4632   5.900   6.501   5.326
 1245SOL     OW 4633   5.617   5.759   1.210
 1245SOL    HW1 4634   5.688   5.788   1.274
 1245SOL    HW2 4635   5.553   5.698   1.256
 1246SOL     OW 4636   4.699   0.654   1.026
 1246SOL    HW1 4637   4.746   0.696   1.103
 1246SOL    HW2 4638   4.664   0.725   0.965
 1247SOL     OW 4639   6.632   6.571   4.153
 1247SOL    HW1 4640   6.705   6.537   4.212
 1247SOL    HW2 4641   6.604   6.662   4.183
 1248SOL     OW 4642   0.079   6.483   4.803
 1248SOL    HW1 4643   0.096   6.387   4.782
 1248SOL    HW2 4644   0.005   6.490   4.870
 1249SOL     OW 4645   0.572   4.348   1.404
 1249SOL    HW1 4646   0.656   4.298   1.386
 1249SOL    HW2 4647   0.513   4.296   1.466
 1250SOL     OW 4648   5.980   3.363   5.075
 1250SOL    HW1 4649   6.072   3.341   5.109
 1250SOL    HW2 4650   5.981   3.454   5.034
 1251SOL     OW 4651   2.211   1.568   2.731
 1251SOL    HW1 4652   2.261   1.654   2.732
 1251SOL    HW2 4653   2.272   1.494   2.760
 1252SOL     OW 4654   3.057   5.532   6.997
 1252SOL    HW1 4655   3.069   5.535   6.897
 1252SOL    HW2 4656   3.105   5.609   0.015
 1253SOL     OW 4657   2.901   0.875   0.797
 1253SOL    HW1 4658   2.837   0.818   0.849
 1253SOL    HW2 4659   2.973   0.818   0.759
 1254SOL     OW 4660   6.055   1.496   3.089
 1254SOL    HW1 4661   6.090   1.510   2.996
 1254SOL    HW2 4662   5.960   1.526   3.094
 1255SOL     OW 4663   5.641   2.566   4.744
 1255SOL    HW1 4664   5.564   2.619   4.708
 1255SOL    HW2 4665   5.713   2.629   4.774
 1256SOL     OW 4666   6.617   5.940   3.344
 1256SOL    HW1 4667   6.671   5.922   3.427
 1256SOL    HW2 4668   6.545   6.005   3.366
 1257SOL     OW 4669   0.359   4.660   4.163
 1257SOL    HW1 4670   0.290   4.595   4.132
 1257SOL    HW2 4671   0.398   4.708   4.084
 1258SOL     OW 4672   1.826   5.747   3.466
 1258SOL    HW1 4673   1.770   5.711   3.541
 1258SOL    HW2 4674   1.820   5.847   3.464
 1259SOL     OW 4675   4.493   0.225   5.410
 1259SOL    HW1 4676   4.543   0.151   5.455
 1259SOL    HW2 4677   4.407   0.190   5.374
 1260SOL     OW 4678   2.734   0.630   2.370
 1260SOL    HW1 4679   2.705   0.713   2.420
 1260SOL    HW2 4680   2.715   0.642   2.273
 1261SOL     OW 4681   0.175   4.064   7.001
 1261SOL    HW1 4682   0.139   3.990   6.944
 1261SOL    HW2 4683   0.266   4.089   6.970
 1262SOL     OW 4684   4.564   5.003   1.255
 1262SOL    HW1 4685   4.537   5.070   1.324
 1262SOL    HW2 4686   4.501   4.925   1.259
 1263SOL     OW 4687   6.631   2.197   1.064
 1263SOL    HW1 4688   6.598   2.286   1.095
 1263SOL    HW2 4689   6.597   2.179   0.971
 1264SOL     OW 4690   0.362   4.384   3.593
 1264SOL    HW1 4691   0.364   4.373   3.692
 1264SOL    HW2 4692   0.396   4.301   3.549
 1265SOL     OW 4693   0.698   4.064   4.037
 1265SOL    HW1 4694   0.623   4.007   4.004
 1265SOL    HW2 4695   0.779   4.007   4.051
 1266SOL     OW 4696   2.668   1.668   4.843
 1266SOL    HW1 4697   2.765   1.648   4.830
 1266SOL    HW2 4698   2.623   1.590   4.887
 1267SOL     OW 4699   6.719   5.788   2.733
 1267SOL    HW1 4700   6.801   5.752   2.686
 1267SOL    HW2 4701   6.740   5.878   2.770
 1268SOL     OW 4702   5.680   2.347   0.234
 1268SOL    HW1 4703   5.648   2.297   0.315
 1268SOL    HW2 4704   5.680   2.445   0.252
 1269SOL     OW 4705   6.703   6.760   5.371
 1269SOL    HW1 4706   6.630   6.809   5.323
 1269SOL    HW2 4707   6.768   6.724   5.303
 1270SOL     OW 4708   2.043   4.204   4.670
 1270SOL    HW1 4709   2.063   4.119   4.718
 1270SOL    HW2 4710   1.944   4.213   4.656
 1271SOL     OW 4711   3.338   1.831   3.274
 1271SOL    HW1 4712   3.247   1.852   3.310
 1271SOL    HW2 4713   3.332   1.758   3.207
 1272SOL     OW 4714   0.117   6.039   0.746
 1272SOL    HW1 4715   0.026   6.081   0.754
 1272SOL    HW2 4716   0.187   6.107   0.769
 1273SOL     OW 4717   2.168   4.054   0.360
 1273SOL    HW1 4718   2.265   4.039   0.337
 1273SOL    HW2 4719   2.114   4.058   0.277
 1274SOL     OW 4720   0.339   2.997   1.743
 1274SOL    HW1 4721   0.423   3.044   1.716
 1274SOL    HW2 4722   0.326   3.008   1.842
 1275SOL     OW 4723   4.480   0.806   3.723
 1275SOL    HW1 4724   4.525   0.851   3.800
 1275SOL    HW2 4725   4.381   0.810   3.735
 1276SOL     OW 4726   6.985   0.237   3.112
 1276SOL    HW1 4727   6.903   0.258   3.165
 1276SOL    HW2 4728   0.021   0.177   3.166
 1277SOL     OW 4729   0.633   1.126   4.667
 1277SOL    HW1 4730   0.686   1.089   4.743
 1277SOL    HW2 4731   0.693   1.143   4.589
 1278SOL     OW 4732   2.236   2.216   5.365
 1278SOL    HW1 4733   2.288   2.293   5.327
 1278SOL    HW2 4734   2.138   2.235   5.356
 1279SOL     OW 4735   2.638   0.104   0.788
 1279SOL    HW1 4736   2.551   0.057   0.774
 1279SOL    HW2 4737   2.652   0.121   0.885
 1280SOL     OW 4738   2.492   0.199   2.913
 1280SOL    HW1 4739   2.392   0.202   2.914
 1280SOL    HW2 4740   2.525   0.223   2.821
 1281SOL     OW 4741   1.005   5.408   3.068
 1281SOL    HW1 4742   1.078   5.347   3.098
 1281SOL    HW2 4743   0.921   5.356   3.057
 1282SOL     OW 4744   0.724   0.943   1.144
 1282SOL    HW1 4745   0.765   0.873   1.203
 1282SOL    HW2 4746   0.762   0.935   1.052
 1283SOL     OW 4747   5.750   3.522   5.422
 1283SOL    HW1 4748   5.760   3.475   5.510
 1283SOL    HW2 4749   5.760   3.456   5.348
 1284SOL     OW 4750   3.276   2.588   1.683
 1284SOL    HW1 4751   3.226   2.615   1.766
 1284SOL    HW2 4752   3.216   2.535   1.624
 1285SOL     OW 4753   5.492   3.646   6.759
 1285SOL    HW1 4754   5.558   3.619   6.830
 1285SOL    HW2 4755   5.402   3.656   6.800
 1286SOL     OW 4756   4.524   4.756   2.242
 1286SOL    HW1 4757   4.544   4.662   2.268
 1286SOL    HW2 4758   4.563   4.775   2.152
 1287SOL     OW 4759   5.808   4.674   6.980
 1287SOL    HW1 4760   5.718   4.647   7.015
 1287SOL    HW2 4761   5.806   4.675   6.880
 1288SOL     OW 4762   0.055   2.925   0.571
 1288SOL    HW1 4763   0.067   2.835   0.613
 1288SOL    HW2 4764   6.981   2.946   0.563
 1289SOL     OW 4765   0.298   5.799   1.421
 1289SOL    HW1 4766   0.326   5.703   1.414
 1289SOL    HW2 4767   0.215   5.805   1.477
 1290SOL     OW 4768   0.694   0.772   0.155
 1290SOL    HW1 4769   0.682   0.689   0.102
 1290SOL    HW2 4770   0.789   0.802   0.149
 1291SOL     OW 4771   1.795   4.989   6.291
 1291SOL    HW1 4772   1.867   4.931   6.327
 1291SOL    HW2 4773   1.833   5.078   6.265
 1292SOL     OW 4774   6.909   4.645   1.872
 1292SOL    HW1 4775   6.933   4.622   1.967
 1292SOL    HW2 4776   6.923   4.565   1.814
 1293SOL     OW 4777   2.852   1.276   5.832
 1293SOL    HW1 4778   2.939   1.263   5.784
 1293SOL    HW2 4779   2.865   1.256   5.929
 1294SOL     OW 4780   0.129   3.153   1.600
 1294SOL    HW1 4781   0.179   3.098   1.667
 1294SOL    HW2 4782   0.054   3.201   1.646
 1295SOL     OW 4783   6.236   3.829   2.680
 1295SOL    HW1 4784   6.176   3.802   2.755
 1295SOL    HW2 4785   6.272   3.920   2.698
 1296SOL     OW 4786   3.635   1.634   6.332
 1296SOL    HW1 4787   3.708   1.566   6.336
 1296SOL    HW2 4788   3.564   1.603   6.269
 1297SOL     OW 4789   5.646   1.255   6.056
 1297SOL    HW1 4790   5.642   1.208   5.967
 1297SOL    HW2 4791   5.690   1.344   6.044
 1298SOL     OW 4792   5.798   3.368   3.701
 1298SOL    HW1 4793   5.889   3.326   3.700
 1298SOL    HW2 4794   5.786   3.420   3.785
 1299SOL     OW 4795   1.747   4.117   3.317
 1299SOL    HW1 4796   1.672   4.160   3.368
 1299SOL    HW2 4797   1.725   4.020   3.302
 1300SOL     OW 4798   3.036   3.865   2.403
 1300SOL    HW1 4799   3.046   3.934   2.474
 1300SOL    HW2 4800   3.018   3.910   2.315
 1301SOL     OW 4801   1.117   6.532   2.443
 1301SOL    HW1 4802   1.060   6.539   2.525
 1301SOL    HW2 4803   1.075   6.469   2.378
 1302SOL     OW 4804   2.377   6.643   4.654
 1302SOL    HW1 4805   2.442   6.598   4.592
 1302SOL    HW2 4806   2.426   6.706   4.714
 1303SOL     OW 4807   3.812   0.778   0.976
 1303SOL    HW1 4808   3.752   0.852   0.946
 1303SOL    HW2 4809   3.889   0.770   0.912
 1304SOL     OW 4810   1.883   0.919   6.375
 1304SOL    HW1 4811   1.860   1.016   6.379
 1304SOL    HW2 4812   1.802   0.864   6.399
 1305SOL     OW 4813   5.704   5.663   5.379
 1305SOL    HW1 4814   5.687   5.565   5.376
 1305SOL    HW2 4815   5.712   5.699   5.286
 1306SOL     OW 4816   0.736   4.321   5.234
 1306SOL    HW1 4817   0.743   4.266   5.317
 1306SOL    HW2 4818   0.693   4.266   5.161
 1307SOL     OW 4819   1.699   3.066   4.438
 1307SOL    HW1 4820   1.685   3.157   4.476
 1307SOL    HW2 4821   1.726   3.003   4.510
 1308SOL     OW 4822   4.320   5.904   4.658
 1308SOL    HW1 4823   4.233   5.932   4.700
 1308SOL    HW2 4824   4.303   5.872   4.565
 1309SOL     OW 4825   5.433   3.492   5.464
 1309SOL    HW1 4826   5.517   3.544   5.479
 1309SOL    HW2 4827   5.446   3.430   5.387
 1310SOL     OW 4828   5.769   3.726   4.999
 1310SOL    HW1 4829   5.860   3.689   4.982
 1310SOL    HW2 4830   5.761   3.755   5.094
 1311SOL     OW 4831   6.087   6.528   4.039
 1311SOL    HW1 4832   5.992   6.534   4.010
 1311SOL    HW2 4833   6.094   6.469   4.120
 1312SOL     OW 4834   0.709   0.568   6.849
 1312SOL    HW1 4835   0.694   0.545   6.945
 1312SOL    HW2 4836   0.697   0.667   6.837
 1313SOL     OW 4837   2.435   5.568   5.689
 1313SOL    HW1 4838   2.516   5.591   5.743
 1313SOL    HW2 4839   2.463   5.541   5.597
 1314SOL     OW 4840   1.836   1.569   5.790
 1314SOL    HW1 4841   1.784   1.651   5.814
 1314SOL    HW2 4842   1.910   1.593   5.727
 1315SOL     OW 4843   0.931   1.029   0.361
 1315SOL    HW1 4844   0.856   0.973   0.326
 1315SOL    HW2 4845   0.978   1.072   0.284
 1316SOL     OW 4846   1.980   6.869   3.042
 1316SOL    HW1 4847   2.015   6.839   2.953
 1316SOL    HW2 4848   1.881   6.879   3.037
 1317SOL     OW 4849   0.425   4.383   4.611
 1317SOL    HW1 4850   0.329   4.374   4.584
 1317SOL    HW2 4851   0.484   4.355   4.535
 1318SOL     OW 4852   0.753   0.973   0.887
 1318SOL    HW1 4853   0.794   1.043   0.828
 1318SOL    HW2 4854   0.665   0.944   0.848
 1319SOL     OW 4855   6.182   1.577   7.012
 1319SOL    HW1 4856   6.142   1.515   0.055
 1319SOL    HW2 4857   6.146   1.669   0.003
 1320SOL     OW 4858   5.552   4.595   0.090
 1320SOL    HW1 4859   5.505   4.647   0.161
 1320SOL    HW2 4860   5.608   4.523   0.132
 1321SOL     OW 4861   4.336   2.715   0.209
 1321SOL    HW1 4862   4.312   2.637   0.152
 1321SOL    HW2 4863   4.434   2.734   0.201
 1322SOL     OW 4864   5.187   1.182   3.166
 1322SOL    HW1 4865   5.092   1.198   3.195
 1322SOL    HW2 4866   5.188   1.151   3.071
 1323SOL     OW 4867   5.646   1.554   5.262
 1323SOL    HW1 4868   5.745   1.566   5.254
 1323SOL    HW2 4869   5.610   1.619   5.329
 1324SOL     OW 4870   1.647   2.200   1.920
 1324SOL    HW1 4871   1.716   2.245   1.978
 1324SOL    HW2 4872   1.564   2.256   1.918
 1325SOL     OW 4873   2.237   6.857   2.925
 1325SOL    HW1 4874   2.229   6.870   3.024
 1325SOL    HW2 4875   2.333   6.862   2.898
 1326SOL     OW 4876   4.656   2.666   4.593
 1326SOL    HW1 4877   4.627   2.714   4.510
 1326SOL    HW2 4878   4.746   2.699   4.621
 1327SOL     OW 4879   2.621   5.412   2.739
 1327SOL    HW1 4880   2.675   5.488   2.704
 1327SOL    HW2 4881   2.666   5.373   2.819
 1328SOL     OW 4882   0.874   2.266   0.182
 1328SOL    HW1 4883   0.825   2.352   0.188
 1328SOL    HW2 4884   0.966   2.277   0.221
 1329SOL     OW 4885   6.654   1.742   0.979
 1329SOL    HW1 4886   6.596   1.672   1.019
 1329SOL    HW2 4887   6.630   1.753   0.882
 1330SOL     OW 4888   6.421   0.084   0.966
 1330SOL    HW1 4889   6.441   0.005   1.024
 1330SOL    HW2 4890   6.322   0.096   0.960
 1331SOL     OW 4891   5.067   2.000   3.291
 1331SOL    HW1 4892   5.112   2.089   3.283
 1331SOL    HW2 4893   5.122   1.930   3.245
 1332SOL     OW 4894   3.613   0.258   1.074
 1332SOL    HW1 4895   3.683   0.322   1.106
 1332SOL    HW2 4896   3.525   0.305   1.067
 1333SOL     OW 4897   3.524   4.241   5.131
 1333SOL    HW1 4898   3.581   4.172   5.087
 1333SOL    HW2 4899   3.545   4.331   5.093
 1334SOL     OW 4900   0.661   3.211   4.687
 1334SOL    HW1 4901   0.666   3.142   4.759
 1334SOL    HW2 4902   0.627   3.170   4.603
 1335SOL     OW 4903   2.039   6.426   2.898
 1335SOL    HW1 4904   1.976   6.359   2.858
 1335SOL    HW2 4905   2.019   6.517   2.862
 1336SOL     OW 4906   1.395   1.341   6.476
 1336SOL    HW1 4907   1.298   1.341   6.497
 1336SOL    HW2 4908   1.435   1.429   6.501
 1337SOL     OW 4909   1.125   2.520   5.304
 1337SOL    HW1 4910   1.116   2.609   5.349
 1337SOL    HW2 4911   1.045   2.465   5.326
 1338SOL     OW 4912   4.189   3.902   6.438
 1338SOL    HW1 4913   4.256   3.846   6.487
 1338SOL    HW2 4914   4.230   3.990   6.413
 1339SOL     OW 4915   6.826   4.785   6.375
 1339SOL    HW1 4916   6.870   4.874   6.386
 1339SOL    HW2 4917   6.788   4.756   6.463
 1340SOL     OW 4918   1.124   1.731   1.394
 1340SOL    HW1 4919   1.153   1.696   1.483
 1340SOL    HW2 4920   1.186   1.803   1.364
 1341SOL     OW 4921   4.168   1.064   5.283
 1341SOL    HW1 4922   4.241   1.019   5.336
 1341SOL    HW2 4923   4.209   1.120   5.212
 1342SOL     OW 4924   1.435   5.429   6.170
 1342SOL    HW1 4925   1.438   5.401   6.265
 1342SOL    HW2 4926   1.528   5.439   6.135
 1343SOL     OW 4927   3.626   6.601   2.318
 1343SOL    HW1 4928   3.558   6.672   2.337
 1343SOL    HW2 4929   3.712   6.623   2.364
 1344SOL     OW 4930   6.695   2.565   3.415
 1344SOL    HW1 4931   6.734   2.498   3.478
 1344SOL    HW2 4932   6.689   2.525   3.323
 1345SOL     OW 4933   0.687   1.303   3.658
 1345SOL    HW1 4934   0.631   1.374   3.615
 1345SOL    HW2 4935   0.771   1.344   3.694
 1346SOL     OW 4936   1.486   7.000   2.850
 1346SOL    HW1 4937   1.485   0.077   2.852
 1346SOL    HW2 4938   1.406   6.965   2.899
 1347SOL     OW 4939   5.933   6.461   3.705
 1347SOL    HW1 4940   5.903   6.556   3.718
 1347SOL    HW2 4941   6.020   6.460   3.656
 1348SOL     OW 4942   5.791   5.296   3.529
 1348SOL    HW1 4943   5.694   5.320   3.538
 1348SOL    HW2 4944   5.800   5.207   3.486
 1349SOL     OW 4945   4.692   2.809   6.719
 1349SOL    HW1 4946   4.625   2.882   6.711
 1349SOL    HW2 4947   4.693   2.774   6.813
 1350SOL     OW 4948   3.646   4.860   6.665
 1350SOL    HW1 4949   3.551   4.887   6.654
 1350SOL    HW2 4950   3.677   4.884   6.757
 1351SOL     OW 4951   0.864   1.013   3.033
 1351SOL    HW1 4952   0.817   1.045   2.951
 1351SOL    HW2 4953   0.863   1.085   3.103
 1352SOL     OW 4954   0.102   6.916   3.570
 1352SOL    HW1 4955   0.019   6.860   3.573
 1352SOL    HW2 4956   0.086   6.996   3.512
 1353SOL     OW 4957   6.370   4.511   5.590
 1353SOL    HW1 4958   6.435   4.587   5.584
 1353SOL    HW2 4959   6.420   4.424   5.595
 1354SOL     OW 4960   6.953   1.519   0.976
 1354SOL    HW1 4961   0.013   1.484   1.018
 1354SOL    HW2 4962   6.954   1.499   0.878
 1355SOL     OW 4963   5.292   3.822   0.272
 1355SOL    HW1 4964   5.242   3.902   0.237
 1355SOL    HW2 4965   5.296   3.827   0.372
 1356SOL     OW 4966   3.502   3.871   3.792
 1356SOL    HW1 4967   3.539   3.853   3.883
 1356SOL    HW2 4968   3.429   3.807   3.772
 1357SOL     OW 4969   2.473   3.432   5.973
 1357SOL    HW1 4970   2.546   3.409   5.909
 1357SOL    HW2 4971   2.437   3.523   5.950
 1358SOL     OW 4972   2.466   2.445   5.860
 1358SOL    HW1 4973   2.483   2.348   5.838
 1358SOL    HW2 4974   2.406   2.484   5.790
 1359SOL     OW 4975   6.942   3.848   1.393
 1359SOL    HW1 4976   6.972   3.825   1.486
 1359SOL    HW2 4977   6.846   3.822   1.382
 1360SOL     OW 4978   3.594   3.677   2.357
 1360SOL    HW1 4979   3.527   3.630   2.300
 1360SOL    HW2 4980   3.567   3.670   2.453
 1361SOL     OW 4981   0.506   0.006   5.826
 1361SOL    HW1 4982   0.592   7.023   5.775
 1361SOL    HW2 4983   0.505   6.961   5.899
 1362SOL     OW 4984   2.858   3.334   5.409
 1362SOL    HW1 4985   2.848   3.371   5.317
 1362SOL    HW2 4986   2.778   3.278   5.431
 1363SOL     OW 4987   6.101   5.736   3.940
 1363SOL    HW1 4988   6.104   5.831   3.971
 1363SOL    HW2 4989   6.172   5.683   3.987
 1364SOL     OW 4990   6.925   2.840   0.132
 1364SOL    HW1 4991   6.828   2.826   0.113
 1364SOL    HW2 4992   6.969   2.751   0.147
 1365SOL     OW 4993   0.793   4.110   5.434
 1365SOL    HW1 4994   0.716   4.057   5.398
 1365SOL    HW2 4995   0.876   4.054   5.430
 1366SOL     OW 4996   7.021   3.268   0.890
 1366SOL    HW1 4997   0.070   3.281   0.958
 1366SOL    HW2 4998   6.938   3.317   0.920
 1367SOL     OW 4999   1.497   4.896   3.536
 1367SOL    HW1 5000   1.459   4.950   3.461
 1367SOL    HW2 5001   1.457   4.804   3.534
 1368SOL     OW 5002   6.604   6.836   4.250
 1368SOL    HW1 5003   6.673   6.897   4.289
 1368SOL    HW2 5004   6.523   6.836   4.307
 1369SOL     OW 5005   2.514   6.130   1.779
 1369SOL    HW1 5006   2.477   6.097   1.692
 1369SOL    HW2 5007   2.450   6.110   1.853
 1370SOL     OW 5008   6.755   1.535   4.225
 1370SOL    HW1 5009   6.684   1.529   4.295
 1370SOL    HW2 5010   6.713   1.539   4.135
 1371SOL     OW 5011   4.936   1.285   5.264
 1371SOL    HW1 5012   4.918   1.324   5.354
 1371SOL    HW2 5013   4.947   1.186   5.271
 1372SOL     OW 5014   6.168   2.323   1.171
 1372SOL    HW1 5015   6.207   2.293   1.084
 1372SOL    HW2 5016   6.237   2.316   1.243
 1373SOL     OW 5017   5.098   2.054   0.771
 1373SOL    HW1 5018   5.196   2.035   0.767
 1373SOL    HW2 5019   5.068   2.056   0.867
 1374SOL     OW 5020   5.371   4.166   0.234
 1374SOL    HW1 5021   5.466   4.134   0.234
 1374SOL    HW2 5022   5.352   4.210   0.322
 1375SOL     OW 5023   0.048   6.243   6.142
 1375SOL    HW1 5024   0.006   6.235   6.052
 1375SOL    HW2 5025   0.145   6.268   6.132
 1376SOL     OW 5026   3.228   4.722   6.059
 1376SOL    HW1 5027   3.212   4.721   5.960
 1376SOL    HW2 5028   3.222   4.816   6.093
 1377SOL     OW 5029   1.320   2.292   4.266
 1377SOL    HW1 5030   1.415   2.316   4.245
 1377SOL    HW2 5031   1.315   2.251   4.357
 1378SOL     OW 5032   4.634   2.558   4.886
 1378SOL    HW1 5033   4.563   2.494   4.855
 1378SOL    HW2 5034   4.650   2.627   4.815
 1379SOL     OW 5035   4.810   5.857   3.003
 1379SOL    HW1 5036   4.897   5.897   3.033
 1379SOL    HW2 5037   4.734   5.905   3.047
 1380SOL     OW 5038   7.012   6.306   2.681
 1380SOL    HW1 5039   6.974   6.215   2.668
 1380SOL    HW2 5040   6.989   6.339   2.772
 1381SOL     OW 5041   5.737   1.872   6.664
 1381SOL    HW1 5042   5.678   1.827   6.597
 1381SOL    HW2 5043   5.693   1.872   6.754
 1382SOL     OW 5044   4.857   3.403   1.918
 1382SOL    HW1 5045   4.775   3.381   1.866
 1382SOL    HW2 5046   4.934   3.415   1.856
 1383SOL     OW 5047   0.890   6.853   1.393
 1383SOL    HW1 5048   0.809   6.909   1.411
 1383SOL    HW2 5049   0.868   6.784   1.325
 1384SOL     OW 5050   4.207   6.969   1.095
 1384SOL    HW1 5051   4.197   6.965   0.995
 1384SOL    HW2 5052   4.125   7.009   1.135
 1385SOL     OW 5053   2.262   5.012   3.736
 1385SOL    HW1 5054   2.277   4.949   3.659
 1385SOL    HW2 5055   2.339   5.007   3.798
 1386SOL     OW 5056   3.349   6.966   3.151
 1386SOL    HW1 5057   3.383   7.013   3.232
 1386SOL    HW2 5058   3.257   6.932   3.169
 1387SOL     OW 5059   2.983   6.020   1.939
 1387SOL    HW1 5060   2.942   5.953   2.002
 1387SOL    HW2 5061   3.080   6.001   1.930
 1388SOL     OW 5062   6.444   6.511   1.051
 1388SOL    HW1 5063   6.378   6.436   1.045
 1388SOL    HW2 5064   6.447   6.546   1.144
 1389SOL     OW 5065   5.775   2.137   3.370
 1389SOL    HW1 5066   5.839   2.177   3.436
 1389SOL    HW2 5067   5.769   2.196   3.289
 1390SOL     OW 5068   0.197   3.902   0.233
 1390SOL    HW1 5069   0.220   3.998   0.221
 1390SOL    HW2 5070   0.106   3.894   0.275
 1391SOL     OW 5071   6.501   0.136   3.815
 1391SOL    HW1 5072   6.543   0.067   3.874
 1391SOL    HW2 5073   6.449   0.091   3.743
 1392SOL     OW 5074   5.145   5.575   6.235
 1392SOL    HW1 5075   5.050   5.603   6.221
 1392SOL    HW2 5076   5.190   5.639   6.298
 1393SOL     OW 5077   6.109   4.949   5.108
 1393SOL    HW1 5078   6.130   4.893   5.028
 1393SOL    HW2 5079   6.034   5.011   5.086
 1394SOL     OW 5080   2.907   6.052   5.087
 1394SOL    HW1 5081   2.809   6.051   5.111
 1394SOL    HW2 5082   2.922   5.994   5.008
 1395SOL     OW 5083   2.546   4.005   6.137
 1395SOL    HW1 5084   2.554   4.105   6.143
 1395SOL    HW2 5085   2.464   3.975   6.185
 1396SOL     OW 5086   2.186   0.834   4.829
 1396SOL    HW1 5087   2.128   0.791   4.897
 1396SOL    HW2 5088   2.262   0.773   4.806
 1397SOL     OW 5089   0.332   0.459   3.842
 1397SOL    HW1 5090   0.253   0.520   3.838
 1397SOL    HW2 5091   0.411   0.510   3.877
 1398SOL     OW 5092   2.452   0.885   5.540
 1398SOL    HW1 5093   2.488   0.956   5.601
 1398SOL    HW2 5094   2.410   0.813   5.594
 1399SOL     OW 5095   3.606   6.310   0.868
 1399SOL    HW1 5096   3.519   6.264   0.881
 1399SOL    HW2 5097   3.669   6.284   0.942
 1400SOL     OW 5098   6.710   1.126   2.697
 1400SOL    HW1 5099   6.627   1.074   2.719
 1400SOL    HW2 5100   6.788   1.083   2.742
 1401SOL     OW 5101   6.896   1.973   4.863
 1401SOL    HW1 5102   6.841   1.968   4.946
 1401SOL    HW2 5103   6.946   2.060   4.861
 1402SOL     OW 5104   0.795   4.183   0.269
 1402SOL    HW1 5105   0.707   4.158   0.228
 1402SOL    HW2 5106   0.782   4.259   0.332
 1403SOL     OW 5107   2.848   1.704   1.670
 1403SOL    HW1 5108   2.932   1.703   1.615
 1403SOL    HW2 5109   2.776   1.654   1.622
 1404SOL     OW 5110   5.490   6.772   6.974
 1404SOL    HW1 5111   5.425   6.698   6.957
 1404SOL    HW2 5112   5.558   6.742   0.018
 1405SOL     OW 5113   2.174   3.668   1.045
 1405SOL    HW1 5114   2.104   3.609   1.006
 1405SOL    HW2 5115   2.140   3.710   1.129
 1406SOL     OW 5116   1.436   5.388   1.354
 1406SOL    HW1 5117   1.433   5.296   1.393
 1406SOL    HW2 5118   1.371   5.394   1.278
 1407SOL     OW 5119   0.628   2.269   1.996
 1407SOL    HW1 5120   0.619   2.327   1.916
 1407SOL    HW2 5121   0.540   2.228   2.019
 1408SOL     OW 5122   5.415   1.444   6.002
 1408SOL    HW1 5123   5.440   1.450   6.099
 1408SOL    HW2 5124   5.476   1.379   5.956
 1409SOL     OW 5125   0.536   0.693   4.869
 1409SOL    HW1 5126   0.634   0.690   4.851
 1409SOL    HW2 5127   0.497   0.602   4.855
 1410SOL     OW 5128   2.000   3.375   6.493
 1410SOL    HW1 5129   1.999   3.309   6.418
 1410SOL    HW2 5130   2.085   3.427   6.490
 1411SOL     OW 5131   2.390   6.411   1.989
 1411SOL    HW1 5132   2.402   6.437   2.085
 1411SOL    HW2 5133   2.470   6.439   1.936
 1412SOL     OW 5134   0.200   1.948   0.959
 1412SOL    HW1 5135   0.268   1.968   0.889
 1412SOL    HW2 5136   0.122   2.010   0.950
 1413SOL     OW 5137   1.777   1.270   5.281
 1413SOL    HW1 5138   1.852   1.207   5.257
 1413SOL    HW2 5139   1.790   1.302   5.375
 1414SOL     OW 5140   2.745   1.248   1.870
 1414SOL    HW1 5141   2.797   1.163   1.858
 1414SOL    HW2 5142   2.656   1.227   1.911
 1415SOL     OW 5143   2.497   0.744   4.714
 1415SOL    HW1 5144   2.496   0.777   4.808
 1415SOL    HW2 5145   2.407   0.710   4.689
 1416SOL     OW 5146   4.528   4.485   4.558
 1416SOL    HW1 5147   4.586   4.427   4.501
 1416SOL    HW2 5148   4.448   4.514   4.506
 1417SOL     OW 5149   3.214   1.609   6.982
 1417SOL    HW1 5150   3.307   1.602   7.018
 1417SOL    HW2 5151   3.212   1.571   6.889
 1418SOL     OW 5152   3.014   3.348   3.596
 1418SOL    HW1 5153   2.924   3.393   3.598
 1418SOL    HW2 5154   3.058   3.358   3.685
 1419SOL     OW 5155   2.449   6.294   4.888
 1419SOL    HW1 5156   2.479   6.361   4.957
 1419SOL    HW2 5157   2.367   6.247   4.921
 1420SOL     OW 5158   2.399   0.217   1.520
 1420SOL    HW1 5159   2.348   0.277   1.582
 1420SOL    HW2 5160   2.385   0.122   1.546
 1421SOL     OW 5161   1.862   3.263   3.352
 1421SOL    HW1 5162   1.949   3.305   3.326
 1421SOL    HW2 5163   1.878   3.191   3.418
 1422SOL     OW 5164   1.997   3.480   1.358
 1422SOL    HW1 5165   1.988   3.385   1.387
 1422SOL    HW2 5166   2.090   3.497   1.327
 1423SOL     OW 5167   5.310   6.272   3.264
 1423SOL    HW1 5168   5.223   6.255   3.310
 1423SOL    HW2 5169   5.378   6.301   3.332
 1424SOL     OW 5170   6.827   4.578   5.173
 1424SOL    HW1 5171   6.896   4.518   5.132
 1424SOL    HW2 5172   6.742   4.527   5.187
 1425SOL     OW 5173   1.095   6.543   4.497
 1425SOL    HW1 5174   1.075   6.639   4.474
 1425SOL    HW2 5175   1.184   6.538   4.542
 1426SOL     OW 5176   1.568   2.227   6.350
 1426SOL    HW1 5177   1.592   2.307   6.296
 1426SOL    HW2 5178   1.492   2.179   6.306
 1427SOL     OW 5179   0.201   6.435   3.444
 1427SOL    HW1 5180   0.199   6.471   3.351
 1427SOL    HW2 5181   0.227   6.508   3.507
 1428SOL     OW 5182   5.650   2.694   0.818
 1428SOL    HW1 5183   5.652   2.779   0.766
 1428SOL    HW2 5184   5.563   2.646   0.802
 1429SOL     OW 5185   5.347   1.876   0.555
 1429SOL    HW1 5186   5.424   1.812   0.549
 1429SOL    HW2 5187   5.339   1.911   0.648
 1430SOL     OW 5188   1.880   4.656   3.983
 1430SOL    HW1 5189   1.879   4.755   3.997
 1430SOL    HW2 5190   1.931   4.613   4.057
 1431SOL     OW 5191   2.418   1.869   0.600
 1431SOL    HW1 5192   2.356   1.857   0.677
 1431SOL    HW2 5193   2.370   1.918   0.527
 1432SOL     OW 5194   3.578   1.310   2.766
 1432SOL    HW1 5195   3.671   1.321   2.732
 1432SOL    HW2 5196   3.569   1.356   2.854
 1433SOL     OW 5197   3.867   1.315   4.838
 1433SOL    HW1 5198   3.776   1.277   4.819
 1433SOL    HW2 5199   3.857   1.403   4.886
 1434SOL     OW 5200   0.232   0.606   6.099
 1434SOL    HW1 5201   0.186   0.555   6.171
 1434SOL    HW2 5202   0.271   0.690   6.138
 1435SOL     OW 5203   6.294   0.316   2.545
 1435SOL    HW1 5204   6.283   0.408   2.506
 1435SOL    HW2 5205   6.295   0.323   2.645
 1436SOL     OW 5206   5.847   3.824   0.654
 1436SOL    HW1 5207   5.908   3.868   0.720
 1436SOL    HW2 5208   5.752   3.837   0.683
 1437SOL     OW 5209   2.482   2.516   3.314
 1437SOL    HW1 5210   2.572   2.473   3.314
 1437SOL    HW2 5211   2.417   2.456   3.362
 1438SOL     OW 5212   3.262   6.213   1.381
 1438SOL    HW1 5213   3.195   6.161   1.328
 1438SOL    HW2 5214   3.307   6.280   1.321
 1439SOL     OW 5215   6.916   5.738   1.344
 1439SOL    HW1 5216   6.936   5.832   1.370
 1439SOL    HW2 5217   6.828   5.734   1.297
 1440SOL     OW 5218   3.211   3.595   0.104
 1440SOL    HW1 5219   3.208   3.685   0.147
 1440SOL    HW2 5220   3.189   3.525   0.172
 1441SOL     OW 5221   5.945   0.740   3.025
 1441SOL    HW1 5222   5.901   0.673   2.964
 1441SOL    HW2 5223   5.886   0.820   3.035
 1442SOL     OW 5224   6.906   5.711   6.859
 1442SOL    HW1 5225   6.923   5.632   6.917
 1442SOL    HW2 5226   6.866   5.784   6.913
 1443SOL     OW 5227   0.261   3.140   2.562
 1443SOL    HW1 5228   0.289   3.067   2.624
 1443SOL    HW2 5229   0.203   3.205   2.611
 1444SOL     OW 5230   5.268   6.095   0.681
 1444SOL    HW1 5231   5.250   6.117   0.777
 1444SOL    HW2 5232   5.193   6.040   0.645
 1445SOL     OW 5233   0.723   2.302   2.594
 1445SOL    HW1 5234   0.687   2.394   2.581
 1445SOL    HW2 5235   0.806   2.306   2.649
 1446SOL     OW 5236   5.910   1.027   6.943
 1446SOL    HW1 5237   5.940   1.009   6.849
 1446SOL    HW2 5238   5.951   1.111   6.976
 1447SOL     OW 5239   6.047   5.876   4.375
 1447SOL    HW1 5240   5.991   5.959   4.383
 1447SOL    HW2 5241   6.133   5.899   4.329
 1448SOL     OW 5242   6.489   2.833   5.412
 1448SOL    HW1 5243   6.476   2.757   5.475
 1448SOL    HW2 5244   6.463   2.919   5.457
 1449SOL     OW 5245   1.411   3.864   5.458
 1449SOL    HW1 5246   1.500   3.867   5.503
 1449SOL    HW2 5247   1.352   3.798   5.505
 1450SOL     OW 5248   0.813   2.012   0.474
 1450SOL    HW1 5249   0.726   1.970   0.447
 1450SOL    HW2 5250   0.800   2.110   0.487
 1451SOL     OW 5251   1.509   6.722   2.252
 1451SOL    HW1 5252   1.568   6.658   2.203
 1451SOL    HW2 5253   1.548   6.814   2.247
 1452SOL     OW 5254   4.216   2.566   5.578
 1452SOL    HW1 5255   4.119   2.545   5.562
 1452SOL    HW2 5256   4.224   2.632   5.652
 1453SOL     OW 5257   0.726   4.156   6.160
 1453SOL    HW1 5258   0.823   4.135   6.167
 1453SOL    HW2 5259   0.677   4.108   6.233
 1454SOL     OW 5260   1.315   2.222   1.728
 1454SOL    HW1 5261   1.349   2.233   1.822
 1454SOL    HW2 5262   1.272   2.132   1.719
 1455SOL     OW 5263   2.091   6.945   2.274
 1455SOL    HW1 5264   2.035   6.870   2.238
 1455SOL    HW2 5265   2.032   7.021   2.299
 1456SOL     OW 5266   6.356   0.175   6.295
 1456SOL    HW1 5267   6.273   0.183   6.351
 1456SOL    HW2 5268   6.437   0.182   6.353
 1457SOL     OW 5269   1.074   6.027   0.804
 1457SOL    HW1 5270   0.983   6.059   0.829
 1457SOL    HW2 5271   1.087   6.037   0.705
 1458SOL     OW 5272   5.902   4.869   5.255
 1458SOL    HW1 5273   5.993   4.851   5.217
 1458SOL    HW2 5274   5.871   4.789   5.306
 1459SOL     OW 5275   4.095   6.582   5.472
 1459SOL    HW1 5276   4.000   6.611   5.461
 1459SOL    HW2 5277   4.152   6.661   5.493
 1460SOL     OW 5278   1.508   6.871   5.366
 1460SOL    HW1 5279   1.489   6.962   5.328
 1460SOL    HW2 5280   1.437   6.807   5.337
 1461SOL     OW 5281   6.999   4.166   2.921
 1461SOL    HW1 5282   7.006   4.202   3.014
 1461SOL    HW2 5283   6.907   4.182   2.886
 1462SOL     OW 5284   1.055   1.226   6.787
 1462SOL    HW1 5285   1.024   1.237   6.693
 1462SOL    HW2 5286   1.145   1.268   6.798
 1463SOL     OW 5287   1.039   5.109   5.707
 1463SOL    HW1 5288   1.047   5.207   5.728
 1463SOL    HW2 5289   1.125   5.075   5.670
 1464SOL     OW 5290   6.691   5.417   2.417
 1464SOL    HW1 5291   6.711   5.514   2.406
 1464SOL    HW2 5292   6.607   5.394   2.368
 1465SOL     OW 5293   1.622   0.981   4.046
 1465SOL    HW1 5294   1.662   1.047   3.982
 1465SOL    HW2 5295   1.597   1.027   4.131
 1466SOL     OW 5296   3.686   1.825   2.057
 1466SOL    HW1 5297   3.593   1.851   2.030
 1466SOL    HW2 5298   3.727   1.899   2.111
 1467SOL     OW 5299   1.741   1.202   3.917
 1467SOL    HW1 5300   1.764   1.263   3.841
 1467SOL    HW2 5301   1.737   1.255   4.002
 1468SOL     OW 5302   2.162   5.785   2.169
 1468SOL    HW1 5303   2.252   5.762   2.205
 1468SOL    HW2 5304   2.164   5.781   2.069
 1469SOL     OW 5305   6.826   6.655   2.642
 1469SOL    HW1 5306   6.839   6.736   2.585
 1469SOL    HW2 5307   6.812   6.575   2.584
 1470SOL     OW 5308   0.604   1.523   2.058
 1470SOL    HW1 5309   0.618   1.576   1.974
 1470SOL    HW2 5310   0.636   1.576   2.137
 1471SOL     OW 5311   0.960   0.029   0.019
 1471SOL    HW1 5312   1.002   0.120   0.024
 1471SOL    HW2 5313   0.880   0.033   6.982
 1472SOL     OW 5314   3.210   5.718   0.149
 1472SOL    HW1 5315   3.299   5.715   0.104
 1472SOL    HW2 5316   3.223   5.733   0.247
 1473SOL     OW 5317   3.334   5.786   5.156
 1473SOL    HW1 5318   3.363   5.861   5.214
 1473SOL    HW2 5319   3.391   5.783   5.074
 1474SOL     OW 5320   4.954   4.336   1.085
 1474SOL    HW1 5321   4.935   4.337   0.986
 1474SOL    HW2 5322   5.048   4.365   1.101
 1475SOL     OW 5323   5.542   0.787   0.541
 1475SOL    HW1 5324   5.582   0.699   0.519
 1475SOL    HW2 5325   5.448   0.774   0.573
 1476SOL     OW 5326   2.312   1.709   1.127
 1476SOL    HW1 5327   2.396   1.747   1.088
 1476SOL    HW2 5328   2.328   1.613   1.153
 1477SOL     OW 5329   3.640   6.202   6.597
 1477SOL    HW1 5330   3.613   6.194   6.693
 1477SOL    HW2 5331   3.654   6.111   6.558
 1478SOL     OW 5332   6.487   5.316   5.349
 1478SOL    HW1 5333   6.398   5.354   5.376
 1478SOL    HW2 5334   6.518   5.360   5.265
 1479SOL     OW 5335   3.275   3.385   1.028
 1479SOL    HW1 5336   3.336   3.447   1.077
 1479SOL    HW2 5337   3.292   3.392   0.929
 1480SOL     OW 5338   3.048   6.863   4.501
 1480SOL    HW1 5339   3.049   6.912   4.414
 1480SOL    HW2 5340   2.955   6.833   4.522
 1481SOL     OW 5341   5.734   3.488   6.277
 1481SOL    HW1 5342   5.722   3.564   6.341
 1481SOL    HW2 5343   5.787   3.416   6.322
 1482SOL     OW 5344   4.565   0.312   1.461
 1482SOL    HW1 5345   4.618   0.365   1.395
 1482SOL    HW2 5346   4.537   0.372   1.537
 1483SOL     OW 5347   5.798   2.525   5.047
 1483SOL    HW1 5348   5.787   2.548   5.144
 1483SOL    HW2 5349   5.711   2.490   5.011
 1484SOL     OW 5350   4.629   4.633   3.867
 1484SOL    HW1 5351   4.702   4.597   3.808
 1484SOL    HW2 5352   4.643   4.731   3.882
 1485SOL     OW 5353   5.232   0.585   4.479
 1485SOL    HW1 5354   5.274   0.498   4.504
 1485SOL    HW2 5355   5.172   0.572   4.400
 1486SOL     OW 5356   4.976   0.911   3.448
 1486SOL    HW1 5357   5.001   0.953   3.535
 1486SOL    HW2 5358   5.031   0.828   3.434
 1487SOL     OW 5359   0.083   2.192   6.944
 1487SOL    HW1 5360   0.023   2.200   0.001
 1487SOL    HW2 5361   0.086   2.097   6.914
 1488SOL     OW 5362   4.574   0.233   3.539
 1488SOL    HW1 5363   4.635   0.306   3.509
 1488SOL    HW2 5364   4.481   0.269   3.551
 1489SOL     OW 5365   3.428   4.574   6.250
 1489SOL    HW1 5366   3.341   4.587   6.203
 1489SOL    HW2 5367   3.503   4.584   6.184
 1490SOL     OW 5368   0.338   3.553   0.851
 1490SOL    HW1 5369   0.408   3.497   0.895
 1490SOL    HW2 5370   0.271   3.493   0.807
 1491SOL     OW 5371   6.532   4.062   2.672
 1491SOL    HW1 5372   6.447   4.046   2.722
 1491SOL    HW2 5373   6.584   3.976   2.668
 1492SOL     OW 5374   6.012   0.246   2.270
 1492SOL    HW1 5375   5.968   0.295   2.346
 1492SOL    HW2 5376   5.964   0.160   2.254
 1493SOL     OW 5377   3.793   0.133   6.162
 1493SOL    HW1 5378   3.835   0.219   6.190
 1493SOL    HW2 5379   3.864   0.068   6.134
 1494SOL     OW 5380   6.234   2.539   6.677
 1494SOL    HW1 5381   6.139   2.526   6.706
 1494SOL    HW2 5382   6.292   2.471   6.723
 1495SOL     OW 5383   0.126   4.133   5.357
 1495SOL    HW1 5384   0.141   4.041   5.392
 1495SOL    HW2 5385   0.205   4.161   5.302
 1496SOL     OW 5386   1.373   0.561   0.227
 1496SOL    HW1 5387   1.422   0.549   0.141
 1496SOL    HW2 5388   1.304   0.490   0.236
 1497SOL     OW 5389   5.149   3.025   2.331
 1497SOL    HW1 5390   5.051   3.010   2.322
 1497SOL    HW2 5391   5.198   2.941   2.308
 1498SOL     OW 5392   2.399   4.724   0.977
 1498SOL    HW1 5393   2.338   4.804   0.971
 1498SOL    HW2 5394   2.392   4.671   0.893
 1499SOL     OW 5395   0.221   3.221   6.018
 1499SOL    HW1 5396   0.289   3.166   6.065
 1499SOL    HW2 5397   0.150   3.250   6.082
 1500SOL     OW 5398   0.372   0.042   0.412
 1500SOL    HW1 5399   0.283   0.071   0.447
 1500SOL    HW2 5400   0.362   6.981   0.359
 1501SOL     OW 5401   5.784   1.949   6.275
 1501SOL    HW1 5402   5.758   2.010   6.350
 1501SOL    HW2 5403   5.881   1.926   6.282
 1502SOL     OW 5404   4.725   1.119   0.082
 1502SOL    HW1 5405   4.798   1.123   0.014
 1502SOL    HW2 5406   4.764   1.098   0.172
 1503SOL     OW 5407   1.636   3.276   2.329
 1503SOL    HW1 5408   1.693   3.194   2.322
 1503SOL    HW2 5409   1.677   3.340   2.394
 1504SOL     OW 5410   0.469   0.067   3.589
 1504SOL    HW1 5411   0.549   0.098   3.640
 1504SOL    HW2 5412   0.398   0.138   3.592
 1505SOL     OW 5413   5.262   6.865   5.469
 1505SOL    HW1 5414   5.177   6.906   5.437
 1505SOL    HW2 5415   5.311   6.930   5.526
 1506SOL     OW 5416   1.027   6.796   0.111
 1506SOL    HW1 5417   1.090   6.786   0.034
 1506SOL    HW2 5418   0.970   6.877   0.098
 1507SOL     OW 5419   0.129   2.143   5.536
 1507SOL    HW1 5420   0.221   2.106   5.551
 1507SOL    HW2 5421   0.112   2.218   5.601
 1508SOL     OW 5422   6.020   1.661   1.703
 1508SOL    HW1 5423   6.114   1.694   1.711
 1508SOL    HW2 5424   5.979   1.651   1.793
 1509SOL     OW 5425   4.931   1.969   5.098
 1509SOL    HW1 5426   4.860   1.935   5.159
 1509SOL    HW2 5427   4.911   2.064   5.073
 1510SOL     OW 5428   5.489   6.992   4.640
 1510SOL    HW1 5429   5.451   0.023   4.714
 1510SOL    HW2 5430   5.562   6.934   4.676
 1511SOL     OW 5431   4.000   3.662   4.011
 1511SOL    HW1 5432   4.039   3.602   4.081
 1511SOL    HW2 5433   3.963   3.744   4.054
 1512SOL     OW 5434   6.464   5.724   1.516
 1512SOL    HW1 5435   6.473   5.629   1.547
 1512SOL    HW2 5436   6.550   5.772   1.531
 1513SOL     OW 5437   3.688   0.228   4.471
 1513SOL    HW1 5438   3.740   0.297   4.520
 1513SOL    HW2 5439   3.624   0.183   4.533
 1514SOL     OW 5440   3.803   2.883   5.958
 1514SOL    HW1 5441   3.828   2.787   5.969
 1514SOL    HW2 5442   3.799   2.927   6.047
 1515SOL     OW 5443   5.899   1.523   2.690
 1515SOL    HW1 5444   5.902   1.490   2.596
 1515SOL    HW2 5445   5.821   1.483   2.738
 1516SOL     OW 5446   5.797   5.452   5.763
 1516SOL    HW1 5447   5.782   5.372   5.706
 1516SOL    HW2 5448   5.777   5.429   5.859
 1517SOL     OW 5449   4.183   5.999   2.774
 1517SOL    HW1 5450   4.167   6.053   2.691
 1517SOL    HW2 5451   4.105   6.008   2.836
 1518SOL     OW 5452   6.694   2.795   0.421
 1518SOL    HW1 5453   6.738   2.878   0.455
 1518SOL    HW2 5454   6.761   2.720   0.420
 1519SOL     OW 5455   6.140   4.671   1.044
 1519SOL    HW1 5456   6.233   4.668   1.080
 1519SOL    HW2 5457   6.092   4.750   1.080
 1520SOL     OW 5458   0.546   4.662   1.635
 1520SOL    HW1 5459   0.553   4.639   1.538
 1520SOL    HW2 5460   0.455   4.639   1.669
 1521SOL     OW 5461   2.225   4.500   6.600
 1521SOL    HW1 5462   2.193   4.406   6.597
 1521SOL    HW2 5463   2.169   4.553   6.664
 1522SOL     OW 5464   6.479   5.449   5.052
 1522SOL    HW1 5465   6.400   5.510   5.057
 1522SOL    HW2 5466   6.522   5.457   4.962
 1523SOL     OW 5467   3.771   6.553   0.039
 1523SOL    HW1 5468   3.837   6.553   6.987
 1523SOL    HW2 5469   3.700   6.485   0.020
 1524SOL     OW 5470   2.515   1.742   2.100
 1524SOL    HW1 5471   2.452   1.666   2.083
 1524SOL    HW2 5472   2.608   1.715   2.076
 1525SOL     OW 5473   6.325   2.962   0.662
 1525SOL    HW1 5474   6.309   2.866   0.639
 1525SOL    HW2 5475   6.268   3.020   0.604
 1526SOL     OW 5476   6.889   1.133   0.076
 1526SOL    HW1 5477   6.972   1.078   0.067
 1526SOL    HW2 5478   6.814   1.074   0.107
 1527SOL     OW 5479   3.436   1.020   4.059
 1527SOL    HW1 5480   3.467   1.114   4.044
 1527SOL    HW2 5481   3.454   0.965   3.977
 1528SOL     OW 5482   4.373   4.533   2.499
 1528SOL    HW1 5483   4.450   4.580   2.542
 1528SOL    HW2 5484   4.316   4.600   2.451
 1529SOL     OW 5485   4.588   0.863   0.078
 1529SOL    HW1 5486   4.501   0.855   0.126
 1529SOL    HW2 5487   4.634   0.948   0.105
 1530SOL     OW 5488   3.653   1.485   1.663
 1530SOL    HW1 5489   3.743   1.441   1.675
 1530SOL    HW2 5490   3.584   1.433   1.713
 1531SOL     OW 5491   4.843   0.859   4.718
 1531SOL    HW1 5492   4.882   0.774   4.683
 1531SOL    HW2 5493   4.864   0.868   4.815
 1532SOL     OW 5494   3.965   3.779   5.798
 1532SOL    HW1 5495   3.916   3.811   5.879
 1532SOL    HW2 5496   4.046   3.728   5.827
 1533SOL     OW 5497   6.088   5.483   0.320
 1533SOL    HW1 5498   6.115   5.571   0.357
 1533SOL    HW2 5499   6.027   5.497   0.242
 1534SOL     OW 5500   3.000   6.135   6.107
 1534SOL    HW1 5501   2.953   6.214   6.067
 1534SOL    HW2 5502   3.083   6.166   6.153
 1535SOL     OW 5503   5.199   5.740   4.491
 1535SOL    HW1 5504   5.153   5.825   4.464
 1535SOL    HW2 5505   5.131   5.666   4.496
 1536SOL     OW 5506   4.299   5.366   6.231
 1536SOL    HW1 5507   4.396   5.344   6.221
 1536SOL    HW2 5508   4.259   5.307   6.300
 1537SOL     OW 5509   4.642   5.971   4.046
 1537SOL    HW1 5510   4.588   5.947   4.126
 1537SOL    HW2 5511   4.582   6.011   3.976
 1538SOL     OW 5512   3.457   6.518   6.693
 1538SOL    HW1 5513   3.365   6.502   6.658
 1538SOL    HW2 5514   3.524   6.483   6.628
 1539SOL     OW 5515   4.871   3.691   1.991
 1539SOL    HW1 5516   4.855   3.594   1.975
 1539SOL    HW2 5517   4.928   3.703   2.072
 1540SOL     OW 5518   0.418   6.896   5.402
 1540SOL    HW1 5519   0.447   6.815   5.452
 1540SOL    HW2 5520   0.431   6.880   5.304
 1541SOL     OW 5521   3.397   2.946   4.391
 1541SOL    HW1 5522   3.312   2.958   4.340
 1541SOL    HW2 5523   3.384   2.875   4.460
 1542SOL     OW 5524   6.591   0.335   2.415
 1542SOL    HW1 5525   6.545   0.349   2.327
 1542SOL    HW2 5526   6.532   0.367   2.489
 1543SOL     OW 5527   3.689   4.970   4.845
 1543SOL    HW1 5528   3.716   4.964   4.749
 1543SOL    HW2 5529   3.589   4.970   4.852
 1544SOL     OW 5530   3.521   3.183   3.517
 1544SOL    HW1 5531   3.566   3.203   3.430
 1544SOL    HW2 5532   3.488   3.088   3.516
 1545SOL     OW 5533   4.365   0.687   3.003
 1545SOL    HW1 5534   4.353   0.588   2.993
 1545SOL    HW2 5535   4.314   0.734   2.931
 1546SOL     OW 5536   5.209   6.447   5.313
 1546SOL    HW1 5537   5.240   6.473   5.405
 1546SOL    HW2 5538   5.111   6.427   5.315
 1547SOL     OW 5539   1.708   3.766   1.276
 1547SOL    HW1 5540   1.622   3.721   1.303
 1547SOL    HW2 5541   1.730   3.743   1.181
 1548SOL     OW 5542   5.295   3.982   6.870
 1548SOL    HW1 5543   5.290   3.974   6.969
 1548SOL    HW2 5544   5.358   4.055   6.844
 1549SOL     OW 5545   3.919   1.751   1.582
 1549SOL    HW1 5546   3.819   1.742   1.585
 1549SOL    HW2 5547   3.960   1.660   1.577
 1550SOL     OW 5548   2.654   3.750   0.985
 1550SOL    HW1 5549   2.563   3.790   0.989
 1550SOL    HW2 5550   2.722   3.819   1.013
 1551SOL     OW 5551   2.227   4.386   6.297
 1551SOL    HW1 5552   2.184   4.351   6.380
 1551SOL    HW2 5553   2.204   4.483   6.286
 1552SOL     OW 5554   2.087   5.457   0.987
 1552SOL    HW1 5555   2.165   5.396   1.002
 1552SOL    HW2 5556   2.089   5.489   0.892
 1553SOL     OW 5557   5.988   1.316   6.806
 1553SOL    HW1 5558   5.900   1.310   6.758
 1553SOL    HW2 5559   6.062   1.322   6.739
 1554SOL     OW 5560   3.471   1.846   3.587
 1554SOL    HW1 5561   3.395   1.811   3.641
 1554SOL    HW2 5562   3.469   1.946   3.587
 1555SOL     OW 5563   5.786   3.214   0.266
 1555SOL    HW1 5564   5.702   3.209   0.320
 1555SOL    HW2 5565   5.765   3.204   0.169
 1556SOL     OW 5566   2.217   2.148   6.922
 1556SOL    HW1 5567   2.245   2.068   6.868
 1556SOL    HW2 5568   2.205   2.121   7.017
 1557SOL     OW 5569   1.744   2.432   4.980
 1557SOL    HW1 5570   1.658   2.404   5.023
 1557SOL    HW2 5571   1.753   2.532   4.987
 1558SOL     OW 5572   6.316   0.582   4.570
 1558SOL    HW1 5573   6.302   0.681   4.563
 1558SOL    HW2 5574   6.366   0.561   4.654
 1559SOL     OW 5575   1.884   2.907   6.678
 1559SOL    HW1 5576   1.945   2.984   6.661
 1559SOL    HW2 5577   1.799   2.940   6.719
 1560SOL     OW 5578   0.008   0.638   6.355
 1560SOL    HW1 5579   6.933   0.636   6.375
 1560SOL    HW2 5580   0.052   0.560   6.399
 1561SOL     OW 5581   5.009   6.110   3.927
 1561SOL    HW1 5582   5.020   6.186   3.862
 1561SOL    HW2 5583   5.097   6.089   3.968
 1562SOL     OW 5584   4.919   6.100   2.604
 1562SOL    HW1 5585   4.901   6.126   2.509
 1562SOL    HW2 5586   4.835   6.108   2.657
 1563SOL     OW 5587   2.541   0.151   4.691
 1563SOL    HW1 5588   2.561   0.091   4.614
 1563SOL    HW2 5589   2.617   0.217   4.702
 1564SOL     OW 5590   1.468   1.482   3.221
 1564SOL    HW1 5591   1.461   1.470   3.122
 1564SOL    HW2 5592   1.389   1.441   3.266
 1565SOL     OW 5593   4.963   4.284   3.371
 1565SOL    HW1 5594   4.901   4.359   3.350
 1565SOL    HW2 5595   5.057   4.313   3.355
 1566SOL     OW 5596   5.815   4.356   2.699
 1566SOL    HW1 5597   5.871   4.423   2.747
 1566SOL    HW2 5598   5.719   4.386   2.700
 1567SOL     OW 5599   6.513   6.173   0.753
 1567SOL    HW1 5600   6.527   6.094   0.694
 1567SOL    HW2 5601   6.535   6.257   0.702
 1568SOL     OW 5602   1.494   6.622   0.007
 1568SOL    HW1 5603   1.460   6.625   6.936
 1568SOL    HW2 5604   1.592   6.605   0.007
 1569SOL     OW 5605   4.307   6.102   3.554
 1569SOL    HW1 5606   4.231   6.066   3.501
 1569SOL    HW2 5607   4.347   6.181   3.508
 1570SOL     OW 5608   1.749   0.149   0.748
 1570SOL    HW1 5609   1.661   0.101   0.748
 1570SOL    HW2 5610   1.812   0.105   0.684
 1571SOL     OW 5611   5.799   2.488   0.892
 1571SOL    HW1 5612   5.740   2.564   0.864
 1571SOL    HW2 5613   5.880   2.524   0.937
 1572SOL     OW 5614   0.422   0.116   1.371
 1572SOL    HW1 5615   0.429   0.174   1.452
 1572SOL    HW2 5616   0.502   0.058   1.365
 1573SOL     OW 5617   5.291   2.029   2.156
 1573SOL    HW1 5618   5.277   2.126   2.175
 1573SOL    HW2 5619   5.266   2.010   2.061
 1574SOL     OW 5620   6.082   1.206   2.092
 1574SOL    HW1 5621   6.115   1.112   2.095
 1574SOL    HW2 5622   6.149   1.266   2.136
 1575SOL     OW 5623   3.040   1.111   0.421
 1575SOL    HW1 5624   2.967   1.174   0.391
 1575SOL    HW2 5625   3.067   1.134   0.515
 1576SOL     OW 5626   6.548   5.946   4.032
 1576SOL    HW1 5627   6.601   5.995   4.102
 1576SOL    HW2 5628   6.611   5.906   3.965
 1577SOL     OW 5629   3.183   1.740   4.282
 1577SOL    HW1 5630   3.256   1.735   4.350
 1577SOL    HW2 5631   3.207   1.805   4.211
 1578SOL     OW 5632   6.034   3.659   5.877
 1578SOL    HW1 5633   6.124   3.693   5.848
 1578SOL    HW2 5634   6.044   3.567   5.915
 1579SOL     OW 5635   6.949   1.513   3.194
 1579SOL    HW1 5636   6.968   1.414   3.195
 1579SOL    HW2 5637   6.933   1.543   3.100
 1580SOL     OW 5638   2.704   3.622   5.720
 1580SOL    HW1 5639   2.682   3.651   5.627
 1580SOL    HW2 5640   2.800   3.642   5.739
 1581SOL     OW 5641   0.013   4.438   5.047
 1581SOL    HW1 5642   0.096   4.414   4.995
 1581SOL    HW2 5643   6.958   4.391   5.007
 1582SOL     OW 5644   1.474   6.781   4.383
 1582SOL    HW1 5645   1.475   6.720   4.462
 1582SOL    HW2 5646   1.444   6.731   4.302
 1583SOL     OW 5647   0.837   3.139   4.009
 1583SOL    HW1 5648   0.928   3.174   3.990
 1583SOL    HW2 5649   0.841   3.040   4.026
 1584SOL     OW 5650   1.592   6.643   4.616
 1584SOL    HW1 5651   1.657   6.718   4.628
 1584SOL    HW2 5652   1.628   6.559   4.656
 1585SOL     OW 5653   5.663   1.695   3.289
 1585SOL    HW1 5654   5.731   1.694   3.362
 1585SOL    HW2 5655   5.642   1.790   3.265
 1586SOL     OW 5656   3.491   4.315   1.428
 1586SOL    HW1 5657   3.491   4.394   1.367
 1586SOL    HW2 5658   3.570   4.257   1.409
 1587SOL     OW 5659   3.098   4.979   0.092
 1587SOL    HW1 5660   3.017   4.951   0.042
 1587SOL    HW2 5661   3.171   4.911   0.080
 1588SOL     OW 5662   4.695   1.409   3.001
 1588SOL    HW1 5663   4.748   1.450   2.926
 1588SOL    HW2 5664   4.756   1.390   3.078
 1589SOL     OW 5665   5.593   4.076   3.355
 1589SOL    HW1 5666   5.638   3.988   3.340
 1589SOL    HW2 5667   5.553   4.078   3.446
 1590SOL     OW 5668   2.369   6.845   5.903
 1590SOL    HW1 5669   2.293   6.804   5.853
 1590SOL    HW2 5670   2.360   6.945   5.902
 1591SOL     OW 5671   0.827   4.895   2.951
 1591SOL    HW1 5672   0.897   4.832   2.919
 1591SOL    HW2 5673   0.847   4.987   2.919
 1592SOL     OW 5674   2.564   4.644   1.456
 1592SOL    HW1 5675   2.643   4.693   1.420
 1592SOL    HW2 5676   2.590   4.595   1.539
 1593SOL     OW 5677   1.001   6.349   3.684
 1593SOL    HW1 5678   1.038   6.334   3.592
 1593SOL    HW2 5679   0.902   6.355   3.679
 1594SOL     OW 5680   0.276   5.042   2.911
 1594SOL    HW1 5681   0.249   5.019   3.004
 1594SOL    HW2 5682   0.196   5.071   2.859
 1595SOL     OW 5683   0.783   4.631   6.294
 1595SOL    HW1 5684   0.811   4.676   6.208
 1595SOL    HW2 5685   0.791   4.697   6.369
 1596SOL     OW 5686   1.023   2.672   5.668
 1596SOL    HW1 5687   0.991   2.686   5.574
 1596SOL    HW2 5688   0.973   2.595   5.708
 1597SOL     OW 5689   2.809   5.610   0.626
 1597SOL    HW1 5690   2.884   5.666   0.663
 1597SOL    HW2 5691   2.721   5.649   0.655
 1598SOL     OW 5692   0.632   4.136   0.017
 1598SOL    HW1 5693   0.649   4.223   6.994
 1598SOL    HW2 5694   0.578   4.077   6.980
 1599SOL     OW 5695   4.820   3.849   6.033
 1599SOL    HW1 5696   4.877   3.918   6.078
 1599SOL    HW2 5697   4.844   3.759   6.068
 1600SOL     OW 5698   5.373   1.974   5.188
 1600SOL    HW1 5699   5.455   1.977   5.132
 1600SOL    HW2 5700   5.297   1.939   5.134
 1601SOL     OW 5701   0.149   5.434   4.469
 1601SOL    HW1 5702   0.122   5.339   4.486
 1601SOL    HW2 5703   0.071   5.485   4.433
 1602SOL     OW 5704   2.018   5.682   3.932
 1602SOL    HW1 5705   1.955   5.726   3.996
 1602SOL    HW2 5706   1.974   5.602   3.892
 1603SOL     OW 5707   0.658   6.348   2.119
 1603SOL    HW1 5708   0.623   6.301   2.200
 1603SOL    HW2 5709   0.721   6.287   2.070
 1604SOL     OW 5710   5.999   4.871   0.013
 1604SOL    HW1 5711   6.002   4.913   0.103
 1604SOL    HW2 5712   5.919   4.811   0.008
 1605SOL     OW 5713   6.160   6.799   1.966
 1605SOL    HW1 5714   6.257   6.775   1.967
 1605SOL    HW2 5715   6.137   6.842   1.879
 1606SOL     OW 5716   4.201   0.405   5.242
 1606SOL    HW1 5717   4.116   0.434   5.197
 1606SOL    HW2 5718   4.279   0.436   5.189
 1607SOL     OW 5719   4.838   2.704   0.822
 1607SOL    HW1 5720   4.835   2.729   0.918
 1607SOL    HW2 5721   4.759   2.743   0.774
 1608SOL     OW 5722   1.416   0.774   5.663
 1608SOL    HW1 5723   1.376   0.860   5.633
 1608SOL    HW2 5724   1.514   0.787   5.679
 1609SOL     OW 5725   4.300   0.806   6.795
 1609SOL    HW1 5726   4.232   0.769   6.858
 1609SOL    HW2 5727   4.298   0.906   6.797
 1610SOL     OW 5728   6.349   3.999   5.461
 1610SOL    HW1 5729   6.288   4.066   5.419
 1610SOL    HW2 5730   6.347   3.914   5.409
 1611SOL     OW 5731   3.307   3.441   1.763
 1611SOL    HW1 5732   3.311   3.412   1.859
 1611SOL    HW2 5733   3.399   3.440   1.725
 1612SOL     OW 5734   3.255   1.187   5.462
 1612SOL    HW1 5735   3.310   1.259   5.504
 1612SOL    HW2 5736   3.294   1.098   5.484
 1613SOL     OW 5737   1.722   6.015   1.405
 1613SOL    HW1 5738   1.812   5.972   1.406
 1613SOL    HW2 5739   1.732   6.113   1.425
 1614SOL     OW 5740   6.494   4.209   0.815
 1614SOL    HW1 5741   6.528   4.303   0.813
 1614SOL    HW2 5742   6.571   4.146   0.803
 1615SOL     OW 5743   6.074   4.951   1.081
 1615SOL    HW1 5744   6.127   4.975   1.000
 1615SOL    HW2 5745   6.128   4.971   1.163
 1616SOL     OW 5746   4.359   2.417   6.035
 1616SOL    HW1 5747   4.441   2.405   5.978
 1616SOL    HW2 5748   4.292   2.346   6.013
 1617SOL     OW 5749   5.512   6.769   1.078
 1617SOL    HW1 5750   5.433   6.829   1.081
 1617SOL    HW2 5751   5.545   6.761   0.984
 1618SOL     OW 5752   0.610   3.939   1.017
 1618SOL    HW1 5753   0.608   3.857   0.960
 1618SOL    HW2 5754   0.644   3.915   1.108
 1619SOL     OW 5755   1.472   1.985   4.583
 1619SOL    HW1 5756   1.490   2.052   4.655
 1619SOL    HW2 5757   1.444   1.898   4.625
 1620SOL     OW 5758   1.905   5.728   0.853
 1620SOL    HW1 5759   1.998   5.740   0.890
 1620SOL    HW2 5760   1.853   5.812   0.867
 1621SOL     OW 5761   0.238   0.975   0.715
 1621SOL    HW1 5762   0.241   0.988   0.616
 1621SOL    HW2 5763   0.161   0.915   0.739
 1622SOL     OW 5764   1.575   2.193   4.356
 1622SOL    HW1 5765   1.577   2.203   4.456
 1622SOL    HW2 5766   1.665   2.217   4.319
 1623SOL     OW 5767   2.341   2.875   5.934
 1623SOL    HW1 5768   2.342   2.789   5.883
 1623SOL    HW2 5769   2.271   2.871   6.005
 1624SOL     OW 5770   3.384   0.768   5.758
 1624SOL    HW1 5771   3.439   0.685   5.750
 1624SOL    HW2 5772   3.287   0.745   5.747
 1625SOL     OW 5773   1.292   5.741   2.121
 1625SOL    HW1 5774   1.385   5.750   2.157
 1625SOL    HW2 5775   1.283   5.654   2.074
 1626SOL     OW 5776   2.813   1.588   6.744
 1626SOL    HW1 5777   2.810   1.669   6.685
 1626SOL    HW2 5778   2.866   1.609   6.827
 1627SOL     OW 5779   6.813   2.640   4.752
 1627SOL    HW1 5780   6.726   2.590   4.757
 1627SOL    HW2 5781   6.797   2.731   4.712
 1628SOL     OW 5782   4.699   5.182   6.794
 1628SOL    HW1 5783   4.672   5.088   6.775
 1628SOL    HW2 5784   4.665   5.209   6.884
 1629SOL     OW 5785   3.308   2.135   4.149
 1629SOL    HW1 5786   3.321   2.108   4.244
 1629SOL    HW2 5787   3.395   2.166   4.111
 1630SOL     OW 5788   0.986   6.074   5.868
 1630SOL    HW1 5789   1.056   6.094   5.800
 1630SOL    HW2 5790   0.925   6.154   5.878
 1631SOL     OW 5791   6.961   0.948   6.180
 1631SOL    HW1 5792   7.017   0.940   6.263
 1631SOL    HW2 5793   6.892   1.018   6.194
 1632SOL     OW 5794   0.123   1.578   6.931
 1632SOL    HW1 5795   0.221   1.600   6.924
 1632SOL    HW2 5796   0.085   1.568   6.839
 1633SOL     OW 5797   5.122   2.200   3.836
 1633SOL    HW1 5798   5.076   2.150   3.762
 1633SOL    HW2 5799   5.221   2.203   3.818
 1634SOL     OW 5800   4.084   5.371   5.421
 1634SOL    HW1 5801   4.181   5.372   5.446
 1634SOL    HW2 5802   4.030   5.343   5.500
 1635SOL     OW 5803   6.397   4.998   4.982
 1635SOL    HW1 5804   6.414   4.900   4.970
 1635SOL    HW2 5805   6.477   5.041   5.024
 1636SOL     OW 5806   2.137   4.115   1.411
 1636SOL    HW1 5807   2.216   4.159   1.452
 1636SOL    HW2 5808   2.084   4.182   1.359
 1637SOL     OW 5809   6.424   0.999   2.751
 1637SOL    HW1 5810   6.383   0.928   2.693
 1637SOL    HW2 5811   6.359   1.024   2.823
 1638SOL     OW 5812   1.050   4.326   3.951
 1638SOL    HW1 5813   1.050   4.327   4.051
 1638SOL    HW2 5814   1.112   4.396   3.917
 1639SOL     OW 5815   4.764   6.484   2.576
 1639SOL    HW1 5816   4.790   6.456   2.484
 1639SOL    HW2 5817   4.727   6.577   2.574
 1640SOL     OW 5818   5.858   1.668   0.769
 1640SOL    HW1 5819   5.882   1.732   0.841
 1640SOL    HW2 5820   5.846   1.576   0.807
 1641SOL     OW 5821   5.833   2.559   3.910
 1641SOL    HW1 5822   5.738   2.585   3.892
 1641SOL    HW2 5823   5.871   2.515   3.828
 1642SOL     OW 5824   6.758   3.563   0.411
 1642SOL    HW1 5825   6.817   3.484   0.423
 1642SOL    HW2 5826   6.678   3.555   0.470
 1643SOL     OW 5827   3.031   6.328   3.928
 1643SOL    HW1 5828   3.026   6.404   3.864
 1643SOL    HW2 5829   3.125   6.296   3.935
 1644SOL     OW 5830   1.652   2.455   1.018
 1644SOL    HW1 5831   1.633   2.468   0.921
 1644SOL    HW2 5832   1.724   2.387   1.029
 1645SOL     OW 5833   3.141   6.162   5.157
 1645SOL    HW1 5834   3.073   6.097   5.125
 1645SOL    HW2 5835   3.213   6.173   5.089
 1646SOL     OW 5836   2.604   5.133   1.179
 1646SOL    HW1 5837   2.593   5.057   1.243
 1646SOL    HW2 5838   2.524   5.193   1.184
 1647SOL     OW 5839   5.556   2.623   4.344
 1647SOL    HW1 5840   5.582   2.670   4.260
 1647SOL    HW2 5841   5.599   2.532   4.346
 1648SOL     OW 5842   6.083   6.117   1.780
 1648SOL    HW1 5843   6.161   6.161   1.824
 1648SOL    HW2 5844   6.106   6.093   1.686
 1649SOL     OW 5845   3.215   0.564   3.333
 1649SOL    HW1 5846   3.200   0.484   3.391
 1649SOL    HW2 5847   3.169   0.643   3.373
 1650SOL     OW 5848   2.817   6.802   4.252
 1650SOL    HW1 5849   2.875   6.766   4.179
 1650SOL    HW2 5850   2.809   6.901   4.241
 1651SOL     OW 5851   0.904   0.760   1.266
 1651SOL    HW1 5852   0.943   0.779   1.356
 1651SOL    HW2 5853   0.978   0.750   1.199
 1652SOL     OW 5854   1.602   2.464   1.784
 1652SOL    HW1 5855   1.568   2.413   1.705
 1652SOL    HW2 5856   1.696   2.493   1.766
 1653SOL     OW 5857   0.721   6.166   1.821
 1653SOL    HW1 5858   0.796   6.194   1.881
 1653SOL    HW2 5859   0.660   6.104   1.870
 1654SOL     OW 5860   6.989   2.916   1.787
 1654SOL    HW1 5861   0.045   2.950   1.836
 1654SOL    HW2 5862   6.946   2.991   1.737
 1655SOL     OW 5863   5.611   3.855   6.141
 1655SOL    HW1 5864   5.645   3.943   6.108
 1655SOL    HW2 5865   5.551   3.815   6.071
 1656SOL     OW 5866   1.681   4.212   3.013
 1656SOL    HW1 5867   1.697   4.194   3.110
 1656SOL    HW2 5868   1.640   4.302   3.001
 1657SOL     OW 5869   0.103   1.483   4.457
 1657SOL    HW1 5870   0.087   1.534   4.372
 1657SOL    HW2 5871   0.016   1.464   4.502
 1658SOL     OW 5872   0.310   0.205   3.244
 1658SOL    HW1 5873   0.326   0.131   3.309
 1658SOL    HW2 5874   0.280   0.168   3.157
 1659SOL     OW 5875   4.086   2.053   6.140
 1659SOL    HW1 5876   4.119   2.093   6.226
 1659SOL    HW2 5877   4.002   2.000   6.159
 1660SOL     OW 5878   1.587   5.150   4.301
 1660SOL    HW1 5879   1.597   5.060   4.257
 1660SOL    HW2 5880   1.492   5.164   4.326
 1661SOL     OW 5881   3.393   1.885   1.657
 1661SOL    HW1 5882   3.413   1.980   1.634
 1661SOL    HW2 5883   3.295   1.868   1.645
 1662SOL     OW 5884   6.181   0.888   3.666
 1662SOL    HW1 5885   6.267   0.883   3.715
 1662SOL    HW2 5886   6.154   0.984   3.655
 1663SOL     OW 5887   2.380   1.097   3.115
 1663SOL    HW1 5888   2.280   1.091   3.115
 1663SOL    HW2 5889   2.410   1.161   3.186
 1664SOL     OW 5890   1.355   0.309   3.909
 1664SOL    HW1 5891   1.323   0.264   3.992
 1664SOL    HW2 5892   1.277   0.343   3.858
 1665SOL     OW 5893   6.839   1.887   2.679
 1665SOL    HW1 5894   6.846   1.796   2.721
 1665SOL    HW2 5895   6.907   1.895   2.606
 1666SOL     OW 5896   6.160   3.264   0.762
 1666SOL    HW1 5897   6.062   3.276   0.778
 1666SOL    HW2 5898   6.174   3.219   0.673
 1667SOL     OW 5899   5.467   6.649   0.557
 1667SOL    HW1 5900   5.410   6.727   0.585
 1667SOL    HW2 5901   5.563   6.674   0.561
 1668SOL     OW 5902   4.808   6.428   5.591
 1668SOL    HW1 5903   4.762   6.493   5.652
 1668SOL    HW2 5904   4.764   6.339   5.598
 1669SOL     OW 5905   6.377   6.708   0.555
 1669SOL    HW1 5906   6.399   6.805   0.568
 1669SOL    HW2 5907   6.345   6.669   0.642
 1670SOL     OW 5908   0.395   5.798   5.906
 1670SOL    HW1 5909   0.478   5.749   5.932
 1670SOL    HW2 5910   0.417   5.894   5.888
 1671SOL     OW 5911   4.248   2.491   1.282
 1671SOL    HW1 5912   4.251   2.408   1.226
 1671SOL    HW2 5913   4.192   2.560   1.236
 1672SOL     OW 5914   1.763   3.719   3.058
 1672SOL    HW1 5915   1.750   3.624   3.033
 1672SOL    HW2 5916   1.754   3.777   2.977
 1673SOL     OW 5917   0.620   2.237   4.410
 1673SOL    HW1 5918   0.563   2.289   4.473
 1673SOL    HW2 5919   0.576   2.231   4.321
 1674SOL     OW 5920   1.624   3.635   1.592
 1674SOL    HW1 5921   1.694   3.699   1.558
 1674SOL    HW2 5922   1.669   3.556   1.634
 1675SOL     OW 5923   4.233   7.015   6.229
 1675SOL    HW1 5924   4.314   0.033   6.270
 1675SOL    HW2 5925   4.260   6.946   6.162
 1676SOL     OW 5926   2.940   1.473   2.376
 1676SOL    HW1 5927   3.000   1.403   2.414
 1676SOL    HW2 5928   2.989   1.522   2.304
 1677SOL     OW 5929   4.604   2.389   5.859
 1677SOL    HW1 5930   4.651   2.330   5.793
 1677SOL    HW2 5931   4.609   2.484   5.828
 1678SOL     OW 5932   5.300   4.768   4.622
 1678SOL    HW1 5933   5.277   4.853   4.575
 1678SOL    HW2 5934   5.307   4.785   4.720
 1679SOL     OW 5935   2.121   3.880   5.494
 1679SOL    HW1 5936   2.060   3.810   5.530
 1679SOL    HW2 5937   2.085   3.914   5.407
 1680SOL     OW 5938   1.199   1.829   4.071
 1680SOL    HW1 5939   1.284   1.776   4.070
 1680SOL    HW2 5940   1.171   1.845   4.165
 1681SOL     OW 5941   6.819   5.891   0.842
 1681SOL    HW1 5942   6.811   5.988   0.862
 1681SOL    HW2 5943   6.899   5.853   0.888
 1682SOL     OW 5944   0.300   3.061   4.732
 1682SOL    HW1 5945   0.298   3.144   4.787
 1682SOL    HW2 5946   0.243   2.991   4.774
 1683SOL     OW 5947   4.314   5.361   1.390
 1683SOL    HW1 5948   4.255   5.421   1.444
 1683SOL    HW2 5949   4.326   5.274   1.439
 1684SOL     OW 5950   1.097   6.629   3.016
 1684SOL    HW1 5951   1.142   6.648   3.103
 1684SOL    HW2 5952   0.998   6.633   3.029
 1685SOL     OW 5953   2.182   1.386   6.321
 1685SOL    HW1 5954   2.245   1.348   6.254
 1685SOL    HW2 5955   2.196   1.484   6.328
 1686SOL     OW 5956   2.264   5.364   5.610
 1686SOL    HW1 5957   2.319   5.442   5.639
 1686SOL    HW2 5958   2.256   5.364   5.510
 1687SOL     OW 5959   1.881   3.195   1.361
 1687SOL    HW1 5960   1.844   3.197   1.268
 1687SOL    HW2 5961   1.936   3.112   1.373
 1688SOL     OW 5962   1.823   2.015   3.653
 1688SOL    HW1 5963   1.849   2.097   3.602
 1688SOL    HW2 5964   1.853   1.934   3.602
 1689SOL     OW 5965   3.336   0.921   1.933
 1689SOL    HW1 5966   3.327   0.978   1.852
 1689SOL    HW2 5967   3.412   0.953   1.989
 1690SOL     OW 5968   1.287   2.874   2.851
 1690SOL    HW1 5969   1.255   2.963   2.883
 1690SOL    HW2 5970   1.252   2.803   2.912
 1691SOL     OW 5971   5.064   4.164   3.060
 1691SOL    HW1 5972   5.074   4.085   3.121
 1691SOL    HW2 5973   4.967   4.184   3.048
 1692SOL     OW 5974   6.792   6.899   1.412
 1692SOL    HW1 5975   6.786   6.821   1.474
 1692SOL    HW2 5976   6.830   6.869   1.324
 1693SOL     OW 5977   1.534   2.602   2.795
 1693SOL    HW1 5978   1.624   2.564   2.773
 1693SOL    HW2 5979   1.468   2.571   2.727
 1694SOL     OW 5980   4.469   6.562   4.199
 1694SOL    HW1 5981   4.382   6.529   4.163
 1694SOL    HW2 5982   4.543   6.501   4.168
 1695SOL     OW 5983   2.492   0.858   4.969
 1695SOL    HW1 5984   2.572   0.911   4.996
 1695SOL    HW2 5985   2.409   0.909   4.991
 1696SOL     OW 5986   5.143   5.493   0.769
 1696SOL    HW1 5987   5.205   5.447   0.833
 1696SOL    HW2 5988   5.182   5.581   0.743
 1697SOL     OW 5989   6.789   6.671   1.559
 1697SOL    HW1 5990   6.711   6.614   1.536
 1697SOL    HW2 5991   6.793   6.685   1.658
 1698SOL     OW 5992   4.523   1.532   1.249
 1698SOL    HW1 5993   4.507   1.623   1.287
 1698SOL    HW2 5994   4.525   1.464   1.323
 1699SOL     OW 5995   3.111   1.646   2.191
 1699SOL    HW1 5996   3.149   1.729   2.229
 1699SOL    HW2 5997   3.072   1.665   2.101
 1700SOL     OW 5998   6.415   2.168   3.664
 1700SOL    HW1 5999   6.436   2.259   3.698
 1700SOL    HW2 6000   6.438   2.100   3.734
 1701SOL     OW 6001   4.970   3.190   5.276
 1701SOL    HW1 6002   4.932   3.260   5.216
 1701SOL    HW2 6003   5.058   3.220   5.312
 1702SOL     OW 6004   6.725   3.833   0.427
 1702SOL    HW1 6005   6.710   3.735   0.427
 1702SOL    HW2 6006   6.771   3.860   0.511
 1703SOL     OW 6007   3.592   4.138   3.275
 1703SOL    HW1 6008   3.624   4.225   3.312
 1703SOL    HW2 6009   3.502   4.117   3.313
 1704SOL     OW 6010   0.600   1.390   1.090
 1704SOL    HW1 6011   0.530   1.369   1.021
 1704SOL    HW2 6012   0.678   1.329   1.078
 1705SOL     OW 6013   3.385   2.074   2.096
 1705SOL    HW1 6014   3.468   2.126   2.078
 1705SOL    HW2 6015   3.363   2.079   2.194
 1706SOL     OW 6016   4.014   6.511   1.079
 1706SOL    HW1 6017   4.027   6.579   1.152
 1706SOL    HW2 6018   4.031   6.420   1.115
 1707SOL     OW 6019   3.883   1.570   2.267
 1707SOL    HW1 6020   3.906   1.484   2.314
 1707SOL    HW2 6021   3.800   1.557   2.214
 1708SOL     OW 6022   5.683   5.885   2.726
 1708SOL    HW1 6023   5.756   5.854   2.666
 1708SOL    HW2 6024   5.645   5.807   2.776
 1709SOL     OW 6025   2.769   6.200   1.850
 1709SOL    HW1 6026   2.837   6.130   1.874
 1709SOL    HW2 6027   2.681   6.156   1.835
 1710SOL     OW 6028   6.079   4.540   3.518
 1710SOL    HW1 6029   6.105   4.462   3.574
 1710SOL    HW2 6030   5.980   4.536   3.499
 1711SOL     OW 6031   1.733   4.662   4.997
 1711SOL    HW1 6032   1.692   4.712   5.072
 1711SOL    HW2 6033   1.664   4.602   4.955
 1712SOL     OW 6034   0.697   3.139   6.487
 1712SOL    HW1 6035   0.614   3.191   6.466
 1712SOL    HW2 6036   0.777   3.198   6.476
 1713SOL     OW 6037   2.697   2.108   0.943
 1713SOL    HW1 6038   2.751   2.191   0.956
 1713SOL    HW2 6039   2.741   2.050   0.874
 1714SOL     OW 6040   3.979   1.657   6.227
 1714SOL    HW1 6041   3.910   1.587   6.247
 1714SOL    HW2 6042   4.039   1.624   6.154
 1715SOL     OW 6043   6.764   3.729   2.708
 1715SOL    HW1 6044   6.738   3.795   2.638
 1715SOL    HW2 6045   6.804   3.648   2.666
 1716SOL     OW 6046   5.510   6.484   1.786
 1716SOL    HW1 6047   5.551   6.482   1.695
 1716SOL    HW2 6048   5.582   6.498   1.855
 1717SOL     OW 6049   2.219   6.493   6.430
 1717SOL    HW1 6050   2.126   6.499   6.395
 1717SOL    HW2 6051   2.283   6.496   6.353
 1718SOL     OW 6052   1.974   2.150   0.758
 1718SOL    HW1 6053   2.004   2.123   0.849
 1718SOL    HW2 6054   2.001   2.245   0.741
 1719SOL     OW 6055   2.720   4.216   1.459
 1719SOL    HW1 6056   2.633   4.183   1.422
 1719SOL    HW2 6057   2.795   4.185   1.400
 1720SOL     OW 6058   6.403   1.561   1.593
 1720SOL    HW1 6059   6.362   1.580   1.682
 1720SOL    HW2 6060   6.359   1.481   1.552
 1721SOL     OW 6061   1.294   6.748   2.440
 1721SOL    HW1 6062   1.371   6.723   2.382
 1721SOL    HW2 6063   1.231   6.670   2.447
 1722SOL     OW 6064   5.111   1.312   3.548
 1722SOL    HW1 6065   5.020   1.274   3.535
 1722SOL    HW2 6066   5.104   1.407   3.578
 1723SOL     OW 6067   6.869   2.153   3.429
 1723SOL    HW1 6068   6.957   2.144   3.382
 1723SOL    HW2 6069   6.802   2.093   3.386
 1724SOL     OW 6070   5.899   1.210   0.740
 1724SOL    HW1 6071   5.940   1.119   0.741
 1724SOL    HW2 6072   5.801   1.203   0.756
 1725SOL     OW 6073   2.976   4.201   0.205
 1725SOL    HW1 6074   3.053   4.209   0.267
 1725SOL    HW2 6075   2.920   4.284   0.211
 1726SOL     OW 6076   0.101   4.874   5.264
 1726SOL    HW1 6077   0.159   4.933   5.207
 1726SOL    HW2 6078   0.015   4.920   5.283
 1727SOL     OW 6079   3.547   2.881   4.170
 1727SOL    HW1 6080   3.487   2.909   4.244
 1727SOL    HW2 6081   3.544   2.781   4.160
 1728SOL     OW 6082   5.201   4.995   4.811
 1728SOL    HW1 6083   5.182   5.048   4.729
 1728SOL    HW2 6084   5.131   4.925   4.823
 1729SOL     OW 6085   2.113   3.994   4.060
 1729SOL    HW1 6086   2.085   3.926   3.992
 1729SOL    HW2 6087   2.175   4.060   4.019
 1730SOL     OW 6088   6.621   0.743   4.762
 1730SOL    HW1 6089   6.549   0.806   4.791
 1730SOL    HW2 6090   6.598   0.650   4.792
 1731SOL     OW 6091   0.878   4.814   2.064
 1731SOL    HW1 6092   0.786   4.824   2.026
 1731SOL    HW2 6093   0.942   4.791   1.990
 1732SOL     OW 6094   2.606   4.281   6.112
 1732SOL    HW1 6095   2.594   4.295   6.211
 1732SOL    HW2 6096   2.670   4.350   6.077
 1733SOL     OW 6097   1.114   3.566   2.623
 1733SOL    HW1 6098   1.155   3.608   2.541
 1733SOL    HW2 6099   1.117   3.466   2.614
 1734SOL     OW 6100   4.861   3.137   1.567
 1734SOL    HW1 6101   4.874   3.085   1.651
 1734SOL    HW2 6102   4.796   3.212   1.585
 1735SOL     OW 6103   5.571   5.610   1.429
 1735SOL    HW1 6104   5.585   5.653   1.518
 1735SOL    HW2 6105   5.592   5.513   1.435
 1736SOL     OW 6106   4.807   1.382   0.076
 1736SOL    HW1 6107   4.755   1.297   0.071
 1736SOL    HW2 6108   4.900   1.362   0.106
 1737SOL     OW 6109   2.925   0.435   3.993
 1737SOL    HW1 6110   2.849   0.415   4.055
 1737SOL    HW2 6111   2.891   0.436   3.898
 1738SOL     OW 6112   2.428   2.291   3.682
 1738SOL    HW1 6113   2.424   2.196   3.712
 1738SOL    HW2 6114   2.476   2.345   3.751
 1739SOL     OW 6115   4.906   2.650   5.301
 1739SOL    HW1 6116   4.872   2.559   5.324
 1739SOL    HW2 6117   4.831   2.707   5.267
 1740SOL     OW 6118   0.139   1.437   6.669
 1740SOL    HW1 6119   0.188   1.374   6.609
 1740SOL    HW2 6120   0.042   1.439   6.644
 1741SOL     OW 6121   2.437   0.890   2.348
 1741SOL    HW1 6122   2.355   0.846   2.310
 1741SOL    HW2 6123   2.508   0.894   2.279
 1742SOL     OW 6124   3.932   6.088   5.785
 1742SOL    HW1 6125   3.913   6.132   5.697
 1742SOL    HW2 6126   3.987   6.149   5.841
 1743SOL     OW 6127   2.044   1.452   2.195
 1743SOL    HW1 6128   2.063   1.354   2.201
 1743SOL    HW2 6129   2.002   1.483   2.281
 1744SOL     OW 6130   0.820   6.859   1.772
 1744SOL    HW1 6131   0.908   6.894   1.740
 1744SOL    HW2 6132   0.749   6.926   1.751
 1745SOL     OW 6133   0.051   1.186   4.542
 1745SOL    HW1 6134   0.056   1.092   4.575
 1745SOL    HW2 6135   0.139   1.231   4.559
 1746SOL     OW 6136   1.957   5.902   5.700
 1746SOL    HW1 6137   1.865   5.863   5.690
 1746SOL    HW2 6138   2.002   5.860   5.779
 1747SOL     OW 6139   5.039   6.624   2.601
 1747SOL    HW1 6140   5.088   6.639   2.515
 1747SOL    HW2 6141   4.946   6.593   2.582
 1748SOL     OW 6142   7.014   0.519   3.676
 1748SOL    HW1 6143   0.078   0.549   3.714
 1748SOL    HW2 6144   6.975   0.448   3.735
 1749SOL     OW 6145   3.208   6.462   5.188
 1749SOL    HW1 6146   3.132   6.519   5.219
 1749SOL    HW2 6147   3.187   6.366   5.205
 1750SOL     OW 6148   5.423   0.908   3.419
 1750SOL    HW1 6149   5.398   0.998   3.383
 1750SOL    HW2 6150   5.407   0.905   3.518
 1751SOL     OW 6151   3.073   5.284   4.798
 1751SOL    HW1 6152   3.018   5.270   4.880
 1751SOL    HW2 6153   3.042   5.222   4.726
 1752SOL     OW 6154   6.521   2.206   2.127
 1752SOL    HW1 6155   6.504   2.198   2.028
 1752SOL    HW2 6156   6.590   2.139   2.154
 1753SOL     OW 6157   0.395   1.533   0.504
 1753SOL    HW1 6158   0.383   1.447   0.454
 1753SOL    HW2 6159   0.315   1.592   0.488
 1754SOL     OW 6160   3.363   3.168   1.317
 1754SOL    HW1 6161   3.324   3.113   1.391
 1754SOL    HW2 6162   3.428   3.234   1.355
 1755SOL     OW 6163   5.891   5.027   1.948
 1755SOL    HW1 6164   5.898   4.965   1.869
 1755SOL    HW2 6165   5.848   4.979   2.024
 1756SOL     OW 6166   4.461   4.376   5.781
 1756SOL    HW1 6167   4.369   4.379   5.820
 1756SOL    HW2 6168   4.485   4.466   5.745
 1757SOL     OW 6169   2.318   6.109   4.498
 1757SOL    HW1 6170   2.245   6.171   4.528
 1757SOL    HW2 6171   2.292   6.015   4.521
 1758SOL     OW 6172   2.666   0.318   3.444
 1758SOL    HW1 6173   2.593   0.356   3.388
 1758SOL    HW2 6174   2.744   0.293   3.386
 1759SOL     OW 6175   1.169   5.129   6.620
 1759SOL    HW1 6176   1.109   5.177   6.556
 1759SOL    HW2 6177   1.118   5.055   6.664
 1760SOL     OW 6178   6.131   1.357   1.864
 1760SOL    HW1 6179   6.105   1.286   1.799
 1760SOL    HW2 6180   6.142   1.317   1.955
 1761SOL     OW 6181   6.918   7.001   0.535
 1761SOL    HW1 6182   6.982   6.960   0.600
 1761SOL    HW2 6183   6.915   0.076   0.549
 1762SOL     OW 6184   6.286   1.214   5.190
 1762SOL    HW1 6185   6.283   1.284   5.262
 1762SOL    HW2 6186   6.316   1.256   5.104
 1763SOL     OW 6187   1.871   3.770   4.670
 1763SOL    HW1 6188   1.964   3.747   4.643
 1763SOL    HW2 6189   1.854   3.867   4.654
 1764SOL     OW 6190   1.679   3.858   3.271
 1764SOL    HW1 6191   1.589   3.872   3.231
 1764SOL    HW2 6192   1.724   3.782   3.225
 1765SOL     OW 6193   3.558   2.029   6.923
 1765SOL    HW1 6194   3.481   1.986   6.970
 1765SOL    HW2 6195   3.575   1.982   6.837
 1766SOL     OW 6196   4.943   2.763   4.413
 1766SOL    HW1 6197   5.015   2.781   4.346
 1766SOL    HW2 6198   4.969   2.686   4.471
 1767SOL     OW 6199   5.596   3.980   2.742
 1767SOL    HW1 6200   5.550   4.036   2.810
 1767SOL    HW2 6201   5.646   4.039   2.678
 1768SOL     OW 6202   3.870   1.135   4.626
 1768SOL    HW1 6203   3.955   1.108   4.582
 1768SOL    HW2 6204   3.888   1.210   4.690
 1769SOL     OW 6205   4.424   2.387   4.849
 1769SOL    HW1 6206   4.341   2.384   4.904
 1769SOL    HW2 6207   4.489   2.320   4.884
 1770SOL     OW 6208   1.416   5.801   5.000
 1770SOL    HW1 6209   1.332   5.836   4.958
 1770SOL    HW2 6210   1.495   5.851   4.964
 1771SOL     OW 6211   2.777   5.076   6.728
 1771SOL    HW1 6212   2.720   5.008   6.683
 1771SOL    HW2 6213   2.732   5.165   6.723
 1772SOL     OW 6214   3.382   6.460   3.516
 1772SOL    HW1 6215   3.286   6.433   3.523
 1772SOL    HW2 6216   3.390   6.559   3.526
 1773SOL     OW 6217   2.204   5.101   5.800
 1773SOL    HW1 6218   2.256   5.116   5.884
 1773SOL    HW2 6219   2.228   5.173   5.734
 1774SOL     OW 6220   4.481   6.123   1.407
 1774SOL    HW1 6221   4.552   6.163   1.466
 1774SOL    HW2 6222   4.524   6.074   1.332
 1775SOL     OW 6223   1.818   4.240   4.092
 1775SOL    HW1 6224   1.743   4.181   4.063
 1775SOL    HW2 6225   1.800   4.274   4.184
 1776SOL     OW 6226   3.151   0.064   3.723
 1776SOL    HW1 6227   3.166   6.989   3.729
 1776SOL    HW2 6228   3.240   0.111   3.721
 1777SOL     OW 6229   3.436   5.239   5.801
 1777SOL    HW1 6230   3.382   5.247   5.717
 1777SOL    HW2 6231   3.391   5.290   5.874
 1778SOL     OW 6232   4.309   3.454   5.281
 1778SOL    HW1 6233   4.326   3.506   5.364
 1778SOL    HW2 6234   4.257   3.510   5.216
 1779SOL     OW 6235   4.127   1.038   4.546
 1779SOL    HW1 6236   4.160   1.014   4.455
 1779SOL    HW2 6237   4.205   1.062   4.604
 1780SOL     OW 6238   3.234   2.970   6.796
 1780SOL    HW1 6239   3.287   2.896   6.754
 1780SOL    HW2 6240   3.227   3.047   6.733
 1781SOL     OW 6241   4.832   5.689   3.953
 1781SOL    HW1 6242   4.822   5.631   3.872
 1781SOL    HW2 6243   4.776   5.771   3.941
 1782SOL     OW 6244   3.025   1.869   2.970
 1782SOL    HW1 6245   3.071   1.796   2.921
 1782SOL    HW2 6246   2.944   1.833   3.015
 1783SOL     OW 6247   1.276   4.819   6.037
 1783SOL    HW1 6248   1.297   4.916   6.026
 1783SOL    HW2 6249   1.230   4.804   6.124
 1784SOL     OW 6250   3.657   0.852   6.222
 1784SOL    HW1 6251   3.707   0.791   6.161
 1784SOL    HW2 6252   3.645   0.808   6.311
 1785SOL     OW 6253   6.387   4.501   3.108
 1785SOL    HW1 6254   6.365   4.565   3.182
 1785SOL    HW2 6255   6.313   4.434   3.099
 1786SOL     OW 6256   1.882   2.432   0.468
 1786SOL    HW1 6257   1.900   2.415   0.371
 1786SOL    HW2 6258   1.893   2.529   0.487
 1787SOL     OW 6259   2.895   0.796   4.892
 1787SOL    HW1 6260   2.982   0.842   4.909
 1787SOL    HW2 6261   2.830   0.861   4.853
 1788SOL     OW 6262   3.545   3.138   0.616
 1788SOL    HW1 6263   3.569   3.067   0.682
 1788SOL    HW2 6264   3.606   3.132   0.537
 1789SOL     OW 6265   6.050   2.277   3.485
 1789SOL    HW1 6266   6.083   2.343   3.418
 1789SOL    HW2 6267   6.115   2.201   3.491
 1790SOL     OW 6268   4.043   5.988   4.375
 1790SOL    HW1 6269   4.016   6.033   4.290
 1790SOL    HW2 6270   4.016   6.044   4.453
 1791SOL     OW 6271   6.212   0.736   3.433
 1791SOL    HW1 6272   6.128   0.720   3.382
 1791SOL    HW2 6273   6.191   0.783   3.519
 1792SOL     OW 6274   6.963   2.723   5.071
 1792SOL    HW1 6275   6.911   2.802   5.040
 1792SOL    HW2 6276   0.034   2.730   5.037
 1793SOL     OW 6277   6.863   6.850   3.580
 1793SOL    HW1 6278   6.878   6.943   3.615
 1793SOL    HW2 6279   6.793   6.853   3.509
 1794SOL     OW 6280   5.618   6.204   6.214
 1794SOL    HW1 6281   5.541   6.267   6.214
 1794SOL    HW2 6282   5.644   6.182   6.308
 1795SOL     OW 6283   1.385   2.740   0.648
 1795SOL    HW1 6284   1.386   2.735   0.747
 1795SOL    HW2 6285   1.457   2.802   0.617
 1796SOL     OW 6286   2.450   0.605   4.317
 1796SOL    HW1 6287   2.377   0.548   4.279
 1796SOL    HW2 6288   2.515   0.629   4.245
 1797SOL     OW 6289   1.558   6.987   6.909
 1797SOL    HW1 6290   1.553   0.054   6.866
 1797SOL    HW2 6291   1.513   6.920   6.850
 1798SOL     OW 6292   5.567   2.325   3.943
 1798SOL    HW1 6293   5.590   2.413   3.902
 1798SOL    HW2 6294   5.489   2.337   4.004
 1799SOL     OW 6295   6.800   1.505   6.040
 1799SOL    HW1 6296   6.896   1.478   6.048
 1799SOL    HW2 6297   6.757   1.502   6.130
 1800SOL     OW 6298   4.146   4.983   1.904
 1800SOL    HW1 6299   4.203   4.902   1.918
 1800SOL    HW2 6300   4.162   5.048   1.979
 1801SOL     OW 6301   0.373   0.571   2.371
 1801SOL    HW1 6302   0.407   0.653   2.323
 1801SOL    HW2 6303   0.303   0.526   2.315
 1802SOL     OW 6304   5.670   5.368   3.135
 1802SOL    HW1 6305   5.594   5.303   3.129
 1802SOL    HW2 6306   5.692   5.403   3.044
 1803SOL     OW 6307   0.664   6.216   0.029
 1803SOL    HW1 6308   0.618   6.186   0.112
 1803SOL    HW2 6309   0.762   6.197   0.036
 1804SOL     OW 6310   2.616   3.884   5.342
 1804SOL    HW1 6311   2.586   3.877   5.438
 1804SOL    HW2 6312   2.540   3.917   5.286
 1805SOL     OW 6313   6.359   4.063   5.735
 1805SOL    HW1 6314   6.261   4.079   5.747
 1805SOL    HW2 6315   6.376   4.029   5.642
 1806SOL     OW 6316   0.290   0.800   0.372
 1806SOL    HW1 6317   0.304   0.756   0.461
 1806SOL    HW2 6318   0.197   0.782   0.340
 1807SOL     OW 6319   5.070   2.825   5.408
 1807SOL    HW1 6320   5.013   2.750   5.376
 1807SOL    HW2 6321   5.012   2.895   5.450
 1808SOL     OW 6322   0.699   4.238   6.524
 1808SOL    HW1 6323   0.674   4.186   6.442
 1808SOL    HW2 6324   0.758   4.183   6.583
 1809SOL     OW 6325   2.239   2.438   4.527
 1809SOL    HW1 6326   2.151   2.480   4.505
 1809SOL    HW2 6327   2.231   2.384   4.611
 1810SOL     OW 6328   3.217   6.951   3.437
 1810SOL    HW1 6329   3.258   0.013   3.406
 1810SOL    HW2 6330   3.164   6.911   3.362
 1811SOL     OW 6331   5.774   5.038   3.413
 1811SOL    HW1 6332   5.677   5.055   3.395
 1811SOL    HW2 6333   5.792   4.940   3.415
 1812SOL     OW 6334   4.494   6.371   5.422
 1812SOL    HW1 6335   4.555   6.439   5.381
 1812SOL    HW2 6336   4.531   6.279   5.405
 1813SOL     OW 6337   6.399   5.425   1.260
 1813SOL    HW1 6338   6.379   5.369   1.180
 1813SOL    HW2 6339   6.495   5.418   1.284
 1814SOL     OW 6340   6.105   1.009   0.757
 1814SOL    HW1 6341   6.113   1.070   0.679
 1814SOL    HW2 6342   6.069   1.059   0.836
 1815SOL     OW 6343   6.964   2.304   2.275
 1815SOL    HW1 6344   6.963   2.398   2.308
 1815SOL    HW2 6345   7.001   2.244   2.346
 1816SOL     OW 6346   2.776   3.455   1.111
 1816SOL    HW1 6347   2.714   3.501   1.175
 1816SOL    HW2 6348   2.723   3.395   1.052
 1817SOL     OW 6349   3.321   6.985   2.602
 1817SOL    HW1 6350   3.316   0.042   2.543
 1817SOL    HW2 6351   3.323   7.014   2.698
 1818SOL     OW 6352   1.729   6.623   2.880
 1818SOL    HW1 6353   1.722   6.568   2.963
 1818SOL    HW2 6354   1.648   6.607   2.823
 1819SOL     OW 6355   1.386   4.891   1.771
 1819SOL    HW1 6356   1.327   4.880   1.690
 1819SOL    HW2 6357   1.364   4.819   1.837
 1820SOL     OW 6358   4.776   0.777   2.247
 1820SOL    HW1 6359   4.705   0.751   2.182
 1820SOL    HW2 6360   4.735   0.821   2.326
 1821SOL     OW 6361   0.654   1.246   2.132
 1821SOL    HW1 6362   0.658   1.184   2.054
 1821SOL    HW2 6363   0.630   1.338   2.101
 1822SOL     OW 6364   2.642   3.196   1.030
 1822SOL    HW1 6365   2.693   3.120   0.991
 1822SOL    HW2 6366   2.574   3.228   0.964
 1823SOL     OW 6367   3.217   5.791   2.990
 1823SOL    HW1 6368   3.208   5.790   2.890
 1823SOL    HW2 6369   3.314   5.789   3.015
 1824SOL     OW 6370   3.336   2.425   1.290
 1824SOL    HW1 6371   3.398   2.401   1.216
 1824SOL    HW2 6372   3.385   2.481   1.357
 1825SOL     OW 6373   1.573   1.755   2.904
 1825SOL    HW1 6374   1.619   1.693   2.968
 1825SOL    HW2 6375   1.479   1.769   2.933
 1826SOL     OW 6376   3.400   0.412   1.185
 1826SOL    HW1 6377   3.378   0.438   1.278
 1826SOL    HW2 6378   3.376   0.486   1.122
 1827SOL     OW 6379   0.137   5.342   2.344
 1827SOL    HW1 6380   0.051   5.293   2.356
 1827SOL    HW2 6381   0.209   5.296   2.397
 1828SOL     OW 6382   1.141   2.111   0.434
 1828SOL    HW1 6383   1.114   2.201   0.399
 1828SOL    HW2 6384   1.187   2.060   0.362
 1829SOL     OW 6385   3.797   0.295   3.548
 1829SOL    HW1 6386   3.826   0.284   3.643
 1829SOL    HW2 6387   3.878   0.292   3.489
 1830SOL     OW 6388   5.689   5.866   3.960
 1830SOL    HW1 6389   5.762   5.848   4.027
 1830SOL    HW2 6390   5.722   5.932   3.892
 1831SOL     OW 6391   6.090   0.501   2.661
 1831SOL    HW1 6392   6.124   0.532   2.572
 1831SOL    HW2 6393   6.150   0.535   2.734
 1832SOL     OW 6394   5.308   1.424   0.702
 1832SOL    HW1 6395   5.390   1.469   0.737
 1832SOL    HW2 6396   5.234   1.435   0.768
 1833SOL     OW 6397   5.516   0.684   5.264
 1833SOL    HW1 6398   5.571   0.674   5.181
 1833SOL    HW2 6399   5.494   0.594   5.301
 1834SOL     OW 6400   2.899   3.561   0.615
 1834SOL    HW1 6401   2.826   3.602   0.560
 1834SOL    HW2 6402   2.895   3.596   0.708
 1835SOL     OW 6403   1.588   4.422   1.461
 1835SOL    HW1 6404   1.635   4.372   1.534
 1835SOL    HW2 6405   1.551   4.507   1.498
 1836SOL     OW 6406   5.445   1.121   1.018
 1836SOL    HW1 6407   5.462   1.101   0.922
 1836SOL    HW2 6408   5.372   1.189   1.026
 1837SOL     OW 6409   0.648   2.231   3.959
 1837SOL    HW1 6410   0.576   2.205   4.024
 1837SOL    HW2 6411   0.718   2.283   4.006
 1838SOL     OW 6412   7.006   2.221   4.142
 1838SOL    HW1 6413   7.013   2.269   4.229
 1838SOL    HW2 6414   6.942   2.145   4.151
 1839SOL     OW 6415   4.465   2.590   5.109
 1839SOL    HW1 6416   4.389   2.551   5.059
 1839SOL    HW2 6417   4.544   2.600   5.049
 1840SOL     OW 6418   3.873   5.829   1.388
 1840SOL    HW1 6419   3.852   5.732   1.376
 1840SOL    HW2 6420   3.970   5.845   1.370
 1841SOL     OW 6421   2.386   2.577   4.246
 1841SOL    HW1 6422   2.395   2.575   4.346
 1841SOL    HW2 6423   2.394   2.671   4.213
 1842SOL     OW 6424   0.827   5.722   0.828
 1842SOL    HW1 6425   0.732   5.754   0.819
 1842SOL    HW2 6426   0.867   5.711   0.737
 1843SOL     OW 6427   0.422   1.734   4.617
 1843SOL    HW1 6428   0.370   1.662   4.662
 1843SOL    HW2 6429   0.520   1.721   4.635
 1844SOL     OW 6430   3.406   0.987   5.589
 1844SOL    HW1 6431   3.483   1.042   5.620
 1844SOL    HW2 6432   3.381   0.922   5.661
 1845SOL     OW 6433   2.144   6.497   5.057
 1845SOL    HW1 6434   2.127   6.533   4.965
 1845SOL    HW2 6435   2.206   6.558   5.106
 1846SOL     OW 6436   4.306   2.062   0.625
 1846SOL    HW1 6437   4.403   2.061   0.647
 1846SOL    HW2 6438   4.256   2.111   0.696
 1847SOL     OW 6439   1.418   0.808   6.271
 1847SOL    HW1 6440   1.425   0.729   6.210
 1847SOL    HW2 6441   1.420   0.892   6.216
 1848SOL     OW 6442   0.825   0.119   2.414
 1848SOL    HW1 6443   0.828   0.034   2.466
 1848SOL    HW2 6444   0.861   0.104   2.322
 1849SOL     OW 6445   3.272   1.863   0.705
 1849SOL    HW1 6446   3.322   1.935   0.753
 1849SOL    HW2 6447   3.292   1.867   0.607
 1850SOL     OW 6448   6.572   3.085   2.592
 1850SOL    HW1 6449   6.517   3.030   2.530
 1850SOL    HW2 6450   6.583   3.177   2.555
 1851SOL     OW 6451   0.864   1.771   1.202
 1851SOL    HW1 6452   0.852   1.849   1.141
 1851SOL    HW2 6453   0.961   1.758   1.221
 1852SOL     OW 6454   5.951   3.536   1.694
 1852SOL    HW1 6455   6.016   3.573   1.628
 1852SOL    HW2 6456   5.988   3.546   1.787
 1853SOL     OW 6457   0.253   3.126   3.020
 1853SOL    HW1 6458   0.331   3.100   2.964
 1853SOL    HW2 6459   0.216   3.045   3.066
 1854SOL     OW 6460   2.505   6.050   2.619
 1854SOL    HW1 6461   2.602   6.028   2.626
 1854SOL    HW2 6462   2.456   6.009   2.696
 1855SOL     OW 6463   4.347   4.106   0.177
 1855SOL    HW1 6464   4.431   4.136   0.223
 1855SOL    HW2 6465   4.341   4.006   0.179
 1856SOL     OW 6466   6.581   3.707   5.163
 1856SOL    HW1 6467   6.527   3.655   5.097
 1856SOL    HW2 6468   6.678   3.690   5.147
 1857SOL     OW 6469   3.444   0.518   6.191
 1857SOL    HW1 6470   3.403   0.582   6.125
 1857SOL    HW2 6471   3.378   0.499   6.263
 1858SOL     OW 6472   6.058   2.737   3.932
 1858SOL    HW1 6473   5.987   2.667   3.948
 1858SOL    HW2 6474   6.148   2.696   3.944
 1859SOL     OW 6475   4.461   1.582   3.166
 1859SOL    HW1 6476   4.496   1.499   3.123
 1859SOL    HW2 6477   4.402   1.630   3.102
 1860SOL     OW 6478   6.367   0.491   3.421
 1860SOL    HW1 6479   6.298   0.563   3.426
 1860SOL    HW2 6480   6.395   0.479   3.326
 1861SOL     OW 6481   5.423   0.014   2.732
 1861SOL    HW1 6482   5.347   6.985   2.770
 1861SOL    HW2 6483   5.503   0.005   2.791
 1862SOL     OW 6484   2.541   0.310   6.319
 1862SOL    HW1 6485   2.523   0.367   6.399
 1862SOL    HW2 6486   2.594   0.230   6.347
 1863SOL     OW 6487   1.833   1.821   0.114
 1863SOL    HW1 6488   1.820   1.885   0.039
 1863SOL    HW2 6489   1.878   1.867   0.190
 1864SOL     OW 6490   0.878   6.924   5.530
 1864SOL    HW1 6491   0.961   6.906   5.477
 1864SOL    HW2 6492   0.886   6.882   5.621
 1865SOL     OW 6493   3.520   6.854   5.968
 1865SOL    HW1 6494   3.487   6.924   6.032
 1865SOL    HW2 6495   3.495   6.880   5.875
 1866SOL     OW 6496   4.676   4.983   3.106
 1866SOL    HW1 6497   4.728   4.898   3.097
 1866SOL    HW2 6498   4.734   5.053   3.149
 1867SOL     OW 6499   1.036   4.398   0.141
 1867SOL    HW1 6500   0.940   4.428   0.142
 1867SOL    HW2 6501   1.040   4.300   0.158
 1868SOL     OW 6502   5.135   3.706   0.705
 1868SOL    HW1 6503   5.085   3.622   0.684
 1868SOL    HW2 6504   5.078   3.766   0.762
 1869SOL     OW 6505   6.323   2.724   5.775
 1869SOL    HW1 6506   6.340   2.673   5.691
 1869SOL    HW2 6507   6.394   2.794   5.786
 1870SOL     OW 6508   1.880   2.780   5.870
 1870SOL    HW1 6509   1.954   2.718   5.898
 1870SOL    HW2 6510   1.813   2.787   5.944
 1871SOL     OW 6511   0.355   0.617   6.657
 1871SOL    HW1 6512   0.303   0.675   6.593
 1871SOL    HW2 6513   0.365   0.665   6.744
 1872SOL     OW 6514   3.703   3.057   0.349
 1872SOL    HW1 6515   3.671   3.083   0.258
 1872SOL    HW2 6516   3.762   3.129   0.385
 1873SOL     OW 6517   4.671   1.439   5.527
 1873SOL    HW1 6518   4.687   1.537   5.532
 1873SOL    HW2 6519   4.759   1.391   5.524
 1874SOL     OW 6520   3.022   1.069   1.207
 1874SOL    HW1 6521   3.059   0.977   1.191
 1874SOL    HW2 6522   3.048   1.100   1.298
 1875SOL     OW 6523   0.561   1.637   0.240
 1875SOL    HW1 6524   0.564   1.538   0.247
 1875SOL    HW2 6525   0.653   1.674   0.246
 1876SOL     OW 6526   3.807   6.919   5.897
 1876SOL    HW1 6527   3.709   6.920   5.916
 1876SOL    HW2 6528   3.834   7.006   5.857
 1877SOL     OW 6529   0.650   0.633   2.874
 1877SOL    HW1 6530   0.725   0.606   2.813
 1877SOL    HW2 6531   0.682   0.629   2.969
 1878SOL     OW 6532   6.520   1.714   3.847
 1878SOL    HW1 6533   6.600   1.773   3.856
 1878SOL    HW2 6534   6.454   1.757   3.785
 1879SOL     OW 6535   1.208   4.444   4.348
 1879SOL    HW1 6536   1.243   4.523   4.298
 1879SOL    HW2 6537   1.276   4.371   4.346
 1880SOL     OW 6538   6.892   1.787   4.647
 1880SOL    HW1 6539   6.889   1.858   4.717
 1880SOL    HW2 6540   6.954   1.816   4.573
 1881SOL     OW 6541   5.905   1.869   3.161
 1881SOL    HW1 6542   5.898   1.901   3.255
 1881SOL    HW2 6543   5.941   1.776   3.160
 1882SOL     OW 6544   1.619   4.099   6.300
 1882SOL    HW1 6545   1.677   4.025   6.267
 1882SOL    HW2 6546   1.527   4.063   6.319
 1883SOL     OW 6547   6.724   1.934   3.327
 1883SOL    HW1 6548   6.651   1.868   3.346
 1883SOL    HW2 6549   6.805   1.885   3.294
 1884SOL     OW 6550   0.181   1.714   0.511
 1884SOL    HW1 6551   0.202   1.810   0.529
 1884SOL    HW2 6552   0.158   1.667   0.596
 1885SOL     OW 6553   1.914   1.718   6.035
 1885SOL    HW1 6554   1.848   1.660   6.082
 1885SOL    HW2 6555   1.868   1.766   5.960
 1886SOL     OW 6556   1.439   0.344   1.647
 1886SOL    HW1 6557   1.529   0.371   1.681
 1886SOL    HW2 6558   1.435   0.356   1.548
 1887SOL     OW 6559   1.180   5.477   5.289
 1887SOL    HW1 6560   1.111   5.448   5.355
 1887SOL    HW2 6561   1.270   5.480   5.333
 1888SOL     OW 6562   2.812   2.607   6.826
 1888SOL    HW1 6563   2.816   2.568   6.918
 1888SOL    HW2 6564   2.721   2.595   6.788
 1889SOL     OW 6565   0.507   3.373   5.242
 1889SOL    HW1 6566   0.553   3.285   5.243
 1889SOL    HW2 6567   0.502   3.409   5.335
 1890SOL     OW 6568   1.577   5.892   3.878
 1890SOL    HW1 6569   1.667   5.933   3.893
 1890SOL    HW2 6570   1.520   5.955   3.826
 1891SOL     OW 6571   5.020   2.552   1.701
 1891SOL    HW1 6572   5.008   2.461   1.741
 1891SOL    HW2 6573   4.948   2.612   1.734
 1892SOL     OW 6574   1.711   0.568   2.449
 1892SOL    HW1 6575   1.736   0.643   2.510
 1892SOL    HW2 6576   1.789   0.544   2.391
 1893SOL     OW 6577   3.187   3.802   1.492
 1893SOL    HW1 6578   3.156   3.763   1.579
 1893SOL    HW2 6579   3.246   3.736   1.445
 1894SOL     OW 6580   3.974   3.892   3.603
 1894SOL    HW1 6581   4.018   3.821   3.658
 1894SOL    HW2 6582   4.043   3.944   3.553
 1895SOL     OW 6583   4.456   0.235   1.171
 1895SOL    HW1 6584   4.502   0.322   1.153
 1895SOL    HW2 6585   4.516   0.177   1.226
 1896SOL     OW 6586   5.439   1.261   1.447
 1896SOL    HW1 6587   5.491   1.221   1.372
 1896SOL    HW2 6588   5.421   1.191   1.516
 1897SOL     OW 6589   2.139   5.276   1.307
 1897SOL    HW1 6590   2.169   5.225   1.387
 1897SOL    HW2 6591   2.059   5.232   1.267
 1898SOL     OW 6592   2.206   5.279   3.813
 1898SOL    HW1 6593   2.181   5.248   3.905
 1898SOL    HW2 6594   2.203   5.202   3.750
 1899SOL     OW 6595   0.491   1.327   1.384
 1899SOL    HW1 6596   0.498   1.230   1.406
 1899SOL    HW2 6597   0.537   1.346   1.297
 1900SOL     OW 6598   2.331   0.594   6.756
 1900SOL    HW1 6599   2.236   0.625   6.759
 1900SOL    HW2 6600   2.391   0.670   6.733
 1901SOL     OW 6601   1.822   1.958   0.651
 1901SOL    HW1 6602   1.731   1.991   0.676
 1901SOL    HW2 6603   1.891   2.018   0.690
 1902SOL     OW 6604   2.133   0.409   5.007
 1902SOL    HW1 6605   2.058   0.427   5.071
 1902SOL    HW2 6606   2.114   0.455   4.920
 1903SOL     OW 6607   0.268   3.663   3.210
 1903SOL    HW1 6608   0.361   3.702   3.212
 1903SOL    HW2 6609   0.265   3.588   3.145
 1904SOL     OW 6610   6.360   5.231   3.921
 1904SOL    HW1 6611   6.344   5.135   3.898
 1904SOL    HW2 6612   6.280   5.286   3.894
 1905SOL     OW 6613   0.768   7.014   3.172
 1905SOL    HW1 6614   0.705   6.955   3.222
 1905SOL    HW2 6615   0.736   0.085   3.175
 1906SOL     OW 6616   2.701   6.972   5.181
 1906SOL    HW1 6617   2.741   0.038   5.158
 1906SOL    HW2 6618   2.771   6.914   5.221
 1907SOL     OW 6619   4.403   1.838   1.813
 1907SOL    HW1 6620   4.468   1.913   1.795
 1907SOL    HW2 6621   4.322   1.850   1.756
 1908SOL     OW 6622   3.614   6.180   5.940
 1908SOL    HW1 6623   3.663   6.103   5.982
 1908SOL    HW2 6624   3.633   6.181   5.842
 1909SOL     OW 6625   0.966   3.327   3.547
 1909SOL    HW1 6626   0.940   3.389   3.621
 1909SOL    HW2 6627   0.903   3.250   3.544
 1910SOL     OW 6628   0.270   5.426   5.921
 1910SOL    HW1 6629   0.344   5.461   5.978
 1910SOL    HW2 6630   0.182   5.455   5.958
 1911SOL     OW 6631   0.292   3.599   4.558
 1911SOL    HW1 6632   0.347   3.633   4.482
 1911SOL    HW2 6633   0.275   3.502   4.547
 1912SOL     OW 6634   2.931   6.002   1.639
 1912SOL    HW1 6635   2.908   6.085   1.587
 1912SOL    HW2 6636   2.937   6.024   1.736
 1913SOL     OW 6637   3.026   0.584   4.482
 1913SOL    HW1 6638   3.111   0.636   4.475
 1913SOL    HW2 6639   3.047   0.490   4.508
 1914SOL     OW 6640   3.325   2.792   6.591
 1914SOL    HW1 6641   3.242   2.745   6.562
 1914SOL    HW2 6642   3.386   2.805   6.512
 1915SOL     OW 6643   3.937   2.632   5.588
 1915SOL    HW1 6644   3.957   2.658   5.494
 1915SOL    HW2 6645   3.979   2.698   5.651
 1916SOL     OW 6646   4.132   5.864   1.291
 1916SOL    HW1 6647   4.161   5.787   1.234
 1916SOL    HW2 6648   4.175   5.948   1.258
 1917SOL     OW 6649   2.325   3.506   7.003
 1917SOL    HW1 6650   2.389   3.571   6.963
 1917SOL    HW2 6651   2.368   3.460   0.057
 1918SOL     OW 6652   1.350   1.465   4.617
 1918SOL    HW1 6653   1.441   1.496   4.589
 1918SOL    HW2 6654   1.281   1.528   4.580
 1919SOL     OW 6655   1.371   1.831   1.690
 1919SOL    HW1 6656   1.384   1.881   1.776
 1919SOL    HW2 6657   1.429   1.871   1.619
 1920SOL     OW 6658   6.586   4.366   3.229
 1920SOL    HW1 6659   6.536   4.424   3.165
 1920SOL    HW2 6660   6.595   4.274   3.191
 1921SOL     OW 6661   2.093   3.392   7.020
 1921SOL    HW1 6662   2.183   3.434   7.008
 1921SOL    HW2 6663   2.048   3.383   6.931
 1922SOL     OW 6664   3.012   3.722   1.984
 1922SOL    HW1 6665   3.014   3.809   2.034
 1922SOL    HW2 6666   2.992   3.647   2.047
 1923SOL     OW 6667   4.081   1.753   6.466
 1923SOL    HW1 6668   4.052   1.709   6.380
 1923SOL    HW2 6669   4.022   1.722   6.540
 1924SOL     OW 6670   4.526   6.687   0.263
 1924SOL    HW1 6671   4.456   6.742   0.308
 1924SOL    HW2 6672   4.617   6.721   0.289
 1925SOL     OW 6673   1.206   5.140   1.211
 1925SOL    HW1 6674   1.243   5.104   1.126
 1925SOL    HW2 6675   1.223   5.238   1.216
 1926SOL     OW 6676   3.296   0.105   2.151
 1926SOL    HW1 6677   3.209   0.091   2.104
 1926SOL    HW2 6678   3.345   0.180   2.108
 1927SOL     OW 6679   2.288   4.430   0.366
 1927SOL    HW1 6680   2.359   4.361   0.350
 1927SOL    HW2 6681   2.231   4.402   0.443
 1928SOL     OW 6682   5.711   4.239   4.746
 1928SOL    HW1 6683   5.681   4.153   4.788
 1928SOL    HW2 6684   5.773   4.218   4.670
 1929SOL     OW 6685   2.341   0.682   1.647
 1929SOL    HW1 6686   2.387   0.701   1.560
 1929SOL    HW2 6687   2.323   0.769   1.694
 1930SOL     OW 6688   5.302   3.335   6.828
 1930SOL    HW1 6689   5.211   3.307   6.858
 1930SOL    HW2 6690   5.312   3.317   6.730
 1931SOL     OW 6691   1.011   1.955   0.158
 1931SOL    HW1 6692   0.966   2.039   0.129
 1931SOL    HW2 6693   0.967   1.877   0.114
 1932SOL     OW 6694   4.781   2.761   3.513
 1932SOL    HW1 6695   4.721   2.834   3.481
 1932SOL    HW2 6696   4.730   2.701   3.574
 1933SOL     OW 6697   1.165   2.822   0.512
 1933SOL    HW1 6698   1.234   2.800   0.581
 1933SOL    HW2 6699   1.133   2.738   0.470
 1934SOL     OW 6700   0.050   1.275   4.888
 1934SOL    HW1 6701   0.061   1.276   4.987
 1934SOL    HW2 6702   7.017   1.196   4.862
 1935SOL     OW 6703   4.228   4.674   4.000
 1935SOL    HW1 6704   4.249   4.583   4.035
 1935SOL    HW2 6705   4.274   4.687   3.912
 1936SOL     OW 6706   4.929   3.696   3.986
 1936SOL    HW1 6707   4.894   3.611   3.947
 1936SOL    HW2 6708   4.894   3.774   3.934
 1937SOL     OW 6709   4.442   6.286   0.102
 1937SOL    HW1 6710   4.541   6.289   0.113
 1937SOL    HW2 6711   4.418   6.300   0.006
 1938SOL     OW 6712   1.851   1.969   1.020
 1938SOL    HW1 6713   1.882   1.944   1.111
 1938SOL    HW2 6714   1.755   1.942   1.009
 1939SOL     OW 6715   6.838   6.463   4.302
 1939SOL    HW1 6716   6.801   6.418   4.384
 1939SOL    HW2 6717   6.915   6.410   4.267
 1940SOL     OW 6718   6.345   4.410   1.140
 1940SOL    HW1 6719   6.412   4.350   1.096
 1940SOL    HW2 6720   6.253   4.376   1.121
 1941SOL     OW 6721   1.595   2.780   3.769
 1941SOL    HW1 6722   1.522   2.767   3.836
 1941SOL    HW2 6723   1.627   2.875   3.772
 1942SOL     OW 6724   5.506   3.650   2.874
 1942SOL    HW1 6725   5.591   3.654   2.926
 1942SOL    HW2 6726   5.512   3.577   2.806
 1943SOL     OW 6727   0.944   0.899   2.436
 1943SOL    HW1 6728   0.959   0.995   2.459
 1943SOL    HW2 6729   0.861   0.866   2.482
 1944SOL     OW 6730   6.101   4.434   0.174
 1944SOL    HW1 6731   6.082   4.526   0.206
 1944SOL    HW2 6732   6.135   4.437   0.080
 1945SOL     OW 6733   3.755   6.090   0.656
 1945SOL    HW1 6734   3.810   6.012   0.625
 1945SOL    HW2 6735   3.778   6.113   0.750
 1946SOL     OW 6736   5.888   6.620   1.370
 1946SOL    HW1 6737   5.864   6.549   1.436
 1946SOL    HW2 6738   5.915   6.577   1.283
 1947SOL     OW 6739   5.883   5.768   4.137
 1947SOL    HW1 6740   5.893   5.668   4.137
 1947SOL    HW2 6741   5.954   5.809   4.193
 1948SOL     OW 6742   5.854   5.261   2.688
 1948SOL    HW1 6743   5.922   5.194   2.718
 1948SOL    HW2 6744   5.881   5.298   2.599
 1949SOL     OW 6745   4.121   3.503   0.303
 1949SOL    HW1 6746   4.119   3.404   0.309
 1949SOL    HW2 6747   4.033   3.537   0.271
 1950SOL     OW 6748   4.076   3.330   3.413
 1950SOL    HW1 6749   4.102   3.402   3.349
 1950SOL    HW2 6750   4.037   3.253   3.363
 1951SOL     OW 6751   6.948   4.337   6.288
 1951SOL    HW1 6752   6.893   4.415   6.259
 1951SOL    HW2 6753   0.022   4.359   6.280
 1952SOL     OW 6754   5.665   5.171   1.137
 1952SOL    HW1 6755   5.594   5.146   1.071
 1952SOL    HW2 6756   5.622   5.189   1.226
 1953SOL     OW 6757   6.657   1.536   6.304
 1953SOL    HW1 6758   6.753   1.535   6.329
 1953SOL    HW2 6759   6.604   1.485   6.372
 1954SOL     OW 6760   5.620   6.801   1.433
 1954SOL    HW1 6761   5.685   6.767   1.501
 1954SOL    HW2 6762   5.670   6.831   1.352
 1955SOL     OW 6763   0.362   1.122   1.577
 1955SOL    HW1 6764   0.271   1.086   1.598
 1955SOL    HW2 6765   0.394   1.084   1.491
 1956SOL     OW 6766   4.532   6.801   2.769
 1956SOL    HW1 6767   4.537   6.713   2.818
 1956SOL    HW2 6768   4.529   6.784   2.671
 1957SOL     OW 6769   5.211   4.248   3.857
 1957SOL    HW1 6770   5.136   4.200   3.904
 1957SOL    HW2 6771   5.294   4.193   3.863
 1958SOL     OW 6772   4.831   1.123   2.147
 1958SOL    HW1 6773   4.789   1.058   2.083
 1958SOL    HW2 6774   4.770   1.140   2.223
 1959SOL     OW 6775   0.012   6.291   3.839
 1959SOL    HW1 6776   0.001   6.292   3.739
 1959SOL    HW2 6777   0.030   6.384   3.872
 1960SOL     OW 6778   0.165   3.555   2.440
 1960SOL    HW1 6779   0.118   3.610   2.509
 1960SOL    HW2 6780   0.098   3.502   2.388
 1961SOL     OW 6781   6.289   4.394   4.695
 1961SOL    HW1 6782   6.268   4.491   4.682
 1961SOL    HW2 6783   6.384   4.384   4.724
 1962SOL     OW 6784   1.109   6.074   2.730
 1962SOL    HW1 6785   1.187   6.066   2.668
 1962SOL    HW2 6786   1.135   6.042   2.821
 1963SOL     OW 6787   1.507   2.094   1.191
 1963SOL    HW1 6788   1.515   2.101   1.092
 1963SOL    HW2 6789   1.553   2.010   1.223
 1964SOL     OW 6790   4.857   4.874   1.858
 1964SOL    HW1 6791   4.927   4.820   1.906
 1964SOL    HW2 6792   4.901   4.929   1.787
 1965SOL     OW 6793   1.835   2.718   4.126
 1965SOL    HW1 6794   1.839   2.679   4.218
 1965SOL    HW2 6795   1.836   2.644   4.059
 1966SOL     OW 6796   1.468   5.277   1.054
 1966SOL    HW1 6797   1.506   5.369   1.048
 1966SOL    HW2 6798   1.421   5.255   0.969
 1967SOL     OW 6799   6.261   2.675   4.477
 1967SOL    HW1 6800   6.270   2.750   4.542
 1967SOL    HW2 6801   6.222   2.595   4.524
 1968SOL     OW 6802   2.717   1.075   5.145
 1968SOL    HW1 6803   2.720   1.070   5.046
 1968SOL    HW2 6804   2.648   1.011   5.180
 1969SOL     OW 6805   3.318   0.678   1.581
 1969SOL    HW1 6806   3.385   0.741   1.621
 1969SOL    HW2 6807   3.227   0.718   1.588
 1970SOL     OW 6808   0.174   0.360   5.539
 1970SOL    HW1 6809   0.177   0.436   5.604
 1970SOL    HW2 6810   0.213   0.278   5.582
 1971SOL     OW 6811   0.477   0.853   5.435
 1971SOL    HW1 6812   0.490   0.758   5.462
 1971SOL    HW2 6813   0.442   0.857   5.341
 1972SOL     OW 6814   5.890   2.610   1.476
 1972SOL    HW1 6815   5.921   2.517   1.455
 1972SOL    HW2 6816   5.884   2.621   1.575
 1973SOL     OW 6817   2.622   4.209   1.719
 1973SOL    HW1 6818   2.628   4.186   1.622
 1973SOL    HW2 6819   2.580   4.300   1.729
 1974SOL     OW 6820   4.373   6.941   4.743
 1974SOL    HW1 6821   4.461   6.988   4.740
 1974SOL    HW2 6822   4.387   6.843   4.730
 1975SOL     OW 6823   2.233   2.233   4.013
 1975SOL    HW1 6824   2.171   2.310   4.030
 1975SOL    HW2 6825   2.321   2.251   4.056
 1976SOL     OW 6826   5.179   6.466   6.651
 1976SOL    HW1 6827   5.179   6.519   6.566
 1976SOL    HW2 6828   5.263   6.412   6.657
 1977SOL     OW 6829   2.043   3.007   5.225
 1977SOL    HW1 6830   2.136   3.038   5.247
 1977SOL    HW2 6831   2.042   2.908   5.216
 1978SOL     OW 6832   1.657   6.032   2.539
 1978SOL    HW1 6833   1.722   5.955   2.542
 1978SOL    HW2 6834   1.629   6.047   2.445
 1979SOL     OW 6835   5.400   5.312   0.018
 1979SOL    HW1 6836   5.496   5.332   0.040
 1979SOL    HW2 6837   5.389   5.305   6.942
 1980SOL     OW 6838   3.727   0.576   2.827
 1980SOL    HW1 6839   3.651   0.576   2.893
 1980SOL    HW2 6840   3.810   0.545   2.873
 1981SOL     OW 6841   5.513   2.620   2.334
 1981SOL    HW1 6842   5.467   2.589   2.417
 1981SOL    HW2 6843   5.603   2.576   2.327
 1982SOL     OW 6844   6.615   3.989   3.600
 1982SOL    HW1 6845   6.565   3.972   3.516
 1982SOL    HW2 6846   6.712   3.969   3.586
 1983SOL     OW 6847   0.926   0.296   1.468
 1983SOL    HW1 6848   0.902   0.364   1.537
 1983SOL    HW2 6849   0.927   0.340   1.378
 1984SOL     OW 6850   4.782   2.427   5.370
 1984SOL    HW1 6851   4.722   2.347   5.363
 1984SOL    HW2 6852   4.789   2.453   5.466
 1985SOL     OW 6853   6.755   5.678   2.384
 1985SOL    HW1 6854   6.757   5.720   2.293
 1985SOL    HW2 6855   6.821   5.724   2.444
 1986SOL     OW 6856   2.749   1.527   5.842
 1986SOL    HW1 6857   2.824   1.571   5.792
 1986SOL    HW2 6858   2.778   1.436   5.872
 1987SOL     OW 6859   1.989   1.616   3.758
 1987SOL    HW1 6860   1.988   1.661   3.848
 1987SOL    HW2 6861   2.017   1.682   3.689
 1988SOL     OW 6862   0.244   1.657   0.932
 1988SOL    HW1 6863   0.242   1.757   0.940
 1988SOL    HW2 6864   0.256   1.617   1.023
 1989SOL     OW 6865   2.415   5.969   3.877
 1989SOL    HW1 6866   2.373   6.036   3.816
 1989SOL    HW2 6867   2.351   5.894   3.894
 1990SOL     OW 6868   3.584   0.060   0.691
 1990SOL    HW1 6869   3.539   7.012   0.637
 1990SOL    HW2 6870   3.656   0.103   0.637
 1991SOL     OW 6871   2.292   5.071   0.168
 1991SOL    HW1 6872   2.201   5.073   0.211
 1991SOL    HW2 6873   2.319   5.163   0.143
 1992SOL     OW 6874   6.683   0.335   0.532
 1992SOL    HW1 6875   6.649   0.311   0.623
 1992SOL    HW2 6876   6.612   0.386   0.482
 1993SOL     OW 6877   3.721   2.056   4.662
 1993SOL    HW1 6878   3.789   2.104   4.717
 1993SOL    HW2 6879   3.633   2.057   4.710
 1994SOL     OW 6880   4.790   1.746   1.008
 1994SOL    HW1 6881   4.796   1.814   0.935
 1994SOL    HW2 6882   4.882   1.728   1.044
 1995SOL     OW 6883   5.501   3.459   4.282
 1995SOL    HW1 6884   5.431   3.388   4.295
 1995SOL    HW2 6885   5.580   3.420   4.236
 1996SOL     OW 6886   2.368   1.447   1.101
 1996SOL    HW1 6887   2.321   1.430   1.015
 1996SOL    HW2 6888   2.354   1.370   1.164
 1997SOL     OW 6889   3.043   1.439   3.883
 1997SOL    HW1 6890   3.046   1.511   3.953
 1997SOL    HW2 6891   3.129   1.390   3.882
 1998SOL     OW 6892   1.558   3.898   0.787
 1998SOL    HW1 6893   1.523   3.970   0.846
 1998SOL    HW2 6894   1.616   3.835   0.840
 1999SOL     OW 6895   0.514   0.588   4.507
 1999SOL    HW1 6896   0.610   0.561   4.507
 1999SOL    HW2 6897   0.495   0.640   4.591
 2000SOL     OW 6898   4.235   3.424   6.326
 2000SOL    HW1 6899   4.179   3.344   6.301
 2000SOL    HW2 6900   4.245   3.484   6.247
 2001SOL     OW 6901   1.591   1.670   7.023
 2001SOL    HW1 6902   1.685   1.694   0.021
 2001SOL    HW2 6903   1.529   1.735   0.044
 2002SOL     OW 6904   0.826   5.819   1.153
 2002SOL    HW1 6905   0.902   5.867   1.197
 2002SOL    HW2 6906   0.765   5.885   1.109
 2003SOL     OW 6907   6.795   5.293   1.886
 2003SOL    HW1 6908   6.836   5.278   1.797
 2003SOL    HW2 6909   6.842   5.238   1.955
 2004SOL     OW 6910   4.389   1.064   4.724
 2004SOL    HW1 6911   4.352   1.146   4.767
 2004SOL    HW2 6912   4.488   1.073   4.715
 2005SOL     OW 6913   6.763   5.080   6.807
 2005SOL    HW1 6914   6.840   5.042   6.756
 2005SOL    HW2 6915   6.736   5.168   6.768
 2006SOL     OW 6916   5.644   6.815   4.230
 2006SOL    HW1 6917   5.618   6.744   4.296
 2006SOL    HW2 6918   5.585   6.808   4.149
 2007SOL     OW 6919   5.490   3.981   1.333
 2007SOL    HW1 6920   5.466   3.889   1.364
 2007SOL    HW2 6921   5.438   4.049   1.385
 2008SOL     OW 6922   2.164   3.356   3.911
 2008SOL    HW1 6923   2.232   3.393   3.975
 2008SOL    HW2 6924   2.117   3.278   3.953
 2009SOL     OW 6925   5.372   6.530   2.202
 2009SOL    HW1 6926   5.328   6.584   2.130
 2009SOL    HW2 6927   5.303   6.477   2.251
 2010SOL     OW 6928   1.492   2.048   1.551
 2010SOL    HW1 6929   1.576   2.077   1.598
 2010SOL    HW2 6930   1.441   2.130   1.522
 2011SOL     OW 6931   0.145   0.667   4.964
 2011SOL    HW1 6932   0.099   0.667   5.052
 2011SOL    HW2 6933   0.078   0.657   4.891
 2012SOL     OW 6934   1.294   3.743   1.950
 2012SOL    HW1 6935   1.382   3.764   1.991
 2012SOL    HW2 6936   1.307   3.713   1.856
 2013SOL     OW 6937   6.822   3.351   3.228
 2013SOL    HW1 6938   6.850   3.396   3.142
 2013SOL    HW2 6939   6.902   3.338   3.286
 2014SOL     OW 6940   2.939   0.301   3.001
 2014SOL    HW1 6941   2.885   0.382   3.022
 2014SOL    HW2 6942   3.030   0.310   3.040
 2015SOL     OW 6943   3.378   6.389   1.227
 2015SOL    HW1 6944   3.475   6.385   1.200
 2015SOL    HW2 6945   3.350   6.484   1.236
 2016SOL     OW 6946   1.775   5.516   5.350
 2016SOL    HW1 6947   1.760   5.452   5.275
 2016SOL    HW2 6948   1.870   5.547   5.348
 2017SOL     OW 6949   4.131   0.609   3.523
 2017SOL    HW1 6950   4.205   0.581   3.463
 2017SOL    HW2 6951   4.047   0.561   3.497
 2018SOL     OW 6952   6.782   2.500   4.000
 2018SOL    HW1 6953   6.796   2.593   3.966
 2018SOL    HW2 6954   6.869   2.461   4.028
 2019SOL     OW 6955   6.104   4.163   6.189
 2019SOL    HW1 6956   6.031   4.159   6.257
 2019SOL    HW2 6957   6.167   4.086   6.202
 2020SOL     OW 6958   1.821   6.331   5.964
 2020SOL    HW1 6959   1.835   6.270   5.886
 2020SOL    HW2 6960   1.764   6.286   6.032
 2021SOL     OW 6961   5.917   6.739   3.691
 2021SOL    HW1 6962   5.984   6.806   3.724
 2021SOL    HW2 6963   5.918   6.737   3.591
 2022SOL     OW 6964   2.117   4.766   4.633
 2022SOL    HW1 6965   2.184   4.786   4.562
 2022SOL    HW2 6966   2.125   4.834   4.707
 2023SOL     OW 6967   0.199   7.007   6.657
 2023SOL    HW1 6968   0.208   0.049   6.732
 2023SOL    HW2 6969   0.269   0.002   6.589
 2024SOL     OW 6970   0.073   5.778   3.909
 2024SOL    HW1 6971   0.159   5.758   3.956
 2024SOL    HW2 6972   0.071   5.875   3.883
 2025SOL     OW 6973   3.068   0.801   3.428
 2025SOL    HW1 6974   3.113   0.884   3.395
 2025SOL    HW2 6975   2.974   0.823   3.456
 2026SOL     OW 6976   6.418   2.071   6.684
 2026SOL    HW1 6977   6.505   2.053   6.731
 2026SOL    HW2 6978   6.406   2.005   6.610
 2027SOL     OW 6979   0.619   6.478   1.575
 2027SOL    HW1 6980   0.596   6.563   1.527
 2027SOL    HW2 6981   0.601   6.488   1.673
 2028SOL     OW 6982   3.584   5.986   2.923
 2028SOL    HW1 6983   3.553   5.906   2.974
 2028SOL    HW2 6984   3.505   6.040   2.895
 2029SOL     OW 6985   6.691   2.139   0.246
 2029SOL    HW1 6986   6.695   2.081   0.164
 2029SOL    HW2 6987   6.597   2.172   0.259
 2030SOL     OW 6988   3.126   6.664   2.273
 2030SOL    HW1 6989   3.220   6.678   2.242
 2030SOL    HW2 6990   3.065   6.722   2.219
 2031SOL     OW 6991   6.753   6.096   2.471
 2031SOL    HW1 6992   6.827   6.034   2.444
 2031SOL    HW2 6993   6.733   6.083   2.568
 2032SOL     OW 6994   3.402   1.139   0.821
 2032SOL    HW1 6995   3.361   1.229   0.837
 2032SOL    HW2 6996   3.478   1.147   0.757
 2033SOL     OW 6997   1.665   1.253   0.682
 2033SOL    HW1 6998   1.645   1.168   0.730
 2033SOL    HW2 6999   1.715   1.314   0.742
 2034SOL     OW 7000   1.912   5.122   5.511
 2034SOL    HW1 7001   1.879   5.073   5.592
 2034SOL    HW2 7002   1.849   5.105   5.435
 2035SOL     OW 7003   6.533   6.532   2.287
 2035SOL    HW1 7004   6.508   6.459   2.351
 2035SOL    HW2 7005   6.478   6.524   2.204
 2036SOL     OW 7006   1.584   3.406   3.186
 2036SOL    HW1 7007   1.673   3.406   3.139
 2036SOL    HW2 7008   1.524   3.474   3.144
 2037SOL     OW 7009   6.659   2.707   6.239
 2037SOL    HW1 7010   6.634   2.798   6.208
 2037SOL    HW2 7011   6.591   2.641   6.208
 2038SOL     OW 7012   2.894   1.107   6.964
 2038SOL    HW1 7013   2.838   1.127   6.884
 2038SOL    HW2 7014   2.835   1.096   0.021
 2039SOL     OW 7015   6.956   5.759   2.572
 2039SOL    HW1 7016   7.014   5.816   2.514
 2039SOL    HW2 7017   7.007   5.678   2.601
 2040SOL     OW 7018   1.941   2.184   6.999
 2040SOL    HW1 7019   2.033   2.183   0.013
 2040SOL    HW2 7020   1.934   2.114   6.927
 2041SOL     OW 7021   1.403   0.168   5.345
 2041SOL    HW1 7022   1.347   0.249   5.362
 2041SOL    HW2 7023   1.465   0.185   5.269
 2042SOL     OW 7024   4.637   6.916   6.073
 2042SOL    HW1 7025   4.714   6.967   6.111
 2042SOL    HW2 7026   4.552   6.945   6.118
 2043SOL     OW 7027   6.235   2.471   2.421
 2043SOL    HW1 7028   6.290   2.467   2.505
 2043SOL    HW2 7029   6.258   2.553   2.370
 2044SOL     OW 7030   5.908   0.994   1.646
 2044SOL    HW1 7031   5.944   0.901   1.649
 2044SOL    HW2 7032   5.831   1.002   1.710
 2045SOL     OW 7033   1.525   5.936   4.751
 2045SOL    HW1 7034   1.433   5.952   4.784
 2045SOL    HW2 7035   1.525   5.934   4.651
 2046SOL     OW 7036   6.623   2.173   5.623
 2046SOL    HW1 7037   6.680   2.148   5.701
 2046SOL    HW2 7038   6.669   2.244   5.569
 2047SOL     OW 7039   6.199   1.949   1.281
 2047SOL    HW1 7040   6.245   1.977   1.196
 2047SOL    HW2 7041   6.240   1.864   1.314
 2048SOL     OW 7042   0.412   1.623   4.886
 2048SOL    HW1 7043   0.366   1.584   4.806
 2048SOL    HW2 7044   0.508   1.597   4.885
 2049SOL     OW 7045   4.834   1.521   4.612
 2049SOL    HW1 7046   4.810   1.614   4.639
 2049SOL    HW2 7047   4.863   1.470   4.693
 2050SOL     OW 7048   6.971   2.191   5.314
 2050SOL    HW1 7049   0.015   2.215   5.244
 2050SOL    HW2 7050   7.018   2.161   5.397
 2051SOL     OW 7051   2.223   5.927   7.013
 2051SOL    HW1 7052   2.261   5.998   6.954
 2051SOL    HW2 7053   2.266   5.840   6.991
 2052SOL     OW 7054   1.268   3.081   0.923
 2052SOL    HW1 7055   1.276   3.129   1.010
 2052SOL    HW2 7056   1.192   3.016   0.927
 2053SOL     OW 7057   0.397   5.610   4.281
 2053SOL    HW1 7058   0.443   5.521   4.287
 2053SOL    HW2 7059   0.420   5.665   4.361
 2054SOL     OW 7060   3.134   3.018   2.907
 2054SOL    HW1 7061   3.232   3.028   2.927
 2054SOL    HW2 7062   3.113   3.060   2.819
 2055SOL     OW 7063   6.904   2.746   5.342
 2055SOL    HW1 7064   6.845   2.826   5.335
 2055SOL    HW2 7065   6.914   2.704   5.252
 2056SOL     OW 7066   4.441   4.744   1.243
 2056SOL    HW1 7067   4.371   4.687   1.285
 2056SOL    HW2 7068   4.489   4.692   1.172
 2057SOL     OW 7069   5.314   2.992   4.618
 2057SOL    HW1 7070   5.251   2.949   4.553
 2057SOL    HW2 7071   5.262   3.032   4.693
 2058SOL     OW 7072   0.554   6.909   2.642
 2058SOL    HW1 7073   0.570   6.811   2.627
 2058SOL    HW2 7074   0.538   6.954   2.555
 2059SOL     OW 7075   2.581   0.874   5.270
 2059SOL    HW1 7076   2.512   0.884   5.342
 2059SOL    HW2 7077   2.595   0.777   5.251
 2060SOL     OW 7078   0.767   3.109   1.007
 2060SOL    HW1 7079   0.699   3.039   1.026
 2060SOL    HW2 7080   0.745   3.155   0.921
 2061SOL     OW 7081   1.916   2.816   2.280
 2061SOL    HW1 7082   2.002   2.854   2.244
 2061SOL    HW2 7083   1.839   2.867   2.242
 2062SOL     OW 7084   6.827   5.230   5.654
 2062SOL    HW1 7085   6.875   5.207   5.570
 2062SOL    HW2 7086   6.883   5.202   5.733
 2063SOL     OW 7087   1.659   6.392   4.722
 2063SOL    HW1 7088   1.716   6.445   4.785
 2063SOL    HW2 7089   1.717   6.335   4.664
 2064SOL     OW 7090   1.308   3.615   4.230
 2064SOL    HW1 7091   1.291   3.636   4.133
 2064SOL    HW2 7092   1.329   3.518   4.240
 2065SOL     OW 7093   5.475   3.047   6.193
 2065SOL    HW1 7094   5.528   2.971   6.154
 2065SOL    HW2 7095   5.379   3.037   6.168
 2066SOL     OW 7096   6.747   3.718   5.623
 2066SOL    HW1 7097   6.656   3.678   5.621
 2066SOL    HW2 7098   6.756   3.785   5.548
 2067SOL     OW 7099   6.236   4.701   1.839
 2067SOL    HW1 7100   6.154   4.711   1.896
 2067SOL    HW2 7101   6.244   4.606   1.810
 2068SOL     OW 7102   3.532   1.271   4.025
 2068SOL    HW1 7103   3.457   1.331   4.053
 2068SOL    HW2 7104   3.605   1.326   3.983
 2069SOL     OW 7105   0.043   1.897   4.409
 2069SOL    HW1 7106   0.000   1.838   4.340
 2069SOL    HW2 7107   0.118   1.948   4.367
 2070SOL     OW 7108   1.426   2.763   0.922
 2070SOL    HW1 7109   1.381   2.799   1.005
 2070SOL    HW2 7110   1.517   2.803   0.914
 2071SOL     OW 7111   6.087   1.674   6.216
 2071SOL    HW1 7112   6.012   1.641   6.272
 2071SOL    HW2 7113   6.129   1.597   6.167
 2072SOL     OW 7114   3.920   4.729   5.669
 2072SOL    HW1 7115   3.907   4.821   5.632
 2072SOL    HW2 7116   3.831   4.684   5.677
 2073SOL     OW 7117   3.730   6.082   6.158
 2073SOL    HW1 7118   3.807   6.030   6.195
 2073SOL    HW2 7119   3.645   6.047   6.197
 2074SOL     OW 7120   1.746   2.795   6.146
 2074SOL    HW1 7121   1.657   2.766   6.111
 2074SOL    HW2 7122   1.744   2.799   6.246
 2075SOL     OW 7123   6.407   2.022   2.584
 2075SOL    HW1 7124   6.481   2.066   2.634
 2075SOL    HW2 7125   6.376   2.083   2.510
 2076SOL     OW 7126   6.234   6.966   4.938
 2076SOL    HW1 7127   6.202   6.922   4.854
 2076SOL    HW2 7128   6.272   0.033   4.915
 2077SOL     OW 7129   6.824   2.241   1.818
 2077SOL    HW1 7130   6.831   2.329   1.864
 2077SOL    HW2 7131   6.797   2.171   1.883
 2078SOL     OW 7132   1.597   4.974   6.063
 2078SOL    HW1 7133   1.630   4.976   6.157
 2078SOL    HW2 7134   1.610   4.883   6.024
 2079SOL     OW 7135   5.556   0.856   2.276
 2079SOL    HW1 7136   5.578   0.817   2.187
 2079SOL    HW2 7137   5.550   0.955   2.269
 2080SOL     OW 7138   3.368   2.094   4.450
 2080SOL    HW1 7139   3.381   1.998   4.472
 2080SOL    HW2 7140   3.316   2.138   4.523
 2081SOL     OW 7141   0.712   6.482   3.304
 2081SOL    HW1 7142   0.626   6.445   3.269
 2081SOL    HW2 7143   0.693   6.553   3.371
 2082SOL     OW 7144   0.832   6.102   2.952
 2082SOL    HW1 7145   0.787   6.063   2.872
 2082SOL    HW2 7146   0.791   6.190   2.974
 2083SOL     OW 7147   0.475   5.683   3.850
 2083SOL    HW1 7148   0.542   5.611   3.866
 2083SOL    HW2 7149   0.418   5.658   3.771
 2084SOL     OW 7150   1.580   1.927   0.918
 2084SOL    HW1 7151   1.516   1.852   0.904
 2084SOL    HW2 7152   1.592   1.977   0.832
 2085SOL     OW 7153   4.720   5.635   0.497
 2085SOL    HW1 7154   4.728   5.674   0.589
 2085SOL    HW2 7155   4.762   5.544   0.496
 2086SOL     OW 7156   3.255   6.495   0.096
 2086SOL    HW1 7157   3.177   6.546   0.132
 2086SOL    HW2 7158   3.254   6.403   0.134
 2087SOL     OW 7159   4.281   2.194   6.969
 2087SOL    HW1 7160   4.262   2.257   6.894
 2087SOL    HW2 7161   4.207   2.127   6.975
 2088SOL     OW 7162   0.872   5.881   5.698
 2088SOL    HW1 7163   0.902   5.943   5.771
 2088SOL    HW2 7164   0.927   5.898   5.616
 2089SOL     OW 7165   3.985   2.662   5.333
 2089SOL    HW1 7166   4.037   2.613   5.264
 2089SOL    HW2 7167   3.958   2.752   5.298
 2090SOL     OW 7168   4.294   3.351   5.741
 2090SOL    HW1 7169   4.248   3.415   5.680
 2090SOL    HW2 7170   4.231   3.276   5.763
 2091SOL     OW 7171   6.909   6.023   1.395
 2091SOL    HW1 7172   6.903   6.105   1.451
 2091SOL    HW2 7173   6.957   6.043   1.310
 2092SOL     OW 7174   5.167   3.600   1.250
 2092SOL    HW1 7175   5.189   3.532   1.320
 2092SOL    HW2 7176   5.156   3.554   1.161
 2093SOL     OW 7177   3.729   2.078   2.268
 2093SOL    HW1 7178   3.694   2.119   2.184
 2093SOL    HW2 7179   3.682   2.117   2.346
 2094SOL     OW 7180   6.106   2.705   0.294
 2094SOL    HW1 7181   6.154   2.676   0.211
 2094SOL    HW2 7182   6.054   2.788   0.275
 2095SOL     OW 7183   5.837   6.116   3.264
 2095SOL    HW1 7184   5.889   6.132   3.348
 2095SOL    HW2 7185   5.766   6.048   3.282
 2096SOL     OW 7186   4.586   6.089   2.995
 2096SOL    HW1 7187   4.497   6.119   2.961
 2096SOL    HW2 7188   4.593   6.109   3.092
 2097SOL     OW 7189   3.086   4.230   6.399
 2097SOL    HW1 7190   3.029   4.298   6.446
 2097SOL    HW2 7191   3.181   4.261   6.399
 2098SOL     OW 7192   3.932   6.181   3.541
 2098SOL    HW1 7193   3.921   6.275   3.572
 2098SOL    HW2 7194   3.849   6.129   3.559
 2099SOL     OW 7195   4.108   1.854   0.109
 2099SOL    HW1 7196   4.119   1.872   0.206
 2099SOL    HW2 7197   4.010   1.846   0.088
 2100SOL     OW 7198   5.100   1.098   0.510
 2100SOL    HW1 7199   5.196   1.092   0.485
 2100SOL    HW2 7200   5.065   1.007   0.531
 2101SOL     OW 7201   0.342   6.201   0.783
 2101SOL    HW1 7202   0.437   6.187   0.754
 2101SOL    HW2 7203   0.338   6.267   0.857
 2102SOL     OW 7204   3.863   3.588   1.467
 2102SOL    HW1 7205   3.932   3.623   1.403
 2102SOL    HW2 7206   3.834   3.662   1.528
 2103SOL     OW 7207   3.319   4.478   0.345
 2103SOL    HW1 7208   3.382   4.524   0.407
 2103SOL    HW2 7209   3.275   4.401   0.393
 2104SOL     OW 7210   1.844   4.751   2.373
 2104SOL    HW1 7211   1.775   4.802   2.322
 2104SOL    HW2 7212   1.805   4.717   2.459
 2105SOL     OW 7213   4.659   4.373   0.576
 2105SOL    HW1 7214   4.602   4.454   0.588
 2105SOL    HW2 7215   4.600   4.292   0.571
 2106SOL     OW 7216   5.352   3.711   1.417
 2106SOL    HW1 7217   5.407   3.642   1.465
 2106SOL    HW2 7218   5.292   3.664   1.351
 2107SOL     OW 7219   5.435   3.512   6.084
 2107SOL    HW1 7220   5.535   3.512   6.077
 2107SOL    HW2 7221   5.399   3.597   6.045
 2108SOL     OW 7222   5.794   6.490   6.060
 2108SOL    HW1 7223   5.720   6.515   5.998
 2108SOL    HW2 7224   5.882   6.513   6.019
 2109SOL     OW 7225   3.004   5.014   2.212
 2109SOL    HW1 7226   2.941   5.020   2.135
 2109SOL    HW2 7227   3.024   5.106   2.247
 2110SOL     OW 7228   4.076   0.671   6.690
 2110SOL    HW1 7229   4.065   0.649   6.593
 2110SOL    HW2 7230   4.148   0.739   6.701
 2111SOL     OW 7231   1.218   2.212   5.770
 2111SOL    HW1 7232   1.216   2.280   5.844
 2111SOL    HW2 7233   1.313   2.184   5.754
 2112SOL     OW 7234   5.872   1.582   6.850
 2112SOL    HW1 7235   5.910   1.491   6.865
 2112SOL    HW2 7236   5.850   1.624   6.938
 2113SOL     OW 7237   2.351   6.172   4.112
 2113SOL    HW1 7238   2.416   6.149   4.040
 2113SOL    HW2 7239   2.398   6.224   4.183
 2114SOL     OW 7240   2.748   3.016   0.423
 2114SOL    HW1 7241   2.719   3.080   0.495
 2114SOL    HW2 7242   2.839   3.043   0.391
 2115SOL     OW 7243   1.248   4.308   2.220
 2115SOL    HW1 7244   1.344   4.324   2.198
 2115SOL    HW2 7245   1.190   4.348   2.149
 2116SOL     OW 7246   0.620   2.683   0.981
 2116SOL    HW1 7247   0.651   2.669   0.887
 2116SOL    HW2 7248   0.698   2.703   1.040
 2117SOL     OW 7249   5.820   3.119   1.848
 2117SOL    HW1 7250   5.798   3.063   1.928
 2117SOL    HW2 7251   5.790   3.213   1.863
 2118SOL     OW 7252   6.653   3.858   2.513
 2118SOL    HW1 7253   6.670   3.926   2.442
 2118SOL    HW2 7254   6.602   3.781   2.475
 2119SOL     OW 7255   2.068   0.380   6.716
 2119SOL    HW1 7256   1.976   0.343   6.726
 2119SOL    HW2 7257   2.121   0.363   6.800
 2120SOL     OW 7258   6.500   2.001   2.858
 2120SOL    HW1 7259   6.495   1.920   2.800
 2120SOL    HW2 7260   6.595   2.031   2.865
 2121SOL     OW 7261   1.986   1.327   5.899
 2121SOL    HW1 7262   1.934   1.412   5.891
 2121SOL    HW2 7263   2.004   1.290   5.807
 2122SOL     OW 7264   5.686   0.055   5.552
 2122SOL    HW1 7265   5.764   0.047   5.489
 2122SOL    HW2 7266   5.684   0.147   5.590
 2123SOL     OW 7267   0.127   6.554   2.492
 2123SOL    HW1 7268   0.148   6.637   2.440
 2123SOL    HW2 7269   0.044   6.512   2.456
 2124SOL     OW 7270   2.999   2.724   5.678
 2124SOL    HW1 7271   3.067   2.795   5.657
 2124SOL    HW2 7272   3.013   2.646   5.617
 2125SOL     OW 7273   1.699   6.022   3.286
 2125SOL    HW1 7274   1.777   6.035   3.347
 2125SOL    HW2 7275   1.616   6.057   3.331
 2126SOL     OW 7276   3.770   3.302   0.523
 2126SOL    HW1 7277   3.678   3.340   0.510
 2126SOL    HW2 7278   3.777   3.261   0.614
 2127SOL     OW 7279   6.901   2.707   6.122
 2127SOL    HW1 7280   6.942   2.798   6.123
 2127SOL    HW2 7281   6.815   2.708   6.172
 2128SOL     OW 7282   5.632   3.844   0.923
 2128SOL    HW1 7283   5.656   3.871   1.016
 2128SOL    HW2 7284   5.675   3.756   0.902
 2129SOL     OW 7285   5.015   4.070   3.981
 2129SOL    HW1 7286   5.035   4.017   3.899
 2129SOL    HW2 7287   5.079   4.045   4.053
 2130SOL     OW 7288   2.453   1.870   1.604
 2130SOL    HW1 7289   2.443   1.782   1.650
 2130SOL    HW2 7290   2.539   1.913   1.631
 2131SOL     OW 7291   5.222   2.023   6.097
 2131SOL    HW1 7292   5.273   1.979   6.171
 2131SOL    HW2 7293   5.177   1.953   6.041
 2132SOL     OW 7294   3.031   1.471   6.377
 2132SOL    HW1 7295   3.122   1.454   6.415
 2132SOL    HW2 7296   3.028   1.438   6.282
 2133SOL     OW 7297   2.618   1.782   1.174
 2133SOL    HW1 7298   2.569   1.780   1.087
 2133SOL    HW2 7299   2.581   1.856   1.231
 2134SOL     OW 7300   0.328   0.212   3.962
 2134SOL    HW1 7301   0.239   0.170   3.978
 2134SOL    HW2 7302   0.316   0.301   3.918
 2135SOL     OW 7303   0.341   2.085   3.969
 2135SOL    HW1 7304   0.286   2.100   3.886
 2135SOL    HW2 7305   0.405   2.010   3.953
 2136SOL     OW 7306   1.256   3.405   5.009
 2136SOL    HW1 7307   1.347   3.368   5.025
 2136SOL    HW2 7308   1.202   3.400   5.093
 2137SOL     OW 7309   0.784   6.640   5.307
 2137SOL    HW1 7310   0.784   6.732   5.268
 2137SOL    HW2 7311   0.749   6.642   5.400
 2138SOL     OW 7312   6.726   2.212   1.578
 2138SOL    HW1 7313   6.748   2.216   1.675
 2138SOL    HW2 7314   6.784   2.144   1.533
 2139SOL     OW 7315   2.833   0.508   3.748
 2139SOL    HW1 7316   2.780   0.547   3.823
 2139SOL    HW2 7317   2.793   0.537   3.661
 2140SOL     OW 7318   2.403   6.367   2.780
 2140SOL    HW1 7319   2.477   6.428   2.808
 2140SOL    HW2 7320   2.440   6.277   2.758
 2141SOL     OW 7321   6.871   2.787   1.064
 2141SOL    HW1 7322   6.884   2.688   1.056
 2141SOL    HW2 7323   6.860   2.812   1.160
 2142SOL     OW 7324   1.745   1.988   3.262
 2142SOL    HW1 7325   1.651   1.966   3.237
 2142SOL    HW2 7326   1.785   2.050   3.194
 2143SOL     OW 7327   4.057   6.258   1.214
 2143SOL    HW1 7328   4.117   6.193   1.166
 2143SOL    HW2 7329   4.068   6.247   1.313
 2144SOL     OW 7330   1.054   0.782   2.992
 2144SOL    HW1 7331   0.983   0.851   3.005
 2144SOL    HW2 7332   1.091   0.754   3.080
 2145SOL     OW 7333   3.124   5.705   3.627
 2145SOL    HW1 7334   3.141   5.608   3.643
 2145SOL    HW2 7335   3.097   5.748   3.714
 2146SOL     OW 7336   3.000   3.956   2.168
 2146SOL    HW1 7337   3.058   4.037   2.164
 2146SOL    HW2 7338   2.904   3.983   2.177
 2147SOL     OW 7339   0.096   1.767   0.100
 2147SOL    HW1 7340   0.098   1.687   0.040
 2147SOL    HW2 7341   0.186   1.780   0.141
 2148SOL     OW 7342   4.862   3.642   3.613
 2148SOL    HW1 7343   4.931   3.660   3.543
 2148SOL    HW2 7344   4.850   3.544   3.623
 2149SOL     OW 7345   3.777   0.522   1.730
 2149SOL    HW1 7346   3.731   0.582   1.795
 2149SOL    HW2 7347   3.829   0.577   1.665
 2150SOL     OW 7348   3.771   2.063   2.688
 2150SOL    HW1 7349   3.841   2.028   2.626
 2150SOL    HW2 7350   3.681   2.053   2.645
 2151SOL     OW 7351   3.553   2.566   5.591
 2151SOL    HW1 7352   3.548   2.542   5.688
 2151SOL    HW2 7353   3.502   2.498   5.538
 2152SOL     OW 7354   6.044   6.275   2.150
 2152SOL    HW1 7355   6.065   6.368   2.119
 2152SOL    HW2 7356   6.083   6.261   2.241
 2153SOL     OW 7357   4.747   1.543   3.921
 2153SOL    HW1 7358   4.809   1.545   3.999
 2153SOL    HW2 7359   4.652   1.535   3.953
 2154SOL     OW 7360   2.906   5.920   4.845
 2154SOL    HW1 7361   2.938   5.828   4.820
 2154SOL    HW2 7362   2.811   5.931   4.816
 2155SOL     OW 7363   2.039   5.066   0.261
 2155SOL    HW1 7364   2.021   5.020   0.174
 2155SOL    HW2 7365   2.016   5.163   0.253
 2156SOL     OW 7366   1.919   0.572   1.070
 2156SOL    HW1 7367   1.940   0.492   1.013
 2156SOL    HW2 7368   1.920   0.545   1.166
 2157SOL     OW 7369   6.707   1.225   5.039
 2157SOL    HW1 7370   6.764   1.306   5.040
 2157SOL    HW2 7371   6.683   1.200   5.133
 2158SOL     OW 7372   3.357   6.692   0.734
 2158SOL    HW1 7373   3.313   6.661   0.650
 2158SOL    HW2 7374   3.323   6.639   0.812
 2159SOL     OW 7375   1.320   6.559   4.884
 2159SOL    HW1 7376   1.401   6.525   4.932
 2159SOL    HW2 7377   1.318   6.659   4.888
 2160SOL     OW 7378   4.015   4.144   1.372
 2160SOL    HW1 7379   4.086   4.208   1.343
 2160SOL    HW2 7380   4.021   4.061   1.316
 2161SOL     OW 7381   4.988   3.624   3.372
 2161SOL    HW1 7382   4.922   3.550   3.358
 2161SOL    HW2 7383   5.077   3.597   3.337
 2162SOL     OW 7384   2.434   0.478   6.483
 2162SOL    HW1 7385   2.384   0.542   6.424
 2162SOL    HW2 7386   2.370   0.434   6.546
 2163SOL     OW 7387   1.382   0.436   6.699
 2163SOL    HW1 7388   1.341   0.390   6.621
 2163SOL    HW2 7389   1.312   0.486   6.750
 2164SOL     OW 7390   2.295   0.592   6.107
 2164SOL    HW1 7391   2.392   0.582   6.086
 2164SOL    HW2 7392   2.283   0.657   6.183
 2165SOL     OW 7393   1.500   0.934   2.954
 2165SOL    HW1 7394   1.446   0.893   2.881
 2165SOL    HW2 7395   1.596   0.909   2.943
 2166SOL     OW 7396   1.469   2.231   5.692
 2166SOL    HW1 7397   1.508   2.323   5.702
 2166SOL    HW2 7398   1.489   2.198   5.599
 2167SOL     OW 7399   2.645   0.590   2.078
 2167SOL    HW1 7400   2.621   0.671   2.024
 2167SOL    HW2 7401   2.744   0.574   2.073
 2168SOL     OW 7402   6.356   3.069   5.211
 2168SOL    HW1 7403   6.432   3.083   5.148
 2168SOL    HW2 7404   6.292   3.146   5.204
 2169SOL     OW 7405   5.939   2.966   6.296
 2169SOL    HW1 7406   5.876   3.030   6.340
 2169SOL    HW2 7407   5.955   2.995   6.201
 2170SOL     OW 7408   5.146   4.352   4.927
 2170SOL    HW1 7409   5.060   4.381   4.968
 2170SOL    HW2 7410   5.182   4.273   4.978
 2171SOL     OW 7411   6.655   2.816   0.088
 2171SOL    HW1 7412   6.563   2.822   0.048
 2171SOL    HW2 7413   6.647   2.801   0.186
 2172SOL     OW 7414   3.015   0.796   0.453
 2172SOL    HW1 7415   3.002   0.895   0.445
 2172SOL    HW2 7416   3.070   0.777   0.534
 2173SOL     OW 7417   4.307   0.190   5.850
 2173SOL    HW1 7418   4.230   0.210   5.910
 2173SOL    HW2 7419   4.365   0.271   5.841
 2174SOL     OW 7420   6.737   4.080   5.492
 2174SOL    HW1 7421   6.770   4.056   5.583
 2174SOL    HW2 7422   6.781   4.165   5.463
 2175SOL     OW 7423   3.323   0.420   2.643
 2175SOL    HW1 7424   3.250   0.403   2.577
 2175SOL    HW2 7425   3.382   0.339   2.649
 2176SOL     OW 7426   2.076   2.345   1.814
 2176SOL    HW1 7427   2.037   2.257   1.840
 2176SOL    HW2 7428   2.165   2.357   1.857
 2177SOL     OW 7429   6.818   1.488   1.951
 2177SOL    HW1 7430   6.839   1.574   1.998
 2177SOL    HW2 7431   6.845   1.411   2.009
 2178SOL     OW 7432   1.001   5.002   0.015
 2178SOL    HW1 7433   1.057   5.083   0.030
 2178SOL    HW2 7434   1.039   4.925   0.067
 2179SOL     OW 7435   0.990   5.892   3.720
 2179SOL    HW1 7436   0.893   5.874   3.736
 2179SOL    HW2 7437   1.014   5.860   3.628
 2180SOL     OW 7438   3.377   3.784   3.161
 2180SOL    HW1 7439   3.321   3.866   3.148
 2180SOL    HW2 7440   3.468   3.799   3.124
 2181SOL     OW 7441   4.859   4.706   6.039
 2181SOL    HW1 7442   4.767   4.711   6.075
 2181SOL    HW2 7443   4.920   4.763   6.094
 2182SOL     OW 7444   0.362   3.353   6.717
 2182SOL    HW1 7445   0.399   3.442   6.690
 2182SOL    HW2 7446   0.332   3.357   6.813
 2183SOL     OW 7447   3.086   2.919   0.696
 2183SOL    HW1 7448   3.131   2.883   0.615
 2183SOL    HW2 7449   3.030   2.847   0.738
 2184SOL     OW 7450   3.873   0.894   6.411
 2184SOL    HW1 7451   3.889   0.967   6.343
 2184SOL    HW2 7452   3.817   0.823   6.370
 2185SOL     OW 7453   1.825   0.596   0.562
 2185SOL    HW1 7454   1.749   0.622   0.502
 2185SOL    HW2 7455   1.795   0.600   0.657
 2186SOL     OW 7456   0.037   4.247   2.639
 2186SOL    HW1 7457   0.080   4.256   2.729
 2186SOL    HW2 7458   6.964   4.272   2.645
 2187SOL     OW 7459   6.826   1.334   1.389
 2187SOL    HW1 7460   6.851   1.362   1.296
 2187SOL    HW2 7461   6.727   1.344   1.401
 2188SOL     OW 7462   4.605   6.263   3.713
 2188SOL    HW1 7463   4.674   6.321   3.756
 2188SOL    HW2 7464   4.649   6.181   3.674
 2189SOL     OW 7465   1.745   6.813   5.821
 2189SOL    HW1 7466   1.707   6.881   5.758
 2189SOL    HW2 7467   1.678   6.795   5.893
 2190SOL     OW 7468   6.555   2.847   1.932
 2190SOL    HW1 7469   6.526   2.895   2.014
 2190SOL    HW2 7470   6.560   2.911   1.855
 2191SOL     OW 7471   3.461   2.466   6.913
 2191SOL    HW1 7472   3.494   2.478   6.819
 2191SOL    HW2 7473   3.363   2.442   6.911
 2192SOL     OW 7474   4.333   6.063   5.474
 2192SOL    HW1 7475   4.316   6.069   5.573
 2192SOL    HW2 7476   4.420   6.109   5.453
 2193SOL     OW 7477   0.833   5.242   5.123
 2193SOL    HW1 7478   0.819   5.195   5.037
 2193SOL    HW2 7479   0.893   5.189   5.182
 2194SOL     OW 7480   2.137   6.044   0.485
 2194SOL    HW1 7481   2.163   5.972   0.549
 2194SOL    HW2 7482   2.040   6.034   0.461
 2195SOL     OW 7483   0.881   6.204   2.021
 2195SOL    HW1 7484   0.875   6.110   2.054
 2195SOL    HW2 7485   0.976   6.225   1.997
 2196SOL     OW 7486   3.942   0.688   5.497
 2196SOL    HW1 7487   3.926   0.771   5.444
 2196SOL    HW2 7488   4.037   0.659   5.485
 2197SOL     OW 7489   4.965   4.434   1.569
 2197SOL    HW1 7490   4.896   4.460   1.636
 2197SOL    HW2 7491   4.986   4.337   1.579
 2198SOL     OW 7492   6.700   4.028   6.983
 2198SOL    HW1 7493   6.676   4.043   0.056
 2198SOL    HW2 7494   6.620   3.996   6.933
 2199SOL     OW 7495   4.754   6.873   0.347
 2199SOL    HW1 7496   4.802   6.961   0.340
 2199SOL    HW2 7497   4.711   6.866   0.437
 2200SOL     OW 7498   4.322   0.838   4.856
 2200SOL    HW1 7499   4.267   0.811   4.777
 2200SOL    HW2 7500   4.377   0.918   4.832
 2201SOL     OW 7501   6.169   3.259   2.088
 2201SOL    HW1 7502   6.255   3.307   2.073
 2201SOL    HW2 7503   6.118   3.253   2.003
 2202SOL     OW 7504   3.744   4.941   4.352
 2202SOL    HW1 7505   3.654   4.983   4.353
 2202SOL    HW2 7506   3.768   4.915   4.259
 2203SOL     OW 7507   3.467   2.111   3.508
 2203SOL    HW1 7508   3.458   2.128   3.409
 2203SOL    HW2 7509   3.562   2.125   3.535
 2204SOL     OW 7510   3.579   1.393   6.747
 2204SOL    HW1 7511   3.566   1.393   6.648
 2204SOL    HW2 7512   3.635   1.315   6.774
 2205SOL     OW 7513   1.574   0.081   0.158
 2205SOL    HW1 7514   1.646   0.081   0.089
 2205SOL    HW2 7515   1.514   0.003   0.144
 2206SOL     OW 7516   3.355   3.551   6.530
 2206SOL    HW1 7517   3.366   3.648   6.551
 2206SOL    HW2 7518   3.417   3.526   6.455
 2207SOL     OW 7519   1.181   4.151   6.025
 2207SOL    HW1 7520   1.239   4.210   6.080
 2207SOL    HW2 7521   1.229   4.066   6.004
 2208SOL     OW 7522   0.254   3.316   1.880
 2208SOL    HW1 7523   0.281   3.350   1.790
 2208SOL    HW2 7524   0.330   3.326   1.944
 2209SOL     OW 7525   1.903   5.574   6.488
 2209SOL    HW1 7526   1.892   5.662   6.534
 2209SOL    HW2 7527   1.895   5.500   6.555
 2210SOL     OW 7528   0.944   5.404   3.524
 2210SOL    HW1 7529   0.898   5.459   3.594
 2210SOL    HW2 7530   0.876   5.353   3.472
 2211SOL     OW 7531   6.195   0.848   5.464
 2211SOL    HW1 7532   6.151   0.916   5.405
 2211SOL    HW2 7533   6.183   0.876   5.560
 2212SOL     OW 7534   0.973   0.123   6.030
 2212SOL    HW1 7535   0.905   0.055   6.056
 2212SOL    HW2 7536   1.033   0.142   6.107
 2213SOL     OW 7537   4.399   2.430   3.882
 2213SOL    HW1 7538   4.453   2.385   3.812
 2213SOL    HW2 7539   4.301   2.419   3.861
 2214SOL     OW 7540   5.185   0.666   4.841
 2214SOL    HW1 7541   5.111   0.700   4.783
 2214SOL    HW2 7542   5.273   0.687   4.798
 2215SOL     OW 7543   6.966   1.958   5.642
 2215SOL    HW1 7544   6.883   1.903   5.642
 2215SOL    HW2 7545   7.020   1.938   5.560
 2216SOL     OW 7546   1.204   6.513   1.180
 2216SOL    HW1 7547   1.136   6.502   1.108
 2216SOL    HW2 7548   1.197   6.437   1.244
 2217SOL     OW 7549   3.775   6.692   1.389
 2217SOL    HW1 7550   3.729   6.629   1.451
 2217SOL    HW2 7551   3.707   6.752   1.346
 2218SOL     OW 7552   1.257   5.616   6.043
 2218SOL    HW1 7553   1.313   5.542   6.080
 2218SOL    HW2 7554   1.161   5.601   6.066
 2219SOL     OW 7555   1.384   3.643   3.526
 2219SOL    HW1 7556   1.478   3.674   3.520
 2219SOL    HW2 7557   1.353   3.608   3.438
 2220SOL     OW 7558   0.414   2.117   5.555
 2220SOL    HW1 7559   0.511   2.137   5.569
 2220SOL    HW2 7560   0.388   2.145   5.462
 2221SOL     OW 7561   6.693   1.939   1.453
 2221SOL    HW1 7562   6.708   1.901   1.544
 2221SOL    HW2 7563   6.745   1.885   1.386
 2222SOL     OW 7564   4.696   0.208   2.093
 2222SOL    HW1 7565   4.764   0.204   2.019
 2222SOL    HW2 7566   4.741   0.187   2.180
 2223SOL     OW 7567   5.626   5.208   3.829
 2223SOL    HW1 7568   5.587   5.142   3.765
 2223SOL    HW2 7569   5.725   5.200   3.828
 2224SOL     OW 7570   1.935   5.001   1.527
 2224SOL    HW1 7571   1.980   4.912   1.535
 2224SOL    HW2 7572   1.836   4.988   1.529
 2225SOL     OW 7573   6.442   4.747   2.290
 2225SOL    HW1 7574   6.535   4.711   2.301
 2225SOL    HW2 7575   6.384   4.677   2.248
 2226SOL     OW 7576   3.733   2.715   1.307
 2226SOL    HW1 7577   3.796   2.640   1.289
 2226SOL    HW2 7578   3.754   2.757   1.396
 2227SOL     OW 7579   6.664   4.026   6.275
 2227SOL    HW1 7580   6.601   4.101   6.293
 2227SOL    HW2 7581   6.627   3.941   6.312
 2228SOL     OW 7582   3.145   4.814   6.808
 2228SOL    HW1 7583   3.128   4.785   6.714
 2228SOL    HW2 7584   3.240   4.798   6.832
 2229SOL     OW 7585   4.675   1.299   3.717
 2229SOL    HW1 7586   4.740   1.375   3.711
 2229SOL    HW2 7587   4.598   1.326   3.776
 2230SOL     OW 7588   1.099   5.871   4.556
 2230SOL    HW1 7589   1.083   5.789   4.502
 2230SOL    HW2 7590   1.023   5.883   4.620
 2231SOL     OW 7591   1.875   0.995   1.717
 2231SOL    HW1 7592   1.905   1.066   1.781
 2231SOL    HW2 7593   1.934   0.915   1.726
 2232SOL     OW 7594   6.995   3.094   2.745
 2232SOL    HW1 7595   6.900   3.120   2.761
 2232SOL    HW2 7596   0.030   3.138   2.813
 2233SOL     OW 7597   3.595   5.812   0.524
 2233SOL    HW1 7598   3.604   5.911   0.510
 2233SOL    HW2 7599   3.593   5.766   0.436
 2234SOL     OW 7600   3.549   1.780   0.582
 2234SOL    HW1 7601   3.457   1.769   0.547
 2234SOL    HW2 7602   3.545   1.803   0.680
 2235SOL     OW 7603   1.238   0.056   0.031
 2235SOL    HW1 7604   1.287   6.992   0.037
 2235SOL    HW2 7605   1.187   0.072   0.115
 2236SOL     OW 7606   0.592   4.510   0.955
 2236SOL    HW1 7607   0.661   4.564   1.005
 2236SOL    HW2 7608   0.624   4.415   0.948
 2237SOL     OW 7609   6.867   2.944   4.899
 2237SOL    HW1 7610   6.962   2.975   4.902
 2237SOL    HW2 7611   6.837   2.937   4.804
 2238SOL     OW 7612   0.293   5.552   1.980
 2238SOL    HW1 7613   0.284   5.638   1.930
 2238SOL    HW2 7614   0.259   5.563   2.073
 2239SOL     OW 7615   4.109   4.735   3.620
 2239SOL    HW1 7616   4.116   4.730   3.520
 2239SOL    HW2 7617   4.196   4.706   3.660
 2240SOL     OW 7618   6.796   4.812   3.483
 2240SOL    HW1 7619   6.724   4.795   3.415
 2240SOL    HW2 7620   6.885   4.792   3.442
 2241SOL     OW 7621   0.314   6.473   2.241
 2241SOL    HW1 7622   0.334   6.434   2.151
 2241SOL    HW2 7623   0.360   6.561   2.250
 2242SOL     OW 7624   4.765   2.170   3.077
 2242SOL    HW1 7625   4.758   2.128   3.168
 2242SOL    HW2 7626   4.674   2.181   3.038
 2243SOL     OW 7627   2.043   5.885   4.610
 2243SOL    HW1 7628   2.140   5.878   4.635
 2243SOL    HW2 7629   1.991   5.815   4.660
 2244SOL     OW 7630   3.215   0.264   4.481
 2244SOL    HW1 7631   3.287   0.248   4.412
 2244SOL    HW2 7632   3.214   0.187   4.545
 2245SOL     OW 7633   0.052   2.290   2.713
 2245SOL    HW1 7634   0.088   2.275   2.805
 2245SOL    HW2 7635   0.039   2.388   2.698
 2246SOL     OW 7636   1.556   3.845   5.772
 2246SOL    HW1 7637   1.615   3.874   5.847
 2246SOL    HW2 7638   1.609   3.840   5.688
 2247SOL     OW 7639   2.206   2.124   5.909
 2247SOL    HW1 7640   2.279   2.059   5.926
 2247SOL    HW2 7641   2.198   2.141   5.811
 2248SOL     OW 7642   4.755   4.178   5.424
 2248SOL    HW1 7643   4.714   4.182   5.515
 2248SOL    HW2 7644   4.692   4.216   5.357
 2249SOL     OW 7645   5.458   6.190   3.042
 2249SOL    HW1 7646   5.404   6.227   3.116
 2249SOL    HW2 7647   5.477   6.093   3.060
 2250SOL     OW 7648   5.786   3.939   1.610
 2250SOL    HW1 7649   5.695   3.923   1.650
 2250SOL    HW2 7650   5.847   3.975   1.680
 2251SOL     OW 7651   5.790   1.744   0.078
 2251SOL    HW1 7652   5.763   1.737   0.174
 2251SOL    HW2 7653   5.881   1.784   0.072
 2252SOL     OW 7654   5.353   2.732   5.452
 2252SOL    HW1 7655   5.270   2.788   5.458
 2252SOL    HW2 7656   5.389   2.716   5.543
 2253SOL     OW 7657   2.741   3.027   6.803
 2253SOL    HW1 7658   2.802   2.967   6.855
 2253SOL    HW2 7659   2.777   3.121   6.805
 2254SOL     OW 7660   1.818   3.441   5.856
 2254SOL    HW1 7661   1.850   3.356   5.900
 2254SOL    HW2 7662   1.887   3.471   5.790
 2255SOL     OW 7663   6.164   2.887   1.927
 2255SOL    HW1 7664   6.128   2.974   1.891
 2255SOL    HW2 7665   6.262   2.882   1.910
 2256SOL     OW 7666   4.073   4.822   2.183
 2256SOL    HW1 7667   4.077   4.743   2.121
 2256SOL    HW2 7668   3.987   4.821   2.233
 2257SOL     OW 7669   1.628   3.543   4.275
 2257SOL    HW1 7670   1.690   3.548   4.354
 2257SOL    HW2 7671   1.637   3.625   4.220
 2258SOL     OW 7672   2.172   5.135   5.401
 2258SOL    HW1 7673   2.085   5.141   5.449
 2258SOL    HW2 7674   2.201   5.040   5.395
 2259SOL     OW 7675   5.219   3.736   6.796
 2259SOL    HW1 7676   5.208   3.726   6.697
 2259SOL    HW2 7677   5.231   3.833   6.819
 2260SOL     OW 7678   4.633   5.120   1.952
 2260SOL    HW1 7679   4.709   5.076   1.903
 2260SOL    HW2 7680   4.547   5.099   1.905
 2261SOL     OW 7681   5.192   6.463   0.665
 2261SOL    HW1 7682   5.226   6.458   0.571
 2261SOL    HW2 7683   5.269   6.461   0.729
 2262SOL     OW 7684   5.276   2.327   4.051
 2262SOL    HW1 7685   5.257   2.335   4.149
 2262SOL    HW2 7686   5.194   2.297   4.003
 2263SOL     OW 7687   1.559   5.236   5.974
 2263SOL    HW1 7688   1.460   5.242   5.981
 2263SOL    HW2 7689   1.589   5.142   5.991
 2264SOL     OW 7690   3.125   4.026   3.280
 2264SOL    HW1 7691   3.111   4.012   3.378
 2264SOL    HW2 7692   3.038   4.045   3.236
 2265SOL     OW 7693   0.220   0.706   2.112
 2265SOL    HW1 7694   0.184   0.736   2.023
 2265SOL    HW2 7695   0.320   0.699   2.107
 2266SOL     OW 7696   6.143   0.698   0.909
 2266SOL    HW1 7697   6.107   0.755   0.983
 2266SOL    HW2 7698   6.228   0.739   0.875
 2267SOL     OW 7699   6.010   2.301   5.106
 2267SOL    HW1 7700   5.937   2.348   5.155
 2267SOL    HW2 7701   5.998   2.314   5.007
 2268SOL     OW 7702   0.055   6.303   6.997
 2268SOL    HW1 7703   7.003   6.266   6.943
 2268SOL    HW2 7704   0.059   6.256   0.061
 2269SOL     OW 7705   6.764   5.878   6.136
 2269SOL    HW1 7706   6.819   5.864   6.218
 2269SOL    HW2 7707   6.808   5.831   6.058
 2270SOL     OW 7708   2.880   3.277   2.027
 2270SOL    HW1 7709   2.849   3.182   2.035
 2270SOL    HW2 7710   2.938   3.286   1.946
 2271SOL     OW 7711   5.855   4.644   1.485
 2271SOL    HW1 7712   5.924   4.611   1.420
 2271SOL    HW2 7713   5.773   4.670   1.434
 2272SOL     OW 7714   5.559   1.688   5.518
 2272SOL    HW1 7715   5.468   1.711   5.483
 2272SOL    HW2 7716   5.555   1.678   5.617
 2273SOL     OW 7717   0.486   1.131   3.726
 2273SOL    HW1 7718   0.419   1.124   3.653
 2273SOL    HW2 7719   0.574   1.162   3.689
 2274SOL     OW 7720   1.728   3.715   4.892
 2274SOL    HW1 7721   1.630   3.709   4.871
 2274SOL    HW2 7722   1.779   3.730   4.808
 2275SOL     OW 7723   4.998   5.498   4.952
 2275SOL    HW1 7724   5.064   5.544   4.892
 2275SOL    HW2 7725   4.936   5.442   4.897
 2276SOL     OW 7726   4.267   3.741   0.785
 2276SOL    HW1 7727   4.195   3.715   0.721
 2276SOL    HW2 7728   4.352   3.695   0.759
 2277SOL     OW 7729   3.169   3.296   6.262
 2277SOL    HW1 7730   3.140   3.392   6.268
 2277SOL    HW2 7731   3.093   3.241   6.226
 2278SOL     OW 7732   5.595   6.362   2.285
 2278SOL    HW1 7733   5.521   6.427   2.268
 2278SOL    HW2 7734   5.626   6.324   2.198
 2279SOL     OW 7735   5.710   3.332   4.934
 2279SOL    HW1 7736   5.804   3.339   4.969
 2279SOL    HW2 7737   5.697   3.399   4.860
 2280SOL     OW 7738   6.694   6.038   5.469
 2280SOL    HW1 7739   6.754   6.047   5.390
 2280SOL    HW2 7740   6.674   6.128   5.508
 2281SOL     OW 7741   3.750   2.110   1.466
 2281SOL    HW1 7742   3.723   2.050   1.542
 2281SOL    HW2 7743   3.699   2.196   1.472
 2282SOL     OW 7744   4.050   5.769   3.472
 2282SOL    HW1 7745   4.112   5.691   3.472
 2282SOL    HW2 7746   4.093   5.847   3.428
 2283SOL     OW 7747   6.865   3.966   3.578
 2283SOL    HW1 7748   6.901   3.874   3.562
 2283SOL    HW2 7749   6.923   4.033   3.532
 2284SOL     OW 7750   2.544   2.199   1.526
 2284SOL    HW1 7751   2.487   2.213   1.607
 2284SOL    HW2 7752   2.577   2.287   1.492
 2285SOL     OW 7753   1.528   3.594   0.307
 2285SOL    HW1 7754   1.527   3.670   0.242
 2285SOL    HW2 7755   1.535   3.630   0.400
 2286SOL     OW 7756   5.926   5.605   4.419
 2286SOL    HW1 7757   5.975   5.554   4.349
 2286SOL    HW2 7758   5.926   5.702   4.395
 2287SOL     OW 7759   2.457   2.373   1.245
 2287SOL    HW1 7760   2.542   2.376   1.299
 2287SOL    HW2 7761   2.466   2.435   1.167
 2288SOL     OW 7762   0.101   6.662   2.836
 2288SOL    HW1 7763   0.087   6.653   2.738
 2288SOL    HW2 7764   0.199   6.654   2.857
 2289SOL     OW 7765   5.873   1.326   2.304
 2289SOL    HW1 7766   5.858   1.312   2.206
 2289SOL    HW2 7767   5.792   1.370   2.344
 2290SOL     OW 7768   2.998   3.741   3.620
 2290SOL    HW1 7769   3.019   3.697   3.532
 2290SOL    HW2 7770   2.959   3.674   3.682
 2291SOL     OW 7771   2.031   2.189   1.230
 2291SOL    HW1 7772   2.119   2.141   1.222
 2291SOL    HW2 7773   1.962   2.125   1.265
 2292SOL     OW 7774   4.991   2.087   3.610
 2292SOL    HW1 7775   4.895   2.065   3.623
 2292SOL    HW2 7776   5.016   2.073   3.514
 2293SOL     OW 7777   5.369   1.164   0.752
 2293SOL    HW1 7778   5.335   1.258   0.756
 2293SOL    HW2 7779   5.297   1.101   0.781
 2294SOL     OW 7780   1.594   2.486   6.254
 2294SOL    HW1 7781   1.691   2.472   6.272
 2294SOL    HW2 7782   1.583   2.549   6.177
 2295SOL     OW 7783   6.807   6.963   1.961
 2295SOL    HW1 7784   6.820   6.975   2.059
 2295SOL    HW2 7785   6.873   7.019   1.911
 2296SOL     OW 7786   2.481   5.343   3.163
 2296SOL    HW1 7787   2.552   5.336   3.093
 2296SOL    HW2 7788   2.393   5.316   3.124
 2297SOL     OW 7789   4.804   4.833   5.673
 2297SOL    HW1 7790   4.805   4.734   5.658
 2297SOL    HW2 7791   4.761   4.878   5.595
 2298SOL     OW 7792   3.970   3.070   4.790
 2298SOL    HW1 7793   4.043   3.001   4.791
 2298SOL    HW2 7794   4.007   3.158   4.817
 2299SOL     OW 7795   5.451   3.368   5.190
 2299SOL    HW1 7796   5.545   3.390   5.215
 2299SOL    HW2 7797   5.451   3.302   5.114
 2300SOL     OW 7798   3.686   6.794   3.224
 2300SOL    HW1 7799   3.688   6.731   3.302
 2300SOL    HW2 7800   3.712   6.886   3.255
 2301SOL     OW 7801   3.109   3.391   4.309
 2301SOL    HW1 7802   3.034   3.395   4.243
 2301SOL    HW2 7803   3.169   3.471   4.297
 2302SOL     OW 7804   4.213   1.459   0.425
 2302SOL    HW1 7805   4.225   1.407   0.510
 2302SOL    HW2 7806   4.301   1.499   0.398
 2303SOL     OW 7807   2.727   2.651   0.874
 2303SOL    HW1 7808   2.731   2.631   0.777
 2303SOL    HW2 7809   2.656   2.720   0.891
 2304SOL     OW 7810   6.177   6.015   3.297
 2304SOL    HW1 7811   6.232   5.934   3.277
 2304SOL    HW2 7812   6.139   6.051   3.212
 2305SOL     OW 7813   1.499   1.241   4.728
 2305SOL    HW1 7814   1.492   1.142   4.714
 2305SOL    HW2 7815   1.422   1.287   4.684
 2306SOL     OW 7816   1.939   4.522   3.369
 2306SOL    HW1 7817   1.913   4.607   3.324
 2306SOL    HW2 7818   1.982   4.542   3.457
 2307SOL     OW 7819   1.360   2.539   5.498
 2307SOL    HW1 7820   1.303   2.608   5.455
 2307SOL    HW2 7821   1.349   2.451   5.451
 2308SOL     OW 7822   2.323   4.366   1.594
 2308SOL    HW1 7823   2.253   4.335   1.658
 2308SOL    HW2 7824   2.335   4.465   1.603
 2309SOL     OW 7825   1.312   6.998   4.399
 2309SOL    HW1 7826   1.390   6.945   4.368
 2309SOL    HW2 7827   1.233   6.938   4.409
 2310SOL     OW 7828   4.274   6.559   1.432
 2310SOL    HW1 7829   4.352   6.619   1.418
 2310SOL    HW2 7830   4.191   6.602   1.397
 2311SOL     OW 7831   2.624   5.982   0.727
 2311SOL    HW1 7832   2.619   5.977   0.627
 2311SOL    HW2 7833   2.678   6.061   0.754
 2312SOL     OW 7834   3.520   5.963   2.575
 2312SOL    HW1 7835   3.600   6.017   2.601
 2312SOL    HW2 7836   3.453   6.022   2.530
 2313SOL     OW 7837   4.890   4.779   2.946
 2313SOL    HW1 7838   4.796   4.745   2.957
 2313SOL    HW2 7839   4.903   4.814   2.854
 2314SOL     OW 7840   3.268   5.839   3.457
 2314SOL    HW1 7841   3.208   5.779   3.511
 2314SOL    HW2 7842   3.223   5.928   3.444
 2315SOL     OW 7843   4.622   3.173   6.267
 2315SOL    HW1 7844   4.572   3.144   6.348
 2315SOL    HW2 7845   4.558   3.193   6.193
 2316SOL     OW 7846   6.036   3.173   2.927
 2316SOL    HW1 7847   6.019   3.198   2.832
 2316SOL    HW2 7848   6.074   3.081   2.931
 2317SOL     OW 7849   1.722   4.467   2.738
 2317SOL    HW1 7850   1.690   4.554   2.700
 2317SOL    HW2 7851   1.735   4.477   2.836
 2318SOL     OW 7852   6.963   1.680   2.905
 2318SOL    HW1 7853   6.988   1.654   2.812
 2318SOL    HW2 7854   0.021   1.714   2.953
 2319SOL     OW 7855   1.754   4.558   4.572
 2319SOL    HW1 7856   1.752   4.625   4.646
 2319SOL    HW2 7857   1.841   4.509   4.574
 2320SOL     OW 7858   0.057   2.556   4.103
 2320SOL    HW1 7859   0.113   2.635   4.080
 2320SOL    HW2 7860   0.111   2.472   4.094
 2321SOL     OW 7861   2.806   6.705   4.646
 2321SOL    HW1 7862   2.760   6.794   4.638
 2321SOL    HW2 7863   2.802   6.658   4.557
 2322SOL     OW 7864   1.322   1.027   5.298
 2322SOL    HW1 7865   1.335   0.947   5.358
 2322SOL    HW2 7866   1.270   0.999   5.217
 2323SOL     OW 7867   4.639   5.517   2.935
 2323SOL    HW1 7868   4.552   5.476   2.909
 2323SOL    HW2 7869   4.653   5.507   3.034
 2324SOL     OW 7870   0.912   6.035   2.349
 2324SOL    HW1 7871   0.996   6.027   2.295
 2324SOL    HW2 7872   0.921   5.982   2.433
 2325SOL     OW 7873   1.248   3.900   1.055
 2325SOL    HW1 7874   1.293   3.814   1.078
 2325SOL    HW2 7875   1.190   3.888   0.975
 2326SOL     OW 7876   1.534   4.990   6.631
 2326SOL    HW1 7877   1.496   5.040   6.709
 2326SOL    HW2 7878   1.569   4.902   6.661
 2327SOL     OW 7879   5.098   2.610   4.078
 2327SOL    HW1 7880   5.037   2.598   4.000
 2327SOL    HW2 7881   5.125   2.706   4.084
 2328SOL     OW 7882   4.923   1.639   3.045
 2328SOL    HW1 7883   4.895   1.733   3.029
 2328SOL    HW2 7884   4.991   1.636   3.118
 2329SOL     OW 7885   1.153   5.742   3.921
 2329SOL    HW1 7886   1.229   5.789   3.966
 2329SOL    HW2 7887   1.101   5.807   3.867
 2330SOL     OW 7888   0.660   4.393   2.379
 2330SOL    HW1 7889   0.722   4.470   2.373
 2330SOL    HW2 7890   0.591   4.410   2.450
 2331SOL     OW 7891   0.515   4.071   5.429
 2331SOL    HW1 7892   0.543   4.143   5.492
 2331SOL    HW2 7893   0.466   4.111   5.352
 2332SOL     OW 7894   5.837   2.417   5.807
 2332SOL    HW1 7895   5.861   2.508   5.840
 2332SOL    HW2 7896   5.920   2.361   5.800
 2333SOL     OW 7897   1.223   5.287   3.184
 2333SOL    HW1 7898   1.318   5.264   3.163
 2333SOL    HW2 7899   1.220   5.368   3.242
 2334SOL     OW 7900   3.077   0.144   6.663
 2334SOL    HW1 7901   2.990   0.105   6.633
 2334SOL    HW2 7902   3.074   0.161   6.761
 2335SOL     OW 7903   5.002   6.973   3.351
 2335SOL    HW1 7904   5.072   6.946   3.416
 2335SOL    HW2 7905   4.940   0.015   3.394
 2336SOL     OW 7906   4.808   0.934   6.164
 2336SOL    HW1 7907   4.767   0.924   6.255
 2336SOL    HW2 7908   4.890   0.990   6.171
 2337SOL     OW 7909   5.158   0.433   3.312
 2337SOL    HW1 7910   5.108   0.371   3.373
 2337SOL    HW2 7911   5.150   0.400   3.218
 2338SOL     OW 7912   0.315   6.698   6.770
 2338SOL    HW1 7913   0.243   6.656   6.825
 2338SOL    HW2 7914   0.289   6.793   6.748
 2339SOL     OW 7915   3.709   4.660   7.009
 2339SOL    HW1 7916   3.799   4.633   6.973
 2339SOL    HW2 7917   3.689   4.754   6.983
 2340SOL     OW 7918   3.345   5.595   4.613
 2340SOL    HW1 7919   3.278   5.629   4.547
 2340SOL    HW2 7920   3.298   5.548   4.687
 2341SOL     OW 7921   5.331   5.364   0.928
 2341SOL    HW1 7922   5.351   5.267   0.945
 2341SOL    HW2 7923   5.396   5.400   0.861
 2342SOL     OW 7924   6.649   0.127   5.001
 2342SOL    HW1 7925   6.722   0.157   5.063
 2342SOL    HW2 7926   6.681   0.131   4.907
 2343SOL     OW 7927   1.192   5.427   1.175
 2343SOL    HW1 7928   1.126   5.450   1.247
 2343SOL    HW2 7929   1.251   5.506   1.158
 2344SOL     OW 7930   2.020   2.180   2.770
 2344SOL    HW1 7931   1.956   2.216   2.702
 2344SOL    HW2 7932   2.087   2.250   2.794
 2345SOL     OW 7933   1.629   0.760   4.243
 2345SOL    HW1 7934   1.633   0.827   4.169
 2345SOL    HW2 7935   1.621   0.808   4.330
 2346SOL     OW 7936   5.193   3.458   5.607
 2346SOL    HW1 7937   5.166   3.386   5.670
 2346SOL    HW2 7938   5.291   3.451   5.589
 2347SOL     OW 7939   1.581   3.274   1.817
 2347SOL    HW1 7940   1.487   3.307   1.822
 2347SOL    HW2 7941   1.636   3.318   1.888
 2348SOL     OW 7942   2.860   6.200   2.935
 2348SOL    HW1 7943   2.863   6.253   2.850
 2348SOL    HW2 7944   2.773   6.150   2.939
 2349SOL     OW 7945   6.690   6.641   6.152
 2349SOL    HW1 7946   6.723   6.735   6.156
 2349SOL    HW2 7947   6.613   6.635   6.089
 2350SOL     OW 7948   2.696   0.736   5.530
 2350SOL    HW1 7949   2.684   0.716   5.627
 2350SOL    HW2 7950   2.614   0.781   5.495
 2351SOL     OW 7951   2.727   5.050   3.795
 2351SOL    HW1 7952   2.737   4.992   3.713
 2351SOL    HW2 7953   2.815   5.056   3.842
 2352SOL     OW 7954   0.186   4.076   3.195
 2352SOL    HW1 7955   0.254   4.112   3.258
 2352SOL    HW2 7956   0.101   4.128   3.203
 2353SOL     OW 7957   2.801   4.369   5.547
 2353SOL    HW1 7958   2.766   4.423   5.470
 2353SOL    HW2 7959   2.859   4.295   5.513
 2354SOL     OW 7960   3.438   2.012   0.841
 2354SOL    HW1 7961   3.536   2.023   0.824
 2354SOL    HW2 7962   3.425   1.961   0.926
 2355SOL     OW 7963   0.371   6.749   0.307
 2355SOL    HW1 7964   0.404   6.658   0.281
 2355SOL    HW2 7965   0.274   6.757   0.282
 2356SOL     OW 7966   2.771   4.986   2.993
 2356SOL    HW1 7967   2.835   4.939   3.054
 2356SOL    HW2 7968   2.710   4.919   2.951
 2357SOL     OW 7969   5.799   4.537   2.054
 2357SOL    HW1 7970   5.869   4.476   2.018
 2357SOL    HW2 7971   5.819   4.631   2.025
 2358SOL     OW 7972   3.782   0.363   5.902
 2358SOL    HW1 7973   3.683   0.370   5.887
 2358SOL    HW2 7974   3.828   0.440   5.857
 2359SOL     OW 7975   2.286   1.649   5.314
 2359SOL    HW1 7976   2.271   1.701   5.229
 2359SOL    HW2 7977   2.369   1.682   5.359
 2360SOL     OW 7978   4.137   5.019   1.270
 2360SOL    HW1 7979   4.111   4.935   1.223
 2360SOL    HW2 7980   4.120   5.097   1.209
 2361SOL     OW 7981   3.378   6.587   2.069
 2361SOL    HW1 7982   3.451   6.532   2.108
 2361SOL    HW2 7983   3.411   6.680   2.053
 2362SOL     OW 7984   4.553   5.581   4.656
 2362SOL    HW1 7985   4.540   5.648   4.729
 2362SOL    HW2 7986   4.469   5.529   4.643
 2363SOL     OW 7987   2.943   3.251   0.305
 2363SOL    HW1 7988   2.975   3.326   0.247
 2363SOL    HW2 7989   3.021   3.203   0.344
 2364SOL     OW 7990   4.522   1.779   2.105
 2364SOL    HW1 7991   4.483   1.746   2.190
 2364SOL    HW2 7992   4.454   1.773   2.032
 2365SOL     OW 7993   5.252   3.299   4.061
 2365SOL    HW1 7994   5.311   3.372   4.027
 2365SOL    HW2 7995   5.278   3.276   4.155
 2366SOL     OW 7996   2.473   4.189   5.601
 2366SOL    HW1 7997   2.484   4.221   5.507
 2366SOL    HW2 7998   2.385   4.142   5.610
 2367SOL     OW 7999   0.714   3.825   6.171
 2367SOL    HW1 8000   0.809   3.850   6.154
 2367SOL    HW2 8001   0.654   3.887   6.121
 2368SOL     OW 8002   5.461   0.103   3.904
 2368SOL    HW1 8003   5.406   0.185   3.885
 2368SOL    HW2 8004   5.460   0.084   4.002
 2369SOL     OW 8005   3.051   1.464   3.611
 2369SOL    HW1 8006   3.070   1.456   3.708
 2369SOL    HW2 8007   3.134   1.442   3.559
 2370SOL     OW 8008   5.213   3.008   1.376
 2370SOL    HW1 8009   5.247   3.052   1.460
 2370SOL    HW2 8010   5.283   2.945   1.342
 2371SOL     OW 8011   0.931   6.816   2.819
 2371SOL    HW1 8012   0.937   6.722   2.784
 2371SOL    HW2 8013   0.998   6.829   2.892
 2372SOL     OW 8014   6.510   1.466   5.944
 2372SOL    HW1 8015   6.455   1.549   5.953
 2372SOL    HW2 8016   6.607   1.490   5.944
 2373SOL     OW 8017   6.373   0.445   6.226
 2373SOL    HW1 8018   6.415   0.459   6.136
 2373SOL    HW2 8019   6.354   0.347   6.239
 2374SOL     OW 8020   6.038   6.140   3.090
 2374SOL    HW1 8021   5.993   6.085   3.020
 2374SOL    HW2 8022   5.981   6.143   3.172
 2375SOL     OW 8023   0.942   0.491   3.922
 2375SOL    HW1 8024   1.036   0.516   3.901
 2375SOL    HW2 8025   0.888   0.488   3.838
 2376SOL     OW 8026   6.212   2.424   3.327
 2376SOL    HW1 8027   6.185   2.396   3.235
 2376SOL    HW2 8028   6.269   2.353   3.368
 2377SOL     OW 8029   4.148   4.886   5.983
 2377SOL    HW1 8030   4.205   4.966   6.001
 2377SOL    HW2 8031   4.085   4.872   6.060
 2378SOL     OW 8032   6.159   1.806   0.687
 2378SOL    HW1 8033   6.173   1.794   0.786
 2378SOL    HW2 8034   6.070   1.769   0.661
 2379SOL     OW 8035   6.948   4.941   0.268
 2379SOL    HW1 8036   6.958   4.914   0.172
 2379SOL    HW2 8037   6.852   4.964   0.287
 2380SOL     OW 8038   5.262   3.729   5.418
 2380SOL    HW1 8039   5.327   3.653   5.422
 2380SOL    HW2 8040   5.304   3.805   5.368
 2381SOL     OW 8041   2.350   4.963   5.252
 2381SOL    HW1 8042   2.318   4.984   5.159
 2381SOL    HW2 8043   2.406   5.039   5.285
 2382SOL     OW 8044   1.750   5.884   2.166
 2382SOL    HW1 8045   1.685   5.947   2.210
 2382SOL    HW2 8046   1.702   5.801   2.138
 2383SOL     OW 8047   5.395   5.736   5.183
 2383SOL    HW1 8048   5.425   5.707   5.274
 2383SOL    HW2 8049   5.323   5.805   5.192
 2384SOL     OW 8050   0.956   1.939   1.496
 2384SOL    HW1 8051   0.927   1.997   1.419
 2384SOL    HW2 8052   0.979   1.848   1.461
 2385SOL     OW 8053   0.517   1.957   0.432
 2385SOL    HW1 8054   0.496   2.038   0.378
 2385SOL    HW2 8055   0.433   1.906   0.450
 2386SOL     OW 8056   3.321   5.499   4.167
 2386SOL    HW1 8057   3.361   5.409   4.150
 2386SOL    HW2 8058   3.279   5.533   4.084
 2387SOL     OW 8059   0.845   2.280   3.618
 2387SOL    HW1 8060   0.795   2.193   3.619
 2387SOL    HW2 8061   0.928   2.272   3.673
 2388SOL     OW 8062   6.995   1.956   6.242
 2388SOL    HW1 8063   6.897   1.972   6.239
 2388SOL    HW2 8064   0.020   2.044   6.243
 2389SOL     OW 8065   4.756   4.961   4.504
 2389SOL    HW1 8066   4.838   4.963   4.447
 2389SOL    HW2 8067   4.677   4.984   4.448
 2390SOL     OW 8068   4.558   3.535   6.284
 2390SOL    HW1 8069   4.530   3.459   6.342
 2390SOL    HW2 8070   4.648   3.567   6.312
 2391SOL     OW 8071   3.492   3.810   6.196
 2391SOL    HW1 8072   3.432   3.731   6.209
 2391SOL    HW2 8073   3.547   3.796   6.114
 2392SOL     OW 8074   3.201   5.493   5.380
 2392SOL    HW1 8075   3.225   5.567   5.443
 2392SOL    HW2 8076   3.270   5.421   5.386
 2393SOL     OW 8077   4.019   5.408   1.314
 2393SOL    HW1 8078   4.075   5.348   1.257
 2393SOL    HW2 8079   4.075   5.481   1.352
 2394SOL     OW 8080   0.101   3.576   3.426
 2394SOL    HW1 8081   0.139   3.492   3.467
 2394SOL    HW2 8082   0.159   3.605   3.351
 2395SOL     OW 8083   0.719   2.849   6.453
 2395SOL    HW1 8084   0.636   2.815   6.410
 2395SOL    HW2 8085   0.705   2.944   6.482
 2396SOL     OW 8086   5.896   0.605   4.741
 2396SOL    HW1 8087   5.856   0.610   4.649
 2396SOL    HW2 8088   5.827   0.625   4.809
 2397SOL     OW 8089   0.991   5.101   5.309
 2397SOL    HW1 8090   0.990   5.004   5.286
 2397SOL    HW2 8091   1.003   5.112   5.408
 2398SOL     OW 8092   2.647   5.333   3.480
 2398SOL    HW1 8093   2.677   5.324   3.575
 2398SOL    HW2 8094   2.574   5.401   3.475
 2399SOL     OW 8095   2.717   2.416   3.592
 2399SOL    HW1 8096   2.759   2.383   3.676
 2399SOL    HW2 8097   2.637   2.472   3.614
 2400SOL     OW 8098   2.104   4.064   0.094
 2400SOL    HW1 8099   2.027   4.118   0.061
 2400SOL    HW2 8100   2.185   4.084   0.039
 2401SOL     OW 8101   3.828   0.281   4.831
 2401SOL    HW1 8102   3.773   0.262   4.913
 2401SOL    HW2 8103   3.849   0.194   4.785
 2402SOL     OW 8104   0.647   2.081   2.467
 2402SOL    HW1 8105   0.660   2.085   2.368
 2402SOL    HW2 8106   0.682   2.165   2.508
 2403SOL     OW 8107   3.933   3.423   1.708
 2403SOL    HW1 8108   3.906   3.451   1.616
 2403SOL    HW2 8109   4.024   3.460   1.729
 2404SOL     OW 8110   6.757   1.394   1.139
 2404SOL    HW1 8111   6.833   1.414   1.077
 2404SOL    HW2 8112   6.674   1.441   1.108
 2405SOL     OW 8113   2.444   4.661   6.972
 2405SOL    HW1 8114   2.473   4.700   0.036
 2405SOL    HW2 8115   2.440   4.734   6.903
 2406SOL     OW 8116   1.825   0.548   4.002
 2406SOL    HW1 8117   1.759   0.477   4.022
 2406SOL    HW2 8118   1.861   0.586   4.087
 2407SOL     OW 8119   4.052   2.217   3.470
 2407SOL    HW1 8120   4.085   2.123   3.477
 2407SOL    HW2 8121   4.051   2.245   3.373
 2408SOL     OW 8122   2.311   5.926   3.451
 2408SOL    HW1 8123   2.231   5.940   3.393
 2408SOL    HW2 8124   2.289   5.859   3.523
 2409SOL     OW 8125   2.480   2.723   1.198
 2409SOL    HW1 8126   2.415   2.798   1.184
 2409SOL    HW2 8127   2.500   2.680   1.110
 2410SOL     OW 8128   6.051   3.390   5.958
 2410SOL    HW1 8129   5.994   3.359   6.034
 2410SOL    HW2 8130   6.019   3.348   5.873
 2411SOL     OW 8131   2.805   3.735   6.514
 2411SOL    HW1 8132   2.902   3.739   6.493
 2411SOL    HW2 8133   2.764   3.826   6.501
 2412SOL     OW 8134   3.211   2.357   6.816
 2412SOL    HW1 8135   3.212   2.453   6.844
 2412SOL    HW2 8136   3.124   2.316   6.843
 2413SOL     OW 8137   6.897   3.439   6.326
 2413SOL    HW1 8138   6.949   3.524   6.322
 2413SOL    HW2 8139   6.883   3.414   6.422
 2414SOL     OW 8140   5.519   3.061   4.356
 2414SOL    HW1 8141   5.597   3.089   4.411
 2414SOL    HW2 8142   5.548   3.039   4.264
 2415SOL     OW 8143   2.171   6.639   1.271
 2415SOL    HW1 8144   2.163   6.586   1.187
 2415SOL    HW2 8145   2.104   6.713   1.269
 2416SOL     OW 8146   0.259   3.464   2.991
 2416SOL    HW1 8147   0.259   3.375   2.945
 2416SOL    HW2 8148   0.351   3.503   2.988
 2417SOL     OW 8149   4.539   2.562   6.763
 2417SOL    HW1 8150   4.490   2.475   6.774
 2417SOL    HW2 8151   4.564   2.575   6.668
 2418SOL     OW 8152   4.246   4.219   5.309
 2418SOL    HW1 8153   4.307   4.245   5.384
 2418SOL    HW2 8154   4.264   4.278   5.230
 2419SOL     OW 8155   2.075   6.599   4.440
 2419SOL    HW1 8156   2.040   6.670   4.501
 2419SOL    HW2 8157   2.140   6.541   4.490
 2420SOL     OW 8158   3.445   5.355   2.329
 2420SOL    HW1 8159   3.391   5.432   2.364
 2420SOL    HW2 8160   3.405   5.269   2.361
 2421SOL     OW 8161   3.416   6.824   4.398
 2421SOL    HW1 8162   3.429   6.898   4.465
 2421SOL    HW2 8163   3.506   6.788   4.372
 2422SOL     OW 8164   3.659   0.044   2.084
 2422SOL    HW1 8165   3.641   0.124   2.141
 2422SOL    HW2 8166   3.702   0.073   1.998
 2423SOL     OW 8167   2.070   5.524   1.849
 2423SOL    HW1 8168   2.120   5.611   1.856
 2423SOL    HW2 8169   2.052   5.488   1.941
 2424SOL     OW 8170   5.106   0.326   6.829
 2424SOL    HW1 8171   5.060   0.386   6.764
 2424SOL    HW2 8172   5.137   0.244   6.782
 2425SOL     OW 8173   4.669   5.244   5.750
 2425SOL    HW1 8174   4.573   5.241   5.776
 2425SOL    HW2 8175   4.699   5.340   5.743
 2426SOL     OW 8176   1.524   5.769   5.274
 2426SOL    HW1 8177   1.505   5.698   5.207
 2426SOL    HW2 8178   1.623   5.787   5.276
 2427SOL     OW 8179   4.942   6.648   6.306
 2427SOL    HW1 8180   5.003   6.586   6.357
 2427SOL    HW2 8181   4.996   6.724   6.270
 2428SOL     OW 8182   0.123   1.533   3.504
 2428SOL    HW1 8183   0.122   1.447   3.453
 2428SOL    HW2 8184   0.200   1.534   3.567
 2429SOL     OW 8185   5.270   4.897   2.428
 2429SOL    HW1 8186   5.201   4.896   2.355
 2429SOL    HW2 8187   5.311   4.988   2.434
 2430SOL     OW 8188   5.784   2.046   0.667
 2430SOL    HW1 8189   5.697   2.063   0.621
 2430SOL    HW2 8190   5.795   2.109   0.743
 2431SOL     OW 8191   6.203   1.800   1.973
 2431SOL    HW1 8192   6.108   1.807   1.944
 2431SOL    HW2 8193   6.208   1.802   2.073
 2432SOL     OW 8194   3.343   5.193   2.002
 2432SOL    HW1 8195   3.248   5.221   2.014
 2432SOL    HW2 8196   3.400   5.238   2.071
 2433SOL     OW 8197   0.112   5.663   0.121
 2433SOL    HW1 8198   0.191   5.608   0.148
 2433SOL    HW2 8199   0.052   5.609   0.063
 2434SOL     OW 8200   4.360   1.906   2.786
 2434SOL    HW1 8201   4.416   1.985   2.759
 2434SOL    HW2 8202   4.296   1.934   2.857
 2435SOL     OW 8203   5.451   6.478   6.799
 2435SOL    HW1 8204   5.379   6.543   6.825
 2435SOL    HW2 8205   5.419   6.385   6.815
 2436SOL     OW 8206   1.365   1.155   1.586
 2436SOL    HW1 8207   1.369   1.225   1.515
 2436SOL    HW2 8208   1.344   1.066   1.545
 2437SOL     OW 8209   6.281   6.186   2.468
 2437SOL    HW1 8210   6.281   6.090   2.496
 2437SOL    HW2 8211   6.199   6.206   2.416
 2438SOL     OW 8212   3.546   1.627   4.230
 2438SOL    HW1 8213   3.569   1.690   4.155
 2438SOL    HW2 8214   3.629   1.583   4.263
 2439SOL     OW 8215   0.329   5.290   6.748
 2439SOL    HW1 8216   0.287   5.262   6.661
 2439SOL    HW2 8217   0.426   5.265   6.747
 2440SOL     OW 8218   3.970   1.231   3.876
 2440SOL    HW1 8219   3.901   1.159   3.876
 2440SOL    HW2 8220   3.999   1.251   3.782
 2441SOL     OW 8221   5.781   0.738   6.598
 2441SOL    HW1 8222   5.798   0.732   6.697
 2441SOL    HW2 8223   5.850   0.686   6.549
 2442SOL     OW 8224   5.035   3.748   2.201
 2442SOL    HW1 8225   5.059   3.842   2.178
 2442SOL    HW2 8226   5.023   3.740   2.300
 2443SOL     OW 8227   2.500   1.178   6.920
 2443SOL    HW1 8228   2.540   1.214   7.005
 2443SOL    HW2 8229   2.490   1.079   6.927
 2444SOL     OW 8230   4.499   4.590   0.517
 2444SOL    HW1 8231   4.567   4.658   0.488
 2444SOL    HW2 8232   4.500   4.513   0.453
 2445SOL     OW 8233   6.719   2.041   1.971
 2445SOL    HW1 8234   6.670   1.971   1.921
 2445SOL    HW2 8235   6.758   2.002   2.054
 2446SOL     OW 8236   1.008   2.948   1.919
 2446SOL    HW1 8237   1.092   2.987   1.881
 2446SOL    HW2 8238   0.960   2.897   1.848
 2447SOL     OW 8239   2.163   1.129   0.061
 2447SOL    HW1 8240   2.178   1.201   7.017
 2447SOL    HW2 8241   2.237   1.062   0.055
 2448SOL     OW 8242   6.119   1.913   4.239
 2448SOL    HW1 8243   6.081   1.995   4.281
 2448SOL    HW2 8244   6.137   1.844   4.309
 2449SOL     OW 8245   1.612   3.821   1.822
 2449SOL    HW1 8246   1.564   3.759   1.760
 2449SOL    HW2 8247   1.676   3.877   1.770
 2450SOL     OW 8248   3.049   5.081   6.720
 2450SOL    HW1 8249   2.950   5.091   6.714
 2450SOL    HW2 8250   3.071   4.986   6.745
 2451SOL     OW 8251   0.727   6.945   4.157
 2451SOL    HW1 8252   0.675   7.023   4.124
 2451SOL    HW2 8253   0.824   6.961   4.143
 2452SOL     OW 8254   2.273   2.419   3.056
 2452SOL    HW1 8255   2.276   2.330   3.100
 2452SOL    HW2 8256   2.355   2.471   3.080
 2453SOL     OW 8257   6.497   2.178   0.806
 2453SOL    HW1 8258   6.586   2.178   0.760
 2453SOL    HW2 8259   6.439   2.105   0.767
 2454SOL     OW 8260   3.072   5.473   0.485
 2454SOL    HW1 8261   3.131   5.545   0.448
 2454SOL    HW2 8262   2.979   5.484   0.448
 2455SOL     OW 8263   3.272   1.172   0.253
 2455SOL    HW1 8264   3.182   1.156   0.294
 2455SOL    HW2 8265   3.271   1.142   0.158
 2456SOL     OW 8266   0.871   3.545   6.843
 2456SOL    HW1 8267   0.877   3.493   6.928
 2456SOL    HW2 8268   0.783   3.590   6.837
 2457SOL     OW 8269   5.561   1.071   5.853
 2457SOL    HW1 8270   5.462   1.073   5.865
 2457SOL    HW2 8271   5.584   1.102   5.761
 2458SOL     OW 8272   0.911   1.279   3.201
 2458SOL    HW1 8273   0.909   1.249   3.296
 2458SOL    HW2 8274   0.911   1.379   3.197
 2459SOL     OW 8275   2.538   5.662   6.060
 2459SOL    HW1 8276   2.482   5.579   6.060
 2459SOL    HW2 8277   2.522   5.712   6.145
 2460SOL     OW 8278   0.908   0.563   0.067
 2460SOL    HW1 8279   0.972   0.492   0.036
 2460SOL    HW2 8280   0.906   0.564   0.166
 2461SOL     OW 8281   4.638   6.780   4.027
 2461SOL    HW1 8282   4.608   6.725   4.105
 2461SOL    HW2 8283   4.557   6.809   3.975
 2462SOL     OW 8284   0.628   5.394   0.828
 2462SOL    HW1 8285   0.550   5.345   0.869
 2462SOL    HW2 8286   0.710   5.338   0.837
 2463SOL     OW 8287   6.622   1.764   0.704
 2463SOL    HW1 8288   6.697   1.780   0.640
 2463SOL    HW2 8289   6.551   1.833   0.690
 2464SOL     OW 8290   0.876   2.677   2.904
 2464SOL    HW1 8291   0.799   2.653   2.964
 2464SOL    HW2 8292   0.961   2.679   2.957
 2465SOL     OW 8293   6.849   6.126   6.261
 2465SOL    HW1 8294   6.809   6.063   6.194
 2465SOL    HW2 8295   6.930   6.169   6.222
 2466SOL     OW 8296   1.314   1.745   2.403
 2466SOL    HW1 8297   1.332   1.728   2.306
 2466SOL    HW2 8298   1.377   1.690   2.458
 2467SOL     OW 8299   4.533   2.024   5.809
 2467SOL    HW1 8300   4.618   1.973   5.799
 2467SOL    HW2 8301   4.512   2.036   5.906
 2468SOL     OW 8302   3.861   0.198   6.541
 2468SOL    HW1 8303   3.848   0.176   6.638
 2468SOL    HW2 8304   3.852   0.115   6.486
 2469SOL     OW 8305   3.957   3.122   5.631
 2469SOL    HW1 8306   4.006   3.092   5.549
 2469SOL    HW2 8307   3.951   3.222   5.631
 2470SOL     OW 8308   4.086   4.924   6.718
 2470SOL    HW1 8309   4.037   4.848   6.676
 2470SOL    HW2 8310   4.100   4.906   6.815
 2471SOL     OW 8311   3.273   0.145   0.610
 2471SOL    HW1 8312   3.322   0.227   0.580
 2471SOL    HW2 8313   3.178   0.150   0.582
 2472SOL     OW 8314   4.431   2.277   3.340
 2472SOL    HW1 8315   4.461   2.356   3.287
 2472SOL    HW2 8316   4.433   2.299   3.437
 2473SOL     OW 8317   0.989   4.464   5.385
 2473SOL    HW1 8318   1.036   4.449   5.298
 2473SOL    HW2 8319   0.917   4.533   5.373
 2474SOL     OW 8320   1.149   5.720   0.490
 2474SOL    HW1 8321   1.216   5.695   0.420
 2474SOL    HW2 8322   1.147   5.650   0.561
 2475SOL     OW 8323   4.796   0.149   1.557
 2475SOL    HW1 8324   4.869   0.145   1.490
 2475SOL    HW2 8325   4.716   0.193   1.517
 2476SOL     OW 8326   5.754   0.130   2.602
 2476SOL    HW1 8327   5.690   0.115   2.677
 2476SOL    HW2 8328   5.749   0.053   2.538
 2477SOL     OW 8329   3.839   0.911   3.179
 2477SOL    HW1 8330   3.761   0.849   3.164
 2477SOL    HW2 8331   3.909   0.894   3.110
 2478SOL     OW 8332   4.772   0.935   1.923
 2478SOL    HW1 8333   4.701   0.885   1.874
 2478SOL    HW2 8334   4.843   0.870   1.953
 2479SOL     OW 8335   1.397   2.641   1.545
 2479SOL    HW1 8336   1.302   2.641   1.516
 2479SOL    HW2 8337   1.431   2.547   1.547
 2480SOL     OW 8338   3.904   2.491   1.273
 2480SOL    HW1 8339   3.901   2.426   1.197
 2480SOL    HW2 8340   3.893   2.442   1.360
 2481SOL     OW 8341   2.900   0.599   1.355
 2481SOL    HW1 8342   2.967   0.524   1.356
 2481SOL    HW2 8343   2.821   0.573   1.299
 2482SOL     OW 8344   5.007   3.646   0.370
 2482SOL    HW1 8345   5.083   3.585   0.390
 2482SOL    HW2 8346   5.039   3.741   0.369
 2483SOL     OW 8347   1.725   1.379   0.250
 2483SOL    HW1 8348   1.786   1.415   0.180
 2483SOL    HW2 8349   1.721   1.443   0.327
 2484SOL     OW 8350   3.622   0.762   0.241
 2484SOL    HW1 8351   3.566   0.842   0.219
 2484SOL    HW2 8352   3.562   0.688   0.272
 2485SOL     OW 8353   5.087   3.069   0.607
 2485SOL    HW1 8354   5.114   3.119   0.689
 2485SOL    HW2 8355   5.162   3.069   0.541
 2486SOL     OW 8356   1.162   5.380   5.669
 2486SOL    HW1 8357   1.223   5.440   5.722
 2486SOL    HW2 8358   1.090   5.435   5.626
 2487SOL     OW 8359   4.447   6.268   6.825
 2487SOL    HW1 8360   4.365   6.292   6.774
 2487SOL    HW2 8361   4.502   6.203   6.772
 2488SOL     OW 8362   0.801   3.492   1.781
 2488SOL    HW1 8363   0.776   3.416   1.842
 2488SOL    HW2 8364   0.727   3.560   1.781
 2489SOL     OW 8365   1.256   5.841   3.417
 2489SOL    HW1 8366   1.168   5.826   3.371
 2489SOL    HW2 8367   1.317   5.763   3.399
 2490SOL     OW 8368   0.378   5.728   0.916
 2490SOL    HW1 8369   0.460   5.680   0.947
 2490SOL    HW2 8370   0.307   5.720   0.986
 2491SOL     OW 8371   3.570   4.449   1.153
 2491SOL    HW1 8372   3.528   4.461   1.063
 2491SOL    HW2 8373   3.547   4.527   1.211
 2492SOL     OW 8374   4.312   3.486   1.005
 2492SOL    HW1 8375   4.313   3.392   0.972
 2492SOL    HW2 8376   4.271   3.489   1.096
 2493SOL     OW 8377   6.584   6.954   1.785
 2493SOL    HW1 8378   6.648   6.975   1.859
 2493SOL    HW2 8379   6.628   6.969   1.697
 2494SOL     OW 8380   5.811   4.087   2.262
 2494SOL    HW1 8381   5.861   4.121   2.182
 2494SOL    HW2 8382   5.725   4.138   2.271
 2495SOL     OW 8383   5.083   5.648   3.626
 2495SOL    HW1 8384   5.077   5.580   3.698
 2495SOL    HW2 8385   5.170   5.638   3.578
 2496SOL     OW 8386   0.199   3.044   6.813
 2496SOL    HW1 8387   0.130   3.116   6.823
 2496SOL    HW2 8388   0.187   2.999   6.724
 2497SOL     OW 8389   0.529   0.302   0.781
 2497SOL    HW1 8390   0.586   0.239   0.833
 2497SOL    HW2 8391   0.448   0.325   0.834
 2498SOL     OW 8392   3.169   2.273   5.389
 2498SOL    HW1 8393   3.101   2.207   5.356
 2498SOL    HW2 8394   3.177   2.348   5.324
 2499SOL     OW 8395   5.991   3.563   2.383
 2499SOL    HW1 8396   5.924   3.615   2.437
 2499SOL    HW2 8397   6.024   3.486   2.437
 2500SOL     OW 8398   3.462   4.529   6.614
 2500SOL    HW1 8399   3.402   4.450   6.623
 2500SOL    HW2 8400   3.544   4.516   6.670
 2501SOL     OW 8401   5.524   5.786   0.059
 2501SOL    HW1 8402   5.541   5.741   0.147
 2501SOL    HW2 8403   5.556   5.727   7.009
 2502SOL     OW 8404   1.093   0.348   4.545
 2502SOL    HW1 8405   1.173   0.300   4.581
 2502SOL    HW2 8406   1.105   0.446   4.556
 2503SOL     OW 8407   2.555   6.759   4.278
 2503SOL    HW1 8408   2.653   6.764   4.259
 2503SOL    HW2 8409   2.527   6.840   4.329
 2504SOL     OW 8410   3.437   5.700   3.757
 2504SOL    HW1 8411   3.516   5.762   3.756
 2504SOL    HW2 8412   3.363   5.741   3.809
 2505SOL     OW 8413   0.367   6.702   2.883
 2505SOL    HW1 8414   0.389   6.796   2.906
 2505SOL    HW2 8415   0.452   6.649   2.876
 2506SOL     OW 8416   6.579   3.269   6.372
 2506SOL    HW1 8417   6.483   3.263   6.400
 2506SOL    HW2 8418   6.636   3.294   6.450
 2507SOL     OW 8419   6.206   3.423   0.324
 2507SOL    HW1 8420   6.278   3.491   0.337
 2507SOL    HW2 8421   6.244   3.341   0.281
 2508SOL     OW 8422   2.765   1.376   3.632
 2508SOL    HW1 8423   2.845   1.435   3.624
 2508SOL    HW2 8424   2.694   1.423   3.685
 2509SOL     OW 8425   0.154   4.622   0.947
 2509SOL    HW1 8426   0.215   4.686   0.993
 2509SOL    HW2 8427   0.208   4.550   0.903
 2510SOL     OW 8428   2.646   4.697   1.140
 2510SOL    HW1 8429   2.571   4.710   1.204
 2510SOL    HW2 8430   2.611   4.694   1.047
 2511SOL     OW 8431   3.185   1.912   4.006
 2511SOL    HW1 8432   3.198   1.923   3.908
 2511SOL    HW2 8433   3.205   1.998   4.052
 2512SOL     OW 8434   4.518   3.957   5.344
 2512SOL    HW1 8435   4.610   3.918   5.345
 2512SOL    HW2 8436   4.479   3.954   5.437
 2513SOL     OW 8437   2.063   4.936   4.841
 2513SOL    HW1 8438   2.124   4.940   4.920
 2513SOL    HW2 8439   1.990   5.004   4.852
 2514SOL     OW 8440   0.561   3.632   5.165
 2514SOL    HW1 8441   0.532   3.694   5.238
 2514SOL    HW2 8442   0.548   3.538   5.194
 2515SOL     OW 8443   1.901   6.268   0.585
 2515SOL    HW1 8444   1.939   6.179   0.612
 2515SOL    HW2 8445   1.802   6.267   0.600
 2516SOL     OW 8446   5.223   1.373   2.743
 2516SOL    HW1 8447   5.299   1.333   2.692
 2516SOL    HW2 8448   5.252   1.458   2.787
 2517SOL     OW 8449   1.297   0.338   6.023
 2517SOL    HW1 8450   1.394   0.352   6.004
 2517SOL    HW2 8451   1.243   0.396   5.962
 2518SOL     OW 8452   1.471   5.272   0.733
 2518SOL    HW1 8453   1.407   5.334   0.778
 2518SOL    HW2 8454   1.519   5.321   0.660
 2519SOL     OW 8455   4.074   6.916   2.088
 2519SOL    HW1 8456   4.069   6.973   2.006
 2519SOL    HW2 8457   3.998   6.939   2.149
 2520SOL     OW 8458   3.250   1.386   0.869
 2520SOL    HW1 8459   3.297   1.473   0.885
 2520SOL    HW2 8460   3.164   1.385   0.920
 2521SOL     OW 8461   3.117   0.455   5.390
 2521SOL    HW1 8462   3.212   0.487   5.396
 2521SOL    HW2 8463   3.057   0.532   5.366
 2522SOL     OW 8464   0.918   2.144   5.384
 2522SOL    HW1 8465   0.904   2.243   5.383
 2522SOL    HW2 8466   0.922   2.110   5.291
 2523SOL     OW 8467   1.162   2.622   0.866
 2523SOL    HW1 8468   1.212   2.708   0.857
 2523SOL    HW2 8469   1.201   2.569   0.942
 2524SOL     OW 8470   0.179   6.372   5.160
 2524SOL    HW1 8471   0.254   6.395   5.097
 2524SOL    HW2 8472   0.167   6.273   5.164
 2525SOL     OW 8473   1.192   2.133   5.484
 2525SOL    HW1 8474   1.097   2.115   5.457
 2525SOL    HW2 8475   1.194   2.169   5.577
 2526SOL     OW 8476   1.363   5.114   6.224
 2526SOL    HW1 8477   1.342   5.107   6.126
 2526SOL    HW2 8478   1.387   5.024   6.260
 2527SOL     OW 8479   6.084   6.463   6.012
 2527SOL    HW1 8480   6.130   6.552   6.012
 2527SOL    HW2 8481   6.064   6.436   5.918
 2528SOL     OW 8482   6.453   5.405   6.657
 2528SOL    HW1 8483   6.539   5.365   6.690
 2528SOL    HW2 8484   6.457   5.504   6.663
 2529SOL     OW 8485   6.278   6.285   6.427
 2529SOL    HW1 8486   6.205   6.298   6.494
 2529SOL    HW2 8487   6.352   6.350   6.444
 2530SOL     OW 8488   2.532   6.157   4.660
 2530SOL    HW1 8489   2.503   6.191   4.750
 2530SOL    HW2 8490   2.453   6.149   4.600
 2531SOL     OW 8491   5.689   5.837   4.356
 2531SOL    HW1 8492   5.644   5.828   4.445
 2531SOL    HW2 8493   5.708   5.934   4.338
 2532SOL     OW 8494   0.443   6.275   0.470
 2532SOL    HW1 8495   0.509   6.231   0.531
 2532SOL    HW2 8496   0.390   6.342   0.521
 2533SOL     OW 8497   3.947   6.955   4.018
 2533SOL    HW1 8498   3.964   0.027   4.042
 2533SOL    HW2 8499   3.848   6.939   4.011
 2534SOL     OW 8500   3.719   1.546   2.039
 2534SOL    HW1 8501   3.713   1.646   2.048
 2534SOL    HW2 8502   3.628   1.506   2.050
 2535SOL     OW 8503   3.268   3.175   5.921
 2535SOL    HW1 8504   3.344   3.159   5.858
 2535SOL    HW2 8505   3.208   3.095   5.921
 2536SOL     OW 8506   1.293   1.445   5.253
 2536SOL    HW1 8507   1.324   1.405   5.167
 2536SOL    HW2 8508   1.273   1.542   5.239
 2537SOL     OW 8509   3.300   0.061   6.278
 2537SOL    HW1 8510   3.311   0.018   6.367
 2537SOL    HW2 8511   3.385   0.053   6.226
 2538SOL     OW 8512   0.815   4.105   3.247
 2538SOL    HW1 8513   0.841   4.027   3.190
 2538SOL    HW2 8514   0.813   4.076   3.343
 2539SOL     OW 8515   5.807   0.960   4.697
 2539SOL    HW1 8516   5.803   0.904   4.779
 2539SOL    HW2 8517   5.845   0.907   4.621
 2540SOL     OW 8518   3.967   2.025   2.484
 2540SOL    HW1 8519   3.999   1.943   2.437
 2540SOL    HW2 8520   4.007   2.106   2.441
 2541SOL     OW 8521   3.253   0.724   4.543
 2541SOL    HW1 8522   3.295   0.814   4.536
 2541SOL    HW2 8523   3.285   0.678   4.626
 2542SOL     OW 8524   3.135   2.938   5.948
 2542SOL    HW1 8525   3.095   2.846   5.944
 2542SOL    HW2 8526   3.194   2.946   6.028
 2543SOL     OW 8527   0.639   0.970   3.409
 2543SOL    HW1 8528   0.652   0.909   3.330
 2543SOL    HW2 8529   0.583   0.924   3.477
 2544SOL     OW 8530   0.661   6.021   1.093
 2544SOL    HW1 8531   0.630   6.042   1.185
 2544SOL    HW2 8532   0.599   6.063   1.026
 2545SOL     OW 8533   1.110   6.925   1.990
 2545SOL    HW1 8534   1.188   6.981   1.962
 2545SOL    HW2 8535   1.121   6.833   1.951
 2546SOL     OW 8536   7.000   1.229   2.100
 2546SOL    HW1 8537   0.009   1.267   2.014
 2546SOL    HW2 8538   6.976   1.133   2.088
 2547SOL     OW 8539   6.940   4.191   0.454
 2547SOL    HW1 8540   6.849   4.233   0.457
 2547SOL    HW2 8541   6.932   4.096   0.424
 2548SOL     OW 8542   0.740   6.941   5.187
 2548SOL    HW1 8543   0.783   0.004   5.212
 2548SOL    HW2 8544   0.641   6.949   5.194
 2549SOL     OW 8545   1.096   0.345   0.664
 2549SOL    HW1 8546   1.171   0.389   0.615
 2549SOL    HW2 8547   1.009   0.376   0.627
 2550SOL     OW 8548   0.343   0.773   6.931
 2550SOL    HW1 8549   0.259   0.724   6.954
 2550SOL    HW2 8550   0.350   0.856   6.985
 2551SOL     OW 8551   3.723   4.878   0.548
 2551SOL    HW1 8552   3.673   4.804   0.503
 2551SOL    HW2 8553   3.730   4.956   0.487
 2552SOL     OW 8554   1.894   6.118   4.185
 2552SOL    HW1 8555   1.816   6.155   4.135
 2552SOL    HW2 8556   1.970   6.104   4.122
 2553SOL     OW 8557   4.472   3.546   5.881
 2553SOL    HW1 8558   4.401   3.480   5.857
 2553SOL    HW2 8559   4.449   3.591   5.967
 2554SOL     OW 8560   2.841   7.002   0.654
 2554SOL    HW1 8561   2.797   6.963   0.573
 2554SOL    HW2 8562   2.771   7.022   0.723
 2555SOL     OW 8563   5.796   0.053   4.785
 2555SOL    HW1 8564   5.834   0.052   4.878
 2555SOL    HW2 8565   5.774   6.983   4.757
 2556SOL     OW 8566   3.928   6.250   0.052
 2556SOL    HW1 8567   3.967   6.337   0.085
 2556SOL    HW2 8568   3.988   6.175   0.077
 2557SOL     OW 8569   2.369   4.398   6.936
 2557SOL    HW1 8570   2.379   4.496   6.949
 2557SOL    HW2 8571   2.272   4.374   6.929
 2558SOL     OW 8572   5.265   1.550   5.432
 2558SOL    HW1 8573   5.309   1.633   5.398
 2558SOL    HW2 8574   5.278   1.476   5.366
 2559SOL     OW 8575   0.486   3.828   5.342
 2559SOL    HW1 8576   0.493   3.922   5.374
 2559SOL    HW2 8577   0.390   3.806   5.324
 2560SOL     OW 8578   5.435   2.969   5.134
 2560SOL    HW1 8579   5.444   2.963   5.234
 2560SOL    HW2 8580   5.473   3.056   5.102
 2561SOL     OW 8581   2.969   5.934   5.400
 2561SOL    HW1 8582   2.899   5.971   5.339
 2561SOL    HW2 8583   2.933   5.853   5.447
 2562SOL     OW 8584   2.188   5.127   1.542
 2562SOL    HW1 8585   2.247   5.075   1.603
 2562SOL    HW2 8586   2.098   5.084   1.537
 2563SOL     OW 8587   3.297   2.141   0.532
 2563SOL    HW1 8588   3.395   2.127   0.520
 2563SOL    HW2 8589   3.250   2.120   0.446
 2564SOL     OW 8590   2.533   5.780   6.450
 2564SOL    HW1 8591   2.434   5.793   6.451
 2564SOL    HW2 8592   2.557   5.702   6.507
 2565SOL     OW 8593   1.422   0.016   6.573
 2565SOL    HW1 8594   1.355   0.015   6.499
 2565SOL    HW2 8595   1.375   0.026   6.660
 2566SOL     OW 8596   2.129   0.037   1.357
 2566SOL    HW1 8597   2.135   0.124   1.308
 2566SOL    HW2 8598   2.213   0.022   1.409
 2567SOL     OW 8599   1.304   0.481   0.544
 2567SOL    HW1 8600   1.351   0.558   0.587
 2567SOL    HW2 8601   1.368   0.431   0.487
 2568SOL     OW 8602   4.090   1.147   0.051
 2568SOL    HW1 8603   4.051   1.231   0.013
 2568SOL    HW2 8604   4.016   1.084   0.075
 2569SOL     OW 8605   2.996   0.580   2.425
 2569SOL    HW1 8606   2.905   0.615   2.406
 2569SOL    HW2 8607   3.029   0.617   2.512
 2570SOL     OW 8608   5.504   0.213   6.341
 2570SOL    HW1 8609   5.503   0.292   6.402
 2570SOL    HW2 8610   5.598   0.184   6.325
 2571SOL     OW 8611   2.367   4.446   5.158
 2571SOL    HW1 8612   2.390   4.464   5.062
 2571SOL    HW2 8613   2.293   4.506   5.186
 2572SOL     OW 8614   2.711   6.030   1.027
 2572SOL    HW1 8615   2.714   6.023   1.127
 2572SOL    HW2 8616   2.709   5.938   0.988
 2573SOL     OW 8617   7.013   1.795   1.690
 2573SOL    HW1 8618   0.026   1.888   1.700
 2573SOL    HW2 8619   0.038   1.733   1.752
 2574SOL     OW 8620   5.691   4.152   0.679
 2574SOL    HW1 8621   5.697   4.149   0.779
 2574SOL    HW2 8622   5.755   4.220   0.643
 2575SOL     OW 8623   4.772   5.701   0.755
 2575SOL    HW1 8624   4.822   5.680   0.839
 2575SOL    HW2 8625   4.732   5.792   0.761
 2576SOL     OW 8626   4.530   6.568   4.849
 2576SOL    HW1 8627   4.523   6.629   4.770
 2576SOL    HW2 8628   4.595   6.606   4.915
 2577SOL     OW 8629   4.016   6.663   2.354
 2577SOL    HW1 8630   4.076   6.685   2.277
 2577SOL    HW2 8631   4.015   6.564   2.368
 2578SOL     OW 8632   4.353   1.595   4.810
 2578SOL    HW1 8633   4.316   1.673   4.860
 2578SOL    HW2 8634   4.353   1.615   4.712
 2579SOL     OW 8635   1.328   6.607   3.586
 2579SOL    HW1 8636   1.243   6.657   3.570
 2579SOL    HW2 8637   1.337   6.535   3.517
 2580SOL     OW 8638   3.173   4.669   6.490
 2580SOL    HW1 8639   3.142   4.638   6.400
 2580SOL    HW2 8640   3.269   4.696   6.485
 2581SOL     OW 8641   2.385   4.741   2.157
 2581SOL    HW1 8642   2.453   4.668   2.156
 2581SOL    HW2 8643   2.395   4.796   2.074
 2582SOL     OW 8644   0.344   4.526   1.158
 2582SOL    HW1 8645   0.417   4.545   1.092
 2582SOL    HW2 8646   0.334   4.428   1.169
 2583SOL     OW 8647   1.124   1.489   6.663
 2583SOL    HW1 8648   1.091   1.575   6.703
 2583SOL    HW2 8649   1.198   1.453   6.719
 2584SOL     OW 8650   4.975   5.401   6.104
 2584SOL    HW1 8651   4.988   5.339   6.027
 2584SOL    HW2 8652   5.034   5.374   6.180
 2585SOL     OW 8653   3.707   3.617   1.056
 2585SOL    HW1 8654   3.776   3.588   1.123
 2585SOL    HW2 8655   3.741   3.697   1.006
 2586SOL     OW 8656   3.396   0.591   5.189
 2586SOL    HW1 8657   3.348   0.553   5.111
 2586SOL    HW2 8658   3.494   0.593   5.170
 2587SOL     OW 8659   5.670   0.981   3.481
 2587SOL    HW1 8660   5.694   0.960   3.576
 2587SOL    HW2 8661   5.577   0.949   3.463
 2588SOL     OW 8662   4.456   2.043   6.350
 2588SOL    HW1 8663   4.457   2.141   6.330
 2588SOL    HW2 8664   4.543   2.016   6.391
 2589SOL     OW 8665   1.489   6.502   5.668
 2589SOL    HW1 8666   1.462   6.594   5.641
 2589SOL    HW2 8667   1.588   6.500   5.686
 2590SOL     OW 8668   3.923   4.909   0.138
 2590SOL    HW1 8669   3.856   4.958   0.193
 2590SOL    HW2 8670   3.933   4.816   0.171
 2591SOL     OW 8671   6.753   4.607   3.222
 2591SOL    HW1 8672   6.680   4.673   3.202
 2591SOL    HW2 8673   6.714   4.514   3.223
 2592SOL     OW 8674   3.070   4.586   0.201
 2592SOL    HW1 8675   2.987   4.540   0.233
 2592SOL    HW2 8676   3.150   4.547   0.245
 2593SOL     OW 8677   4.089   6.005   6.869
 2593SOL    HW1 8678   4.130   5.931   6.922
 2593SOL    HW2 8679   4.133   6.009   6.779
 2594SOL     OW 8680   1.902   3.787   5.790
 2594SOL    HW1 8681   1.900   3.737   5.704
 2594SOL    HW2 8682   1.995   3.789   5.826
 2595SOL     OW 8683   6.891   0.375   4.159
 2595SOL    HW1 8684   6.897   0.437   4.237
 2595SOL    HW2 8685   6.794   0.355   4.141
 2596SOL     OW 8686   2.900   2.414   1.629
 2596SOL    HW1 8687   2.997   2.410   1.602
 2596SOL    HW2 8688   2.893   2.402   1.728
 2597SOL     OW 8689   0.351   4.942   6.162
 2597SOL    HW1 8690   0.348   5.041   6.177
 2597SOL    HW2 8691   0.418   4.900   6.224
 2598SOL     OW 8692   6.339   1.560   2.635
 2598SOL    HW1 8693   6.317   1.582   2.540
 2598SOL    HW2 8694   6.435   1.531   2.641
 2599SOL     OW 8695   1.374   5.894   0.822
 2599SOL    HW1 8696   1.418   5.805   0.832
 2599SOL    HW2 8697   1.299   5.887   0.756
 2600SOL     OW 8698   5.436   2.740   4.738
 2600SOL    HW1 8699   5.374   2.664   4.756
 2600SOL    HW2 8700   5.394   2.804   4.675
 2601SOL     OW 8701   1.663   1.844   1.329
 2601SOL    HW1 8702   1.632   1.872   1.419
 2601SOL    HW2 8703   1.621   1.756   1.305
 2602SOL     OW 8704   1.235   4.844   5.065
 2602SOL    HW1 8705   1.197   4.794   5.142
 2602SOL    HW2 8706   1.222   4.942   5.078
 2603SOL     OW 8707   2.998   1.210   2.969
 2603SOL    HW1 8708   2.909   1.253   2.957
 2603SOL    HW2 8709   3.002   1.124   2.917
 2604SOL     OW 8710   4.500   2.233   3.021
 2604SOL    HW1 8711   4.487   2.178   2.938
 2604SOL    HW2 8712   4.509   2.330   2.995
 2605SOL     OW 8713   1.531   3.522   2.617
 2605SOL    HW1 8714   1.500   3.439   2.665
 2605SOL    HW2 8715   1.486   3.528   2.528
 2606SOL     OW 8716   6.206   5.030   1.825
 2606SOL    HW1 8717   6.288   4.995   1.870
 2606SOL    HW2 8718   6.230   5.067   1.736
 2607SOL     OW 8719   0.824   1.235   1.044
 2607SOL    HW1 8720   0.905   1.196   1.087
 2607SOL    HW2 8721   0.786   1.169   0.979
 2608SOL     OW 8722   3.688   5.413   0.505
 2608SOL    HW1 8723   3.735   5.373   0.584
 2608SOL    HW2 8724   3.647   5.340   0.450
 2609SOL     OW 8725   5.842   1.363   2.024
 2609SOL    HW1 8726   5.828   1.378   1.926
 2609SOL    HW2 8727   5.934   1.328   2.040
 2610SOL     OW 8728   0.784   4.555   4.409
 2610SOL    HW1 8729   0.735   4.643   4.403
 2610SOL    HW2 8730   0.725   4.482   4.374
 2611SOL     OW 8731   4.734   6.245   0.173
 2611SOL    HW1 8732   4.806   6.303   0.211
 2611SOL    HW2 8733   4.713   6.172   0.238
 2612SOL     OW 8734   5.704   6.409   4.794
 2612SOL    HW1 8735   5.665   6.318   4.780
 2612SOL    HW2 8736   5.696   6.435   4.890
 2613SOL     OW 8737   2.409   5.400   6.489
 2613SOL    HW1 8738   2.323   5.365   6.526
 2613SOL    HW2 8739   2.461   5.325   6.448
 2614SOL     OW 8740   6.255   1.499   0.317
 2614SOL    HW1 8741   6.275   1.594   0.291
 2614SOL    HW2 8742   6.334   1.461   0.365
 2615SOL     OW 8743   1.135   3.280   1.340
 2615SOL    HW1 8744   1.124   3.307   1.245
 2615SOL    HW2 8745   1.058   3.316   1.394
 2616SOL     OW 8746   1.562   1.573   5.636
 2616SOL    HW1 8747   1.630   1.619   5.580
 2616SOL    HW2 8748   1.590   1.479   5.654
 2617SOL     OW 8749   4.716   1.106   0.887
 2617SOL    HW1 8750   4.789   1.163   0.849
 2617SOL    HW2 8751   4.672   1.154   0.963
 2618SOL     OW 8752   0.047   6.335   4.205
 2618SOL    HW1 8753   0.090   6.297   4.287
 2618SOL    HW2 8754   0.111   6.328   4.128
 2619SOL     OW 8755   4.709   1.613   1.692
 2619SOL    HW1 8756   4.654   1.670   1.752
 2619SOL    HW2 8757   4.687   1.516   1.709
 2620SOL     OW 8758   6.769   6.974   2.781
 2620SOL    HW1 8759   6.782   6.993   2.684
 2620SOL    HW2 8760   6.741   6.879   2.793
 2621SOL     OW 8761   0.837   4.591   2.459
 2621SOL    HW1 8762   0.826   4.554   2.551
 2621SOL    HW2 8763   0.928   4.632   2.449
 2622SOL     OW 8764   2.877   3.405   5.974
 2622SOL    HW1 8765   2.921   3.318   5.998
 2622SOL    HW2 8766   2.792   3.387   5.924
 2623SOL     OW 8767   0.887   0.873   5.004
 2623SOL    HW1 8768   0.852   0.963   4.975
 2623SOL    HW2 8769   0.935   0.883   5.090
 2624SOL     OW 8770   6.700   2.141   5.217
 2624SOL    HW1 8771   6.785   2.117   5.262
 2624SOL    HW2 8772   6.708   2.232   5.176
 2625SOL     OW 8773   2.366   3.733   5.486
 2625SOL    HW1 8774   2.435   3.783   5.538
 2625SOL    HW2 8775   2.275   3.763   5.515
 2626SOL     OW 8776   6.531   0.103   5.908
 2626SOL    HW1 8777   6.626   0.091   5.878
 2626SOL    HW2 8778   6.510   0.036   5.979
 2627SOL     OW 8779   1.285   0.991   5.608
 2627SOL    HW1 8780   1.271   1.073   5.553
 2627SOL    HW2 8781   1.290   1.016   5.705
 2628SOL     OW 8782   2.051   3.917   5.230
 2628SOL    HW1 8783   2.061   4.011   5.197
 2628SOL    HW2 8784   2.137   3.868   5.214
 2629SOL     OW 8785   4.133   3.370   2.718
 2629SOL    HW1 8786   4.087   3.282   2.719
 2629SOL    HW2 8787   4.125   3.413   2.808
 2630SOL     OW 8788   3.606   1.711   3.369
 2630SOL    HW1 8789   3.549   1.751   3.441
 2630SOL    HW2 8790   3.563   1.727   3.280
 2631SOL     OW 8791   5.270   1.006   6.774
 2631SOL    HW1 8792   5.307   1.080   6.717
 2631SOL    HW2 8793   5.329   0.993   6.853
 2632SOL     OW 8794   6.002   3.619   1.042
 2632SOL    HW1 8795   5.923   3.596   1.099
 2632SOL    HW2 8796   5.993   3.713   1.009
 2633SOL     OW 8797   6.575   2.128   4.864
 2633SOL    HW1 8798   6.640   2.193   4.825
 2633SOL    HW2 8799   6.603   2.035   4.840
 2634SOL     OW 8800   0.401   5.531   3.638
 2634SOL    HW1 8801   0.371   5.575   3.553
 2634SOL    HW2 8802   0.380   5.433   3.634
 2635SOL     OW 8803   6.305   5.576   4.079
 2635SOL    HW1 8804   6.266   5.515   4.147
 2635SOL    HW2 8805   6.370   5.638   4.122
 2636SOL     OW 8806   3.891   0.555   6.931
 2636SOL    HW1 8807   3.918   0.530   0.001
 2636SOL    HW2 8808   3.962   0.612   6.890
 2637SOL     OW 8809   6.277   1.552   4.235
 2637SOL    HW1 8810   6.178   1.561   4.219
 2637SOL    HW2 8811   6.325   1.557   4.148
 2638SOL     OW 8812   0.008   6.810   4.369
 2638SOL    HW1 8813   0.107   6.817   4.370
 2638SOL    HW2 8814   6.993   6.863   4.445
 2639SOL     OW 8815   5.656   5.518   6.032
 2639SOL    HW1 8816   5.654   5.457   6.112
 2639SOL    HW2 8817   5.563   5.534   6.000
 2640SOL     OW 8818   0.011   0.143   4.994
 2640SOL    HW1 8819   0.014   0.043   5.002
 2640SOL    HW2 8820   6.964   0.179   5.055
 2641SOL     OW 8821   4.659   2.158   1.140
 2641SOL    HW1 8822   4.592   2.230   1.158
 2641SOL    HW2 8823   4.619   2.069   1.162
 2642SOL     OW 8824   6.561   0.294   3.502
 2642SOL    HW1 8825   6.507   0.372   3.469
 2642SOL    HW2 8826   6.603   0.317   3.590
 2643SOL     OW 8827   1.523   3.244   3.855
 2643SOL    HW1 8828   1.613   3.273   3.823
 2643SOL    HW2 8829   1.453   3.283   3.797
 2644SOL     OW 8830   4.590   5.622   5.178
 2644SOL    HW1 8831   4.685   5.589   5.173
 2644SOL    HW2 8832   4.587   5.718   5.151
 2645SOL     OW 8833   5.141   4.735   3.599
 2645SOL    HW1 8834   5.047   4.725   3.566
 2645SOL    HW2 8835   5.140   4.782   3.687
 2646SOL     OW 8836   0.351   3.145   0.031
 2646SOL    HW1 8837   0.345   3.220   0.097
 2646SOL    HW2 8838   0.273   3.150   6.992
 2647SOL     OW 8839   6.045   6.935   1.744
 2647SOL    HW1 8840   6.026   0.010   1.745
 2647SOL    HW2 8841   6.121   6.916   1.683
 2648SOL     OW 8842   6.945   6.699   4.121
 2648SOL    HW1 8843   6.943   6.607   4.159
 2648SOL    HW2 8844   6.969   6.764   4.193
 2649SOL     OW 8845   5.935   3.305   1.523
 2649SOL    HW1 8846   5.974   3.360   1.597
 2649SOL    HW2 8847   5.965   3.210   1.533
 2650SOL     OW 8848   2.280   5.898   4.715
 2650SOL    HW1 8849   2.343   5.831   4.678
 2650SOL    HW2 8850   2.285   5.897   4.815
 2651SOL     OW 8851   3.543   1.009   6.899
 2651SOL    HW1 8852   3.476   1.060   6.953
 2651SOL    HW2 8853   3.517   0.913   6.895
 2652SOL     OW 8854   4.759   3.425   5.955
 2652SOL    HW1 8855   4.664   3.423   5.988
 2652SOL    HW2 8856   4.764   3.474   5.869
 2653SOL     OW 8857   4.327   6.118   5.738
 2653SOL    HW1 8858   4.234   6.124   5.775
 2653SOL    HW2 8859   4.352   6.205   5.696
 2654SOL     OW 8860   5.312   6.124   0.951
 2654SOL    HW1 8861   5.303   6.026   0.970
 2654SOL    HW2 8862   5.297   6.175   1.035
 2655SOL     OW 8863   4.520   5.397   3.743
 2655SOL    HW1 8864   4.463   5.345   3.679
 2655SOL    HW2 8865   4.465   5.426   3.821
 2656SOL     OW 8866   3.543   4.980   3.625
 2656SOL    HW1 8867   3.642   4.992   3.632
 2656SOL    HW2 8868   3.498   5.036   3.694
 2657SOL     OW 8869   2.056   3.242   0.840
 2657SOL    HW1 8870   2.130   3.189   0.881
 2657SOL    HW2 8871   2.025   3.198   0.756
 2658SOL     OW 8872   4.939   4.407   0.479
 2658SOL    HW1 8873   5.009   4.439   0.543
 2658SOL    HW2 8874   4.851   4.400   0.527
 2659SOL     OW 8875   4.762   3.166   5.497
 2659SOL    HW1 8876   4.678   3.221   5.494
 2659SOL    HW2 8877   4.811   3.176   5.410
 2660SOL     OW 8878   0.745   1.025   1.396
 2660SOL    HW1 8879   0.744   1.022   1.296
 2660SOL    HW2 8880   0.692   0.949   1.433
 2661SOL     OW 8881   1.738   0.316   1.627
 2661SOL    HW1 8882   1.833   0.333   1.604
 2661SOL    HW2 8883   1.706   0.234   1.580
 2662SOL     OW 8884   2.382   0.215   3.592
 2662SOL    HW1 8885   2.397   0.156   3.513
 2662SOL    HW2 8886   2.341   0.301   3.563
 2663SOL     OW 8887   4.780   5.497   5.754
 2663SOL    HW1 8888   4.742   5.578   5.798
 2663SOL    HW2 8889   4.879   5.494   5.769
 2664SOL     OW 8890   4.129   3.068   5.444
 2664SOL    HW1 8891   4.079   3.076   5.358
 2664SOL    HW2 8892   4.203   3.001   5.433
 2665SOL     OW 8893   2.300   3.094   5.352
 2665SOL    HW1 8894   2.294   3.189   5.321
 2665SOL    HW2 8895   2.376   3.049   5.305
 2666SOL     OW 8896   1.586   3.696   2.079
 2666SOL    HW1 8897   1.626   3.695   1.987
 2666SOL    HW2 8898   1.575   3.791   2.110
 2667SOL     OW 8899   0.963   5.209   4.014
 2667SOL    HW1 8900   0.918   5.198   4.103
 2667SOL    HW2 8901   0.999   5.302   4.006
 2668SOL     OW 8902   5.520   3.165   4.693
 2668SOL    HW1 8903   5.459   3.103   4.644
 2668SOL    HW2 8904   5.611   3.163   4.650
 2669SOL     OW 8905   3.467   5.651   6.638
 2669SOL    HW1 8906   3.511   5.660   6.727
 2669SOL    HW2 8907   3.421   5.562   6.631
 2670SOL     OW 8908   6.409   2.396   4.908
 2670SOL    HW1 8909   6.477   2.468   4.889
 2670SOL    HW2 8910   6.455   2.308   4.914
 2671SOL     OW 8911   5.069   5.537   5.831
 2671SOL    HW1 8912   5.088   5.634   5.818
 2671SOL    HW2 8913   5.074   5.514   5.928
 2672SOL     OW 8914   3.213   0.237   1.667
 2672SOL    HW1 8915   3.244   0.298   1.593
 2672SOL    HW2 8916   3.288   0.221   1.731
 2673SOL     OW 8917   5.715   1.592   2.411
 2673SOL    HW1 8918   5.742   1.688   2.419
 2673SOL    HW2 8919   5.626   1.578   2.456
 2674SOL     OW 8920   1.519   4.653   3.757
 2674SOL    HW1 8921   1.605   4.677   3.713
 2674SOL    HW2 8922   1.445   4.656   3.691
 2675SOL     OW 8923   0.319   6.580   4.040
 2675SOL    HW1 8924   0.383   6.636   3.987
 2675SOL    HW2 8925   0.347   6.578   4.136
 2676SOL     OW 8926   3.563   3.636   2.912
 2676SOL    HW1 8927   3.620   3.561   2.880
 2676SOL    HW2 8928   3.620   3.703   2.959
 2677SOL     OW 8929   3.100   4.921   1.123
 2677SOL    HW1 8930   3.028   4.979   1.084
 2677SOL    HW2 8931   3.107   4.938   1.221
 2678SOL     OW 8932   6.921   2.744   2.029
 2678SOL    HW1 8933   6.944   2.794   1.946
 2678SOL    HW2 8934   6.876   2.658   2.005
 2679SOL     OW 8935   1.882   5.241   2.544
 2679SOL    HW1 8936   1.785   5.220   2.532
 2679SOL    HW2 8937   1.921   5.178   2.612
 2680SOL     OW 8938   1.446   2.654   0.315
 2680SOL    HW1 8939   1.528   2.711   0.311
 2680SOL    HW2 8940   1.373   2.694   0.261
 2681SOL     OW 8941   1.464   2.615   5.025
 2681SOL    HW1 8942   1.518   2.645   4.947
 2681SOL    HW2 8943   1.414   2.693   5.063
 2682SOL     OW 8944   5.510   4.089   2.994
 2682SOL    HW1 8945   5.423   4.123   2.958
 2682SOL    HW2 8946   5.494   4.005   3.047
 2683SOL     OW 8947   2.440   4.446   2.404
 2683SOL    HW1 8948   2.387   4.395   2.336
 2683SOL    HW2 8949   2.517   4.491   2.360
 2684SOL     OW 8950   5.132   6.884   1.544
 2684SOL    HW1 8951   5.151   6.926   1.633
 2684SOL    HW2 8952   5.213   6.834   1.513
 2685SOL     OW 8953   6.417   4.720   4.946
 2685SOL    HW1 8954   6.463   4.641   4.986
 2685SOL    HW2 8955   6.321   4.720   4.973
 2686SOL     OW 8956   1.056   1.215   5.125
 2686SOL    HW1 8957   0.962   1.220   5.160
 2686SOL    HW2 8958   1.084   1.119   5.119
 2687SOL     OW 8959   3.596   6.489   1.513
 2687SOL    HW1 8960   3.559   6.530   1.596
 2687SOL    HW2 8961   3.565   6.394   1.506
 2688SOL     OW 8962   3.060   2.027   0.860
 2688SOL    HW1 8963   3.135   2.072   0.812
 2688SOL    HW2 8964   3.035   1.943   0.813
 2689SOL     OW 8965   0.321   3.779   2.676
 2689SOL    HW1 8966   0.246   3.752   2.616
 2689SOL    HW2 8967   0.297   3.761   2.771
 2690SOL     OW 8968   2.901   3.319   6.965
 2690SOL    HW1 8969   2.927   3.348   6.873
 2690SOL    HW2 8970   2.982   3.282   7.013
 2691SOL     OW 8971   0.378   4.305   3.887
 2691SOL    HW1 8972   0.477   4.302   3.878
 2691SOL    HW2 8973   0.353   4.326   3.981
 2692SOL     OW 8974   2.033   6.142   3.155
 2692SOL    HW1 8975   2.102   6.143   3.082
 2692SOL    HW2 8976   1.943   6.127   3.114
 2693SOL     OW 8977   1.878   4.929   4.080
 2693SOL    HW1 8978   1.956   4.924   4.143
 2693SOL    HW2 8979   1.907   4.973   3.996
 2694SOL     OW 8980   4.534   0.022   2.936
 2694SOL    HW1 8981   4.530   6.961   2.884
 2694SOL    HW2 8982   4.455   0.079   2.916
 2695SOL     OW 8983   6.063   6.986   2.883
 2695SOL    HW1 8984   6.077   6.966   2.979
 2695SOL    HW2 8985   6.040   0.059   2.872
 2696SOL     OW 8986   4.350   4.105   6.398
 2696SOL    HW1 8987   4.410   4.143   6.469
 2696SOL    HW2 8988   4.394   4.115   6.309
 2697SOL     OW 8989   4.459   1.137   2.118
 2697SOL    HW1 8990   4.546   1.117   2.164
 2697SOL    HW2 8991   4.440   1.235   2.124
 2698SOL     OW 8992   1.951   4.877   6.646
 2698SOL    HW1 8993   1.990   4.878   6.554
 2698SOL    HW2 8994   2.023   4.858   6.713
 2699SOL     OW 8995   2.780   5.502   1.185
 2699SOL    HW1 8996   2.699   5.476   1.239
 2699SOL    HW2 8997   2.838   5.563   1.239
 2700SOL     OW 8998   2.691   1.577   0.750
 2700SOL    HW1 8999   2.632   1.623   0.816
 2700SOL    HW2 9000   2.661   1.601   0.657
 2701SOL     OW 9001   4.963   2.639   5.729
 2701SOL    HW1 9002   4.991   2.609   5.638
 2701SOL    HW2 9003   5.038   2.690   5.772
 2702SOL     OW 9004   1.160   2.197   3.533
 2702SOL    HW1 9005   1.252   2.235   3.523
 2702SOL    HW2 9006   1.095   2.252   3.480
 2703SOL     OW 9007   1.633   5.611   1.334
 2703SOL    HW1 9008   1.726   5.590   1.365
 2703SOL    HW2 9009   1.592   5.528   1.295
 2704SOL     OW 9010   6.737   5.515   2.910
 2704SOL    HW1 9011   6.788   5.476   2.833
 2704SOL    HW2 9012   6.741   5.615   2.905
 2705SOL     OW 9013   6.206   1.336   5.586
 2705SOL    HW1 9014   6.249   1.302   5.502
 2705SOL    HW2 9015   6.235   1.430   5.603
 2706SOL     OW 9016   6.101   4.195   4.765
 2706SOL    HW1 9017   6.061   4.176   4.675
 2706SOL    HW2 9018   6.173   4.263   4.756
 2707SOL     OW 9019   4.126   6.547   4.217
 2707SOL    HW1 9020   4.137   6.539   4.118
 2707SOL    HW2 9021   4.050   6.490   4.247
 2708SOL     OW 9022   6.545   2.489   0.449
 2708SOL    HW1 9023   6.450   2.505   0.474
 2708SOL    HW2 9024   6.568   2.541   0.367
 2709SOL     OW 9025   4.861   7.016   6.247
 2709SOL    HW1 9026   4.940   6.961   6.274
 2709SOL    HW2 9027   4.810   0.021   6.329
 2710SOL     OW 9028   1.854   2.564   3.476
 2710SOL    HW1 9029   1.765   2.611   3.479
 2710SOL    HW2 9030   1.913   2.611   3.411
 2711SOL     OW 9031   3.220   1.568   3.194
 2711SOL    HW1 9032   3.150   1.634   3.220
 2711SOL    HW2 9033   3.177   1.489   3.149
 2712SOL     OW 9034   3.149   5.399   2.031
 2712SOL    HW1 9035   3.153   5.438   2.123
 2712SOL    HW2 9036   3.201   5.456   1.967
 2713SOL     OW 9037   4.042   4.185   6.740
 2713SOL    HW1 9038   4.005   4.094   6.722
 2713SOL    HW2 9039   4.135   4.176   6.775
 2714SOL     OW 9040   4.008   4.003   0.021
 2714SOL    HW1 9041   4.071   3.938   7.002
 2714SOL    HW2 9042   4.059   4.087   0.045
 2715SOL     OW 9043   5.028   2.103   1.032
 2715SOL    HW1 9044   5.038   2.023   1.090
 2715SOL    HW2 9045   5.032   2.186   1.088
 2716SOL     OW 9046   4.730   2.747   3.214
 2716SOL    HW1 9047   4.796   2.709   3.149
 2716SOL    HW2 9048   4.769   2.829   3.256
 2717SOL     OW 9049   0.555   0.045   2.413
 2717SOL    HW1 9050   0.651   0.072   2.426
 2717SOL    HW2 9051   0.497   0.126   2.409
 2718SOL     OW 9052   6.888   0.795   4.954
 2718SOL    HW1 9053   6.826   0.779   5.030
 2718SOL    HW2 9054   6.869   0.729   4.881
 2719SOL     OW 9055   1.485   4.364   2.070
 2719SOL    HW1 9056   1.528   4.441   2.022
 2719SOL    HW2 9057   1.548   4.286   2.071
 2720SOL     OW 9058   1.070   0.223   4.261
 2720SOL    HW1 9059   1.160   0.203   4.223
 2720SOL    HW2 9060   1.080   0.267   4.350
 2721SOL     OW 9061   3.207   6.444   2.749
 2721SOL    HW1 9062   3.272   6.439   2.673
 2721SOL    HW2 9063   3.150   6.525   2.738
 2722SOL     OW 9064   4.974   4.969   6.743
 2722SOL    HW1 9065   4.906   5.015   6.687
 2722SOL    HW2 9066   5.047   4.933   6.684
 2723SOL     OW 9067   2.790   6.353   6.774
 2723SOL    HW1 9068   2.812   6.436   6.723
 2723SOL    HW2 9069   2.865   6.331   6.837
 2724SOL     OW 9070   1.392   5.746   6.692
 2724SOL    HW1 9071   1.292   5.735   6.697
 2724SOL    HW2 9072   1.418   5.773   6.600
 2725SOL     OW 9073   5.652   3.808   4.622
 2725SOL    HW1 9074   5.658   3.880   4.553
 2725SOL    HW2 9075   5.556   3.788   4.642
 2726SOL     OW 9076   0.560   2.437   1.810
 2726SOL    HW1 9077   0.514   2.521   1.839
 2726SOL    HW2 9078   0.604   2.451   1.722
 2727SOL     OW 9079   1.740   3.952   4.400
 2727SOL    HW1 9080   1.669   3.910   4.343
 2727SOL    HW2 9081   1.825   3.958   4.348
 2728SOL     OW 9082   5.066   5.690   6.549
 2728SOL    HW1 9083   5.081   5.610   6.608
 2728SOL    HW2 9084   5.153   5.733   6.527
 2729SOL     OW 9085   6.833   6.274   6.904
 2729SOL    HW1 9086   6.830   6.322   6.817
 2729SOL    HW2 9087   6.752   6.217   6.914
 2730SOL     OW 9088   0.817   5.621   1.338
 2730SOL    HW1 9089   0.779   5.653   1.425
 2730SOL    HW2 9090   0.828   5.699   1.276
 2731SOL     OW 9091   3.287   3.240   3.189
 2731SOL    HW1 9092   3.219   3.183   3.142
 2731SOL    HW2 9093   3.343   3.288   3.121
 2732SOL     OW 9094   5.391   2.138   1.714
 2732SOL    HW1 9095   5.424   2.088   1.635
 2732SOL    HW2 9096   5.432   2.229   1.716
 2733SOL     OW 9097   0.036   1.528   4.829
 2733SOL    HW1 9098   0.051   1.430   4.835
 2733SOL    HW2 9099   0.102   1.569   4.767
 2734SOL     OW 9100   3.687   5.928   1.665
 2734SOL    HW1 9101   3.722   5.925   1.572
 2734SOL    HW2 9102   3.750   5.880   1.726
 2735SOL     OW 9103   1.557   2.052   0.678
 2735SOL    HW1 9104   1.475   2.036   0.623
 2735SOL    HW2 9105   1.583   2.149   0.672
 2736SOL     OW 9106   6.104   6.357   4.579
 2736SOL    HW1 9107   6.040   6.417   4.626
 2736SOL    HW2 9108   6.086   6.262   4.604
 2737SOL     OW 9109   2.596   2.982   5.874
 2737SOL    HW1 9110   2.548   2.895   5.860
 2737SOL    HW2 9111   2.637   3.012   5.788
 2738SOL     OW 9112   6.432   6.661   2.507
 2738SOL    HW1 9113   6.479   6.635   2.423
 2738SOL    HW2 9114   6.344   6.612   2.512
 2739SOL     OW 9115   0.389   5.316   0.964
 2739SOL    HW1 9116   0.357   5.410   0.958
 2739SOL    HW2 9117   0.331   5.266   1.029
 2740SOL     OW 9118   0.093   5.178   2.130
 2740SOL    HW1 9119   0.105   5.237   2.210
 2740SOL    HW2 9120   0.046   5.094   2.158
 2741SOL     OW 9121   0.462   1.965   5.121
 2741SOL    HW1 9122   0.507   1.913   5.193
 2741SOL    HW2 9123   0.381   2.011   5.158
 2742SOL     OW 9124   2.524   5.237   1.497
 2742SOL    HW1 9125   2.482   5.219   1.408
 2742SOL    HW2 9126   2.552   5.333   1.503
 2743SOL     OW 9127   7.015   4.571   2.537
 2743SOL    HW1 9128   0.088   4.555   2.515
 2743SOL    HW2 9129   6.961   4.491   2.508
 2744SOL     OW 9130   3.751   3.425   1.908
 2744SOL    HW1 9131   3.820   3.423   1.835
 2744SOL    HW2 9132   3.693   3.344   1.901
 2745SOL     OW 9133   6.670   1.135   5.302
 2745SOL    HW1 9134   6.627   1.163   5.387
 2745SOL    HW2 9135   6.699   1.039   5.309
 2746SOL     OW 9136   0.434   2.197   4.202
 2746SOL    HW1 9137   0.381   2.182   4.285
 2746SOL    HW2 9138   0.395   2.142   4.127
 2747SOL     OW 9139   4.816   5.339   6.614
 2747SOL    HW1 9140   4.765   5.339   6.528
 2747SOL    HW2 9141   4.778   5.270   6.676
 2748SOL     OW 9142   4.628   0.643   1.523
 2748SOL    HW1 9143   4.627   0.741   1.541
 2748SOL    HW2 9144   4.705   0.600   1.570
 2749SOL     OW 9145   0.743   5.020   0.526
 2749SOL    HW1 9146   0.714   4.967   0.605
 2749SOL    HW2 9147   0.707   5.113   0.533
 2750SOL     OW 9148   2.180   4.511   1.887
 2750SOL    HW1 9149   2.277   4.489   1.898
 2750SOL    HW2 9150   2.164   4.540   1.792
 2751SOL     OW 9151   1.736   2.367   1.331
 2751SOL    HW1 9152   1.715   2.302   1.258
 2751SOL    HW2 9153   1.666   2.361   1.402
 2752SOL     OW 9154   3.784   4.412   6.223
 2752SOL    HW1 9155   3.742   4.336   6.172
 2752SOL    HW2 9156   3.784   4.391   6.320
 2753SOL     OW 9157   6.922   6.065   5.251
 2753SOL    HW1 9158   6.960   6.145   5.204
 2753SOL    HW2 9159   6.975   6.047   5.334
 2754SOL     OW 9160   0.607   0.161   0.395
 2754SOL    HW1 9161   0.532   0.095   0.394
 2754SOL    HW2 9162   0.694   0.112   0.402
 2755SOL     OW 9163   3.762   0.020   3.327
 2755SOL    HW1 9164   3.828   0.045   3.256
 2755SOL    HW2 9165   3.809   0.009   3.414
 2756SOL     OW 9166   4.378   6.461   0.317
 2756SOL    HW1 9167   4.363   6.398   0.240
 2756SOL    HW2 9168   4.446   6.529   0.292
 2757SOL     OW 9169   2.050   6.495   0.634
 2757SOL    HW1 9170   2.015   6.402   0.646
 2757SOL    HW2 9171   2.150   6.492   0.627
 2758SOL     OW 9172   4.772   0.327   4.923
 2758SOL    HW1 9173   4.864   0.290   4.934
 2758SOL    HW2 9174   4.765   0.414   4.972
 2759SOL     OW 9175   5.261   6.538   4.802
 2759SOL    HW1 9176   5.219   6.468   4.744
 2759SOL    HW2 9177   5.247   6.514   4.898
 2760SOL     OW 9178   1.213   5.716   1.387
 2760SOL    HW1 9179   1.271   5.744   1.310
 2760SOL    HW2 9180   1.133   5.666   1.352
 2761SOL     OW 9181   2.251   4.802   4.178
 2761SOL    HW1 9182   2.230   4.763   4.088
 2761SOL    HW2 9183   2.267   4.729   4.244
 2762SOL     OW 9184   0.828   1.123   4.932
 2762SOL    HW1 9185   0.906   1.183   4.913
 2762SOL    HW2 9186   0.766   1.170   4.996
 2763SOL     OW 9187   5.666   1.419   3.841
 2763SOL    HW1 9188   5.572   1.454   3.840
 2763SOL    HW2 9189   5.720   1.468   3.773
 2764SOL     OW 9190   6.346   0.601   1.332
 2764SOL    HW1 9191   6.326   0.661   1.410
 2764SOL    HW2 9192   6.262   0.555   1.303
 2765SOL     OW 9193   5.627   0.376   0.609
 2765SOL    HW1 9194   5.531   0.349   0.598
 2765SOL    HW2 9195   5.677   0.302   0.653
 2766SOL     OW 9196   5.082   2.340   0.702
 2766SOL    HW1 9197   5.086   2.342   0.602
 2766SOL    HW2 9198   5.134   2.261   0.735
 2767SOL     OW 9199   6.832   4.590   6.182
 2767SOL    HW1 9200   6.865   4.657   6.248
 2767SOL    HW2 9201   6.733   4.586   6.184
 2768SOL     OW 9202   5.166   0.849   0.040
 2768SOL    HW1 9203   5.086   0.827   7.008
 2768SOL    HW2 9204   5.242   0.874   7.003
 2769SOL     OW 9205   6.797   4.327   3.821
 2769SOL    HW1 9206   6.773   4.424   3.817
 2769SOL    HW2 9207   6.714   4.272   3.819
 2770SOL     OW 9208   2.221   5.288   6.222
 2770SOL    HW1 9209   2.153   5.225   6.184
 2770SOL    HW2 9210   2.175   5.358   6.276
 2771SOL     OW 9211   5.687   1.583   2.139
 2771SOL    HW1 9212   5.693   1.587   2.239
 2771SOL    HW2 9213   5.731   1.499   2.106
 2772SOL     OW 9214   4.605   1.894   1.154
 2772SOL    HW1 9215   4.670   1.842   1.099
 2772SOL    HW2 9216   4.603   1.855   1.247
 2773SOL     OW 9217   5.202   3.338   5.340
 2773SOL    HW1 9218   5.283   3.355   5.284
 2773SOL    HW2 9219   5.204   3.398   5.420
 2774SOL     OW 9220   6.534   3.534   2.835
 2774SOL    HW1 9221   6.492   3.620   2.804
 2774SOL    HW2 9222   6.622   3.522   2.789
 2775SOL     OW 9223   6.938   5.250   0.123
 2775SOL    HW1 9224   6.995   5.268   0.203
 2775SOL    HW2 9225   6.848   5.216   0.152
 2776SOL     OW 9226   4.985   5.072   5.685
 2776SOL    HW1 9227   4.956   5.081   5.590
 2776SOL    HW2 9228   4.925   5.008   5.733
 2777SOL     OW 9229   2.854   1.059   2.126
 2777SOL    HW1 9230   2.844   1.126   2.199
 2777SOL    HW2 9231   2.937   1.005   2.141
 2778SOL     OW 9232   1.424   0.972   4.737
 2778SOL    HW1 9233   1.453   0.932   4.824
 2778SOL    HW2 9234   1.335   1.016   4.749
 2779SOL     OW 9235   4.744   6.873   0.874
 2779SOL    HW1 9236   4.682   6.951   0.880
 2779SOL    HW2 9237   4.730   6.826   0.786
 2780SOL     OW 9238   7.003   5.603   6.281
 2780SOL    HW1 9239   6.962   5.691   6.306
 2780SOL    HW2 9240   6.931   5.536   6.264
 2781SOL     OW 9241   5.944   5.673   1.693
 2781SOL    HW1 9242   5.890   5.757   1.688
 2781SOL    HW2 9243   6.022   5.687   1.755
 2782SOL     OW 9244   3.029   2.385   5.585
 2782SOL    HW1 9245   2.932   2.383   5.562
 2782SOL    HW2 9246   3.083   2.346   5.511
 2783SOL     OW 9247   5.841   3.075   4.819
 2783SOL    HW1 9248   5.929   3.105   4.856
 2783SOL    HW2 9249   5.776   3.151   4.823
 2784SOL     OW 9250   2.928   1.732   0.891
 2784SOL    HW1 9251   2.944   1.742   0.989
 2784SOL    HW2 9252   2.910   1.635   0.870
 2785SOL     OW 9253   5.787   1.584   0.348
 2785SOL    HW1 9254   5.742   1.671   0.365
 2785SOL    HW2 9255   5.733   1.510   0.387
 2786SOL     OW 9256   4.223   5.844   1.557
 2786SOL    HW1 9257   4.253   5.854   1.462
 2786SOL    HW2 9258   4.298   5.868   1.618
 2787SOL     OW 9259   2.465   2.681   6.885
 2787SOL    HW1 9260   2.506   2.672   6.794
 2787SOL    HW2 9261   2.446   2.777   6.904
 2788SOL     OW 9262   2.334   4.137   6.970
 2788SOL    HW1 9263   2.419   4.085   6.962
 2788SOL    HW2 9264   2.355   4.235   6.966
 2789SOL     OW 9265   1.911   3.019   3.436
 2789SOL    HW1 9266   2.001   2.996   3.400
 2789SOL    HW2 9267   1.893   2.967   3.519
 2790SOL     OW 9268   2.852   5.574   2.632
 2790SOL    HW1 9269   2.845   5.550   2.535
 2790SOL    HW2 9270   2.833   5.672   2.643
 2791SOL     OW 9271   0.991   4.158   4.730
 2791SOL    HW1 9272   0.937   4.238   4.756
 2791SOL    HW2 9273   1.082   4.186   4.701
 2792SOL     OW 9274   0.905   6.754   4.743
 2792SOL    HW1 9275   0.880   6.830   4.802
 2792SOL    HW2 9276   0.922   6.672   4.798
 2793SOL     OW 9277   4.612   2.714   2.423
 2793SOL    HW1 9278   4.570   2.799   2.391
 2793SOL    HW2 9279   4.700   2.735   2.466
 2794SOL     OW 9280   6.943   2.314   0.804
 2794SOL    HW1 9281   6.986   2.232   0.842
 2794SOL    HW2 9282   7.014   2.378   0.775
 2795SOL     OW 9283   2.414   3.366   0.672
 2795SOL    HW1 9284   2.461   3.449   0.700
 2795SOL    HW2 9285   2.343   3.388   0.605
 2796SOL     OW 9286   6.586   5.021   3.000
 2796SOL    HW1 9287   6.614   4.949   3.064
 2796SOL    HW2 9288   6.486   5.031   3.003
 2797SOL     OW 9289   5.025   5.528   4.462
 2797SOL    HW1 9290   4.971   5.563   4.385
 2797SOL    HW2 9291   4.964   5.497   4.535
 2798SOL     OW 9292   1.013   4.731   1.821
 2798SOL    HW1 9293   0.991   4.782   1.738
 2798SOL    HW2 9294   1.111   4.713   1.824
 2799SOL     OW 9295   0.249   5.865   0.002
 2799SOL    HW1 9296   0.204   5.897   6.942
 2799SOL    HW2 9297   0.199   5.787   0.039
 2800SOL     OW 9298   4.334   5.061   6.714
 2800SOL    HW1 9299   4.342   5.100   6.806
 2800SOL    HW2 9300   4.247   5.012   6.706
 2801SOL     OW 9301   4.656   5.656   4.361
 2801SOL    HW1 9302   4.599   5.586   4.319
 2801SOL    HW2 9303   4.619   5.679   4.452
 2802SOL     OW 9304   4.820   3.295   6.409
 2802SOL    HW1 9305   4.773   3.362   6.466
 2802SOL    HW2 9306   4.757   3.258   6.341
 2803SOL     OW 9307   3.487   5.995   6.272
 2803SOL    HW1 9308   3.432   5.943   6.205
 2803SOL    HW2 9309   3.431   6.069   6.310
 2804SOL     OW 9310   0.011   4.693   4.549
 2804SOL    HW1 9311   6.987   4.616   4.505
 2804SOL    HW2 9312   6.968   4.764   4.573
 2805SOL     OW 9313   4.491   2.830   1.447
 2805SOL    HW1 9314   4.533   2.771   1.379
 2805SOL    HW2 9315   4.398   2.797   1.467
 2806SOL     OW 9316   6.001   5.181   4.192
 2806SOL    HW1 9317   5.987   5.166   4.290
 2806SOL    HW2 9318   5.975   5.099   4.142
 2807SOL     OW 9319   5.566   5.082   4.091
 2807SOL    HW1 9320   5.577   5.135   4.175
 2807SOL    HW2 9321   5.570   5.144   4.012
 2808SOL     OW 9322   5.035   2.635   2.448
 2808SOL    HW1 9323   5.078   2.584   2.523
 2808SOL    HW2 9324   5.016   2.572   2.372
 2809SOL     OW 9325   6.261   2.499   2.125
 2809SOL    HW1 9326   6.176   2.478   2.078
 2809SOL    HW2 9327   6.328   2.428   2.107
 2810SOL     OW 9328   3.250   6.640   4.551
 2810SOL    HW1 9329   3.203   6.728   4.548
 2810SOL    HW2 9330   3.341   6.650   4.512
 2811SOL     OW 9331   0.357   1.080   3.214
 2811SOL    HW1 9332   0.439   1.137   3.221
 2811SOL    HW2 9333   0.366   1.002   3.276
 2812SOL     OW 9334   5.809   3.516   0.589
 2812SOL    HW1 9335   5.808   3.431   0.535
 2812SOL    HW2 9336   5.896   3.563   0.574
 2813SOL     OW 9337   6.576   0.391   5.956
 2813SOL    HW1 9338   6.485   0.398   5.916
 2813SOL    HW2 9339   6.623   0.312   5.917
 2814SOL     OW 9340   4.771   2.953   0.048
 2814SOL    HW1 9341   4.814   2.992   6.990
 2814SOL    HW2 9342   4.710   2.878   0.021
 2815SOL     OW 9343   0.082   1.530   5.284
 2815SOL    HW1 9344   0.029   1.600   5.332
 2815SOL    HW2 9345   0.131   1.571   5.208
 2816SOL     OW 9346   6.644   6.306   3.838
 2816SOL    HW1 9347   6.684   6.387   3.795
 2816SOL    HW2 9348   6.715   6.239   3.857
 2817SOL     OW 9349   2.105   0.267   1.206
 2817SOL    HW1 9350   2.034   0.307   1.265
 2817SOL    HW2 9351   2.182   0.330   1.200
 2818SOL     OW 9352   0.016   6.094   6.759
 2818SOL    HW1 9353   0.069   6.119   6.678
 2818SOL    HW2 9354   0.026   5.996   6.776
 2819SOL     OW 9355   0.226   1.440   1.371
 2819SOL    HW1 9356   0.210   1.462   1.467
 2819SOL    HW2 9357   0.314   1.392   1.362
 2820SOL     OW 9358   0.897   2.039   3.109
 2820SOL    HW1 9359   0.843   1.978   3.050
 2820SOL    HW2 9360   0.988   2.050   3.069
 2821SOL     OW 9361   3.873   3.593   0.193
 2821SOL    HW1 9362   3.857   3.672   0.134
 2821SOL    HW2 9363   3.839   3.613   0.285
 2822SOL     OW 9364   4.273   2.654   6.847
 2822SOL    HW1 9365   4.299   2.617   6.936
 2822SOL    HW2 9366   4.346   2.636   6.781
 2823SOL     OW 9367   3.234   6.938   0.753
 2823SOL    HW1 9368   3.298   6.862   0.747
 2823SOL    HW2 9369   3.277   7.022   0.719
 2824SOL     OW 9370   2.753   1.160   4.498
 2824SOL    HW1 9371   2.801   1.157   4.410
 2824SOL    HW2 9372   2.696   1.078   4.507
 2825SOL     OW 9373   0.016   0.343   6.764
 2825SOL    HW1 9374   0.074   0.265   6.787
 2825SOL    HW2 9375   6.943   0.317   6.775
 2826SOL     OW 9376   5.145   2.089   0.202
 2826SOL    HW1 9377   5.127   2.157   0.131
 2826SOL    HW2 9378   5.096   2.005   0.182
 2827SOL     OW 9379   5.823   0.920   5.166
 2827SOL    HW1 9380   5.851   0.856   5.238
 2827SOL    HW2 9381   5.787   1.004   5.207
 2828SOL     OW 9382   3.254   0.565   0.022
 2828SOL    HW1 9383   3.254   0.470   0.053
 2828SOL    HW2 9384   3.164   0.606   0.038
 2829SOL     OW 9385   3.195   4.056   6.022
 2829SOL    HW1 9386   3.117   4.117   6.037
 2829SOL    HW2 9387   3.165   3.975   5.973
 2830SOL     OW 9388   0.953   3.334   7.002
 2830SOL    HW1 9389   0.864   3.288   7.008
 2830SOL    HW2 9390   1.026   3.266   7.002
 2831SOL     OW 9391   0.349   5.943   3.793
 2831SOL    HW1 9392   0.403   6.020   3.827
 2831SOL    HW2 9393   0.374   5.860   3.842
 2832SOL     OW 9394   0.368   1.452   1.843
 2832SOL    HW1 9395   0.437   1.383   1.821
 2832SOL    HW2 9396   0.388   1.492   1.932
 2833SOL     OW 9397   5.034   2.380   2.314
 2833SOL    HW1 9398   5.068   2.298   2.360
 2833SOL    HW2 9399   4.940   2.365   2.283
 2834SOL     OW 9400   2.641   0.202   6.038
 2834SOL    HW1 9401   2.560   0.252   6.070
 2834SOL    HW2 9402   2.629   0.104   6.055
 2835SOL     OW 9403   6.991   0.592   2.076
 2835SOL    HW1 9404   6.993   0.507   2.128
 2835SOL    HW2 9405   0.051   0.644   2.095
 2836SOL     OW 9406   6.432   6.733   1.971
 2836SOL    HW1 9407   6.465   6.764   2.060
 2836SOL    HW2 9408   6.472   6.789   1.899
 2837SOL     OW 9409   5.897   3.491   3.430
 2837SOL    HW1 9410   5.861   3.429   3.500
 2837SOL    HW2 9411   5.944   3.567   3.473
 2838SOL     OW 9412   1.777   4.035   1.377
 2838SOL    HW1 9413   1.785   3.945   1.334
 2838SOL    HW2 9414   1.680   4.060   1.383
 2839SOL     OW 9415   5.721   1.109   2.078
 2839SOL    HW1 9416   5.764   1.198   2.069
 2839SOL    HW2 9417   5.644   1.115   2.141
 2840SOL     OW 9418   0.981   1.379   3.714
 2840SOL    HW1 9419   1.074   1.397   3.747
 2840SOL    HW2 9420   0.972   1.414   3.621
 2841SOL     OW 9421   6.918   0.771   5.552
 2841SOL    HW1 9422   6.894   0.691   5.607
 2841SOL    HW2 9423   6.836   0.805   5.505
 2842SOL     OW 9424   0.064   2.840   4.461
 2842SOL    HW1 9425   0.036   2.745   4.448
 2842SOL    HW2 9426   0.047   2.891   4.377
 2843SOL     OW 9427   2.761   1.748   3.434
 2843SOL    HW1 9428   2.785   1.741   3.338
 2843SOL    HW2 9429   2.662   1.739   3.445
 2844SOL     OW 9430   1.388   5.401   0.334
 2844SOL    HW1 9431   1.379   5.501   0.335
 2844SOL    HW2 9432   1.301   5.360   0.309
 2845SOL     OW 9433   0.824   2.700   1.170
 2845SOL    HW1 9434   0.917   2.735   1.183
 2845SOL    HW2 9435   0.823   2.602   1.186
 2846SOL     OW 9436   4.470   1.169   6.411
 2846SOL    HW1 9437   4.505   1.236   6.477
 2846SOL    HW2 9438   4.381   1.135   6.442
 2847SOL     OW 9439   5.200   3.402   2.779
 2847SOL    HW1 9440   5.111   3.365   2.807
 2847SOL    HW2 9441   5.234   3.350   2.701
 2848SOL     OW 9442   1.090   3.610   6.683
 2848SOL    HW1 9443   1.168   3.552   6.661
 2848SOL    HW2 9444   1.030   3.562   6.748
 2849SOL     OW 9445   3.980   6.793   1.651
 2849SOL    HW1 9446   3.946   6.865   1.591
 2849SOL    HW2 9447   3.905   6.756   1.704
 2850SOL     OW 9448   3.438   6.915   2.090
 2850SOL    HW1 9449   3.372   6.989   2.094
 2850SOL    HW2 9450   3.529   6.952   2.070
 2851SOL     OW 9451   0.124   3.313   5.783
 2851SOL    HW1 9452   0.035   3.359   5.785
 2851SOL    HW2 9453   0.153   3.293   5.876
 2852SOL     OW 9454   5.558   4.458   0.355
 2852SOL    HW1 9455   5.586   4.362   0.351
 2852SOL    HW2 9456   5.481   4.468   0.418
 2853SOL     OW 9457   2.474   2.298   0.248
 2853SOL    HW1 9458   2.447   2.392   0.267
 2853SOL    HW2 9459   2.501   2.290   0.152
 2854SOL     OW 9460   3.665   1.694   4.635
 2854SOL    HW1 9461   3.608   1.612   4.627
 2854SOL    HW2 9462   3.747   1.673   4.688
 2855SOL     OW 9463   2.358   1.031   5.970
 2855SOL    HW1 9464   2.405   1.045   5.883
 2855SOL    HW2 9465   2.423   1.041   6.045
 2856SOL     OW 9466   2.065   2.619   5.980
 2856SOL    HW1 9467   2.131   2.544   5.971
 2856SOL    HW2 9468   2.111   2.699   6.018
 2857SOL     OW 9469   3.420   1.856   1.927
 2857SOL    HW1 9470   3.381   1.916   1.997
 2857SOL    HW2 9471   3.400   1.894   1.836
 2858SOL     OW 9472   6.129   3.738   1.559
 2858SOL    HW1 9473   6.226   3.754   1.580
 2858SOL    HW2 9474   6.073   3.800   1.614
 2859SOL     OW 9475   5.029   2.028   0.478
 2859SOL    HW1 9476   5.073   2.096   0.420
 2859SOL    HW2 9477   5.051   2.045   0.574
 2860SOL     OW 9478   3.615   1.833   1.291
 2860SOL    HW1 9479   3.698   1.830   1.235
 2860SOL    HW2 9480   3.640   1.825   1.387
 2861SOL     OW 9481   4.484   4.843   6.242
 2861SOL    HW1 9482   4.505   4.765   6.184
 2861SOL    HW2 9483   4.436   4.812   6.323
 2862SOL     OW 9484   5.333   1.920   3.444
 2862SOL    HW1 9485   5.294   1.942   3.355
 2862SOL    HW2 9486   5.425   1.959   3.450
 2863SOL     OW 9487   5.247   1.360   6.747
 2863SOL    HW1 9488   5.191   1.407   6.815
 2863SOL    HW2 9489   5.341   1.393   6.753
 2864SOL     OW 9490   4.334   0.881   1.482
 2864SOL    HW1 9491   4.390   0.958   1.512
 2864SOL    HW2 9492   4.261   0.865   1.549
 2865SOL     OW 9493   5.396   4.380   5.746
 2865SOL    HW1 9494   5.329   4.425   5.806
 2865SOL    HW2 9495   5.385   4.415   5.653
 2866SOL     OW 9496   6.468   6.502   6.739
 2866SOL    HW1 9497   6.481   6.599   6.762
 2866SOL    HW2 9498   6.404   6.461   6.804
 2867SOL     OW 9499   6.049   3.885   2.314
 2867SOL    HW1 9500   6.014   3.807   2.367
 2867SOL    HW2 9501   5.973   3.943   2.286
 2868SOL     OW 9502   0.391   3.173   5.550
 2868SOL    HW1 9503   0.397   3.131   5.460
 2868SOL    HW2 9504   0.328   3.120   5.607
 2869SOL     OW 9505   5.833   1.221   3.631
 2869SOL    HW1 9506   5.814   1.313   3.596
 2869SOL    HW2 9507   5.766   1.157   3.594
 2870SOL     OW 9508   0.201   0.923   4.450
 2870SOL    HW1 9509   0.162   0.943   4.540
 2870SOL    HW2 9510   0.150   0.847   4.408
 2871SOL     OW 9511   1.302   1.609   0.023
 2871SOL    HW1 9512   1.326   1.682   6.982
 2871SOL    HW2 9513   1.205   1.616   0.047
 2872SOL     OW 9514   2.648   1.369   3.395
 2872SOL    HW1 9515   2.718   1.335   3.332
 2872SOL    HW2 9516   2.684   1.368   3.488
 2873SOL     OW 9517   0.541   4.849   2.846
 2873SOL    HW1 9518   0.479   4.784   2.890
 2873SOL    HW2 9519   0.626   4.855   2.898
 2874SOL     OW 9520   3.630   6.365   2.871
 2874SOL    HW1 9521   3.628   6.426   2.950
 2874SOL    HW2 9522   3.701   6.296   2.884
 2875SOL     OW 9523   4.782   6.283   6.910
 2875SOL    HW1 9524   4.763   6.259   7.005
 2875SOL    HW2 9525   4.729   6.363   6.884
 2876SOL     OW 9526   1.012   0.328   2.010
 2876SOL    HW1 9527   0.984   0.404   1.951
 2876SOL    HW2 9528   1.086   0.358   2.071
 2877SOL     OW 9529   3.904   2.876   5.199
 2877SOL    HW1 9530   3.812   2.906   5.221
 2877SOL    HW2 9531   3.954   2.951   5.154
 2878SOL     OW 9532   3.905   5.241   4.646
 2878SOL    HW1 9533   3.838   5.273   4.579
 2878SOL    HW2 9534   3.919   5.142   4.634
 2879SOL     OW 9535   4.877   4.757   0.605
 2879SOL    HW1 9536   4.806   4.706   0.654
 2879SOL    HW2 9537   4.842   4.846   0.579
 2880SOL     OW 9538   5.609   6.960   0.721
 2880SOL    HW1 9539   5.527   6.989   0.769
 2880SOL    HW2 9540   5.662   0.017   0.694
 2881SOL     OW 9541   5.991   6.521   1.131
 2881SOL    HW1 9542   5.969   6.426   1.151
 2881SOL    HW2 9543   5.989   6.535   1.032
 2882SOL     OW 9544   0.844   3.776   2.469
 2882SOL    HW1 9545   0.895   3.690   2.473
 2882SOL    HW2 9546   0.752   3.762   2.505
 2883SOL     OW 9547   5.308   5.894   4.230
 2883SOL    HW1 9548   5.263   5.858   4.148
 2883SOL    HW2 9549   5.272   5.847   4.310
 2884SOL     OW 9550   0.705   5.809   2.766
 2884SOL    HW1 9551   0.722   5.717   2.730
 2884SOL    HW2 9552   0.693   5.803   2.866
 2885SOL     OW 9553   0.446   3.325   2.087
 2885SOL    HW1 9554   0.453   3.423   2.109
 2885SOL    HW2 9555   0.438   3.273   2.172
 2886SOL     OW 9556   2.188   4.040   6.367
 2886SOL    HW1 9557   2.222   3.953   6.401
 2886SOL    HW2 9558   2.180   4.036   6.267
 2887SOL     OW 9559   1.305   0.178   4.597
 2887SOL    HW1 9560   1.308   0.091   4.549
 2887SOL    HW2 9561   1.335   0.166   4.692
 2888SOL     OW 9562   0.577   4.841   6.893
 2888SOL    HW1 9563   0.579   4.741   6.895
 2888SOL    HW2 9564   0.636   4.877   6.965
 2889SOL     OW 9565   1.753   7.020   2.497
 2889SOL    HW1 9566   1.683   6.950   2.514
 2889SOL    HW2 9567   1.775   0.043   2.583
 2890SOL     OW 9568   2.619   0.898   1.099
 2890SOL    HW1 9569   2.648   0.840   1.022
 2890SOL    HW2 9570   2.632   0.847   1.184
 2891SOL     OW 9571   2.287   4.165   3.895
 2891SOL    HW1 9572   2.313   4.127   3.806
 2891SOL    HW2 9573   2.317   4.260   3.901
 2892SOL     OW 9574   5.629   3.712   0.480
 2892SOL    HW1 9575   5.588   3.787   0.533
 2892SOL    HW2 9576   5.701   3.669   0.534
 2893SOL     OW 9577   0.365   6.451   4.982
 2893SOL    HW1 9578   0.436   6.469   5.050
 2893SOL    HW2 9579   0.335   6.537   4.941
 2894SOL     OW 9580   3.229   2.773   0.152
 2894SOL    HW1 9581   3.305   2.711   0.174
 2894SOL    HW2 9582   3.209   2.831   0.231
 2895SOL     OW 9583   3.936   2.973   6.626
 2895SOL    HW1 9584   3.929   3.051   6.564
 2895SOL    HW2 9585   4.031   2.947   6.637
 2896SOL     OW 9586   3.122   5.280   6.545
 2896SOL    HW1 9587   3.220   5.288   6.562
 2896SOL    HW2 9588   3.086   5.200   6.592
 2897SOL     OW 9589   3.056   5.839   3.201
 2897SOL    HW1 9590   3.110   5.830   3.117
 2897SOL    HW2 9591   3.111   5.811   3.279
 2898SOL     OW 9592   4.403   4.998   3.739
 2898SOL    HW1 9593   4.423   5.043   3.826
 2898SOL    HW2 9594   4.377   5.066   3.671
 2899SOL     OW 9595   0.474   2.185   0.299
 2899SOL    HW1 9596   0.503   2.226   0.385
 2899SOL    HW2 9597   0.487   2.251   0.225
 2900SOL     OW 9598   2.167   4.904   5.578
 2900SOL    HW1 9599   2.082   4.860   5.605
 2900SOL    HW2 9600   2.197   4.966   5.651
 2901SOL     OW 9601   1.781   0.396   3.159
 2901SOL    HW1 9602   1.741   0.357   3.242
 2901SOL    HW2 9603   1.737   0.484   3.139
 2902SOL     OW 9604   5.642   6.142   1.736
 2902SOL    HW1 9605   5.624   6.141   1.637
 2902SOL    HW2 9606   5.561   6.107   1.784
 2903SOL     OW 9607   2.725   0.461   1.162
 2903SOL    HW1 9608   2.752   0.456   1.066
 2903SOL    HW2 9609   2.773   0.391   1.215
 2904SOL     OW 9610   1.947   3.459   5.207
 2904SOL    HW1 9611   1.888   3.463   5.126
 2904SOL    HW2 9612   1.909   3.515   5.280
 2905SOL     OW 9613   1.477   2.692   3.523
 2905SOL    HW1 9614   1.379   2.714   3.520
 2905SOL    HW2 9615   1.514   2.715   3.613
 2906SOL     OW 9616   5.019   5.494   2.908
 2906SOL    HW1 9617   4.944   5.526   2.850
 2906SOL    HW2 9618   5.055   5.571   2.960
 2907SOL     OW 9619   0.410   1.180   4.164
 2907SOL    HW1 9620   0.313   1.203   4.165
 2907SOL    HW2 9621   0.424   1.097   4.110
 2908SOL     OW 9622   4.300   0.034   3.730
 2908SOL    HW1 9623   4.224   6.994   3.714
 2908SOL    HW2 9624   4.274   0.099   3.802
 2909SOL     OW 9625   0.704   5.823   3.716
 2909SOL    HW1 9626   0.671   5.889   3.649
 2909SOL    HW2 9627   0.641   5.820   3.794
 2910SOL     OW 9628   4.617   6.162   4.277
 2910SOL    HW1 9629   4.621   6.166   4.178
 2910SOL    HW2 9630   4.621   6.066   4.307
 2911SOL     OW 9631   2.058   5.208   3.359
 2911SOL    HW1 9632   2.043   5.136   3.427
 2911SOL    HW2 9633   1.987   5.204   3.289
 2912SOL     OW 9634   4.206   6.282   6.644
 2912SOL    HW1 9635   4.203   6.311   6.548
 2912SOL    HW2 9636   4.129   6.322   6.693
 2913SOL     OW 9637   1.885   5.246   2.200
 2913SOL    HW1 9638   1.918   5.257   2.294
 2913SOL    HW2 9639   1.961   5.222   2.140
 2914SOL     OW 9640   6.323   6.217   5.687
 2914SOL    HW1 9641   6.293   6.127   5.653
 2914SOL    HW2 9642   6.301   6.223   5.785
 2915SOL     OW 9643   5.272   1.608   5.086
 2915SOL    HW1 9644   5.230   1.696   5.105
 2915SOL    HW2 9645   5.207   1.535   5.106
 2916SOL     OW 9646   6.415   5.269   5.867
 2916SOL    HW1 9647   6.471   5.310   5.938
 2916SOL    HW2 9648   6.468   5.198   5.820
 2917SOL     OW 9649   4.303   0.202   1.979
 2917SOL    HW1 9650   4.264   0.293   1.963
 2917SOL    HW2 9651   4.376   0.185   1.913
 2918SOL     OW 9652   6.889   3.724   3.437
 2918SOL    HW1 9653   6.820   3.724   3.365
 2918SOL    HW2 9654   6.977   3.695   3.399
 2919SOL     OW 9655   6.737   1.174   0.402
 2919SOL    HW1 9656   6.709   1.247   0.340
 2919SOL    HW2 9657   6.740   1.087   0.352
 2920SOL     OW 9658   3.229   1.843   2.322
 2920SOL    HW1 9659   3.319   1.811   2.352
 2920SOL    HW2 9660   3.215   1.937   2.354
 2921SOL     OW 9661   0.663   0.229   3.194
 2921SOL    HW1 9662   0.563   0.239   3.196
 2921SOL    HW2 9663   0.705   0.319   3.194
 2922SOL     OW 9664   5.932   6.862   6.898
 2922SOL    HW1 9665   5.926   6.962   6.907
 2922SOL    HW2 9666   5.851   6.829   6.850
 2923SOL     OW 9667   0.233   4.701   1.781
 2923SOL    HW1 9668   0.210   4.763   1.707
 2923SOL    HW2 9669   0.212   4.607   1.754
 2924SOL     OW 9670   0.030   2.090   6.612
 2924SOL    HW1 9671   0.052   2.181   6.576
 2924SOL    HW2 9672   0.096   2.024   6.578
 2925SOL     OW 9673   5.162   0.695   3.360
 2925SOL    HW1 9674   5.202   0.748   3.286
 2925SOL    HW2 9675   5.159   0.599   3.335
 2926SOL     OW 9676   0.356   1.178   4.602
 2926SOL    HW1 9677   0.437   1.146   4.654
 2926SOL    HW2 9678   0.336   1.112   4.529
 2927SOL     OW 9679   1.369   1.696   2.146
 2927SOL    HW1 9680   1.468   1.688   2.147
 2927SOL    HW2 9681   1.330   1.614   2.104
 2928SOL     OW 9682   6.578   2.406   5.997
 2928SOL    HW1 9683   6.508   2.437   6.062
 2928SOL    HW2 9684   6.580   2.306   5.997
 2929SOL     OW 9685   0.647   1.277   6.013
 2929SOL    HW1 9686   0.603   1.207   5.956
 2929SOL    HW2 9687   0.648   1.245   6.108
 2930SOL     OW 9688   4.834   6.401   4.994
 2930SOL    HW1 9689   4.863   6.394   4.899
 2930SOL    HW2 9690   4.804   6.495   5.013
 2931SOL     OW 9691   5.687   6.032   7.022
 2931SOL    HW1 9692   5.627   5.952   7.016
 2931SOL    HW2 9693   5.712   6.048   0.094
 2932SOL     OW 9694   1.368   5.168   1.823
 2932SOL    HW1 9695   1.423   5.242   1.786
 2932SOL    HW2 9696   1.391   5.082   1.777
 2933SOL     OW 9697   6.090   3.202   3.310
 2933SOL    HW1 9698   6.175   3.252   3.321
 2933SOL    HW2 9699   6.031   3.249   3.244
 2934SOL     OW 9700   3.801   1.149   0.327
 2934SOL    HW1 9701   3.736   1.121   0.397
 2934SOL    HW2 9702   3.752   1.178   0.245
 2935SOL     OW 9703   6.657   3.434   1.343
 2935SOL    HW1 9704   6.680   3.402   1.435
 2935SOL    HW2 9705   6.586   3.375   1.304
 2936SOL     OW 9706   4.708   5.655   2.166
 2936SOL    HW1 9707   4.779   5.726   2.169
 2936SOL    HW2 9708   4.747   5.567   2.191
 2937SOL     OW 9709   4.035   4.863   0.621
 2937SOL    HW1 9710   3.964   4.793   0.616
 2937SOL    HW2 9711   3.999   4.949   0.585
 2938SOL     OW 9712   5.217   4.513   5.933
 2938SOL    HW1 9713   5.136   4.562   5.898
 2938SOL    HW2 9714   5.276   4.578   5.982
 2939SOL     OW 9715   0.690   0.118   4.504
 2939SOL    HW1 9716   0.722   0.204   4.465
 2939SOL    HW2 9717   0.740   0.042   4.463
 2940SOL     OW 9718   5.749   0.102   6.317
 2940SOL    HW1 9719   5.753   0.060   6.408
 2940SOL    HW2 9720   5.753   0.030   6.248
 2941SOL     OW 9721   2.127   2.079   4.925
 2941SOL    HW1 9722   2.158   2.136   4.849
 2941SOL    HW2 9723   2.206   2.030   4.963
 2942SOL     OW 9724   2.387   1.619   1.699
 2942SOL    HW1 9725   2.362   1.586   1.790
 2942SOL    HW2 9726   2.461   1.562   1.662
 2943SOL     OW 9727   5.787   3.939   2.950
 2943SOL    HW1 9728   5.762   3.843   2.942
 2943SOL    HW2 9729   5.733   3.993   2.885
 2944SOL     OW 9730   2.383   5.596   5.156
 2944SOL    HW1 9731   2.463   5.617   5.213
 2944SOL    HW2 9732   2.328   5.678   5.146
 2945SOL     OW 9733   4.087   3.697   3.755
 2945SOL    HW1 9734   4.073   3.695   3.854
 2945SOL    HW2 9735   4.058   3.610   3.716
 2946SOL     OW 9736   0.425   5.408   7.000
 2946SOL    HW1 9737   0.403   5.413   6.903
 2946SOL    HW2 9738   0.500   5.343   7.014
 2947SOL     OW 9739   0.798   4.507   0.149
 2947SOL    HW1 9740   0.769   4.490   0.055
 2947SOL    HW2 9741   0.728   4.561   0.196
 2948SOL     OW 9742   0.176   4.664   5.519
 2948SOL    HW1 9743   0.273   4.643   5.527
 2948SOL    HW2 9744   0.158   4.706   5.430
 2949SOL     OW 9745   1.965   6.271   1.134
 2949SOL    HW1 9746   2.061   6.275   1.107
 2949SOL    HW2 9747   1.912   6.336   1.080
 2950SOL     OW 9748   4.916   3.769   4.628
 2950SOL    HW1 9749   4.842   3.831   4.655
 2950SOL    HW2 9750   4.955   3.726   4.709
 2951SOL     OW 9751   6.898   2.520   1.022
 2951SOL    HW1 9752   6.881   2.470   0.938
 2951SOL    HW2 9753   6.943   2.460   1.088
 2952SOL     OW 9754   0.903   5.935   4.739
 2952SOL    HW1 9755   0.924   6.015   4.795
 2952SOL    HW2 9756   0.913   5.852   4.794
 2953SOL     OW 9757   4.655   2.749   2.861
 2953SOL    HW1 9758   4.649   2.799   2.947
 2953SOL    HW2 9759   4.752   2.732   2.839
 2954SOL     OW 9760   0.910   5.412   1.675
 2954SOL    HW1 9761   1.000   5.417   1.718
 2954SOL    HW2 9762   0.905   5.330   1.618
 2955SOL     OW 9763   1.308   3.903   0.656
 2955SOL    HW1 9764   1.264   3.844   0.724
 2955SOL    HW2 9765   1.404   3.917   0.683
 2956SOL     OW 9766   6.028   6.123   3.484
 2956SOL    HW1 9767   5.991   6.053   3.545
 2956SOL    HW2 9768   6.094   6.083   3.421
 2957SOL     OW 9769   6.981   3.489   1.440
 2957SOL    HW1 9770   6.888   3.452   1.435
 2957SOL    HW2 9771   6.991   3.541   1.525
 2958SOL     OW 9772   2.643   4.648   4.737
 2958SOL    HW1 9773   2.579   4.581   4.698
 2958SOL    HW2 9774   2.684   4.611   4.820
 2959SOL     OW 9775   4.441   3.973   0.523
 2959SOL    HW1 9776   4.422   4.011   0.613
 2959SOL    HW2 9777   4.481   4.044   0.465
 2960SOL     OW 9778   3.067   0.562   6.823
 2960SOL    HW1 9779   3.104   0.522   6.907
 2960SOL    HW2 9780   3.129   0.635   6.791
 2961SOL     OW 9781   5.315   2.784   4.985
 2961SOL    HW1 9782   5.334   2.877   5.016
 2961SOL    HW2 9783   5.354   2.769   4.894
 2962SOL     OW 9784   4.304   1.258   3.926
 2962SOL    HW1 9785   4.311   1.160   3.944
 2962SOL    HW2 9786   4.222   1.294   3.971
 2963SOL     OW 9787   1.707   1.119   5.731
 2963SOL    HW1 9788   1.668   1.179   5.801
 2963SOL    HW2 9789   1.801   1.147   5.711
 2964SOL     OW 9790   0.481   0.097   2.101
 2964SOL    HW1 9791   0.490   0.028   2.173
 2964SOL    HW2 9792   0.562   0.154   2.099
 2965SOL     OW 9793   6.893   1.068   4.873
 2965SOL    HW1 9794   6.833   1.112   4.940
 2965SOL    HW2 9795   6.893   0.969   4.889
 2966SOL     OW 9796   5.928   4.844   4.292
 2966SOL    HW1 9797   6.003   4.887   4.344
 2966SOL    HW2 9798   5.842   4.857   4.341
 2967SOL     OW 9799   5.980   2.140   4.294
 2967SOL    HW1 9800   5.886   2.108   4.309
 2967SOL    HW2 9801   5.977   2.235   4.263
 2968SOL     OW 9802   1.058   4.018   5.700
 2968SOL    HW1 9803   1.017   3.991   5.613
 2968SOL    HW2 9804   1.044   4.117   5.713
 2969SOL     OW 9805   5.966   1.054   4.318
 2969SOL    HW1 9806   6.018   1.098   4.246
 2969SOL    HW2 9807   5.982   0.955   4.315
 2970SOL     OW 9808   1.041   3.865   6.651
 2970SOL    HW1 9809   1.051   3.766   6.660
 2970SOL    HW2 9810   1.091   3.911   6.724
 2971SOL     OW 9811   5.107   3.011   5.734
 2971SOL    HW1 9812   5.022   2.980   5.690
 2971SOL    HW2 9813   5.163   2.932   5.758
 2972SOL     OW 9814   6.405   5.037   6.313
 2972SOL    HW1 9815   6.432   5.123   6.271
 2972SOL    HW2 9816   6.425   4.961   6.250
 2973SOL     OW 9817   5.319   1.254   4.402
 2973SOL    HW1 9818   5.337   1.275   4.498
 2973SOL    HW2 9819   5.351   1.161   4.382
 2974SOL     OW 9820   0.743   3.778   2.800
 2974SOL    HW1 9821   0.681   3.744   2.729
 2974SOL    HW2 9822   0.837   3.772   2.767
 2975SOL     OW 9823   0.801   2.397   5.030
 2975SOL    HW1 9824   0.852   2.392   4.944
 2975SOL    HW2 9825   0.726   2.330   5.027
 2976SOL     OW 9826   4.016   1.631   2.634
 2976SOL    HW1 9827   4.056   1.677   2.714
 2976SOL    HW2 9828   4.081   1.564   2.599
 2977SOL     OW 9829   1.694   6.913   4.321
 2977SOL    HW1 9830   1.748   6.889   4.241
 2977SOL    HW2 9831   1.616   6.851   4.330
 2978SOL     OW 9832   4.053   5.152   6.576
 2978SOL    HW1 9833   4.109   5.221   6.621
 2978SOL    HW2 9834   4.062   5.064   6.623
 2979SOL     OW 9835   5.025   6.733   4.325
 2979SOL    HW1 9836   5.120   6.761   4.314
 2979SOL    HW2 9837   4.985   6.715   4.235
 2980SOL     OW 9838   1.438   6.078   3.732
 2980SOL    HW1 9839   1.446   6.141   3.808
 2980SOL    HW2 9840   1.363   6.107   3.672
 2981SOL     OW 9841   0.786   0.841   5.746
 2981SOL    HW1 9842   0.727   0.873   5.820
 2981SOL    HW2 9843   0.756   0.750   5.718
 2982SOL     OW 9844   4.826   6.206   3.203
 2982SOL    HW1 9845   4.855   6.215   3.108
 2982SOL    HW2 9846   4.868   6.125   3.243
 2983SOL     OW 9847   0.873   1.654   4.206
 2983SOL    HW1 9848   0.779   1.689   4.214
 2983SOL    HW2 9849   0.904   1.662   4.112
 2984SOL     OW 9850   4.840   5.791   1.820
 2984SOL    HW1 9851   4.848   5.694   1.799
 2984SOL    HW2 9852   4.898   5.813   1.900
 2985SOL     OW 9853   0.883   2.660   4.995
 2985SOL    HW1 9854   0.851   2.571   5.027
 2985SOL    HW2 9855   0.848   2.676   4.903
 2986SOL     OW 9856   2.120   3.745   6.386
 2986SOL    HW1 9857   2.158   3.659   6.421
 2986SOL    HW2 9858   2.057   3.784   6.454
 2987SOL     OW 9859   5.028   0.612   3.749
 2987SOL    HW1 9860   5.059   0.653   3.835
 2987SOL    HW2 9861   5.107   0.600   3.689
 2988SOL     OW 9862   0.470   6.942   2.920
 2988SOL    HW1 9863   0.460   6.932   2.821
 2988SOL    HW2 9864   0.566   6.958   2.943
 2989SOL     OW 9865   6.402   6.163   0.397
 2989SOL    HW1 9866   6.461   6.147   0.318
 2989SOL    HW2 9867   6.410   6.259   0.426
 2990SOL     OW 9868   4.469   1.527   3.417
 2990SOL    HW1 9869   4.414   1.446   3.441
 2990SOL    HW2 9870   4.464   1.541   3.318
 2991SOL     OW 9871   6.626   4.152   0.180
 2991SOL    HW1 9872   6.569   4.138   0.261
 2991SOL    HW2 9873   6.702   4.213   0.204
 2992SOL     OW 9874   2.476   5.166   5.879
 2992SOL    HW1 9875   2.553   5.215   5.839
 2992SOL    HW2 9876   2.484   5.167   5.979
 2993SOL     OW 9877   0.868   5.123   1.741
 2993SOL    HW1 9878   0.839   5.149   1.649
 2993SOL    HW2 9879   0.803   5.159   1.808
 2994SOL     OW 9880   4.202   0.357   0.766
 2994SOL    HW1 9881   4.218   0.319   0.858
 2994SOL    HW2 9882   4.289   0.381   0.725
 2995SOL     OW 9883   1.712   3.683   6.980
 2995SOL    HW1 9884   1.725   3.767   6.927
 2995SOL    HW2 9885   1.668   3.706   0.044
 2996SOL     OW 9886   2.575   6.146   3.535
 2996SOL    HW1 9887   2.484   6.179   3.510
 2996SOL    HW2 9888   2.644   6.214   3.510
 2997SOL     OW 9889   4.868   0.174   1.872
 2997SOL    HW1 9890   4.857   0.141   1.778
 2997SOL    HW2 9891   4.941   0.243   1.874
 2998SOL     OW 9892   5.707   6.505   5.055
 2998SOL    HW1 9893   5.679   6.594   5.018
 2998SOL    HW2 9894   5.688   6.502   5.154
 2999SOL     OW 9895   3.067   5.176   3.684
 2999SOL    HW1 9896   3.123   5.256   3.708
 2999SOL    HW2 9897   3.126   5.098   3.665
 3000SOL     OW 9898   1.824   3.923   6.949
 3000SOL    HW1 9899   1.914   3.881   6.936
 3000SOL    HW2 9900   1.816   3.957   0.019
 3001SOL     OW 9901   5.276   0.042   6.422
 3001SOL    HW1 9902   5.367   0.070   6.392
 3001SOL    HW2 9903   5.273   0.037   6.522
 3002SOL     OW 9904   4.465   0.437   5.793
 3002SOL    HW1 9905   4.508   0.352   5.763
 3002SOL    HW2 9906   4.534   0.507   5.807
 3003SOL     OW 9907   2.679   6.830   6.595
 3003SOL    HW1 9908   2.671   6.827   6.495
 3003SOL    HW2 9909   2.601   6.784   6.636
 3004SOL     OW 9910   0.874   5.126   3.727
 3004SOL    HW1 9911   0.970   5.117   3.699
 3004SOL    HW2 9912   0.870   5.172   3.816
 3005SOL     OW 9913   3.440   2.611   0.149
 3005SOL    HW1 9914   3.459   2.550   0.073
 3005SOL    HW2 9915   3.465   2.567   0.235
 3006SOL     OW 9916   5.943   1.987   6.839
 3006SOL    HW1 9917   5.858   1.998   6.788
 3006SOL    HW2 9918   6.018   2.033   6.790
 3007SOL     OW 9919   6.219   4.909   2.174
 3007SOL    HW1 9920   6.217   4.954   2.263
 3007SOL    HW2 9921   6.312   4.878   2.155
 3008SOL     OW 9922   3.322   0.469   6.522
 3008SOL    HW1 9923   3.227   0.452   6.546
 3008SOL    HW2 9924   3.370   0.505   6.602
 3009SOL     OW 9925   0.289   6.317   2.699
 3009SOL    HW1 9926   0.334   6.393   2.652
 3009SOL    HW2 9927   0.190   6.321   2.682
 3010SOL     OW 9928   3.613   6.536   3.082
 3010SOL    HW1 9929   3.515   6.539   3.105
 3010SOL    HW2 9930   3.658   6.614   3.125
 3011SOL     OW 9931   6.006   1.507   0.200
 3011SOL    HW1 9932   5.935   1.571   0.228
 3011SOL    HW2 9933   6.073   1.498   0.274
 3012SOL     OW 9934   1.370   3.595   5.260
 3012SOL    HW1 9935   1.284   3.546   5.245
 3012SOL    HW2 9936   1.352   3.677   5.315
 3013SOL     OW 9937   5.779   5.459   4.626
 3013SOL    HW1 9938   5.823   5.507   4.550
 3013SOL    HW2 9939   5.735   5.376   4.591
 3014SOL     OW 9940   5.093   2.913   4.161
 3014SOL    HW1 9941   5.023   2.975   4.193
 3014SOL    HW2 9942   5.166   2.905   4.229
 3015SOL     OW 9943   3.143   2.355   0.148
 3015SOL    HW1 9944   3.129   2.429   0.081
 3015SOL    HW2 9945   3.240   2.329   0.149
 3016SOL     OW 9946   2.870   6.234   3.607
 3016SOL    HW1 9947   2.799   6.287   3.652
 3016SOL    HW2 9948   2.866   6.250   3.508
 3017SOL     OW 9949   0.656   5.147   1.904
 3017SOL    HW1 9950   0.684   5.134   1.999
 3017SOL    HW2 9951   0.587   5.079   1.879
 3018SOL     OW 9952   3.029   6.981   4.830
 3018SOL    HW1 9953   3.007   6.885   4.812
 3018SOL    HW2 9954   2.951   0.003   4.871
 3019SOL     OW 9955   1.928   6.897   0.858
 3019SOL    HW1 9956   1.850   6.842   0.886
 3019SOL    HW2 9957   1.913   6.932   0.765
 3020SOL     OW 9958   3.797   4.305   1.718
 3020SOL    HW1 9959   3.896   4.300   1.706
 3020SOL    HW2 9960   3.763   4.390   1.678
 3021SOL     OW 9961   3.079   1.082   6.676
 3021SOL    HW1 9962   3.062   1.046   6.768
 3021SOL    HW2 9963   3.177   1.076   6.656
 3022SOL     OW 9964   3.860   6.007   3.290
 3022SOL    HW1 9965   3.889   5.937   3.224
 3022SOL    HW2 9966   3.785   6.061   3.251
 3023SOL     OW 9967   4.571   6.685   2.515
 3023SOL    HW1 9968   4.617   6.743   2.448
 3023SOL    HW2 9969   4.507   6.624   2.469
 3024SOL     OW 9970   4.420   0.024   5.686
 3024SOL    HW1 9971   4.369   0.067   5.761
 3024SOL    HW2 9972   4.393   6.951   5.679
 3025SOL     OW 9973   3.464   1.736   0.228
 3025SOL    HW1 9974   3.527   1.699   0.296
 3025SOL    HW2 9975   3.504   1.726   0.137
 3026SOL     OW 9976   2.046   2.115   0.419
 3026SOL    HW1 9977   2.088   2.058   0.490
 3026SOL    HW2 9978   1.949   2.093   0.412
 3027SOL     OW 9979   4.336   0.652   2.126
 3027SOL    HW1 9980   4.330   0.752   2.135
 3027SOL    HW2 9981   4.427   0.627   2.092
 3028SOL     OW 9982   1.727   3.562   6.080
 3028SOL    HW1 9983   1.750   3.495   6.009
 3028SOL    HW2 9984   1.684   3.642   6.037
 3029SOL     OW 9985   0.323   5.042   5.129
 3029SOL    HW1 9986   0.391   5.063   5.199
 3029SOL    HW2 9987   0.352   5.081   5.042
 3030SOL     OW 9988   0.848   2.293   6.173
 3030SOL    HW1 9989   0.821   2.206   6.131
 3030SOL    HW2 9990   0.918   2.276   6.243
 3031SOL     OW 9991   0.165   3.419   0.680
 3031SOL    HW1 9992   0.068   3.443   0.672
 3031SOL    HW2 9993   0.176   3.321   0.661
 3032SOL     OW 9994   4.317   6.706   1.080
 3032SOL    HW1 9995   4.301   6.805   1.086
 3032SOL    HW2 9996   4.256   6.659   1.144
 3033SOL     OW 9997   0.961   2.538   1.592
 3033SOL    HW1 9998   0.975   2.573   1.500
 3033SOL    HW2 9999   1.018   2.457   1.606
 3034SOL     OW10000   1.920   5.407   3.127
 3034SOL    HW110001   1.860   5.461   3.186
 3034SOL    HW210002   1.990   5.467   3.087
 3035SOL     OW10003   6.433   3.250   0.310
 3035SOL    HW110004   6.486   3.252   0.395
 3035SOL    HW210005   6.476   3.310   0.242
 3036SOL     OW10006   1.474   3.217   6.640
 3036SOL    HW110007   1.458   3.238   6.543
 3036SOL    HW210008   1.539   3.142   6.647
 3037SOL     OW10009   6.683   5.526   4.113
 3037SOL    HW110010   6.618   5.601   4.116
 3037SOL    HW210011   6.657   5.463   4.039
 3038SOL     OW10012   5.934   6.703   6.531
 3038SOL    HW110013   5.854   6.643   6.528
 3038SOL    HW210014   5.943   6.750   6.443
 3039SOL     OW10015   6.721   4.010   2.295
 3039SOL    HW110016   6.780   4.082   2.259
 3039SOL    HW210017   6.625   4.039   2.290
 3040SOL     OW10018   5.028   3.414   6.290
 3040SOL    HW110019   4.985   3.347   6.350
 3040SOL    HW210020   5.093   3.469   6.341
 3041SOL     OW10021   2.041   2.710   5.355
 3041SOL    HW110022   2.024   2.736   5.450
 3041SOL    HW210023   2.138   2.719   5.334
 3042SOL     OW10024   5.785   6.772   1.655
 3042SOL    HW110025   5.715   6.842   1.671
 3042SOL    HW210026   5.874   6.815   1.648
 3043SOL     OW10027   0.806   4.929   0.946
 3043SOL    HW110028   0.882   4.977   0.902
 3043SOL    HW210029   0.753   4.881   0.877
 3044SOL     OW10030   3.077   4.976   6.174
 3044SOL    HW110031   2.986   4.980   6.134
 3044SOL    HW210032   3.142   5.025   6.116
 3045SOL     OW10033   4.801   0.636   3.314
 3045SOL    HW110034   4.843   0.703   3.376
 3045SOL    HW210035   4.746   0.684   3.245
 3046SOL     OW10036   2.911   1.863   6.539
 3046SOL    HW110037   2.833   1.915   6.505
 3046SOL    HW210038   2.929   1.785   6.479
 3047SOL     OW10039   5.410   6.732   2.577
 3047SOL    HW110040   5.473   6.674   2.628
 3047SOL    HW210041   5.418   6.826   2.611
 3048SOL     OW10042   3.944   2.891   1.815
 3048SOL    HW110043   3.935   2.990   1.819
 3048SOL    HW210044   4.040   2.866   1.817
 3049SOL     OW10045   1.425   6.233   1.394
 3049SOL    HW110046   1.431   6.222   1.493
 3049SOL    HW210047   1.432   6.143   1.350
 3050SOL     OW10048   3.394   0.959   3.203
 3050SOL    HW110049   3.432   1.048   3.177
 3050SOL    HW210050   3.307   0.973   3.251
 3051SOL     OW10051   2.257   3.770   0.235
 3051SOL    HW110052   2.277   3.867   0.227
 3051SOL    HW210053   2.342   3.718   0.237
 3052SOL     OW10054   4.138   0.765   2.492
 3052SOL    HW110055   4.124   0.864   2.491
 3052SOL    HW210056   4.087   0.724   2.416
 3053SOL     OW10057   6.899   0.745   6.819
 3053SOL    HW110058   6.912   0.799   6.736
 3053SOL    HW210059   6.833   0.672   6.802
 3054SOL     OW10060   0.398   2.615   1.179
 3054SOL    HW110061   0.300   2.634   1.178
 3054SOL    HW210062   0.449   2.701   1.178
 3055SOL     OW10063   4.437   6.801   3.817
 3055SOL    HW110064   4.348   6.836   3.787
 3055SOL    HW210065   4.509   6.862   3.783
 3056SOL     OW10066   6.783   1.189   6.162
 3056SOL    HW110067   6.788   1.187   6.261
 3056SOL    HW210068   6.858   1.246   6.126
 3057SOL     OW10069   3.895   5.741   3.102
 3057SOL    HW110070   3.820   5.691   3.146
 3057SOL    HW210071   3.960   5.676   3.063
 3058SOL     OW10072   6.952   5.543   1.142
 3058SOL    HW110073   0.028   5.555   1.142
 3058SOL    HW210074   6.910   5.614   1.197
 3059SOL     OW10075   2.220   2.273   4.779
 3059SOL    HW110076   2.241   2.332   4.857
 3059SOL    HW210077   2.305   2.234   4.742
 3060SOL     OW10078   0.473   6.502   0.686
 3060SOL    HW110079   0.473   6.598   0.659
 3060SOL    HW210080   0.381   6.475   0.715
 3061SOL     OW10081   6.381   0.972   5.108
 3061SOL    HW110082   6.365   0.970   5.010
 3061SOL    HW210083   6.363   1.065   5.143
 3062SOL     OW10084   1.453   6.787   6.718
 3062SOL    HW110085   1.440   6.847   6.639
 3062SOL    HW210086   1.536   6.733   6.707
 3063SOL     OW10087   2.861   5.382   1.494
 3063SOL    HW110088   2.847   5.351   1.588
 3063SOL    HW210089   2.862   5.303   1.433
 3064SOL     OW10090   5.431   3.480   3.918
 3064SOL    HW110091   5.401   3.574   3.938
 3064SOL    HW210092   5.531   3.476   3.920
 3065SOL     OW10093   2.228   1.031   6.718
 3065SOL    HW110094   2.257   1.066   6.629
 3065SOL    HW210095   2.290   0.958   6.747
 3066SOL     OW10096   4.965   4.958   0.997
 3066SOL    HW110097   4.876   4.977   0.955
 3066SOL    HW210098   5.035   5.015   0.954
 3067SOL     OW10099   3.956   2.204   4.474
 3067SOL    HW110100   3.862   2.197   4.443
 3067SOL    HW210101   3.958   2.216   4.573
 3068SOL     OW10102   5.293   5.703   0.685
 3068SOL    HW110103   5.374   5.719   0.742
 3068SOL    HW210104   5.237   5.786   0.682
 3069SOL     OW10105   6.878   6.143   1.970
 3069SOL    HW110106   6.881   6.113   1.875
 3069SOL    HW210107   6.883   6.243   1.974
 3070SOL     OW10108   1.709   1.276   2.374
 3070SOL    HW110109   1.798   1.321   2.379
 3070SOL    HW210110   1.665   1.297   2.287
 3071SOL     OW10111   5.514   6.300   3.443
 3071SOL    HW110112   5.477   6.378   3.493
 3071SOL    HW210113   5.603   6.275   3.482
 3072SOL     OW10114   0.643   6.341   0.988
 3072SOL    HW110115   0.668   6.373   0.896
 3072SOL    HW210116   0.595   6.414   1.036
 3073SOL     OW10117   1.116   3.376   5.255
 3073SOL    HW110118   1.034   3.426   5.281
 3073SOL    HW210119   1.113   3.284   5.295
 3074SOL     OW10120   5.996   2.622   1.056
 3074SOL    HW110121   5.930   2.637   1.130
 3074SOL    HW210122   6.072   2.686   1.065
 3075SOL     OW10123   1.890   6.952   1.559
 3075SOL    HW110124   1.968   7.005   1.525
 3075SOL    HW210125   1.894   6.948   1.659
 3076SOL     OW10126   6.870   1.529   4.563
 3076SOL    HW110127   6.779   1.526   4.523
 3076SOL    HW210128   6.886   1.619   4.604
 3077SOL     OW10129   5.144   5.391   2.477
 3077SOL    HW110130   5.065   5.419   2.532
 3077SOL    HW210131   5.225   5.439   2.510
 3078SOL     OW10132   1.809   3.462   1.171
 3078SOL    HW110133   1.866   3.495   1.247
 3078SOL    HW210134   1.867   3.413   1.106
 3079SOL     OW10135   2.595   2.129   4.246
 3079SOL    HW110136   2.691   2.101   4.241
 3079SOL    HW210137   2.542   2.060   4.295
 3080SOL     OW10138   5.471   4.537   2.732
 3080SOL    HW110139   5.394   4.492   2.777
 3080SOL    HW210140   5.548   4.541   2.795
 3081SOL     OW10141   0.488   3.524   6.143
 3081SOL    HW110142   0.460   3.537   6.048
 3081SOL    HW210143   0.583   3.553   6.154
 3082SOL     OW10144   3.408   6.734   3.454
 3082SOL    HW110145   3.338   6.802   3.435
 3082SOL    HW210146   3.491   6.757   3.403
 3083SOL     OW10147   4.119   6.561   3.609
 3083SOL    HW110148   4.181   6.549   3.687
 3083SOL    HW210149   4.037   6.505   3.622
 3084SOL     OW10150   4.807   4.286   4.647
 3084SOL    HW110151   4.904   4.311   4.640
 3084SOL    HW210152   4.758   4.357   4.697
 3085SOL     OW10153   0.683   4.772   2.293
 3085SOL    HW110154   0.656   4.784   2.389
 3085SOL    HW210155   0.742   4.692   2.285
 3086SOL     OW10156   4.362   1.576   1.896
 3086SOL    HW110157   4.360   1.674   1.876
 3086SOL    HW210158   4.287   1.531   1.847
 3087SOL     OW10159   0.800   5.226   4.246
 3087SOL    HW110160   0.728   5.198   4.184
 3087SOL    HW210161   0.806   5.161   4.322
 3088SOL     OW10162   2.477   4.860   6.158
 3088SOL    HW110163   2.569   4.898   6.146
 3088SOL    HW210164   2.471   4.772   6.109
 3089SOL     OW10165   0.544   2.825   0.716
 3089SOL    HW110166   0.620   2.797   0.657
 3089SOL    HW210167   0.508   2.746   0.765
 3090SOL     OW10168   1.819   2.230   2.374
 3090SOL    HW110169   1.813   2.250   2.276
 3090SOL    HW210170   1.754   2.157   2.397
 3091SOL     OW10171   2.267   6.410   0.048
 3091SOL    HW110172   2.356   6.448   0.074
 3091SOL    HW210173   2.259   6.410   6.972
 3092SOL     OW10174   4.695   6.913   0.093
 3092SOL    HW110175   4.703   6.913   0.193
 3092SOL    HW210176   4.693   6.818   0.060
 3093SOL     OW10177   5.288   5.240   5.941
 3093SOL    HW110178   5.302   5.304   6.017
 3093SOL    HW210179   5.363   5.248   5.876
 3094SOL     OW10180   3.268   6.719   4.176
 3094SOL    HW110181   3.281   6.625   4.211
 3094SOL    HW210182   3.294   6.784   4.248
 3095SOL     OW10183   2.756   5.673   4.269
 3095SOL    HW110184   2.800   5.599   4.320
 3095SOL    HW210185   2.726   5.639   4.180
 3096SOL     OW10186   0.779   0.515   4.562
 3096SOL    HW110187   0.813   0.442   4.502
 3096SOL    HW210188   0.856   0.571   4.594
 3097SOL     OW10189   0.533   2.401   1.057
 3097SOL    HW110190   0.563   2.335   1.126
 3097SOL    HW210191   0.501   2.484   1.102
 3098SOL     OW10192   2.416   3.847   1.137
 3098SOL    HW110193   2.350   3.772   1.133
 3098SOL    HW210194   2.482   3.829   1.209
 3099SOL     OW10195   6.965   5.649   5.012
 3099SOL    HW110196   6.893   5.581   5.022
 3099SOL    HW210197   6.946   5.727   5.071
 3100SOL     OW10198   6.436   0.128   4.609
 3100SOL    HW110199   6.357   0.107   4.550
 3100SOL    HW210200   6.493   0.047   4.617
 3101SOL     OW10201   5.365   5.910   5.615
 3101SOL    HW110202   5.283   5.853   5.621
 3101SOL    HW210203   5.360   5.968   5.533
 3102SOL     OW10204   0.517   4.931   3.181
 3102SOL    HW110205   0.505   4.998   3.107
 3102SOL    HW210206   0.614   4.928   3.207
 3103SOL     OW10207   3.545   1.445   1.414
 3103SOL    HW110208   3.503   1.536   1.410
 3103SOL    HW210209   3.614   1.444   1.487
 3104SOL     OW10210   5.970   6.784   4.935
 3104SOL    HW110211   6.013   6.694   4.936
 3104SOL    HW210212   5.920   6.797   5.021
 3105SOL     OW10213   6.768   4.423   2.369
 3105SOL    HW110214   6.702   4.416   2.294
 3105SOL    HW210215   6.720   4.411   2.456
 3106SOL     OW10216   6.531   1.068   3.059
 3106SOL    HW110217   6.500   1.058   3.154
 3106SOL    HW210218   6.509   1.159   3.026
 3107SOL     OW10219   4.168   0.709   3.757
 3107SOL    HW110220   4.161   0.659   3.671
 3107SOL    HW210221   4.076   0.726   3.793
 3108SOL     OW10222   1.706   0.477   4.390
 3108SOL    HW110223   1.714   0.402   4.323
 3108SOL    HW210224   1.674   0.560   4.344
 3109SOL     OW10225   5.230   5.800   2.660
 3109SOL    HW110226   5.299   5.852   2.709
 3109SOL    HW210227   5.267   5.709   2.638
 3110SOL     OW10228   0.627   2.071   3.700
 3110SOL    HW110229   0.565   2.004   3.659
 3110SOL    HW210230   0.577   2.125   3.767
 3111SOL     OW10231   6.313   5.565   3.775
 3111SOL    HW110232   6.313   5.557   3.875
 3111SOL    HW210233   6.385   5.628   3.747
 3112SOL     OW10234   5.015   2.884   6.341
 3112SOL    HW110235   4.964   2.841   6.416
 3112SOL    HW210236   4.984   2.847   6.254
 3113SOL     OW10237   1.992   6.776   4.636
 3113SOL    HW110238   2.058   6.849   4.653
 3113SOL    HW210239   1.900   6.815   4.630
 3114SOL     OW10240   4.611   3.311   7.021
 3114SOL    HW110241   4.564   3.228   6.991
 3114SOL    HW210242   4.699   3.286   0.039
 3115SOL     OW10243   4.623   3.589   0.030
 3115SOL    HW110244   4.576   3.615   0.115
 3115SOL    HW210245   4.599   3.495   0.006
 3116SOL     OW10246   6.912   3.874   0.052
 3116SOL    HW110247   6.846   3.924   7.020
 3116SOL    HW210248   6.893   3.776   0.047
 3117SOL     OW10249   4.536   3.563   5.450
 3117SOL    HW110250   4.590   3.482   5.473
 3117SOL    HW210251   4.561   3.594   5.358
 3118SOL     OW10252   0.264   4.775   0.024
 3118SOL    HW110253   0.189   4.790   6.983
 3118SOL    HW210254   0.312   4.861   0.041
 3119SOL     OW10255   1.730   3.551   5.401
 3119SOL    HW110256   1.637   3.524   5.425
 3119SOL    HW210257   1.732   3.648   5.378
 3120SOL     OW10258   2.384   6.717   4.084
 3120SOL    HW110259   2.452   6.730   4.156
 3120SOL    HW210260   2.299   6.681   4.124
 3121SOL     OW10261   0.603   1.659   2.691
 3121SOL    HW110262   0.652   1.583   2.733
 3121SOL    HW210263   0.633   1.668   2.596
 3122SOL     OW10264   2.490   6.002   6.104
 3122SOL    HW110265   2.557   6.042   6.167
 3122SOL    HW210266   2.537   5.968   6.022
 3123SOL     OW10267   3.273   6.838   3.721
 3123SOL    HW110268   3.201   6.808   3.658
 3123SOL    HW210269   3.360   6.844   3.672
 3124SOL     OW10270   4.221   0.004   4.363
 3124SOL    HW110271   4.154   6.963   4.326
 3124SOL    HW210272   4.307   7.019   4.312
 3125SOL     OW10273   6.240   1.872   5.820
 3125SOL    HW110274   6.312   1.897   5.755
 3125SOL    HW210275   6.151   1.898   5.783
 3126SOL     OW10276   4.841   4.575   6.652
 3126SOL    HW110277   4.906   4.528   6.592
 3126SOL    HW210278   4.756   4.593   6.601
 3127SOL     OW10279   1.158   2.362   3.283
 3127SOL    HW110280   1.219   2.432   3.321
 3127SOL    HW210281   1.212   2.289   3.241
 3128SOL     OW10282   2.434   0.201   6.705
 3128SOL    HW110283   2.508   0.247   6.656
 3128SOL    HW210284   2.346   0.241   6.679
 3129SOL     OW10285   1.561   4.352   6.276
 3129SOL    HW110286   1.609   4.413   6.339
 3129SOL    HW210287   1.607   4.263   6.275
 3130SOL     OW10288   1.990   4.433   1.659
 3130SOL    HW110289   2.031   4.447   1.570
 3130SOL    HW210290   2.029   4.352   1.703
 3131SOL     OW10291   0.658   2.458   1.548
 3131SOL    HW110292   0.663   2.557   1.553
 3131SOL    HW210293   0.749   2.420   1.533
 3132SOL     OW10294   5.018   5.222   5.912
 3132SOL    HW110295   4.977   5.192   5.826
 3132SOL    HW210296   5.115   5.239   5.900
 3133SOL     OW10297   3.173   2.158   3.596
 3133SOL    HW110298   3.262   2.188   3.561
 3133SOL    HW210299   3.109   2.148   3.520
 3134SOL     OW10300   5.062   4.544   1.312
 3134SOL    HW110301   5.031   4.504   1.398
 3134SOL    HW210302   4.998   4.616   1.284
 3135SOL     OW10303   4.650   1.578   5.148
 3135SOL    HW110304   4.649   1.565   5.049
 3135SOL    HW210305   4.582   1.518   5.190
 3136SOL     OW10306   5.915   0.384   6.729
 3136SOL    HW110307   5.973   0.449   6.777
 3136SOL    HW210308   5.926   0.395   6.630
 3137SOL     OW10309   5.793   0.219   3.628
 3137SOL    HW110310   5.797   0.276   3.546
 3137SOL    HW210311   5.712   0.160   3.625
 3138SOL     OW10312   6.559   2.181   4.079
 3138SOL    HW110313   6.474   2.234   4.089
 3138SOL    HW210314   6.598   2.198   3.989
 3139SOL     OW10315   4.252   0.203   6.619
 3139SOL    HW110316   4.227   0.240   6.529
 3139SOL    HW210317   4.224   0.267   6.690
 3140SOL     OW10318   6.270   6.809   6.238
 3140SOL    HW110319   6.316   6.750   6.304
 3140SOL    HW210320   6.176   6.824   6.268
 3141SOL     OW10321   0.927   6.656   6.139
 3141SOL    HW110322   0.887   6.705   6.062
 3141SOL    HW210323   1.009   6.704   6.171
 3142SOL     OW10324   5.055   5.853   1.368
 3142SOL    HW110325   5.065   5.812   1.459
 3142SOL    HW210326   4.986   5.803   1.316
 3143SOL     OW10327   0.079   2.633   6.813
 3143SOL    HW110328   0.155   2.572   6.791
 3143SOL    HW210329   0.086   2.661   6.909
 3144SOL     OW10330   2.819   4.011   1.040
 3144SOL    HW110331   2.728   4.030   1.003
 3144SOL    HW210332   2.856   4.095   1.081
 3145SOL     OW10333   2.191   4.912   2.558
 3145SOL    HW110334   2.234   4.865   2.635
 3145SOL    HW210335   2.150   4.845   2.496
 3146SOL     OW10336   1.249   6.982   3.433
 3146SOL    HW110337   1.342   6.955   3.456
 3146SOL    HW210338   1.214   0.021   3.504
 3147SOL     OW10339   4.435   5.344   6.653
 3147SOL    HW110340   4.485   5.264   6.621
 3147SOL    HW210341   4.478   5.427   6.616
 3148SOL     OW10342   4.816   5.477   4.687
 3148SOL    HW110343   4.734   5.515   4.645
 3148SOL    HW210344   4.826   5.381   4.660
 3149SOL     OW10345   3.206   0.197   5.419
 3149SOL    HW110346   3.280   0.165   5.359
 3149SOL    HW210347   3.178   0.289   5.392
 3150SOL     OW10348   5.618   5.407   4.055
 3150SOL    HW110349   5.619   5.368   3.963
 3150SOL    HW210350   5.712   5.416   4.088
 3151SOL     OW10351   4.065   0.829   0.246
 3151SOL    HW110352   3.987   0.878   0.207
 3151SOL    HW210353   4.034   0.768   0.319
 3152SOL     OW10354   1.143   5.101   1.561
 3152SOL    HW110355   1.179   5.008   1.555
 3152SOL    HW210356   1.075   5.115   1.489
 3153SOL     OW10357   6.488   4.009   1.802
 3153SOL    HW110358   6.583   4.037   1.793
 3153SOL    HW210359   6.479   3.948   1.881
 3154SOL     OW10360   5.975   1.692   0.530
 3154SOL    HW110361   5.927   1.643   0.456
 3154SOL    HW210362   5.942   1.660   0.618
 3155SOL     OW10363   0.007   5.464   1.480
 3155SOL    HW110364   0.022   5.561   1.464
 3155SOL    HW210365   6.932   5.445   1.480
 3156SOL     OW10366   3.834   3.147   3.981
 3156SOL    HW110367   3.901   3.134   4.054
 3156SOL    HW210368   3.830   3.244   3.957
 3157SOL     OW10369   1.906   3.158   4.687
 3157SOL    HW110370   1.885   3.146   4.784
 3157SOL    HW210371   1.943   3.072   4.650
 3158SOL     OW10372   4.722   0.069   1.194
 3158SOL    HW110373   4.760   7.003   1.219
 3158SOL    HW210374   4.776   0.108   1.120
 3159SOL     OW10375   5.487   0.211   0.056
 3159SOL    HW110376   5.415   0.142   0.067
 3159SOL    HW210377   5.454   0.284   7.020
 3160SOL     OW10378   6.308   5.499   5.758
 3160SOL    HW110379   6.250   5.528   5.834
 3160SOL    HW210380   6.343   5.407   5.775
 3161SOL     OW10381   1.104   1.726   2.823
 3161SOL    HW110382   1.043   1.788   2.775
 3161SOL    HW210383   1.193   1.725   2.779
 3162SOL     OW10384   0.350   5.532   0.222
 3162SOL    HW110385   0.390   5.516   0.132
 3162SOL    HW210386   0.412   5.588   0.277
 3163SOL     OW10387   3.377   2.306   6.559
 3163SOL    HW110388   3.300   2.310   6.622
 3163SOL    HW210389   3.457   2.347   6.601
 3164SOL     OW10390   4.405   4.185   1.489
 3164SOL    HW110391   4.413   4.126   1.569
 3164SOL    HW210392   4.385   4.130   1.408
 3165SOL     OW10393   0.864   6.561   1.747
 3165SOL    HW110394   0.928   6.536   1.674
 3165SOL    HW210395   0.854   6.661   1.750
 3166SOL     OW10396   4.349   2.463   6.466
 3166SOL    HW110397   4.439   2.506   6.462
 3166SOL    HW210398   4.339   2.400   6.389
 3167SOL     OW10399   0.184   4.725   2.043
 3167SOL    HW110400   0.216   4.711   1.950
 3167SOL    HW210401   0.207   4.645   2.099
 3168SOL     OW10402   4.959   2.688   0.467
 3168SOL    HW110403   4.981   2.784   0.484
 3168SOL    HW210404   4.904   2.652   0.543
 3169SOL     OW10405   0.536   3.053   6.203
 3169SOL    HW110406   0.616   3.110   6.182
 3169SOL    HW210407   0.485   3.094   6.278
 3170SOL     OW10408   4.238   0.460   0.029
 3170SOL    HW110409   4.305   0.441   6.981
 3170SOL    HW210410   4.280   0.447   0.118
 3171SOL     OW10411   6.977   6.560   1.098
 3171SOL    HW110412   6.993   6.522   1.007
 3171SOL    HW210413   0.003   6.507   1.166
 3172SOL     OW10414   0.467   5.757   5.323
 3172SOL    HW110415   0.444   5.854   5.314
 3172SOL    HW210416   0.416   5.718   5.400
 3173SOL     OW10417   2.953   1.511   1.263
 3173SOL    HW110418   2.871   1.531   1.316
 3173SOL    HW210419   3.017   1.588   1.271
 3174SOL     OW10420   2.486   2.990   6.741
 3174SOL    HW110421   2.585   3.009   6.741
 3174SOL    HW210422   2.439   3.061   6.690
 3175SOL     OW10423   0.447   6.349   6.621
 3175SOL    HW110424   0.366   6.292   6.634
 3175SOL    HW210425   0.436   6.405   6.539
 3176SOL     OW10426   1.839   5.100   4.820
 3176SOL    HW110427   1.796   5.019   4.779
 3176SOL    HW210428   1.777   5.140   4.887
 3177SOL     OW10429   5.392   5.444   5.585
 3177SOL    HW110430   5.305   5.396   5.579
 3177SOL    HW210431   5.466   5.386   5.550
 3178SOL     OW10432   0.125   3.274   1.156
 3178SOL    HW110433   0.209   3.237   1.118
 3178SOL    HW210434   0.098   3.221   1.236
 3179SOL     OW10435   2.322   2.562   1.644
 3179SOL    HW110436   2.381   2.626   1.595
 3179SOL    HW210437   2.263   2.514   1.579
 3180SOL     OW10438   3.773   0.453   6.440
 3180SOL    HW110439   3.747   0.418   6.350
 3180SOL    HW210440   3.795   0.377   6.501
 3181SOL     OW10441   0.240   0.033   3.049
 3181SOL    HW110442   0.315   7.004   3.009
 3181SOL    HW210443   0.165   0.039   2.984
 3182SOL     OW10444   0.960   0.937   5.290
 3182SOL    HW110445   0.869   0.951   5.329
 3182SOL    HW210446   1.029   0.949   5.362
 3183SOL     OW10447   4.672   3.994   1.351
 3183SOL    HW110448   4.587   3.966   1.396
 3183SOL    HW210449   4.702   4.082   1.389
 3184SOL     OW10450   2.985   2.115   2.226
 3184SOL    HW110451   2.926   2.036   2.210
 3184SOL    HW210452   2.976   2.179   2.150
 3185SOL     OW10453   6.084   0.498   6.252
 3185SOL    HW110454   6.051   0.559   6.324
 3185SOL    HW210455   6.184   0.495   6.255
 3186SOL     OW10456   3.182   1.299   3.149
 3186SOL    HW110457   3.111   1.307   3.219
 3186SOL    HW210458   3.141   1.277   3.061
 3187SOL     OW10459   4.016   4.419   0.044
 3187SOL    HW110460   3.949   4.350   0.071
 3187SOL    HW210461   3.987   4.462   6.982
 3188SOL     OW10462   3.737   6.382   3.321
 3188SOL    HW110463   3.662   6.425   3.271
 3188SOL    HW210464   3.703   6.300   3.367
 3189SOL     OW10465   2.336   1.415   3.120
 3189SOL    HW110466   2.267   1.487   3.125
 3189SOL    HW210467   2.362   1.387   3.213
 3190SOL     OW10468   1.339   6.688   1.363
 3190SOL    HW110469   1.306   6.634   1.286
 3190SOL    HW210470   1.436   6.710   1.350
 3191SOL     OW10471   3.512   0.188   1.359
 3191SOL    HW110472   3.600   0.218   1.322
 3191SOL    HW210473   3.439   0.207   1.292
 3192SOL     OW10474   0.492   1.981   1.083
 3192SOL    HW110475   0.434   2.059   1.107
 3192SOL    HW210476   0.475   1.906   1.146
 3193SOL     OW10477   3.992   2.578   6.294
 3193SOL    HW110478   4.002   2.491   6.342
 3193SOL    HW210479   3.941   2.642   6.351
 3194SOL     OW10480   1.390   2.919   6.499
 3194SOL    HW110481   1.465   2.863   6.465
 3194SOL    HW210482   1.325   2.860   6.548
 3195SOL     OW10483   1.988   2.686   3.296
 3195SOL    HW110484   1.949   2.725   3.212
 3195SOL    HW210485   2.088   2.695   3.293
 3196SOL     OW10486   6.873   0.530   5.177
 3196SOL    HW110487   6.795   0.535   5.240
 3196SOL    HW210488   6.930   0.610   5.189
 3197SOL     OW10489   1.468   5.928   3.039
 3197SOL    HW110490   1.467   5.946   2.941
 3197SOL    HW210491   1.374   5.933   3.074
 3198SOL     OW10492   6.653   2.002   6.791
 3198SOL    HW110493   6.678   1.924   6.734
 3198SOL    HW210494   6.733   2.058   6.808
 3199SOL     OW10495   4.442   2.626   1.745
 3199SOL    HW110496   4.507   2.685   1.793
 3199SOL    HW210497   4.472   2.530   1.754
 3200SOL     OW10498   0.230   2.506   1.415
 3200SOL    HW110499   0.301   2.526   1.347
 3200SOL    HW210500   0.149   2.472   1.369
 3201SOL     OW10501   5.168   3.788   3.946
 3201SOL    HW110502   5.146   3.815   3.853
 3201SOL    HW210503   5.086   3.754   3.992
 3202SOL     OW10504   1.892   4.495   2.267
 3202SOL    HW110505   1.877   4.587   2.303
 3202SOL    HW210506   1.829   4.432   2.313
 3203SOL     OW10507   5.715   0.888   0.842
 3203SOL    HW110508   5.635   0.828   0.843
 3203SOL    HW210509   5.789   0.843   0.792
 3204SOL     OW10510   5.849   5.938   1.756
 3204SOL    HW110511   5.777   6.007   1.744
 3204SOL    HW210512   5.928   5.980   1.802
 3205SOL     OW10513   6.815   4.351   0.140
 3205SOL    HW110514   6.811   4.408   0.058
 3205SOL    HW210515   6.906   4.358   0.181
 3206SOL     OW10516   7.017   0.016   6.012
 3206SOL    HW110517   0.001   0.116   6.014
 3206SOL    HW210518   0.064   7.002   5.952
 3207SOL     OW10519   0.095   1.211   5.796
 3207SOL    HW110520   0.088   1.112   5.793
 3207SOL    HW210521   0.068   1.249   5.707
 3208SOL     OW10522   4.408   6.245   5.141
 3208SOL    HW110523   4.496   6.259   5.096
 3208SOL    HW210524   4.403   6.153   5.178
 3209SOL     OW10525   2.916   6.827   3.731
 3209SOL    HW110526   2.846   6.764   3.764
 3209SOL    HW210527   2.891   6.920   3.755
 3210SOL     OW10528   0.015   3.417   2.259
 3210SOL    HW110529   0.018   3.458   2.168
 3210SOL    HW210530   6.997   3.326   2.254
 3211SOL     OW10531   2.295   4.655   0.200
 3211SOL    HW110532   2.299   4.587   0.273
 3211SOL    HW210533   2.351   4.735   0.226
 3212SOL     OW10534   4.320   1.892   6.757
 3212SOL    HW110535   4.305   1.870   6.661
 3212SOL    HW210536   4.235   1.926   6.798
 3213SOL     OW10537   6.067   5.073   2.797
 3213SOL    HW110538   6.074   4.994   2.737
 3213SOL    HW210539   6.154   5.122   2.799
 3214SOL     OW10540   4.637   5.943   0.002
 3214SOL    HW110541   4.614   5.988   6.940
 3214SOL    HW210542   4.560   5.948   0.065
 3215SOL     OW10543   6.401   2.852   0.919
 3215SOL    HW110544   6.488   2.805   0.934
 3215SOL    HW210545   6.405   2.904   0.833
 3216SOL     OW10546   5.552   5.680   2.856
 3216SOL    HW110547   5.493   5.600   2.845
 3216SOL    HW210548   5.533   5.723   2.944
 3217SOL     OW10549   1.314   4.229   3.285
 3217SOL    HW110550   1.374   4.225   3.364
 3217SOL    HW210551   1.240   4.163   3.295
 3218SOL     OW10552   4.340   6.899   3.321
 3218SOL    HW110553   4.271   6.904   3.393
 3218SOL    HW210554   4.353   6.990   3.282
 3219SOL     OW10555   0.014   0.413   3.430
 3219SOL    HW110556   7.015   0.466   3.512
 3219SOL    HW210557   0.070   0.468   3.369
 3220SOL     OW10558   6.558   4.717   5.559
 3220SOL    HW110559   6.491   4.792   5.556
 3220SOL    HW210560   6.629   4.733   5.491
 3221SOL     OW10561   2.727   6.144   2.355
 3221SOL    HW110562   2.682   6.218   2.405
 3221SOL    HW210563   2.659   6.076   2.328
 3222SOL     OW10564   5.234   2.225   3.179
 3222SOL    HW110565   5.313   2.208   3.239
 3222SOL    HW210566   5.266   2.254   3.089
 3223SOL     OW10567   2.639   5.295   6.803
 3223SOL    HW110568   2.539   5.284   6.801
 3223SOL    HW210569   2.662   5.388   6.831
 3224SOL     OW10570   4.699   4.999   6.179
 3224SOL    HW110571   4.725   4.984   6.084
 3224SOL    HW210572   4.613   4.952   6.199
 3225SOL     OW10573   4.660   2.769   6.372
 3225SOL    HW110574   4.741   2.787   6.427
 3225SOL    HW210575   4.684   2.769   6.275
 3226SOL     OW10576   2.195   1.135   4.388
 3226SOL    HW110577   2.182   1.097   4.480
 3226SOL    HW210578   2.114   1.188   4.362
 3227SOL     OW10579   3.111   2.038   6.573
 3227SOL    HW110580   3.044   1.965   6.583
 3227SOL    HW210581   3.101   2.080   6.482
 3228SOL     OW10582   5.318   3.262   4.320
 3228SOL    HW110583   5.375   3.181   4.332
 3228SOL    HW210584   5.286   3.293   4.410
 3229SOL     OW10585   3.202   1.723   5.614
 3229SOL    HW110586   3.156   1.716   5.526
 3229SOL    HW210587   3.270   1.796   5.611
 3230SOL     OW10588   0.327   1.732   3.159
 3230SOL    HW110589   0.249   1.714   3.099
 3230SOL    HW210590   0.295   1.742   3.253
 3231SOL     OW10591   4.737   6.062   1.862
 3231SOL    HW110592   4.823   6.083   1.909
 3231SOL    HW210593   4.748   5.978   1.808
 3232SOL     OW10594   4.313   4.997   4.981
 3232SOL    HW110595   4.324   5.092   5.010
 3232SOL    HW210596   4.396   4.945   5.002
 3233SOL     OW10597   0.815   4.292   0.817
 3233SOL    HW110598   0.811   4.206   0.867
 3233SOL    HW210599   0.906   4.304   0.777
 3234SOL     OW10600   7.018   2.622   0.225
 3234SOL    HW110601   0.011   2.524   0.221
 3234SOL    HW210602   0.025   2.657   0.314
 3235SOL     OW10603   6.191   5.894   2.847
 3235SOL    HW110604   6.111   5.911   2.905
 3235SOL    HW210605   6.272   5.937   2.887
 3236SOL     OW10606   1.768   3.320   2.010
 3236SOL    HW110607   1.854   3.289   2.050
 3236SOL    HW210608   1.779   3.414   1.977
 3237SOL     OW10609   4.723   6.996   4.309
 3237SOL    HW110610   4.725   0.050   4.372
 3237SOL    HW210611   4.806   6.996   4.253
 3238SOL     OW10612   0.699   5.855   6.878
 3238SOL    HW110613   0.672   5.943   6.839
 3238SOL    HW210614   0.795   5.858   6.904
 3239SOL     OW10615   5.909   1.163   0.369
 3239SOL    HW110616   5.847   1.092   0.401
 3239SOL    HW210617   5.871   1.206   0.287
 3240SOL     OW10618   0.212   6.971   4.745
 3240SOL    HW110619   0.297   6.958   4.694
 3240SOL    HW210620   0.226   0.016   4.817
 3241SOL     OW10621   4.891   1.470   4.342
 3241SOL    HW110622   4.884   1.474   4.441
 3241SOL    HW210623   4.929   1.382   4.314
 3242SOL     OW10624   3.477   5.125   0.480
 3242SOL    HW110625   3.499   5.065   0.403
 3242SOL    HW210626   3.387   5.167   0.465
 3243SOL     OW10627   5.259   4.885   6.952
 3243SOL    HW110628   5.185   4.953   6.945
 3243SOL    HW210629   5.346   4.928   6.926
 3244SOL     OW10630   5.646   5.951   5.652
 3244SOL    HW110631   5.709   5.904   5.714
 3244SOL    HW210632   5.594   5.883   5.600
 3245SOL     OW10633   3.822   2.890   6.236
 3245SOL    HW110634   3.828   2.961   6.307
 3245SOL    HW210635   3.785   2.806   6.277
 3246SOL     OW10636   5.360   0.447   2.908
 3246SOL    HW110637   5.287   0.485   2.965
 3246SOL    HW210638   5.445   0.496   2.926
 3247SOL     OW10639   0.387   4.136   2.652
 3247SOL    HW110640   0.452   4.097   2.716
 3247SOL    HW210641   0.306   4.077   2.646
 3248SOL     OW10642   6.069   3.845   2.016
 3248SOL    HW110643   6.157   3.825   1.973
 3248SOL    HW210644   6.081   3.853   2.115
 3249SOL     OW10645   3.689   4.736   5.334
 3249SOL    HW110646   3.735   4.652   5.364
 3249SOL    HW210647   3.607   4.711   5.282
 3250SOL     OW10648   5.731   0.146   3.027
 3250SOL    HW110649   5.769   0.091   3.101
 3250SOL    HW210650   5.679   0.087   2.965
 3251SOL     OW10651   3.584   1.768   3.036
 3251SOL    HW110652   3.635   1.755   2.951
 3251SOL    HW210653   3.615   1.852   3.081
 3252SOL     OW10654   3.487   1.064   2.683
 3252SOL    HW110655   3.503   1.154   2.724
 3252SOL    HW210656   3.509   0.993   2.750
 3253SOL     OW10657   4.777   2.699   1.633
 3253SOL    HW110658   4.714   2.723   1.560
 3253SOL    HW210659   4.748   2.743   1.718
 3254SOL     OW10660   3.866   4.952   4.085
 3254SOL    HW110661   3.915   5.039   4.080
 3254SOL    HW210662   3.912   4.884   4.028
 3255SOL     OW10663   4.776   5.335   0.457
 3255SOL    HW110664   4.790   5.239   0.434
 3255SOL    HW210665   4.831   5.359   0.537
 3256SOL     OW10666   5.769   6.905   6.104
 3256SOL    HW110667   5.800   6.966   6.031
 3256SOL    HW210668   5.714   6.832   6.065
 3257SOL     OW10669   1.388   1.743   0.450
 3257SOL    HW110670   1.329   1.785   0.519
 3257SOL    HW210671   1.371   1.786   0.361
 3258SOL     OW10672   4.820   6.618   1.656
 3258SOL    HW110673   4.836   6.600   1.753
 3258SOL    HW210674   4.858   6.707   1.631
 3259SOL     OW10675   4.482   5.865   4.275
 3259SOL    HW110676   4.557   5.800   4.285
 3259SOL    HW210677   4.396   5.821   4.298
 3260SOL     OW10678   1.802   1.205   0.469
 3260SOL    HW110679   1.750   1.221   0.554
 3260SOL    HW210680   1.755   1.250   0.393
 3261SOL     OW10681   3.989   6.765   0.687
 3261SOL    HW110682   3.923   6.753   0.613
 3261SOL    HW210683   3.997   6.680   0.739
 3262SOL     OW10684   3.858   1.850   3.401
 3262SOL    HW110685   3.770   1.802   3.406
 3262SOL    HW210686   3.924   1.804   3.460
 3263SOL     OW10687   4.891   6.947   3.090
 3263SOL    HW110688   4.866   6.856   3.057
 3263SOL    HW210689   4.913   6.942   3.187
 3264SOL     OW10690   0.024   5.123   6.924
 3264SOL    HW110691   6.997   5.167   6.998
 3264SOL    HW210692   0.119   5.157   6.924
 3265SOL     OW10693   3.910   2.286   6.414
 3265SOL    HW110694   3.864   2.225   6.350
 3265SOL    HW210695   3.842   2.336   6.468
 3266SOL     OW10696   0.135   2.349   0.188
 3266SOL    HW110697   0.167   2.262   0.224
 3266SOL    HW210698   0.067   2.332   0.116
 3267SOL     OW10699   3.487   2.566   1.509
 3267SOL    HW110700   3.422   2.564   1.586
 3267SOL    HW210701   3.523   2.659   1.498
 3268SOL     OW10702   1.037   4.117   0.140
 3268SOL    HW110703   1.028   4.048   0.068
 3268SOL    HW210704   0.947   4.140   0.176
 3269SOL     OW10705   4.940   5.050   1.687
 3269SOL    HW110706   4.861   5.108   1.667
 3269SOL    HW210707   5.006   5.056   1.612
 3270SOL     OW10708   0.401   5.261   3.772
 3270SOL    HW110709   0.348   5.178   3.754
 3270SOL    HW210710   0.352   5.320   3.836
 3271SOL     OW10711   5.472   2.048   2.577
 3271SOL    HW110712   5.418   1.980   2.527
 3271SOL    HW210713   5.562   2.056   2.536
 3272SOL     OW10714   3.565   6.936   0.316
 3272SOL    HW110715   3.572   6.917   0.218
 3272SOL    HW210716   3.492   6.880   0.355
 3273SOL     OW10717   1.377   6.280   1.696
 3273SOL    HW110718   1.282   6.311   1.704
 3273SOL    HW210719   1.422   6.286   1.785
 3274SOL     OW10720   3.417   1.536   6.169
 3274SOL    HW110721   3.419   1.436   6.176
 3274SOL    HW210722   3.328   1.565   6.133
 3275SOL     OW10723   2.207   0.395   6.964
 3275SOL    HW110724   2.266   0.462   6.920
 3275SOL    HW210725   2.246   0.304   6.952
 3276SOL     OW10726   3.337   5.107   6.765
 3276SOL    HW110727   3.329   5.069   6.672
 3276SOL    HW210728   3.262   5.072   6.821
 3277SOL     OW10729   6.461   6.971   6.126
 3277SOL    HW110730   6.397   6.897   6.149
 3277SOL    HW210731   6.453   0.021   6.194
 3278SOL     OW10732   0.347   1.206   5.161
 3278SOL    HW110733   0.358   1.124   5.103
 3278SOL    HW210734   0.426   1.266   5.149
 3279SOL     OW10735   0.115   0.071   0.981
 3279SOL    HW110736   0.125   7.015   1.040
 3279SOL    HW210737   0.205   0.099   0.947
 3280SOL     OW10738   2.396   5.166   6.779
 3280SOL    HW110739   2.432   5.075   6.799
 3280SOL    HW210740   2.342   5.163   6.695
 3281SOL     OW10741   1.633   5.524   1.009
 3281SOL    HW110742   1.632   5.622   1.029
 3281SOL    HW210743   1.689   5.508   0.927
 3282SOL     OW10744   3.045   6.313   4.390
 3282SOL    HW110745   2.985   6.240   4.355
 3282SOL    HW210746   3.109   6.274   4.457
 3283SOL     OW10747   3.060   1.795   3.275
 3283SOL    HW110748   3.036   1.782   3.371
 3283SOL    HW210749   2.978   1.783   3.219
 3284SOL     OW10750   0.045   6.406   6.738
 3284SOL    HW110751   0.072   6.401   6.834
 3284SOL    HW210752   0.075   6.324   6.690
 3285SOL     OW10753   0.399   3.102   3.473
 3285SOL    HW110754   0.348   3.184   3.502
 3285SOL    HW210755   0.398   3.035   3.547
 3286SOL     OW10756   3.936   3.392   3.893
 3286SOL    HW110757   3.987   3.350   3.817
 3286SOL    HW210758   3.961   3.489   3.899
 3287SOL     OW10759   1.487   5.629   0.054
 3287SOL    HW110760   1.532   5.646   0.141
 3287SOL    HW210761   1.553   5.638   7.003
 3288SOL     OW10762   0.733   6.276   6.649
 3288SOL    HW110763   0.751   6.212   6.724
 3288SOL    HW210764   0.635   6.293   6.643
 3289SOL     OW10765   1.038   6.165   5.241
 3289SOL    HW110766   1.120   6.134   5.194
 3289SOL    HW210767   1.034   6.265   5.238
 3290SOL     OW10768   0.256   6.044   1.943
 3290SOL    HW110769   0.188   6.056   2.015
 3290SOL    HW210770   0.272   6.132   1.898
 3291SOL     OW10771   1.914   6.479   6.479
 3291SOL    HW110772   1.908   6.457   6.381
 3291SOL    HW210773   1.838   6.437   6.528
 3292SOL     OW10774   0.379   0.943   6.587
 3292SOL    HW110775   0.460   0.957   6.530
 3292SOL    HW210776   0.310   0.894   6.534
 3293SOL     OW10777   6.945   1.700   3.582
 3293SOL    HW110778   7.023   1.650   3.543
 3293SOL    HW210779   6.860   1.660   3.549
 3294SOL     OW10780   6.745   1.014   6.734
 3294SOL    HW110781   6.817   0.974   6.791
 3294SOL    HW210782   6.717   1.102   6.771
 3295SOL     OW10783   2.650   2.281   0.450
 3295SOL    HW110784   2.618   2.217   0.520
 3295SOL    HW210785   2.583   2.284   0.376
 3296SOL     OW10786   2.335   0.032   1.897
 3296SOL    HW110787   2.312   7.000   1.977
 3296SOL    HW210788   2.433   0.022   1.877
 3297SOL     OW10789   3.365   2.080   5.050
 3297SOL    HW110790   3.305   2.159   5.060
 3297SOL    HW210791   3.344   2.013   5.121
 3298SOL     OW10792   6.364   3.228   2.924
 3298SOL    HW110793   6.353   3.254   3.020
 3298SOL    HW210794   6.455   3.253   2.892
 3299SOL     OW10795   1.736   0.147   3.965
 3299SOL    HW110796   1.763   0.117   4.056
 3299SOL    HW210797   1.671   0.081   3.927
 3300SOL     OW10798   6.598   0.165   5.344
 3300SOL    HW110799   6.574   0.083   5.293
 3300SOL    HW210800   6.589   0.147   5.442
 3301SOL     OW10801   0.945   4.245   3.721
 3301SOL    HW110802   0.991   4.310   3.662
 3301SOL    HW210803   0.960   4.270   3.817
 3302SOL     OW10804   1.451   4.814   4.397
 3302SOL    HW110805   1.545   4.819   4.362
 3302SOL    HW210806   1.394   4.764   4.332
 3303SOL     OW10807   3.177   3.174   2.625
 3303SOL    HW110808   3.203   3.248   2.687
 3303SOL    HW210809   3.107   3.207   2.562
 3304SOL     OW10810   1.138   5.115   3.613
 3304SOL    HW110811   1.183   5.197   3.578
 3304SOL    HW210812   1.154   5.039   3.550
 3305SOL     OW10813   1.550   1.228   2.012
 3305SOL    HW110814   1.621   1.297   2.027
 3305SOL    HW210815   1.494   1.254   1.934
 3306SOL     OW10816   2.222   4.008   3.160
 3306SOL    HW110817   2.141   4.021   3.217
 3306SOL    HW210818   2.268   4.096   3.145
 3307SOL     OW10819   0.198   6.096   0.481
 3307SOL    HW110820   0.104   6.065   0.494
 3307SOL    HW210821   0.231   6.138   0.566
 3308SOL     OW10822   4.360   6.067   0.244
 3308SOL    HW110823   4.392   6.143   0.188
 3308SOL    HW210824   4.430   6.044   0.312
 3309SOL     OW10825   1.099   4.780   2.594
 3309SOL    HW110826   1.094   4.873   2.558
 3309SOL    HW210827   1.180   4.735   2.557
 3310SOL     OW10828   0.520   3.762   3.260
 3310SOL    HW110829   0.619   3.763   3.271
 3310SOL    HW210830   0.485   3.856   3.263
 3311SOL     OW10831   3.008   5.802   0.757
 3311SOL    HW110832   2.996   5.768   0.850
 3311SOL    HW210833   3.009   5.902   0.758
 3312SOL     OW10834   3.357   4.349   6.397
 3312SOL    HW110835   3.394   4.435   6.361
 3312SOL    HW210836   3.399   4.272   6.349
 3313SOL     OW10837   1.121   5.025   3.868
 3313SOL    HW110838   1.068   5.085   3.926
 3313SOL    HW210839   1.124   5.061   3.775
 3314SOL     OW10840   1.384   2.929   4.796
 3314SOL    HW110841   1.434   3.010   4.826
 3314SOL    HW210842   1.338   2.887   4.875
 3315SOL     OW10843   6.539   2.698   3.827
 3315SOL    HW110844   6.468   2.736   3.886
 3315SOL    HW210845   6.629   2.716   3.868
 3316SOL     OW10846   4.187   2.164   6.351
 3316SOL    HW110847   4.283   2.162   6.379
 3316SOL    HW210848   4.129   2.142   6.430
 3317SOL     OW10849   4.631   2.782   1.855
 3317SOL    HW110850   4.659   2.877   1.846
 3317SOL    HW210851   4.613   2.762   1.952
 3318SOL     OW10852   2.524   6.256   6.260
 3318SOL    HW110853   2.432   6.222   6.277
 3318SOL    HW210854   2.591   6.195   6.303
 3319SOL     OW10855   0.253   6.261   4.385
 3319SOL    HW110856   0.262   6.233   4.481
 3319SOL    HW210857   0.309   6.343   4.369
 3320SOL     OW10858   6.016   1.458   5.243
 3320SOL    HW110859   6.005   1.521   5.319
 3320SOL    HW210860   5.940   1.468   5.179
 3321SOL     OW10861   3.591   3.270   2.423
 3321SOL    HW110862   3.608   3.172   2.429
 3321SOL    HW210863   3.620   3.303   2.333
 3322SOL     OW10864   4.428   1.912   0.937
 3322SOL    HW110865   4.501   1.901   1.004
 3322SOL    HW210866   4.404   2.009   0.929
 3323SOL     OW10867   2.100   4.240   6.538
 3323SOL    HW110868   2.111   4.194   6.450
 3323SOL    HW210869   2.134   4.180   6.611
 3324SOL     OW10870   1.321   3.811   0.377
 3324SOL    HW110871   1.403   3.862   0.349
 3324SOL    HW210872   1.324   3.794   0.475
 3325SOL     OW10873   2.155   3.239   0.301
 3325SOL    HW110874   2.199   3.311   0.355
 3325SOL    HW210875   2.146   3.269   0.206
 3326SOL     OW10876   5.714   2.222   1.983
 3326SOL    HW110877   5.705   2.170   1.898
 3326SOL    HW210878   5.795   2.189   2.033
 3327SOL     OW10879   2.152   6.343   1.899
 3327SOL    HW110880   2.089   6.385   1.964
 3327SOL    HW210881   2.246   6.359   1.929
 3328SOL     OW10882   4.535   0.794   1.825
 3328SOL    HW110883   4.529   0.694   1.828
 3328SOL    HW210884   4.462   0.833   1.881
 3329SOL     OW10885   4.035   0.671   4.940
 3329SOL    HW110886   4.118   0.644   4.990
 3329SOL    HW210887   4.025   0.770   4.944
 3330SOL     OW10888   6.022   6.768   2.285
 3330SOL    HW110889   6.119   6.776   2.264
 3330SOL    HW210890   5.977   6.856   2.269
 3331SOL     OW10891   1.808   3.438   3.037
 3331SOL    HW110892   1.795   3.342   3.015
 3331SOL    HW210893   1.903   3.464   3.018
 3332SOL     OW10894   5.256   4.728   0.130
 3332SOL    HW110895   5.252   4.795   0.056
 3332SOL    HW210896   5.287   4.640   0.094
 3333SOL     OW10897   3.443   3.738   1.372
 3333SOL    HW110898   3.457   3.792   1.289
 3333SOL    HW210899   3.436   3.800   1.450
 3334SOL     OW10900   1.356   2.641   2.548
 3334SOL    HW110901   1.448   2.631   2.509
 3334SOL    HW210902   1.309   2.718   2.505
 3335SOL     OW10903   3.518   4.422   5.829
 3335SOL    HW110904   3.525   4.367   5.912
 3335SOL    HW210905   3.428   4.407   5.786
 3336SOL     OW10906   2.572   0.043   3.967
 3336SOL    HW110907   2.669   0.020   3.964
 3336SOL    HW210908   2.531   0.004   4.050
 3337SOL     OW10909   3.461   3.638   2.613
 3337SOL    HW110910   3.453   3.539   2.626
 3337SOL    HW210911   3.469   3.683   2.702
 3338SOL     OW10912   1.156   1.999   1.653
 3338SOL    HW110913   1.232   1.934   1.658
 3338SOL    HW210914   1.090   1.969   1.585
 3339SOL     OW10915   1.687   0.292   5.664
 3339SOL    HW110916   1.665   0.334   5.576
 3339SOL    HW210917   1.780   0.317   5.690
 3340SOL     OW10918   4.618   0.944   4.202
 3340SOL    HW110919   4.707   0.988   4.205
 3340SOL    HW210920   4.552   0.997   4.256
 3341SOL     OW10921   2.657   4.759   2.383
 3341SOL    HW110922   2.711   4.765   2.299
 3341SOL    HW210923   2.568   4.802   2.368
 3342SOL     OW10924   6.321   0.365   2.829
 3342SOL    HW110925   6.410   0.409   2.829
 3342SOL    HW210926   6.320   0.290   2.896
 3343SOL     OW10927   5.272   5.354   6.795
 3343SOL    HW110928   5.183   5.371   6.752
 3343SOL    HW210929   5.340   5.333   6.725
 3344SOL     OW10930   6.379   2.681   2.289
 3344SOL    HW110931   6.402   2.776   2.265
 3344SOL    HW210932   6.333   2.638   2.211
 3345SOL     OW10933   0.917   3.668   0.789
 3345SOL    HW110934   0.873   3.730   0.725
 3345SOL    HW210935   0.961   3.593   0.739
 3346SOL     OW10936   2.739   0.948   0.144
 3346SOL    HW110937   2.666   0.910   0.201
 3346SOL    HW210938   2.827   0.926   0.185
 3347SOL     OW10939   0.970   3.212   6.342
 3347SOL    HW110940   1.058   3.176   6.375
 3347SOL    HW210941   0.947   3.294   6.394
 3348SOL     OW10942   3.737   4.054   6.269
 3348SOL    HW110943   3.817   4.071   6.327
 3348SOL    HW210944   3.763   4.063   6.173
 3349SOL     OW10945   2.171   4.683   3.944
 3349SOL    HW110946   2.094   4.713   3.888
 3349SOL    HW210947   2.257   4.700   3.895
 3350SOL     OW10948   0.376   3.913   5.669
 3350SOL    HW110949   0.327   3.945   5.750
 3350SOL    HW210950   0.349   3.969   5.590
 3351SOL     OW10951   5.452   0.626   1.286
 3351SOL    HW110952   5.492   0.621   1.195
 3351SOL    HW210953   5.353   0.613   1.280
 3352SOL     OW10954   5.419   2.497   0.744
 3352SOL    HW110955   5.429   2.537   0.653
 3352SOL    HW210956   5.338   2.535   0.788
 3353SOL     OW10957   1.920   0.805   1.178
 3353SOL    HW110958   1.934   0.727   1.116
 3353SOL    HW210959   1.859   0.871   1.133
 3354SOL     OW10960   3.947   3.393   5.842
 3354SOL    HW110961   3.866   3.441   5.807
 3354SOL    HW210962   3.918   3.324   5.908
 3355SOL     OW10963   1.986   1.287   5.067
 3355SOL    HW110964   2.012   1.200   5.026
 3355SOL    HW210965   1.886   1.295   5.067
 3356SOL     OW10966   1.143   6.371   5.819
 3356SOL    HW110967   1.136   6.291   5.760
 3356SOL    HW210968   1.122   6.453   5.765
 3357SOL     OW10969   2.853   3.537   2.132
 3357SOL    HW110970   2.757   3.550   2.106
 3357SOL    HW210971   2.881   3.444   2.108
 3358SOL     OW10972   5.442   1.322   3.158
 3358SOL    HW110973   5.377   1.247   3.148
 3358SOL    HW210974   5.527   1.299   3.111
 3359SOL     OW10975   6.975   5.227   4.024
 3359SOL    HW110976   6.963   5.325   4.012
 3359SOL    HW210977   6.889   5.180   4.001
 3360SOL     OW10978   0.676   2.619   5.885
 3360SOL    HW110979   0.689   2.701   5.830
 3360SOL    HW210980   0.704   2.637   5.979
 3361SOL     OW10981   0.819   0.326   4.367
 3361SOL    HW110982   0.892   0.304   4.303
 3361SOL    HW210983   0.731   0.325   4.319
 3362SOL     OW10984   3.994   1.667   3.956
 3362SOL    HW110985   4.071   1.604   3.958
 3362SOL    HW210986   3.959   1.680   4.049
 3363SOL     OW10987   6.598   3.159   1.265
 3363SOL    HW110988   6.552   3.071   1.267
 3363SOL    HW210989   6.645   3.170   1.177
 3364SOL     OW10990   1.562   4.108   2.802
 3364SOL    HW110991   1.466   4.133   2.806
 3364SOL    HW210992   1.608   4.137   2.886
 3365SOL     OW10993   2.211   3.031   4.624
 3365SOL    HW110994   2.176   3.123   4.640
 3365SOL    HW210995   2.263   3.000   4.704
 3366SOL     OW10996   0.069   3.366   4.415
 3366SOL    HW110997   0.102   3.407   4.331
 3366SOL    HW210998   0.144   3.319   4.461
 3367SOL     OW10999   3.728   3.623   4.555
 3367SOL    HW111000   3.698   3.686   4.627
 3367SOL    HW211001   3.791   3.671   4.494
 3368SOL     OW11002   1.696   6.375   6.646
 3368SOL    HW111003   1.626   6.383   6.575
 3368SOL    HW211004   1.652   6.356   6.734
 3369SOL     OW11005   4.276   1.505   1.546
 3369SOL    HW111006   4.211   1.559   1.493
 3369SOL    HW211007   4.226   1.451   1.614
 3370SOL     OW11008   6.632   6.028   1.436
 3370SOL    HW111009   6.722   6.006   1.399
 3370SOL    HW211010   6.564   6.028   1.363
 3371SOL     OW11011   2.080   3.616   2.461
 3371SOL    HW111012   2.082   3.517   2.449
 3371SOL    HW211013   2.069   3.661   2.372
 3372SOL     OW11014   6.911   2.910   1.322
 3372SOL    HW111015   6.945   2.859   1.401
 3372SOL    HW211016   6.958   2.998   1.317
 3373SOL     OW11017   0.090   1.342   1.886
 3373SOL    HW111018   0.029   1.362   1.810
 3373SOL    HW211019   0.185   1.358   1.858
 3374SOL     OW11020   0.489   6.685   3.857
 3374SOL    HW111021   0.578   6.678   3.900
 3374SOL    HW211022   0.462   6.781   3.849
 3375SOL     OW11023   6.687   4.790   6.658
 3375SOL    HW111024   6.607   4.788   6.598
 3375SOL    HW211025   6.723   4.697   6.668
 3376SOL     OW11026   2.424   3.282   5.557
 3376SOL    HW111027   2.487   3.338   5.503
 3376SOL    HW211028   2.385   3.210   5.498
 3377SOL     OW11029   6.161   5.403   4.258
 3377SOL    HW111030   6.117   5.323   4.217
 3377SOL    HW211031   6.167   5.390   4.357
 3378SOL     OW11032   1.001   6.630   6.697
 3378SOL    HW111033   0.967   6.600   6.786
 3378SOL    HW211034   0.960   6.574   6.625
 3379SOL     OW11035   0.926   3.418   4.324
 3379SOL    HW111036   0.980   3.483   4.270
 3379SOL    HW211037   0.951   3.426   4.420
 3380SOL     OW11038   3.967   4.456   5.829
 3380SOL    HW111039   3.969   4.501   5.918
 3380SOL    HW211040   3.887   4.488   5.777
 3381SOL     OW11041   0.917   2.844   1.655
 3381SOL    HW111042   0.905   2.918   1.589
 3381SOL    HW211043   0.838   2.783   1.652
 3382SOL     OW11044   0.006   2.362   1.268
 3382SOL    HW111045   7.007   2.266   1.281
 3382SOL    HW211046   6.952   2.419   1.298
 3383SOL     OW11047   3.520   4.903   0.286
 3383SOL    HW111048   3.453   4.895   0.212
 3383SOL    HW211049   3.533   4.814   0.328
 3384SOL     OW11050   2.841   4.464   0.286
 3384SOL    HW111051   2.803   4.497   0.372
 3384SOL    HW211052   2.767   4.440   0.223
 3385SOL     OW11053   6.840   2.054   3.734
 3385SOL    HW111054   6.934   2.026   3.714
 3385SOL    HW211055   6.804   2.107   3.657
 3386SOL     OW11056   6.419   4.774   6.912
 3386SOL    HW111057   6.452   4.716   6.986
 3386SOL    HW211058   6.319   4.765   6.905
 3387SOL     OW11059   5.552   0.860   3.048
 3387SOL    HW111060   5.638   0.909   3.064
 3387SOL    HW211061   5.528   0.808   3.131
 3388SOL     OW11062   5.076   4.099   1.259
 3388SOL    HW111063   5.088   4.080   1.356
 3388SOL    HW211064   5.020   4.181   1.247
 3389SOL     OW11065   6.101   6.274   0.339
 3389SOL    HW111066   6.011   6.310   0.317
 3389SOL    HW211067   6.171   6.326   0.288
 3390SOL     OW11068   4.094   6.638   5.995
 3390SOL    HW111069   4.110   6.586   5.911
 3390SOL    HW211070   3.997   6.633   6.019
 3391SOL     OW11071   5.674   3.170   3.820
 3391SOL    HW111072   5.697   3.258   3.777
 3391SOL    HW211073   5.594   3.131   3.775
 3392SOL     OW11074   4.253   0.166   4.744
 3392SOL    HW111075   4.290   0.207   4.828
 3392SOL    HW211076   4.294   0.076   4.730
 3393SOL     OW11077   4.877   0.065   0.666
 3393SOL    HW111078   4.846   0.056   0.761
 3393SOL    HW211079   4.802   0.096   0.609
 3394SOL     OW11080   3.381   5.206   1.075
 3394SOL    HW111081   3.434   5.199   1.159
 3394SOL    HW211082   3.295   5.255   1.093
 3395SOL     OW11083   4.017   0.777   3.013
 3395SOL    HW111084   4.026   0.759   2.916
 3395SOL    HW211085   3.969   0.702   3.057
 3396SOL     OW11086   5.544   0.924   3.925
 3396SOL    HW111087   5.629   0.915   3.977
 3396SOL    HW211088   5.515   1.020   3.925
 3397SOL     OW11089   2.255   5.899   6.197
 3397SOL    HW111090   2.276   5.847   6.280
 3397SOL    HW211091   2.340   5.936   6.159
 3398SOL     OW11092   0.542   1.843   5.602
 3398SOL    HW111093   0.575   1.781   5.673
 3398SOL    HW211094   0.444   1.829   5.589
 3399SOL     OW11095   0.326   4.586   3.203
 3399SOL    HW111096   0.344   4.492   3.174
 3399SOL    HW211097   0.246   4.587   3.263
 3400SOL     OW11098   5.530   3.153   5.759
 3400SOL    HW111099   5.450   3.164   5.701
 3400SOL    HW211100   5.510   3.186   5.851
 3401SOL     OW11101   6.519   3.819   6.378
 3401SOL    HW111102   6.457   3.798   6.453
 3401SOL    HW211103   6.580   3.741   6.362
 3402SOL     OW11104   6.691   5.161   0.982
 3402SOL    HW111105   6.788   5.183   0.984
 3402SOL    HW211106   6.639   5.240   0.948
 3403SOL     OW11107   4.735   6.462   5.977
 3403SOL    HW111108   4.670   6.387   5.965
 3403SOL    HW211109   4.739   6.516   5.893
 3404SOL     OW11110   5.004   3.308   6.060
 3404SOL    HW111111   4.928   3.362   6.024
 3404SOL    HW211112   5.034   3.347   6.147
 3405SOL     OW11113   5.403   6.388   5.898
 3405SOL    HW111114   5.406   6.325   5.976
 3405SOL    HW211115   5.373   6.338   5.816
 3406SOL     OW11116   2.185   4.038   2.369
 3406SOL    HW111117   2.242   4.030   2.287
 3406SOL    HW211118   2.173   4.134   2.393
 3407SOL     OW11119   2.249   4.126   0.605
 3407SOL    HW111120   2.308   4.048   0.624
 3407SOL    HW211121   2.226   4.127   0.507
 3408SOL     OW11122   4.605   2.484   4.065
 3408SOL    HW111123   4.532   2.454   4.003
 3408SOL    HW211124   4.575   2.473   4.160
 3409SOL     OW11125   4.138   6.958   0.374
 3409SOL    HW111126   4.136   7.018   0.294
 3409SOL    HW211127   4.046   6.925   0.393
 3410SOL     OW11128   5.964   6.700   2.818
 3410SOL    HW111129   5.947   6.777   2.756
 3410SOL    HW211130   6.061   6.677   2.817
 3411SOL     OW11131   6.805   1.854   1.214
 3411SOL    HW111132   6.890   1.808   1.239
 3411SOL    HW211133   6.756   1.800   1.145
 3412SOL     OW11134   5.183   3.869   1.615
 3412SOL    HW111135   5.248   3.828   1.550
 3412SOL    HW211136   5.173   3.809   1.694
 3413SOL     OW11137   6.402   1.835   6.500
 3413SOL    HW111138   6.493   1.813   6.465
 3413SOL    HW211139   6.344   1.867   6.425
 3414SOL     OW11140   3.915   2.867   0.119
 3414SOL    HW111141   3.851   2.789   0.122
 3414SOL    HW211142   3.878   2.938   0.059
 3415SOL     OW11143   2.704   2.433   4.378
 3415SOL    HW111144   2.748   2.518   4.404
 3415SOL    HW211145   2.753   2.391   4.301
 3416SOL     OW11146   6.344   0.456   0.073
 3416SOL    HW111147   6.307   0.392   0.141
 3416SOL    HW211148   6.367   0.542   0.118
 3417SOL     OW11149   0.430   0.430   3.417
 3417SOL    HW111150   0.403   0.362   3.349
 3417SOL    HW211151   0.514   0.475   3.388
 3418SOL     OW11152   3.986   5.360   2.761
 3418SOL    HW111153   3.901   5.388   2.806
 3418SOL    HW211154   3.980   5.380   2.663
 3419SOL     OW11155   3.800   5.698   5.612
 3419SOL    HW111156   3.890   5.728   5.644
 3419SOL    HW211157   3.765   5.628   5.673
 3420SOL     OW11158   4.714   2.725   3.957
 3420SOL    HW111159   4.672   2.644   3.999
 3420SOL    HW211160   4.782   2.696   3.890
 3421SOL     OW11161   5.449   1.742   3.843
 3421SOL    HW111162   5.437   1.663   3.783
 3421SOL    HW211163   5.513   1.806   3.800
 3422SOL     OW11164   2.033   0.002   0.282
 3422SOL    HW111165   2.017   6.992   0.374
 3422SOL    HW211166   2.102   6.969   0.237
 3423SOL     OW11167   0.810   4.359   5.594
 3423SOL    HW111168   0.794   4.268   5.557
 3423SOL    HW211169   0.865   4.413   5.530
 3424SOL     OW11170   4.042   6.682   1.313
 3424SOL    HW111171   3.943   6.691   1.326
 3424SOL    HW211172   4.086   6.770   1.326
 3425SOL     OW11173   5.010   4.034   1.523
 3425SOL    HW111174   5.083   3.983   1.569
 3425SOL    HW211175   4.962   4.091   1.590
 3426SOL     OW11176   5.398   3.348   1.003
 3426SOL    HW111177   5.447   3.317   1.084
 3426SOL    HW211178   5.462   3.363   0.928
 3427SOL     OW11179   1.389   2.295   0.865
 3427SOL    HW111180   1.458   2.344   0.812
 3427SOL    HW211181   1.354   2.355   0.937
 3428SOL     OW11182   4.692   5.332   5.481
 3428SOL    HW111183   4.706   5.295   5.573
 3428SOL    HW211184   4.752   5.410   5.467
 3429SOL     OW11185   0.176   1.115   1.056
 3429SOL    HW111186   0.141   1.033   1.010
 3429SOL    HW211187   0.275   1.106   1.069
 3430SOL     OW11188   2.281   4.762   5.851
 3430SOL    HW111189   2.336   4.708   5.914
 3430SOL    HW211190   2.265   4.710   5.767
 3431SOL     OW11191   2.235   6.351   2.557
 3431SOL    HW111192   2.158   6.415   2.566
 3431SOL    HW211193   2.318   6.394   2.592
 3432SOL     OW11194   2.228   4.875   6.846
 3432SOL    HW111195   2.309   4.934   6.852
 3432SOL    HW211196   2.256   4.784   6.817
 3433SOL     OW11197   2.558   0.855   6.334
 3433SOL    HW111198   2.565   0.927   6.265
 3433SOL    HW211199   2.649   0.835   6.370
 3434SOL     OW11200   2.755   2.134   1.957
 3434SOL    HW111201   2.824   2.207   1.960
 3434SOL    HW211202   2.757   2.090   1.867
 3435SOL     OW11203   2.104   0.905   0.249
 3435SOL    HW111204   2.021   0.929   0.299
 3435SOL    HW211205   2.118   0.971   0.175
 3436SOL     OW11206   4.264   5.226   0.343
 3436SOL    HW111207   4.248   5.128   0.329
 3436SOL    HW211208   4.178   5.271   0.363
 3437SOL     OW11209   1.377   6.479   5.918
 3437SOL    HW111210   1.428   6.460   5.835
 3437SOL    HW211211   1.287   6.436   5.914
 3438SOL     OW11212   0.938   3.632   1.282
 3438SOL    HW111213   0.951   3.622   1.183
 3438SOL    HW211214   0.885   3.555   1.317
 3439SOL     OW11215   2.271   5.882   2.526
 3439SOL    HW111216   2.366   5.885   2.557
 3439SOL    HW211217   2.218   5.951   2.575
 3440SOL     OW11218   3.720   2.922   4.772
 3440SOL    HW111219   3.742   2.826   4.790
 3440SOL    HW211220   3.798   2.980   4.799
 3441SOL     OW11221   5.905   5.636   6.097
 3441SOL    HW111222   5.815   5.593   6.084
 3441SOL    HW211223   5.895   5.717   6.155
 3442SOL     OW11224   2.895   3.865   1.437
 3442SOL    HW111225   2.885   3.863   1.536
 3442SOL    HW211226   2.986   3.833   1.411
 3443SOL     OW11227   3.161   5.848   2.703
 3443SOL    HW111228   3.143   5.816   2.610
 3443SOL    HW211229   3.216   5.931   2.700
 3444SOL     OW11230   5.594   4.504   1.213
 3444SOL    HW111231   5.574   4.517   1.116
 3444SOL    HW211232   5.617   4.592   1.254
 3445SOL     OW11233   6.231   4.983   3.948
 3445SOL    HW111234   6.291   4.911   3.983
 3445SOL    HW211235   6.151   4.991   4.007
 3446SOL     OW11236   5.441   6.968   1.678
 3446SOL    HW111237   5.381   6.978   1.599
 3446SOL    HW211238   5.418   6.884   1.727
 3447SOL     OW11239   5.357   0.611   0.126
 3447SOL    HW111240   5.313   0.701   0.131
 3447SOL    HW211241   5.314   0.556   0.054
 3448SOL     OW11242   1.253   6.398   5.350
 3448SOL    HW111243   1.275   6.347   5.267
 3448SOL    HW211244   1.306   6.361   5.427
 3449SOL     OW11245   6.198   5.239   5.177
 3449SOL    HW111246   6.206   5.254   5.079
 3449SOL    HW211247   6.216   5.143   5.199
 3450SOL     OW11248   1.251   0.264   6.519
 3450SOL    HW111249   1.266   0.317   6.436
 3450SOL    HW211250   1.155   0.236   6.524
 3451SOL     OW11251   1.617   5.941   0.710
 3451SOL    HW111252   1.627   6.033   0.748
 3451SOL    HW211253   1.529   5.903   0.738
 3452SOL     OW11254   5.378   1.164   5.462
 3452SOL    HW111255   5.393   1.244   5.404
 3452SOL    HW211256   5.359   1.084   5.404
 3453SOL     OW11257   5.624   6.571   5.869
 3453SOL    HW111258   5.627   6.629   5.788
 3453SOL    HW211259   5.556   6.499   5.856
 3454SOL     OW11260   1.847   2.755   3.078
 3454SOL    HW111261   1.802   2.803   3.002
 3454SOL    HW211262   1.818   2.795   3.165
 3455SOL     OW11263   1.790   2.687   4.956
 3455SOL    HW111264   1.884   2.720   4.952
 3455SOL    HW211265   1.729   2.755   4.916
 3456SOL     OW11266   4.528   4.458   2.266
 3456SOL    HW111267   4.459   4.440   2.336
 3456SOL    HW211268   4.508   4.404   2.185
 3457SOL     OW11269   3.603   5.429   4.795
 3457SOL    HW111270   3.632   5.354   4.854
 3457SOL    HW211271   3.556   5.392   4.715
 3458SOL     OW11272   4.699   1.735   2.392
 3458SOL    HW111273   4.698   1.828   2.430
 3458SOL    HW211274   4.772   1.728   2.323
 3459SOL     OW11275   3.792   1.394   2.652
 3459SOL    HW111276   3.840   1.425   2.570
 3459SOL    HW211277   3.858   1.374   2.724
 3460SOL     OW11278   3.780   1.658   5.691
 3460SOL    HW111279   3.821   1.726   5.630
 3460SOL    HW211280   3.791   1.687   5.786
 3461SOL     OW11281   5.492   4.723   6.641
 3461SOL    HW111282   5.523   4.817   6.654
 3461SOL    HW211283   5.417   4.721   6.575
 3462SOL     OW11284   2.246   3.503   6.449
 3462SOL    HW111285   2.307   3.488   6.527
 3462SOL    HW211286   2.292   3.477   6.364
 3463SOL     OW11287   0.166   3.966   1.051
 3463SOL    HW111288   0.223   4.004   0.978
 3463SOL    HW211289   0.192   3.871   1.067
 3464SOL     OW11290   0.360   4.525   6.489
 3464SOL    HW111291   0.322   4.486   6.573
 3464SOL    HW211292   0.423   4.600   6.512
 3465SOL     OW11293   1.727   1.344   1.490
 3465SOL    HW111294   1.826   1.342   1.478
 3465SOL    HW211295   1.688   1.257   1.460
 3466SOL     OW11296   6.875   4.408   5.848
 3466SOL    HW111297   6.933   4.472   5.898
 3466SOL    HW211298   6.797   4.457   5.809
 3467SOL     OW11299   2.356   2.158   6.527
 3467SOL    HW111300   2.336   2.190   6.435
 3467SOL    HW211301   2.344   2.233   6.592
 3468SOL     OW11302   2.678   5.885   3.419
 3468SOL    HW111303   2.622   5.959   3.456
 3468SOL    HW211304   2.740   5.922   3.349
 3469SOL     OW11305   6.706   2.301   3.846
 3469SOL    HW111306   6.747   2.370   3.906
 3469SOL    HW211307   6.777   2.236   3.818
 3470SOL     OW11308   0.246   5.209   1.169
 3470SOL    HW111309   0.169   5.149   1.189
 3470SOL    HW211310   0.326   5.180   1.223
 3471SOL     OW11311   4.131   5.921   5.100
 3471SOL    HW111312   4.050   5.943   5.156
 3471SOL    HW211313   4.127   5.824   5.074
 3472SOL     OW11314   2.611   0.910   4.529
 3472SOL    HW111315   2.704   0.875   4.541
 3472SOL    HW211316   2.547   0.851   4.579
 3473SOL     OW11317   5.846   1.326   5.839
 3473SOL    HW111318   5.898   1.311   5.755
 3473SOL    HW211319   5.761   1.374   5.818
 3474SOL     OW11320   3.444   4.924   2.180
 3474SOL    HW111321   3.405   5.005   2.137
 3474SOL    HW211322   3.492   4.870   2.111
 3475SOL     OW11323   1.172   6.729   4.065
 3475SOL    HW111324   1.162   6.646   4.010
 3475SOL    HW211325   1.087   6.783   4.060
 3476SOL     OW11326   4.595   1.377   4.522
 3476SOL    HW111327   4.676   1.433   4.538
 3476SOL    HW211328   4.607   1.289   4.567
 3477SOL     OW11329   4.196   5.885   0.961
 3477SOL    HW111330   4.176   5.790   0.936
 3477SOL    HW211331   4.148   5.947   0.899
 3478SOL     OW11332   3.108   5.941   5.917
 3478SOL    HW111333   3.021   5.948   5.869
 3478SOL    HW211334   3.110   6.008   5.992
 3479SOL     OW11335   0.497   0.752   2.210
 3479SOL    HW111336   0.562   0.692   2.162
 3479SOL    HW211337   0.538   0.842   2.223
 3480SOL     OW11338   6.960   1.153   3.666
 3480SOL    HW111339   6.937   1.237   3.715
 3480SOL    HW211340   6.945   1.075   3.726
 3481SOL     OW11341   3.170   6.487   6.375
 3481SOL    HW111342   3.120   6.568   6.345
 3481SOL    HW211343   3.268   6.499   6.357
 3482SOL     OW11344   6.457   1.889   1.617
 3482SOL    HW111345   6.420   1.804   1.580
 3482SOL    HW211346   6.510   1.936   1.547
 3483SOL     OW11347   2.055   0.793   1.690
 3483SOL    HW111348   2.123   0.791   1.763
 3483SOL    HW211349   2.101   0.802   1.601
 3484SOL     OW11350   3.499   2.880   3.216
 3484SOL    HW111351   3.437   2.903   3.291
 3484SOL    HW211352   3.458   2.908   3.129
 3485SOL     OW11353   1.955   2.175   5.133
 3485SOL    HW111354   1.987   2.200   5.042
 3485SOL    HW211355   1.945   2.075   5.139
 3486SOL     OW11356   4.439   1.104   1.574
 3486SOL    HW111357   4.447   1.138   1.667
 3486SOL    HW211358   4.443   1.180   1.509
 3487SOL     OW11359   5.854   1.663   6.361
 3487SOL    HW111360   5.907   1.713   6.429
 3487SOL    HW211361   5.762   1.702   6.355
 3488SOL     OW11362   6.247   3.583   4.205
 3488SOL    HW111363   6.330   3.532   4.182
 3488SOL    HW211364   6.227   3.572   4.302
 3489SOL     OW11365   3.502   6.643   1.118
 3489SOL    HW111366   3.409   6.610   1.136
 3489SOL    HW211367   3.515   6.733   1.160
 3490SOL     OW11368   5.560   3.943   0.266
 3490SOL    HW111369   5.633   3.876   0.282
 3490SOL    HW211370   5.473   3.896   0.260
 3491SOL     OW11371   0.061   3.123   5.583
 3491SOL    HW111372   0.069   3.180   5.664
 3491SOL    HW211373   0.072   3.027   5.610
 3492SOL     OW11374   0.446   5.741   6.840
 3492SOL    HW111375   0.530   5.774   6.882
 3492SOL    HW211376   0.367   5.788   6.880
 3493SOL     OW11377   5.869   5.078   1.429
 3493SOL    HW111378   5.933   5.038   1.362
 3493SOL    HW211379   5.886   5.039   1.519
 3494SOL     OW11380   3.759   0.294   1.555
 3494SOL    HW111381   3.838   0.288   1.494
 3494SOL    HW211382   3.760   0.382   1.603
 3495SOL     OW11383   4.085   5.608   2.142
 3495SOL    HW111384   4.042   5.537   2.087
 3495SOL    HW211385   4.132   5.673   2.082
 3496SOL     OW11386   1.709   2.807   0.838
 3496SOL    HW111387   1.696   2.825   0.740
 3496SOL    HW211388   1.768   2.727   0.849
 3497SOL     OW11389   4.439   1.290   3.220
 3497SOL    HW111390   4.363   1.345   3.187
 3497SOL    HW211391   4.425   1.268   3.317
 3498SOL     OW11392   2.634   1.296   1.330
 3498SOL    HW111393   2.667   1.255   1.245
 3498SOL    HW211394   2.534   1.296   1.329
 3499SOL     OW11395   0.326   3.026   3.935
 3499SOL    HW111396   0.402   2.987   3.986
 3499SOL    HW211397   0.253   2.958   3.926
 3500SOL     OW11398   5.958   3.899   6.580
 3500SOL    HW111399   5.871   3.939   6.607
 3500SOL    HW211400   5.961   3.803   6.608
 3501SOL     OW11401   1.245   4.676   5.351
 3501SOL    HW111402   1.270   4.705   5.443
 3501SOL    HW211403   1.310   4.607   5.319
 3502SOL     OW11404   0.283   1.581   1.613
 3502SOL    HW111405   0.322   1.552   1.700
 3502SOL    HW211406   0.355   1.616   1.553
 3503SOL     OW11407   4.344   5.298   5.521
 3503SOL    HW111408   4.389   5.364   5.461
 3503SOL    HW211409   4.358   5.205   5.487
 3504SOL     OW11410   2.529   3.509   1.285
 3504SOL    HW111411   2.582   3.448   1.344
 3504SOL    HW211412   2.550   3.604   1.310
 3505SOL     OW11413   5.594   6.137   5.223
 3505SOL    HW111414   5.592   6.045   5.262
 3505SOL    HW211415   5.668   6.144   5.156
 3506SOL     OW11416   3.958   5.466   4.131
 3506SOL    HW111417   3.917   5.514   4.209
 3506SOL    HW211418   4.014   5.390   4.165
 3507SOL     OW11419   1.210   0.885   6.481
 3507SOL    HW111420   1.194   0.973   6.434
 3507SOL    HW211421   1.296   0.846   6.450
 3508SOL     OW11422   5.320   2.706   0.599
 3508SOL    HW111423   5.332   2.731   0.696
 3508SOL    HW211424   5.223   2.710   0.575
 3509SOL     OW11425   6.030   6.013   6.994
 3509SOL    HW111426   5.996   5.926   6.958
 3509SOL    HW211427   5.999   6.025   0.065
 3510SOL     OW11428   1.992   2.502   1.398
 3510SOL    HW111429   1.945   2.438   1.338
 3510SOL    HW211430   2.090   2.494   1.386
 3511SOL     OW11431   0.319   2.539   6.665
 3511SOL    HW111432   0.390   2.539   6.735
 3511SOL    HW211433   0.360   2.548   6.575
 3512SOL     OW11434   1.847   3.534   0.342
 3512SOL    HW111435   1.921   3.561   0.281
 3512SOL    HW211436   1.783   3.475   0.294
 3513SOL     OW11437   6.590   4.282   1.104
 3513SOL    HW111438   6.633   4.319   1.022
 3513SOL    HW211439   6.654   4.221   1.151
 3514SOL     OW11440   0.501   6.731   1.442
 3514SOL    HW111441   0.511   6.816   1.496
 3514SOL    HW211442   0.408   6.696   1.454
 3515SOL     OW11443   2.768   6.553   3.067
 3515SOL    HW111444   2.830   6.485   3.106
 3515SOL    HW211445   2.722   6.513   2.987
 3516SOL     OW11446   3.385   0.746   0.476
 3516SOL    HW111447   3.399   0.672   0.410
 3516SOL    HW211448   3.360   0.829   0.427
 3517SOL     OW11449   0.688   1.380   6.990
 3517SOL    HW111450   0.652   1.384   0.060
 3517SOL    HW211451   0.778   1.335   6.991
 3518SOL     OW11452   4.607   3.711   6.787
 3518SOL    HW111453   4.602   3.667   6.877
 3518SOL    HW211454   4.697   3.694   6.747
 3519SOL     OW11455   1.226   6.739   6.870
 3519SOL    HW111456   1.174   6.692   6.798
 3519SOL    HW211457   1.319   6.757   6.839
 3520SOL     OW11458   4.014   4.767   1.195
 3520SOL    HW111459   4.023   4.693   1.262
 3520SOL    HW211460   3.937   4.747   1.134
 3521SOL     OW11461   5.763   2.651   1.740
 3521SOL    HW111462   5.693   2.584   1.714
 3521SOL    HW211463   5.798   2.628   1.831
 3522SOL     OW11464   3.224   4.976   1.844
 3522SOL    HW111465   3.316   5.015   1.854
 3522SOL    HW211466   3.187   4.954   1.935
 3523SOL     OW11467   2.881   4.853   4.983
 3523SOL    HW111468   2.845   4.898   4.901
 3523SOL    HW211469   2.840   4.762   4.991
 3524SOL     OW11470   2.413   0.495   0.872
 3524SOL    HW111471   2.394   0.445   0.787
 3524SOL    HW211472   2.405   0.593   0.854
 3525SOL     OW11473   0.650   2.986   1.905
 3525SOL    HW111474   0.561   2.985   1.951
 3525SOL    HW211475   0.715   3.038   1.961
 3526SOL     OW11476   0.720   0.798   3.215
 3526SOL    HW111477   0.799   0.841   3.171
 3526SOL    HW211478   0.640   0.809   3.157
 3527SOL     OW11479   5.277   2.832   6.308
 3527SOL    HW111480   5.183   2.854   6.331
 3527SOL    HW211481   5.339   2.882   6.369
 3528SOL     OW11482   0.586   5.787   3.346
 3528SOL    HW111483   0.656   5.767   3.277
 3528SOL    HW211484   0.529   5.706   3.360
 3529SOL     OW11485   4.845   6.753   5.435
 3529SOL    HW111486   4.898   6.822   5.387
 3529SOL    HW211487   4.885   6.737   5.525
 3530SOL     OW11488   2.810   5.565   2.335
 3530SOL    HW111489   2.732   5.530   2.386
 3530SOL    HW211490   2.798   5.546   2.238
 3531SOL     OW11491   5.845   4.849   0.660
 3531SOL    HW111492   5.910   4.809   0.725
 3531SOL    HW211493   5.862   4.947   0.651
 3532SOL     OW11494   2.678   0.814   6.901
 3532SOL    HW111495   2.717   0.721   6.906
 3532SOL    HW211496   2.694   0.861   6.988
 3533SOL     OW11497   1.424   1.959   3.677
 3533SOL    HW111498   1.330   1.968   3.709
 3533SOL    HW211499   1.443   2.027   3.607
 3534SOL     OW11500   5.766   2.085   5.373
 3534SOL    HW111501   5.717   2.120   5.293
 3534SOL    HW211502   5.742   2.140   5.453
 3535SOL     OW11503   6.154   5.133   6.327
 3535SOL    HW111504   6.223   5.060   6.329
 3535SOL    HW211505   6.199   5.221   6.337
 3536SOL     OW11506   2.136   3.209   3.104
 3536SOL    HW111507   2.136   3.157   3.019
 3536SOL    HW211508   2.112   3.304   3.086
 3537SOL     OW11509   2.538   5.593   0.585
 3537SOL    HW111510   2.510   5.505   0.545
 3537SOL    HW211511   2.516   5.667   0.521
 3538SOL     OW11512   3.100   6.825   2.519
 3538SOL    HW111513   3.185   6.873   2.542
 3538SOL    HW211514   3.107   6.788   2.427
 3539SOL     OW11515   5.611   4.716   6.114
 3539SOL    HW111516   5.662   4.786   6.065
 3539SOL    HW211517   5.614   4.630   6.063
 3540SOL     OW11518   2.380   3.206   6.570
 3540SOL    HW111519   2.343   3.277   6.629
 3540SOL    HW211520   2.471   3.231   6.539
 3541SOL     OW11521   2.767   2.853   1.090
 3541SOL    HW111522   2.749   2.787   1.017
 3541SOL    HW211523   2.852   2.902   1.071
 3542SOL     OW11524   5.335   2.706   6.945
 3542SOL    HW111525   5.375   2.797   6.936
 3542SOL    HW211526   5.388   2.652   7.009
 3543SOL     OW11527   2.107   3.074   2.864
 3543SOL    HW111528   2.152   2.998   2.816
 3543SOL    HW211529   2.102   3.153   2.803
 3544SOL     OW11530   3.054   4.585   6.245
 3544SOL    HW111531   2.977   4.648   6.255
 3544SOL    HW211532   3.126   4.628   6.190
 3545SOL     OW11533   3.724   6.436   1.103
 3545SOL    HW111534   3.821   6.460   1.099
 3545SOL    HW211535   3.669   6.519   1.092
 3546SOL     OW11536   6.669   3.747   3.239
 3546SOL    HW111537   6.641   3.653   3.223
 3546SOL    HW211538   6.727   3.778   3.163
 3547SOL     OW11539   0.194   3.418   5.160
 3547SOL    HW111540   0.112   3.403   5.215
 3547SOL    HW211541   0.275   3.397   5.215
 3548SOL     OW11542   5.075   1.797   5.997
 3548SOL    HW111543   5.075   1.740   5.914
 3548SOL    HW211544   4.986   1.842   6.005
 3549SOL     OW11545   2.951   5.854   0.337
 3549SOL    HW111546   2.956   5.881   0.241
 3549SOL    HW211547   2.902   5.767   0.344
 3550SOL     OW11548   5.322   1.800   5.383
 3550SOL    HW111549   5.251   1.844   5.438
 3550SOL    HW211550   5.348   1.860   5.307
 3551SOL     OW11551   3.856   2.098   5.540
 3551SOL    HW111552   3.783   2.111   5.473
 3551SOL    HW211553   3.887   2.187   5.574
 3552SOL     OW11554   6.772   5.790   1.877
 3552SOL    HW111555   6.800   5.875   1.832
 3552SOL    HW211556   6.820   5.713   1.835
 3553SOL     OW11557   3.917   5.750   6.056
 3553SOL    HW111558   3.999   5.692   6.063
 3553SOL    HW211559   3.927   5.828   6.119
 3554SOL     OW11560   4.196   3.397   1.543
 3554SOL    HW111561   4.112   3.345   1.530
 3554SOL    HW211562   4.229   3.383   1.637
 3555SOL     OW11563   1.704   2.376   3.716
 3555SOL    HW111564   1.781   2.334   3.668
 3555SOL    HW211565   1.680   2.321   3.796
 3556SOL     OW11566   4.280   0.679   5.068
 3556SOL    HW111567   4.294   0.754   5.002
 3556SOL    HW211568   4.357   0.676   5.131
 3557SOL     OW11569   0.288   0.884   2.403
 3557SOL    HW111570   0.355   0.944   2.448
 3557SOL    HW211571   0.336   0.823   2.340
 3558SOL     OW11572   3.156   6.440   0.718
 3558SOL    HW111573   3.174   6.348   0.754
 3558SOL    HW211574   3.059   6.460   0.726
 3559SOL     OW11575   3.736   6.534   4.904
 3559SOL    HW111576   3.687   6.514   4.819
 3559SOL    HW211577   3.740   6.452   4.961
 3560SOL     OW11578   1.496   5.269   5.021
 3560SOL    HW111579   1.441   5.290   4.940
 3560SOL    HW211580   1.475   5.177   5.052
 3561SOL     OW11581   4.917   4.352   5.077
 3561SOL    HW111582   4.834   4.310   5.040
 3561SOL    HW211583   4.954   4.294   5.149
 3562SOL     OW11584   2.265   1.370   4.898
 3562SOL    HW111585   2.363   1.355   4.907
 3562SOL    HW211586   2.233   1.425   4.975
 3563SOL     OW11587   5.974   2.154   5.956
 3563SOL    HW111588   6.009   2.175   6.047
 3563SOL    HW211589   5.880   2.122   5.962
 3564SOL     OW11590   0.144   4.541   2.802
 3564SOL    HW111591   0.071   4.493   2.851
 3564SOL    HW211592   0.115   4.557   2.708
 3565SOL     OW11593   3.455   5.160   3.138
 3565SOL    HW111594   3.490   5.242   3.093
 3565SOL    HW211595   3.490   5.079   3.091
 3566SOL     OW11596   6.460   1.177   5.554
 3566SOL    HW111597   6.513   1.097   5.583
 3566SOL    HW211598   6.399   1.206   5.629
 3567SOL     OW11599   0.384   4.328   0.072
 3567SOL    HW111600   0.398   4.268   0.151
 3567SOL    HW211601   0.440   4.296   7.019
 3568SOL     OW11602   6.796   3.602   5.980
 3568SOL    HW111603   6.756   3.570   6.066
 3568SOL    HW211604   6.881   3.652   5.999
 3569SOL     OW11605   2.985   1.695   5.435
 3569SOL    HW111606   2.925   1.746   5.497
 3569SOL    HW211607   2.930   1.655   5.361
 3570SOL     OW11608   5.644   0.774   4.250
 3570SOL    HW111609   5.621   0.871   4.243
 3570SOL    HW211610   5.728   0.756   4.200
 3571SOL     OW11611   6.568   5.880   6.498
 3571SOL    HW111612   6.552   5.975   6.522
 3571SOL    HW211613   6.550   5.867   6.400
 3572SOL     OW11614   5.157   3.456   3.738
 3572SOL    HW111615   5.234   3.423   3.793
 3572SOL    HW211616   5.190   3.521   3.670
 3573SOL     OW11617   1.218   4.529   3.975
 3573SOL    HW111618   1.183   4.607   3.924
 3573SOL    HW211619   1.236   4.556   4.070
 3574SOL     OW11620   0.265   4.905   0.394
 3574SOL    HW111621   0.241   4.825   0.339
 3574SOL    HW211622   0.298   4.875   0.484
 3575SOL     OW11623   5.791   5.109   3.147
 3575SOL    HW111624   5.809   5.084   3.242
 3575SOL    HW211625   5.739   5.194   3.144
 3576SOL     OW11626   1.109   1.352   6.237
 3576SOL    HW111627   1.032   1.305   6.194
 3576SOL    HW211628   1.155   1.408   6.169
 3577SOL     OW11629   0.797   2.353   6.504
 3577SOL    HW111630   0.770   2.258   6.522
 3577SOL    HW211631   0.733   2.393   6.439
 3578SOL     OW11632   3.419   4.064   6.851
 3578SOL    HW111633   3.426   4.138   6.917
 3578SOL    HW211634   3.333   4.071   6.801
 3579SOL     OW11635   6.698   3.528   4.897
 3579SOL    HW111636   6.759   3.593   4.944
 3579SOL    HW211637   6.713   3.436   4.934
 3580SOL     OW11638   5.360   1.896   1.852
 3580SOL    HW111639   5.422   1.869   1.925
 3580SOL    HW211640   5.394   1.978   1.807
 3581SOL     OW11641   6.478   0.014   2.876
 3581SOL    HW111642   6.488   7.004   2.970
 3581SOL    HW211643   6.562   7.019   2.825
 3582SOL     OW11644   1.223   1.380   5.648
 3582SOL    HW111645   1.176   1.458   5.608
 3582SOL    HW211646   1.288   1.343   5.581
 3583SOL     OW11647   1.213   4.560   0.013
 3583SOL    HW111648   1.257   4.605   0.090
 3583SOL    HW211649   1.150   4.490   0.046
 3584SOL     OW11650   6.180   6.262   6.156
 3584SOL    HW111651   6.128   6.337   6.115
 3584SOL    HW211652   6.221   6.292   6.242
 3585SOL     OW11653   3.411   5.100   4.853
 3585SOL    HW111654   3.326   5.056   4.824
 3585SOL    HW211655   3.393   5.156   4.935
 3586SOL     OW11656   6.179   2.777   5.271
 3586SOL    HW111657   6.160   2.682   5.297
 3586SOL    HW211658   6.094   2.822   5.244
 3587SOL     OW11659   2.914   6.972   1.146
 3587SOL    HW111660   2.840   6.906   1.135
 3587SOL    HW211661   2.953   6.964   1.238
 3588SOL     OW11662   1.998   2.010   5.692
 3588SOL    HW111663   1.957   1.976   5.608
 3588SOL    HW211664   2.030   2.104   5.679
 3589SOL     OW11665   3.644   0.799   4.440
 3589SOL    HW111666   3.610   0.803   4.347
 3589SOL    HW211667   3.632   0.888   4.484
 3590SOL     OW11668   1.146   4.646   6.465
 3590SOL    HW111669   1.239   4.674   6.443
 3590SOL    HW211670   1.129   4.658   6.563
 3591SOL     OW11671   5.647   3.006   6.407
 3591SOL    HW111672   5.650   3.087   6.466
 3591SOL    HW211673   5.581   3.021   6.333
 3592SOL     OW11674   5.345   3.053   2.857
 3592SOL    HW111675   5.299   3.106   2.786
 3592SOL    HW211676   5.285   2.980   2.889
 3593SOL     OW11677   2.429   6.313   4.322
 3593SOL    HW111678   2.377   6.243   4.371
 3593SOL    HW211679   2.417   6.401   4.368
 3594SOL     OW11680   2.802   1.041   3.208
 3594SOL    HW111681   2.803   1.013   3.112
 3594SOL    HW211682   2.780   0.962   3.266
 3595SOL     OW11683   2.401   6.175   5.386
 3595SOL    HW111684   2.362   6.220   5.467
 3595SOL    HW211685   2.500   6.166   5.397
 3596SOL     OW11686   6.501   0.977   2.477
 3596SOL    HW111687   6.468   1.067   2.506
 3596SOL    HW211688   6.599   0.970   2.495
 3597SOL     OW11689   3.895   6.400   4.265
 3597SOL    HW111690   3.821   6.340   4.298
 3597SOL    HW211691   3.870   6.439   4.177
 3598SOL     OW11692   0.676   0.621   5.605
 3598SOL    HW111693   0.580   0.600   5.585
 3598SOL    HW211694   0.729   0.618   5.520
 3599SOL     OW11695   0.547   1.669   5.832
 3599SOL    HW111696   0.453   1.640   5.849
 3599SOL    HW211697   0.580   1.721   5.911
 3600SOL     OW11698   6.527   3.313   0.742
 3600SOL    HW111699   6.523   3.408   0.713
 3600SOL    HW211700   6.450   3.293   0.802
 3601SOL     OW11701   0.063   4.213   0.699
 3601SOL    HW111702   0.113   4.127   0.711
 3601SOL    HW211703   0.021   4.215   0.608
 3602SOL     OW11704   1.855   0.940   0.392
 3602SOL    HW111705   1.838   1.036   0.411
 3602SOL    HW211706   1.853   0.889   0.478
 3603SOL     OW11707   3.785   5.857   4.155
 3603SOL    HW111708   3.761   5.781   4.094
 3603SOL    HW211709   3.820   5.822   4.241
 3604SOL     OW11710   6.701   3.165   2.812
 3604SOL    HW111711   6.704   3.105   2.892
 3604SOL    HW211712   6.636   3.128   2.745
 3605SOL     OW11713   6.167   4.424   6.115
 3605SOL    HW111714   6.165   4.330   6.148
 3605SOL    HW211715   6.203   4.426   6.022
 3606SOL     OW11716   7.019   4.965   5.922
 3606SOL    HW111717   0.080   4.988   5.874
 3606SOL    HW211718   7.005   4.866   5.920
 3607SOL     OW11719   5.291   0.573   0.433
 3607SOL    HW111720   5.323   0.555   0.340
 3607SOL    HW211721   5.192   0.582   0.434
 3608SOL     OW11722   6.593   1.401   1.862
 3608SOL    HW111723   6.684   1.440   1.873
 3608SOL    HW211724   6.533   1.470   1.821
 3609SOL     OW11725   6.664   0.859   4.281
 3609SOL    HW111726   6.639   0.835   4.375
 3609SOL    HW211727   6.614   0.800   4.217
 3610SOL     OW11728   0.720   0.148   4.948
 3610SOL    HW111729   0.794   0.181   5.007
 3610SOL    HW211730   0.683   0.225   4.896
 3611SOL     OW11731   3.829   4.966   5.353
 3611SOL    HW111732   3.885   4.996   5.276
 3611SOL    HW211733   3.779   4.883   5.327
 3612SOL     OW11734   0.766   6.362   6.195
 3612SOL    HW111735   0.685   6.398   6.148
 3612SOL    HW211736   0.845   6.366   6.133
 3613SOL     OW11737   5.155   5.137   0.876
 3613SOL    HW111738   5.249   5.105   0.882
 3613SOL    HW211739   5.145   5.221   0.930
 3614SOL     OW11740   3.756   3.324   3.335
 3614SOL    HW111741   3.778   3.341   3.431
 3614SOL    HW211742   3.751   3.411   3.286
 3615SOL     OW11743   6.013   5.757   5.801
 3615SOL    HW111744   5.938   5.723   5.744
 3615SOL    HW211745   6.040   5.686   5.866
 3616SOL     OW11746   6.388   2.382   0.035
 3616SOL    HW111747   6.396   2.364   6.961
 3616SOL    HW211748   6.371   2.480   0.049
 3617SOL     OW11749   5.269   1.763   6.406
 3617SOL    HW111750   5.219   1.738   6.323
 3617SOL    HW211751   5.208   1.758   6.484
 3618SOL     OW11752   1.340   1.672   5.480
 3618SOL    HW111753   1.388   1.612   5.544
 3618SOL    HW211754   1.354   1.768   5.507
 3619SOL     OW11755   5.971   2.090   4.016
 3619SOL    HW111756   6.063   2.054   4.000
 3619SOL    HW211757   5.953   2.095   4.114
 3620SOL     OW11758   5.620   6.640   5.591
 3620SOL    HW111759   5.684   6.629   5.514
 3620SOL    HW211760   5.539   6.585   5.576
 3621SOL     OW11761   2.828   2.904   6.137
 3621SOL    HW111762   2.856   2.819   6.092
 3621SOL    HW211763   2.728   2.906   6.145
 3622SOL     OW11764   0.797   2.033   3.348
 3622SOL    HW111765   0.836   2.037   3.256
 3622SOL    HW211766   0.697   2.024   3.342
 3623SOL     OW11767   6.361   5.143   4.189
 3623SOL    HW111768   6.362   5.181   4.097
 3623SOL    HW211769   6.300   5.063   4.192
 3624SOL     OW11770   2.161   6.114   2.652
 3624SOL    HW111771   2.199   6.190   2.600
 3624SOL    HW211772   2.077   6.143   2.698
 3625SOL     OW11773   6.389   2.888   6.327
 3625SOL    HW111774   6.351   2.798   6.344
 3625SOL    HW211775   6.451   2.884   6.248
 3626SOL     OW11776   2.528   3.527   5.441
 3626SOL    HW111777   2.463   3.603   5.440
 3626SOL    HW211778   2.591   3.537   5.364
 3627SOL     OW11779   4.133   3.661   3.436
 3627SOL    HW111780   4.194   3.634   3.510
 3627SOL    HW211781   4.040   3.631   3.457
 3628SOL     OW11782   1.923   6.927   1.820
 3628SOL    HW111783   1.936   6.841   1.870
 3628SOL    HW211784   1.919   7.003   1.885
 3629SOL     OW11785   6.694   1.872   5.317
 3629SOL    HW111786   6.687   1.816   5.234
 3629SOL    HW211787   6.633   1.951   5.309
 3630SOL     OW11788   5.593   2.757   4.083
 3630SOL    HW111789   5.598   2.749   3.983
 3630SOL    HW211790   5.594   2.853   4.109
 3631SOL     OW11791   2.353   0.342   4.639
 3631SOL    HW111792   2.408   0.261   4.659
 3631SOL    HW211793   2.410   0.411   4.593
 3632SOL     OW11794   4.924   0.752   0.849
 3632SOL    HW111795   4.825   0.768   0.847
 3632SOL    HW211796   4.968   0.822   0.906
 3633SOL     OW11797   3.228   2.371   5.751
 3633SOL    HW111798   3.224   2.276   5.782
 3633SOL    HW211799   3.152   2.389   5.688
 3634SOL     OW11800   0.495   5.799   4.504
 3634SOL    HW111801   0.501   5.859   4.425
 3634SOL    HW211802   0.525   5.848   4.586
 3635SOL     OW11803   3.660   0.551   5.522
 3635SOL    HW111804   3.678   0.456   5.495
 3635SOL    HW211805   3.723   0.612   5.474
 3636SOL     OW11806   0.604   5.907   5.649
 3636SOL    HW111807   0.547   5.825   5.641
 3636SOL    HW211808   0.700   5.880   5.652
 3637SOL     OW11809   6.461   1.745   1.272
 3637SOL    HW111810   6.483   1.842   1.259
 3637SOL    HW211811   6.534   1.701   1.324
 3638SOL     OW11812   6.215   4.881   4.223
 3638SOL    HW111813   6.281   4.838   4.284
 3638SOL    HW211814   6.127   4.833   4.230
 3639SOL     OW11815   4.047   3.653   0.978
 3639SOL    HW111816   4.138   3.655   0.937
 3639SOL    HW211817   3.983   3.704   0.920
 3640SOL     OW11818   3.615   6.436   6.442
 3640SOL    HW111819   3.625   6.419   6.344
 3640SOL    HW211820   3.606   6.349   6.491
 3641SOL     OW11821   4.208   2.153   4.996
 3641SOL    HW111822   4.216   2.142   4.897
 3641SOL    HW211823   4.199   2.251   5.018
 3642SOL     OW11824   4.641   1.696   5.988
 3642SOL    HW111825   4.714   1.757   5.957
 3642SOL    HW211826   4.675   1.602   5.989
 3643SOL     OW11827   2.839   5.857   4.578
 3643SOL    HW111828   2.907   5.789   4.602
 3643SOL    HW211829   2.760   5.848   4.639
 3644SOL     OW11830   6.822   1.038   1.365
 3644SOL    HW111831   6.842   1.016   1.460
 3644SOL    HW211832   6.901   1.018   1.308
 3645SOL     OW11833   5.681   1.192   3.998
 3645SOL    HW111834   5.661   1.264   3.931
 3645SOL    HW211835   5.778   1.195   4.022
 3646SOL     OW11836   0.372   4.850   5.889
 3646SOL    HW111837   0.438   4.775   5.893
 3646SOL    HW211838   0.355   4.884   5.981
 3647SOL     OW11839   1.595   3.947   0.514
 3647SOL    HW111840   1.655   3.886   0.463
 3647SOL    HW211841   1.638   3.972   0.601
 3648SOL     OW11842   3.467   5.683   2.656
 3648SOL    HW111843   3.547   5.641   2.700
 3648SOL    HW211844   3.471   5.782   2.668
 3649SOL     OW11845   4.124   3.162   1.314
 3649SOL    HW111846   4.096   3.091   1.250
 3649SOL    HW211847   4.044   3.217   1.339
 3650SOL     OW11848   6.603   5.737   0.909
 3650SOL    HW111849   6.547   5.820   0.911
 3650SOL    HW211850   6.692   5.758   0.868
 3651SOL     OW11851   0.714   5.872   3.042
 3651SOL    HW111852   0.623   5.899   3.074
 3651SOL    HW211853   0.768   5.954   3.024
 3652SOL     OW11854   4.910   6.232   3.498
 3652SOL    HW111855   4.883   6.316   3.451
 3652SOL    HW211856   4.830   6.171   3.506
 3653SOL     OW11857   6.555   0.610   3.137
 3653SOL    HW111858   6.484   0.544   3.112
 3653SOL    HW211859   6.612   0.572   3.210
 3654SOL     OW11860   2.066   6.659   7.023
 3654SOL    HW111861   1.975   6.634   0.029
 3654SOL    HW211862   2.089   6.609   6.939
 3655SOL     OW11863   1.098   0.022   3.834
 3655SOL    HW111864   1.012   6.998   3.814
 3655SOL    HW211865   1.080   0.103   3.890
 3656SOL     OW11866   1.529   2.799   1.372
 3656SOL    HW111867   1.598   2.740   1.329
 3656SOL    HW211868   1.472   2.744   1.434
 3657SOL     OW11869   4.972   5.978   5.841
 3657SOL    HW111870   5.033   5.922   5.898
 3657SOL    HW211871   5.001   6.073   5.845
 3658SOL     OW11872   1.204   5.338   4.228
 3658SOL    HW111873   1.236   5.407   4.163
 3658SOL    HW211874   1.183   5.383   4.315
 3659SOL     OW11875   3.068   3.628   5.613
 3659SOL    HW111876   3.148   3.653   5.667
 3659SOL    HW211877   3.030   3.543   5.649
 3660SOL     OW11878   5.111   6.368   2.024
 3660SOL    HW111879   5.090   6.455   1.979
 3660SOL    HW211880   5.114   6.381   2.123
 3661SOL     OW11881   4.269   2.379   6.702
 3661SOL    HW111882   4.306   2.426   6.621
 3661SOL    HW211883   4.213   2.302   6.672
 3662SOL     OW11884   3.219   0.696   4.052
 3662SOL    HW111885   3.175   0.617   4.094
 3662SOL    HW211886   3.252   0.671   3.960
 3663SOL     OW11887   1.476   1.373   0.534
 3663SOL    HW111888   1.528   1.438   0.479
 3663SOL    HW211889   1.540   1.313   0.583
 3664SOL     OW11890   5.237   1.649   1.367
 3664SOL    HW111891   5.202   1.585   1.436
 3664SOL    HW211892   5.336   1.656   1.375
 3665SOL     OW11893   0.643   6.062   5.394
 3665SOL    HW111894   0.700   6.039   5.473
 3665SOL    HW211895   0.663   6.156   5.365
 3666SOL     OW11896   2.003   4.113   3.750
 3666SOL    HW111897   2.047   4.179   3.811
 3666SOL    HW211898   2.019   4.020   3.785
 3667SOL     OW11899   6.053   7.007   0.474
 3667SOL    HW111900   6.078   0.081   0.473
 3667SOL    HW211901   6.049   6.975   0.568
 3668SOL     OW11902   1.491   0.288   1.392
 3668SOL    HW111903   1.549   0.211   1.420
 3668SOL    HW211904   1.549   0.362   1.356
 3669SOL     OW11905   5.812   1.424   4.669
 3669SOL    HW111906   5.754   1.351   4.706
 3669SOL    HW211907   5.755   1.492   4.623
 3670SOL     OW11908   2.159   5.174   0.696
 3670SOL    HW111909   2.226   5.222   0.752
 3670SOL    HW211910   2.076   5.157   0.751
 3671SOL     OW11911   6.350   0.434   3.144
 3671SOL    HW111912   6.260   0.474   3.163
 3671SOL    HW211913   6.338   0.342   3.107
 3672SOL     OW11914   5.701   1.376   1.156
 3672SOL    HW111915   5.763   1.437   1.204
 3672SOL    HW211916   5.683   1.296   1.213
 3673SOL     OW11917   3.154   0.590   5.835
 3673SOL    HW111918   3.070   0.628   5.874
 3673SOL    HW211919   3.159   0.492   5.854
 3674SOL     OW11920   0.388   0.619   5.798
 3674SOL    HW111921   0.321   0.618   5.723
 3674SOL    HW211922   0.361   0.551   5.867
 3675SOL     OW11923   1.671   2.940   4.970
 3675SOL    HW111924   1.605   3.015   4.964
 3675SOL    HW211925   1.764   2.976   4.955
 3676SOL     OW11926   4.127   5.270   4.469
 3676SOL    HW111927   4.147   5.177   4.439
 3676SOL    HW211928   4.051   5.269   4.533
 3677SOL     OW11929   1.138   5.988   2.995
 3677SOL    HW111930   1.043   6.019   3.003
 3677SOL    HW211931   1.140   5.888   2.997
 3678SOL     OW11932   1.090   3.254   3.932
 3678SOL    HW111933   1.096   3.352   3.913
 3678SOL    HW211934   1.108   3.238   4.029
 3679SOL     OW11935   1.128   1.254   2.670
 3679SOL    HW111936   1.225   1.267   2.649
 3679SOL    HW211937   1.118   1.181   2.738
 3680SOL     OW11938   6.689   3.030   3.611
 3680SOL    HW111939   6.642   2.942   3.616
 3680SOL    HW211940   6.689   3.062   3.516
 3681SOL     OW11941   6.997   0.330   5.841
 3681SOL    HW111942   0.061   0.290   5.866
 3681SOL    HW211943   6.997   0.428   5.862
 3682SOL     OW11944   6.407   2.571   6.157
 3682SOL    HW111945   6.360   2.571   6.245
 3682SOL    HW211946   6.341   2.590   6.084
 3683SOL     OW11947   6.837   0.231   4.513
 3683SOL    HW111948   6.933   0.209   4.529
 3683SOL    HW211949   6.793   0.158   4.461
 3684SOL     OW11950   1.536   3.666   0.567
 3684SOL    HW111951   1.537   3.750   0.621
 3684SOL    HW211952   1.529   3.587   0.628
 3685SOL     OW11953   6.339   6.220   5.954
 3685SOL    HW111954   6.255   6.198   6.002
 3685SOL    HW211955   6.392   6.286   6.008
 3686SOL     OW11956   6.334   5.420   3.339
 3686SOL    HW111957   6.320   5.467   3.426
 3686SOL    HW211958   6.402   5.469   3.284
 3687SOL     OW11959   2.872   5.919   5.797
 3687SOL    HW111960   2.789   5.949   5.844
 3687SOL    HW211961   2.885   5.972   5.714
 3688SOL     OW11962   1.370   3.921   6.760
 3688SOL    HW111963   1.463   3.944   6.788
 3688SOL    HW211964   1.373   3.846   6.694
 3689SOL     OW11965   1.069   0.738   5.545
 3689SOL    HW111966   1.104   0.809   5.606
 3689SOL    HW211967   1.015   0.673   5.597
 3690SOL     OW11968   3.978   6.983   6.116
 3690SOL    HW111969   3.957   6.922   6.040
 3690SOL    HW211970   4.078   6.990   6.126
 3691SOL     OW11971   2.248   2.835   0.201
 3691SOL    HW111972   2.262   2.881   0.289
 3691SOL    HW211973   2.286   2.892   0.128
 3692SOL     OW11974   0.974   6.136   4.904
 3692SOL    HW111975   0.925   6.143   4.991
 3692SOL    HW211976   1.066   6.174   4.915
 3693SOL     OW11977   1.837   3.256   2.529
 3693SOL    HW111978   1.846   3.312   2.446
 3693SOL    HW211979   1.917   3.271   2.587
 3694SOL     OW11980   0.955   4.861   2.319
 3694SOL    HW111981   0.890   4.852   2.395
 3694SOL    HW211982   0.908   4.849   2.232
 3695SOL     OW11983   0.365   2.490   2.681
 3695SOL    HW111984   0.394   2.416   2.742
 3695SOL    HW211985   0.267   2.508   2.694
 3696SOL     OW11986   3.966   5.697   4.971
 3696SOL    HW111987   3.907   5.654   5.038
 3696SOL    HW211988   4.008   5.627   4.913
 3697SOL     OW11989   6.916   5.502   3.990
 3697SOL    HW111990   6.949   5.586   3.947
 3697SOL    HW211991   6.841   5.524   4.052
 3698SOL     OW11992   3.269   6.185   4.927
 3698SOL    HW111993   3.257   6.265   4.867
 3698SOL    HW211994   3.240   6.103   4.878
 3699SOL     OW11995   6.416   4.092   2.903
 3699SOL    HW111996   6.325   4.132   2.918
 3699SOL    HW211997   6.485   4.164   2.909
 3700SOL     OW11998   6.183   0.528   3.789
 3700SOL    HW111999   6.180   0.620   3.827
 3700SOL    HW212000   6.089   0.493   3.779
 3701SOL     OW12001   0.547   1.265   3.182
 3701SOL    HW112002   0.635   1.241   3.223
 3701SOL    HW212003   0.508   1.343   3.231
 3702SOL     OW12004   4.360   0.645   2.413
 3702SOL    HW112005   4.348   0.658   2.315
 3702SOL    HW212006   4.290   0.697   2.462
 3703SOL     OW12007   4.449   3.359   6.480
 3703SOL    HW112008   4.367   3.385   6.430
 3703SOL    HW212009   4.426   3.289   6.547
 3704SOL     OW12010   2.964   0.790   1.550
 3704SOL    HW112011   2.939   0.723   1.480
 3704SOL    HW212012   2.934   0.758   1.640
 3705SOL     OW12013   5.183   6.284   4.198
 3705SOL    HW112014   5.087   6.300   4.222
 3705SOL    HW212015   5.238   6.277   4.282
 3706SOL     OW12016   0.819   2.930   4.559
 3706SOL    HW112017   0.859   2.869   4.492
 3706SOL    HW212018   0.750   2.988   4.516
 3707SOL     OW12019   5.398   3.858   5.193
 3707SOL    HW112020   5.405   3.896   5.100
 3707SOL    HW212021   5.489   3.832   5.225
 3708SOL     OW12022   6.358   0.849   6.541
 3708SOL    HW112023   6.260   0.859   6.528
 3708SOL    HW212024   6.406   0.872   6.456
 3709SOL     OW12025   3.861   0.661   0.383
 3709SOL    HW112026   3.773   0.705   0.366
 3709SOL    HW212027   3.874   0.647   0.481
 3710SOL     OW12028   6.468   5.735   0.187
 3710SOL    HW112029   6.460   5.655   0.246
 3710SOL    HW212030   6.549   5.788   0.215
 3711SOL     OW12031   0.051   6.074   2.135
 3711SOL    HW112032   0.068   6.163   2.177
 3711SOL    HW212033   6.999   6.081   2.070
 3712SOL     OW12034   6.782   5.727   6.613
 3712SOL    HW112035   6.704   5.790   6.616
 3712SOL    HW212036   6.827   5.727   6.703
 3713SOL     OW12037   1.391   6.189   4.569
 3713SOL    HW112038   1.480   6.144   4.574
 3713SOL    HW212039   1.378   6.246   4.650
 3714SOL     OW12040   4.929   5.829   4.829
 3714SOL    HW112041   4.975   5.755   4.781
 3714SOL    HW212042   4.885   5.890   4.763
 3715SOL     OW12043   6.004   3.600   4.442
 3715SOL    HW112044   5.915   3.616   4.400
 3715SOL    HW212045   6.041   3.687   4.475
 3716SOL     OW12046   6.795   6.712   4.572
 3716SOL    HW112047   6.853   6.717   4.653
 3716SOL    HW212048   6.847   6.672   4.496
 3717SOL     OW12049   6.261   5.653   6.853
 3717SOL    HW112050   6.237   5.555   6.850
 3717SOL    HW212051   6.189   5.703   6.900
 3718SOL     OW12052   2.278   6.607   5.756
 3718SOL    HW112053   2.257   6.540   5.827
 3718SOL    HW212054   2.220   6.592   5.677
 3719SOL     OW12055   4.917   4.379   0.818
 3719SOL    HW112056   4.885   4.291   0.785
 3719SOL    HW212057   4.861   4.452   0.779
 3720SOL     OW12058   5.633   2.247   6.048
 3720SOL    HW112059   5.593   2.216   6.134
 3720SOL    HW212060   5.648   2.168   5.988
 3721SOL     OW12061   5.351   4.912   0.551
 3721SOL    HW112062   5.302   4.938   0.634
 3721SOL    HW212063   5.431   4.857   0.575
 3722SOL     OW12064   0.082   0.111   2.568
 3722SOL    HW112065   0.121   0.024   2.599
 3722SOL    HW212066   0.093   0.118   2.469
 3723SOL     OW12067   6.486   6.286   1.766
 3723SOL    HW112068   6.423   6.286   1.844
 3723SOL    HW212069   6.544   6.204   1.770
 3724SOL     OW12070   2.380   5.315   0.045
 3724SOL    HW112071   2.464   5.368   0.053
 3724SOL    HW212072   2.377   5.270   6.980
 3725SOL     OW12073   5.282   6.213   6.817
 3725SOL    HW112074   5.311   6.118   6.802
 3725SOL    HW212075   5.192   6.214   6.861
 3726SOL     OW12076   6.511   4.598   1.639
 3726SOL    HW112077   6.423   4.640   1.618
 3726SOL    HW212078   6.520   4.512   1.588
 3727SOL     OW12079   0.095   3.290   6.251
 3727SOL    HW112080   0.151   3.261   6.328
 3727SOL    HW212081   0.013   3.337   6.284
 3728SOL     OW12082   1.580   3.813   0.150
 3728SOL    HW112083   1.665   3.859   0.176
 3728SOL    HW212084   1.532   3.866   0.081
 3729SOL     OW12085   1.000   2.549   3.913
 3729SOL    HW112086   1.056   2.479   3.868
 3729SOL    HW212087   1.019   2.548   4.011
 3730SOL     OW12088   2.888   5.787   6.850
 3730SOL    HW112089   2.928   5.832   6.930
 3730SOL    HW212090   2.947   5.800   6.771
 3731SOL     OW12091   4.377   0.361   0.270
 3731SOL    HW112092   4.405   0.275   0.313
 3731SOL    HW212093   4.443   0.387   0.200
 3732SOL     OW12094   1.665   2.967   6.447
 3732SOL    HW112095   1.665   3.046   6.386
 3732SOL    HW212096   1.730   2.983   6.522
 3733SOL     OW12097   1.857   3.756   1.503
 3733SOL    HW112098   1.928   3.686   1.508
 3733SOL    HW212099   1.823   3.762   1.409
 3734SOL     OW12100   4.118   1.856   1.755
 3734SOL    HW112101   4.038   1.841   1.696
 3734SOL    HW212102   4.115   1.792   1.832
 3735SOL     OW12103   1.779   1.796   3.468
 3735SOL    HW112104   1.848   1.731   3.436
 3735SOL    HW212105   1.780   1.877   3.409
 3736SOL     OW12106   0.475   3.106   0.693
 3736SOL    HW112107   0.377   3.127   0.691
 3736SOL    HW212108   0.488   3.008   0.706
 3737SOL     OW12109   5.110   0.239   3.040
 3737SOL    HW112110   5.032   0.277   3.089
 3737SOL    HW212111   5.109   0.271   2.945
 3738SOL     OW12112   6.662   6.546   3.439
 3738SOL    HW112113   6.673   6.450   3.463
 3738SOL    HW212114   6.566   6.572   3.448
 3739SOL     OW12115   1.668   4.357   2.339
 3739SOL    HW112116   1.703   4.304   2.416
 3739SOL    HW212117   1.662   4.299   2.258
 3740SOL     OW12118   4.444   0.557   6.856
 3740SOL    HW112119   4.410   0.650   6.871
 3740SOL    HW212120   4.480   0.550   6.763
 3741SOL     OW12121   4.671   3.304   1.708
 3741SOL    HW112122   4.636   3.219   1.748
 3741SOL    HW212123   4.600   3.374   1.710
 3742SOL     OW12124   2.696   2.201   5.376
 3742SOL    HW112125   2.767   2.258   5.335
 3742SOL    HW212126   2.676   2.124   5.317
 3743SOL     OW12127   5.565   4.801   1.005
 3743SOL    HW112128   5.553   4.712   0.962
 3743SOL    HW212129   5.659   4.833   0.991
 3744SOL     OW12130   0.589   5.493   3.246
 3744SOL    HW112131   0.668   5.546   3.216
 3744SOL    HW212132   0.619   5.401   3.274
 3745SOL     OW12133   3.223   5.545   2.574
 3745SOL    HW112134   3.316   5.574   2.596
 3745SOL    HW212135   3.169   5.543   2.658
 3746SOL     OW12136   4.418   1.410   2.120
 3746SOL    HW112137   4.504   1.441   2.161
 3746SOL    HW212138   4.402   1.459   2.035
 3747SOL     OW12139   3.156   0.018   5.848
 3747SOL    HW112140   3.083   6.972   5.844
 3747SOL    HW212141   3.236   7.002   5.893
 3748SOL     OW12142   5.630   0.385   1.765
 3748SOL    HW112143   5.600   0.451   1.696
 3748SOL    HW212144   5.629   0.427   1.855
 3749SOL     OW12145   1.655   6.405   3.749
 3749SOL    HW112146   1.555   6.406   3.756
 3749SOL    HW212147   1.682   6.356   3.666
 3750SOL     OW12148   1.810   4.249   0.321
 3750SOL    HW112149   1.753   4.249   0.239
 3750SOL    HW212150   1.902   4.279   0.298
 3751SOL     OW12151   6.979   3.994   2.567
 3751SOL    HW112152   6.993   4.090   2.590
 3751SOL    HW212153   7.009   3.977   2.473
 3752SOL     OW12154   4.580   1.175   5.110
 3752SOL    HW112155   4.482   1.184   5.131
 3752SOL    HW212156   4.627   1.135   5.188
 3753SOL     OW12157   5.990   0.323   4.938
 3753SOL    HW112158   6.013   0.227   4.958
 3753SOL    HW212159   6.017   0.345   4.844
 3754SOL     OW12160   2.293   1.100   2.004
 3754SOL    HW112161   2.282   1.181   1.948
 3754SOL    HW212162   2.386   1.098   2.042
 3755SOL     OW12163   3.042   5.700   4.735
 3755SOL    HW112164   3.111   5.723   4.667
 3755SOL    HW212165   3.087   5.679   4.822
 3756SOL     OW12166   3.107   5.498   6.706
 3756SOL    HW112167   3.174   5.439   6.661
 3756SOL    HW212168   3.015   5.460   6.695
 3757SOL     OW12169   0.091   5.117   1.829
 3757SOL    HW112170   0.107   5.124   1.928
 3757SOL    HW212171   0.023   5.046   1.811
 3758SOL     OW12172   2.157   1.369   4.662
 3758SOL    HW112173   2.188   1.338   4.752
 3758SOL    HW212174   2.235   1.374   4.600
 3759SOL     OW12175   4.458   0.495   4.985
 3759SOL    HW112176   4.388   0.565   4.970
 3759SOL    HW212177   4.547   0.529   4.955
 3760SOL     OW12178   0.082   0.162   3.484
 3760SOL    HW112179   0.163   0.196   3.533
 3760SOL    HW212180   0.037   0.239   3.438
 3761SOL     OW12181   6.471   1.186   4.688
 3761SOL    HW112182   6.376   1.210   4.704
 3761SOL    HW212183   6.527   1.269   4.690
 3762SOL     OW12184   1.270   4.048   2.104
 3762SOL    HW112185   1.258   4.132   2.156
 3762SOL    HW212186   1.192   4.035   2.043
 3763SOL     OW12187   6.419   4.007   0.623
 3763SOL    HW112188   6.458   4.099   0.632
 3763SOL    HW212189   6.320   4.011   0.638
 3764SOL     OW12190   1.986   0.542   2.763
 3764SOL    HW112191   2.041   0.557   2.845
 3764SOL    HW212192   1.996   0.620   2.701
 3765SOL     OW12193   5.818   1.791   1.540
 3765SOL    HW112194   5.886   1.756   1.605
 3765SOL    HW212195   5.727   1.787   1.582
 3766SOL     OW12196   2.135   2.486   4.051
 3766SOL    HW112197   2.207   2.513   4.115
 3766SOL    HW212198   2.132   2.551   3.976
 3767SOL     OW12199   3.564   4.239   6.027
 3767SOL    HW112200   3.592   4.160   5.972
 3767SOL    HW212201   3.488   4.212   6.086
 3768SOL     OW12202   1.130   0.641   4.595
 3768SOL    HW112203   1.083   0.703   4.533
 3768SOL    HW212204   1.146   0.688   4.682
 3769SOL     OW12205   5.574   5.237   5.104
 3769SOL    HW112206   5.627   5.153   5.102
 3769SOL    HW212207   5.482   5.218   5.137
 3770SOL     OW12208   1.261   1.361   0.132
 3770SOL    HW112209   1.303   1.430   0.074
 3770SOL    HW212210   1.330   1.295   0.161
 3771SOL     OW12211   5.820   5.129   0.292
 3771SOL    HW112212   5.745   5.094   0.236
 3771SOL    HW212213   5.885   5.055   0.311
 3772SOL     OW12214   1.372   6.667   0.444
 3772SOL    HW112215   1.354   6.735   0.515
 3772SOL    HW212216   1.460   6.686   0.401
 3773SOL     OW12217   5.366   4.010   5.590
 3773SOL    HW112218   5.279   3.965   5.610
 3773SOL    HW212219   5.418   4.022   5.675
 3774SOL     OW12220   5.868   4.891   1.670
 3774SOL    HW112221   5.879   4.841   1.584
 3774SOL    HW212222   5.798   4.847   1.725
 3775SOL     OW12223   4.051   4.820   3.874
 3775SOL    HW112224   4.063   4.800   3.776
 3775SOL    HW212225   4.113   4.761   3.927
 3776SOL     OW12226   3.507   2.865   6.393
 3776SOL    HW112227   3.602   2.842   6.372
 3776SOL    HW212228   3.497   2.964   6.394
 3777SOL     OW12229   2.615   6.046   3.001
 3777SOL    HW112230   2.521   6.081   3.001
 3777SOL    HW212231   2.623   5.970   2.937
 3778SOL     OW12232   1.637   6.518   4.155
 3778SOL    HW112233   1.548   6.564   4.144
 3778SOL    HW212234   1.622   6.420   4.172
 3779SOL     OW12235   0.408   5.337   0.385
 3779SOL    HW112236   0.399   5.409   0.316
 3779SOL    HW212237   0.392   5.375   0.476
 3780SOL     OW12238   0.238   2.732   2.924
 3780SOL    HW112239   0.292   2.789   2.985
 3780SOL    HW212240   0.262   2.636   2.938
 3781SOL     OW12241   0.702   6.694   4.564
 3781SOL    HW112242   0.629   6.639   4.605
 3781SOL    HW212243   0.773   6.713   4.632
 3782SOL     OW12244   3.726   6.362   2.441
 3782SOL    HW112245   3.751   6.400   2.530
 3782SOL    HW212246   3.674   6.430   2.389
 3783SOL     OW12247   5.443   4.863   5.165
 3783SOL    HW112248   5.363   4.807   5.186
 3783SOL    HW212249   5.454   4.870   5.066
 3784SOL     OW12250   5.309   2.577   2.073
 3784SOL    HW112251   5.390   2.552   2.126
 3784SOL    HW212252   5.316   2.538   1.981
 3785SOL     OW12253   0.792   3.276   5.023
 3785SOL    HW112254   0.775   3.371   5.049
 3785SOL    HW212255   0.886   3.266   4.992
 3786SOL     OW12256   2.112   2.604   3.013
 3786SOL    HW112257   2.019   2.571   2.999
 3786SOL    HW212258   2.170   2.528   3.042
 3787SOL     OW12259   4.889   0.400   3.202
 3787SOL    HW112260   4.887   0.330   3.273
 3787SOL    HW212261   4.867   0.489   3.241
 3788SOL     OW12262   6.536   4.394   4.975
 3788SOL    HW112263   6.554   4.431   4.883
 3788SOL    HW212264   6.534   4.294   4.971
 3789SOL     OW12265   0.277   3.351   2.738
 3789SOL    HW112266   0.373   3.325   2.732
 3789SOL    HW212267   0.267   3.448   2.715
 3790SOL     OW12268   1.056   5.662   6.746
 3790SOL    HW112269   1.027   5.747   6.789
 3790SOL    HW212270   1.064   5.675   6.647
 3791SOL     OW12271   5.116   1.820   6.619
 3791SOL    HW112272   5.120   1.914   6.653
 3791SOL    HW212273   5.027   1.780   6.639
 3792SOL     OW12274   1.181   1.289   4.312
 3792SOL    HW112275   1.153   1.264   4.219
 3792SOL    HW212276   1.149   1.382   4.332
 3793SOL     OW12277   5.605   6.510   1.201
 3793SOL    HW112278   5.676   6.496   1.131
 3793SOL    HW212279   5.555   6.594   1.180
 3794SOL     OW12280   2.232   2.869   1.501
 3794SOL    HW112281   2.222   2.884   1.599
 3794SOL    HW212282   2.325   2.840   1.481
 3795SOL     OW12283   3.525   5.566   1.209
 3795SOL    HW112284   3.441   5.611   1.179
 3795SOL    HW212285   3.525   5.558   1.309
 3796SOL     OW12286   4.324   1.888   1.214
 3796SOL    HW112287   4.387   1.846   1.149
 3796SOL    HW212288   4.369   1.964   1.261
 3797SOL     OW12289   0.974   3.386   2.881
 3797SOL    HW112290   0.971   3.452   2.807
 3797SOL    HW212291   0.981   3.294   2.843
 3798SOL     OW12292   2.845   6.572   2.269
 3798SOL    HW112293   2.837   6.473   2.274
 3798SOL    HW212294   2.936   6.600   2.298
 3799SOL     OW12295   6.853   2.374   3.567
 3799SOL    HW112296   6.943   2.414   3.550
 3799SOL    HW212297   6.848   2.283   3.526
 3800SOL     OW12298   4.816   1.902   3.398
 3800SOL    HW112299   4.898   1.890   3.343
 3800SOL    HW212300   4.792   1.998   3.403
 3801SOL     OW12301   5.118   0.002   1.824
 3801SOL    HW112302   5.066   0.020   1.908
 3801SOL    HW212303   5.201   0.057   1.824
 3802SOL     OW12304   0.329   1.697   2.765
 3802SOL    HW112305   0.383   1.770   2.806
 3802SOL    HW212306   0.385   1.647   2.698
 3803SOL     OW12307   3.386   3.622   4.023
 3803SOL    HW112308   3.333   3.702   3.994
 3803SOL    HW212309   3.338   3.539   3.996
 3804SOL     OW12310   2.770   1.697   4.182
 3804SOL    HW112311   2.724   1.740   4.259
 3804SOL    HW212312   2.810   1.767   4.123
 3805SOL     OW12313   1.846   2.532   1.648
 3805SOL    HW112314   1.848   2.525   1.548
 3805SOL    HW212315   1.924   2.483   1.687
 3806SOL     OW12316   3.644   3.700   6.639
 3806SOL    HW112317   3.602   3.609   6.636
 3806SOL    HW212318   3.726   3.698   6.697
 3807SOL     OW12319   1.358   4.534   4.671
 3807SOL    HW112320   1.366   4.623   4.716
 3807SOL    HW212321   1.426   4.527   4.598
 3808SOL     OW12322   5.094   0.277   5.731
 3808SOL    HW112323   5.108   0.347   5.800
 3808SOL    HW212324   5.127   0.189   5.765
 3809SOL     OW12325   5.928   1.976   2.080
 3809SOL    HW112326   5.930   1.895   2.022
 3809SOL    HW212327   6.009   2.032   2.063
 3810SOL     OW12328   6.933   2.465   3.099
 3810SOL    HW112329   6.976   2.442   3.186
 3810SOL    HW212330   6.835   2.447   3.104
 3811SOL     OW12331   6.912   5.937   4.601
 3811SOL    HW112332   6.954   5.865   4.657
 3811SOL    HW212333   6.917   5.910   4.504
 3812SOL     OW12334   3.189   5.416   5.879
 3812SOL    HW112335   3.094   5.429   5.906
 3812SOL    HW212336   3.222   5.498   5.832
 3813SOL     OW12337   5.774   4.140   0.957
 3813SOL    HW112338   5.674   4.149   0.955
 3813SOL    HW212339   5.806   4.148   1.051
 3814SOL     OW12340   0.081   6.898   3.850
 3814SOL    HW112341   0.097   6.914   3.753
 3814SOL    HW212342   7.006   6.881   3.865
 3815SOL     OW12343   5.072   2.639   1.157
 3815SOL    HW112344   5.087   2.633   1.255
 3815SOL    HW212345   5.109   2.725   1.122
 3816SOL     OW12346   0.976   5.734   4.954
 3816SOL    HW112347   1.038   5.700   5.026
 3816SOL    HW212348   0.938   5.657   4.904
 3817SOL     OW12349   4.931   3.772   2.493
 3817SOL    HW112350   5.020   3.802   2.527
 3817SOL    HW212351   4.869   3.851   2.489
 3818SOL     OW12352   0.185   0.662   1.163
 3818SOL    HW112353   0.100   0.647   1.213
 3818SOL    HW212354   0.245   0.582   1.176
 3819SOL     OW12355   6.297   4.390   2.700
 3819SOL    HW112356   6.365   4.336   2.650
 3819SOL    HW212357   6.207   4.348   2.687
 3820SOL     OW12358   5.300   6.258   3.834
 3820SOL    HW112359   5.315   6.182   3.897
 3820SOL    HW212360   5.239   6.230   3.760
 3821SOL     OW12361   0.825   0.619   0.970
 3821SOL    HW112362   0.875   0.604   0.884
 3821SOL    HW212363   0.857   0.702   1.013
 3822SOL     OW12364   2.838   0.048   6.558
 3822SOL    HW112365   2.814   6.982   6.598
 3822SOL    HW212366   2.807   0.050   6.463
 3823SOL     OW12367   4.538   4.260   6.529
 3823SOL    HW112368   4.581   4.339   6.486
 3823SOL    HW212369   4.486   4.290   6.609
 3824SOL     OW12370   0.986   2.253   0.732
 3824SOL    HW112371   1.029   2.237   0.643
 3824SOL    HW212372   1.056   2.260   0.802
 3825SOL     OW12373   0.834   4.040   0.906
 3825SOL    HW112374   0.902   4.061   0.977
 3825SOL    HW212375   0.760   3.986   0.947
 3826SOL     OW12376   0.014   3.707   1.637
 3826SOL    HW112377   0.107   3.727   1.606
 3826SOL    HW212378   0.010   3.714   1.737
 3827SOL     OW12379   0.574   0.360   1.338
 3827SOL    HW112380   0.543   0.266   1.351
 3827SOL    HW212381   0.654   0.361   1.278
 3828SOL     OW12382   3.426   3.783   4.644
 3828SOL    HW112383   3.500   3.818   4.702
 3828SOL    HW212384   3.415   3.685   4.661
 3829SOL     OW12385   0.352   4.962   2.118
 3829SOL    HW112386   0.296   5.045   2.125
 3829SOL    HW212387   0.301   4.892   2.069
 3830SOL     OW12388   0.344   1.206   5.444
 3830SOL    HW112389   0.261   1.256   5.469
 3830SOL    HW212390   0.340   1.181   5.347
 3831SOL     OW12391   4.211   1.998   3.022
 3831SOL    HW112392   4.283   2.017   3.088
 3831SOL    HW212393   4.133   2.058   3.039
 3832SOL     OW12394   6.776   0.519   2.660
 3832SOL    HW112395   6.850   0.454   2.677
 3832SOL    HW212396   6.768   0.535   2.562
 3833SOL     OW12397   1.224   6.712   6.244
 3833SOL    HW112398   1.226   6.644   6.318
 3833SOL    HW212399   1.206   6.803   6.283
 3834SOL     OW12400   4.334   4.009   0.803
 3834SOL    HW112401   4.332   3.909   0.807
 3834SOL    HW212402   4.243   4.043   0.777
 3835SOL     OW12403   3.977   6.142   5.262
 3835SOL    HW112404   3.966   6.237   5.290
 3835SOL    HW212405   3.891   6.109   5.223
 3836SOL     OW12406   0.671   4.724   5.658
 3836SOL    HW112407   0.658   4.649   5.722
 3836SOL    HW212408   0.752   4.777   5.685
 3837SOL     OW12409   4.361   5.253   5.099
 3837SOL    HW112410   4.372   5.344   5.059
 3837SOL    HW212411   4.418   5.245   5.181
 3838SOL     OW12412   1.446   2.156   3.438
 3838SOL    HW112413   1.389   2.161   3.356
 3838SOL    HW212414   1.488   2.245   3.455
 3839SOL     OW12415   4.452   1.395   2.695
 3839SOL    HW112416   4.454   1.494   2.698
 3839SOL    HW212417   4.464   1.358   2.787
 3840SOL     OW12418   3.075   1.746   6.269
 3840SOL    HW112419   3.047   1.674   6.331
 3840SOL    HW212420   3.140   1.807   6.315
 3841SOL     OW12421   1.064   3.923   4.856
 3841SOL    HW112422   1.027   3.997   4.801
 3841SOL    HW212423   1.158   3.945   4.882
 3842SOL     OW12424   2.385   2.638   3.766
 3842SOL    HW112425   2.302   2.582   3.766
 3842SOL    HW212426   2.461   2.585   3.804
 3843SOL     OW12427   5.379   3.118   1.598
 3843SOL    HW112428   5.334   3.134   1.686
 3843SOL    HW212429   5.472   3.155   1.602
 3844SOL     OW12430   1.633   3.952   6.763
 3844SOL    HW112431   1.713   3.956   6.822
 3844SOL    HW212432   1.646   4.013   6.685
 3845SOL     OW12433   2.824   5.655   6.348
 3845SOL    HW112434   2.859   5.741   6.311
 3845SOL    HW212435   2.730   5.668   6.380
 3846SOL     OW12436   0.958   3.935   4.112
 3846SOL    HW112437   0.970   3.977   4.022
 3846SOL    HW212438   1.019   3.979   4.178
 3847SOL     OW12439   4.982   2.578   4.650
 3847SOL    HW112440   4.923   2.648   4.690
 3847SOL    HW212441   5.070   2.576   4.697
 3848SOL     OW12442   4.873   4.041   2.080
 3848SOL    HW112443   4.972   4.048   2.090
 3848SOL    HW212444   4.846   3.945   2.083
 3849SOL     OW12445   1.039   0.934   5.898
 3849SOL    HW112446   0.979   0.907   5.824
 3849SOL    HW212447   1.097   1.010   5.868
 3850SOL     OW12448   3.043   3.377   1.790
 3850SOL    HW112449   2.968   3.435   1.757
 3850SOL    HW212450   3.131   3.419   1.766
 3851SOL     OW12451   6.965   4.757   3.258
 3851SOL    HW112452   7.004   4.782   3.169
 3851SOL    HW212453   6.897   4.685   3.246
 3852SOL     OW12454   3.157   5.906   3.908
 3852SOL    HW112455   3.243   5.878   3.952
 3852SOL    HW212456   3.085   5.910   3.977
 3853SOL     OW12457   1.118   3.002   3.238
 3853SOL    HW112458   1.199   2.944   3.233
 3853SOL    HW212459   1.132   3.073   3.307
 3854SOL     OW12460   1.095   2.389   3.015
 3854SOL    HW112461   1.160   2.460   2.988
 3854SOL    HW212462   1.096   2.379   3.114
 3855SOL     OW12463   4.561   6.175   6.553
 3855SOL    HW112464   4.593   6.093   6.505
 3855SOL    HW212465   4.468   6.196   6.524
 3856SOL     OW12466   0.371   1.431   6.138
 3856SOL    HW112467   0.360   1.366   6.063
 3856SOL    HW212468   0.453   1.486   6.123
 3857SOL     OW12469   1.151   6.438   6.907
 3857SOL    HW112470   1.232   6.473   6.859
 3857SOL    HW212471   1.111   6.510   6.962
 3858SOL     OW12472   3.654   1.158   5.914
 3858SOL    HW112473   3.668   1.245   5.961
 3858SOL    HW212474   3.727   1.095   5.940
 3859SOL     OW12475   6.398   0.809   1.696
 3859SOL    HW112476   6.495   0.790   1.710
 3859SOL    HW212477   6.372   0.892   1.745
 3860SOL     OW12478   1.764   1.463   4.316
 3860SOL    HW112479   1.680   1.508   4.285
 3860SOL    HW212480   1.741   1.378   4.362
 3861SOL     OW12481   4.467   5.724   3.342
 3861SOL    HW112482   4.439   5.812   3.380
 3861SOL    HW212483   4.534   5.681   3.403
 3862SOL     OW12484   0.359   0.840   4.713
 3862SOL    HW112485   0.421   0.795   4.778
 3862SOL    HW212486   0.405   0.847   4.624
 3863SOL     OW12487   6.050   1.833   0.007
 3863SOL    HW112488   6.032   1.871   0.098
 3863SOL    HW212489   6.007   1.891   6.961
 3864SOL     OW12490   2.324   0.447   5.233
 3864SOL    HW112491   2.257   0.398   5.177
 3864SOL    HW212492   2.411   0.398   5.231
 3865SOL     OW12493   4.047   1.140   1.050
 3865SOL    HW112494   4.106   1.200   1.104
 3865SOL    HW212495   3.951   1.164   1.065
 3866SOL     OW12496   3.935   0.499   0.181
 3866SOL    HW112497   3.997   0.427   0.211
 3866SOL    HW212498   3.910   0.555   0.260
 3867SOL     OW12499   0.979   4.694   3.289
 3867SOL    HW112500   0.905   4.749   3.328
 3867SOL    HW212501   0.942   4.605   3.261
 3868SOL     OW12502   3.507   0.331   0.495
 3868SOL    HW112503   3.600   0.359   0.519
 3868SOL    HW212504   3.511   0.263   0.421
 3869SOL     OW12505   6.600   2.876   4.184
 3869SOL    HW112506   6.678   2.932   4.155
 3869SOL    HW212507   6.631   2.805   4.246
 3870SOL     OW12508   0.124   6.382   0.658
 3870SOL    HW112509   0.043   6.410   0.710
 3870SOL    HW212510   0.105   6.294   0.613
 3871SOL     OW12511   3.615   0.776   3.140
 3871SOL    HW112512   3.556   0.844   3.183
 3871SOL    HW212513   3.566   0.690   3.130
 3872SOL     OW12514   3.341   3.242   4.322
 3872SOL    HW112515   3.391   3.257   4.407
 3872SOL    HW212516   3.248   3.278   4.330
 3873SOL     OW12517   5.869   4.122   1.230
 3873SOL    HW112518   5.927   4.071   1.294
 3873SOL    HW212519   5.789   4.157   1.279
 3874SOL     OW12520   4.578   0.139   6.957
 3874SOL    HW112521   4.616   0.061   7.006
 3874SOL    HW212522   4.480   0.124   6.942
 3875SOL     OW12523   2.099   3.401   3.392
 3875SOL    HW112524   2.168   3.376   3.325
 3875SOL    HW212525   2.087   3.501   3.393
 3876SOL     OW12526   3.928   5.449   1.036
 3876SOL    HW112527   3.859   5.518   1.014
 3876SOL    HW212528   3.947   5.452   1.135
 3877SOL     OW12529   5.719   2.263   1.282
 3877SOL    HW112530   5.681   2.324   1.213
 3877SOL    HW212531   5.797   2.307   1.326
 3878SOL     OW12532   4.469   6.308   4.714
 3878SOL    HW112533   4.483   6.317   4.615
 3878SOL    HW212534   4.499   6.391   4.760
 3879SOL     OW12535   6.181   5.730   0.965
 3879SOL    HW112536   6.223   5.713   1.054
 3879SOL    HW212537   6.082   5.741   0.976
 3880SOL     OW12538   5.226   4.016   4.459
 3880SOL    HW112539   5.212   3.967   4.373
 3880SOL    HW212540   5.259   4.109   4.439
 3881SOL     OW12541   1.504   3.597   1.351
 3881SOL    HW112542   1.530   3.502   1.330
 3881SOL    HW212543   1.527   3.617   1.446
 3882SOL     OW12544   0.614   1.414   5.775
 3882SOL    HW112545   0.596   1.511   5.789
 3882SOL    HW212546   0.581   1.362   5.854
 3883SOL     OW12547   4.011   1.410   2.030
 3883SOL    HW112548   4.052   1.476   1.967
 3883SOL    HW212549   3.911   1.416   2.024
 3884SOL     OW12550   0.966   6.350   2.287
 3884SOL    HW112551   0.988   6.281   2.218
 3884SOL    HW212552   0.884   6.400   2.258
 3885SOL     OW12553   6.500   5.359   2.938
 3885SOL    HW112554   6.579   5.418   2.921
 3885SOL    HW212555   6.444   5.398   3.011
 3886SOL     OW12556   4.933   5.752   5.100
 3886SOL    HW112557   4.918   5.804   5.016
 3886SOL    HW212558   4.949   5.656   5.076
 3887SOL     OW12559   1.197   0.575   6.833
 3887SOL    HW112560   1.250   0.631   6.897
 3887SOL    HW212561   1.112   0.622   6.810
 3888SOL     OW12562   6.840   0.226   5.189
 3888SOL    HW112563   6.772   0.198   5.258
 3888SOL    HW212564   6.846   0.326   5.188
 3889SOL     OW12565   6.943   3.957   0.294
 3889SOL    HW112566   6.867   3.921   0.349
 3889SOL    HW212567   6.925   3.937   0.197
 3890SOL     OW12568   6.416   4.766   2.921
 3890SOL    HW112569   6.470   4.691   2.959
 3890SOL    HW212570   6.344   4.792   2.986
 3891SOL     OW12571   5.431   3.779   4.363
 3891SOL    HW112572   5.378   3.750   4.442
 3891SOL    HW212573   5.436   3.704   4.297
 3892SOL     OW12574   6.916   1.646   1.484
 3892SOL    HW112575   6.944   1.704   1.560
 3892SOL    HW212576   6.969   1.670   1.402
 3893SOL     OW12577   4.182   3.827   6.938
 3893SOL    HW112578   4.216   3.807   6.846
 3893SOL    HW212579   4.203   3.751   6.999
 3894SOL     OW12580   4.129   0.944   0.577
 3894SOL    HW112581   4.101   1.010   0.508
 3894SOL    HW212582   4.129   0.988   0.667
 3895SOL     OW12583   1.776   0.598   5.595
 3895SOL    HW112584   1.735   0.672   5.649
 3895SOL    HW212585   1.803   0.523   5.656
 3896SOL     OW12586   6.984   1.037   5.211
 3896SOL    HW112587   0.011   1.122   5.194
 3896SOL    HW212588   6.890   1.059   5.237
 3897SOL     OW12589   3.732   6.105   2.617
 3897SOL    HW112590   3.685   6.165   2.551
 3897SOL    HW212591   3.777   6.161   2.687
 3898SOL     OW12592   2.662   3.218   6.030
 3898SOL    HW112593   2.640   3.138   5.974
 3898SOL    HW212594   2.582   3.277   6.036
 3899SOL     OW12595   4.632   6.588   5.339
 3899SOL    HW112596   4.714   6.638   5.366
 3899SOL    HW212597   4.553   6.650   5.342
 3900SOL     OW12598   4.868   3.047   3.602
 3900SOL    HW112599   4.921   2.965   3.628
 3900SOL    HW212600   4.806   3.024   3.528
 3901SOL     OW12601   2.779   0.544   5.348
 3901SOL    HW112602   2.685   0.511   5.346
 3901SOL    HW212603   2.787   0.617   5.416
 3902SOL     OW12604   6.100   3.194   1.772
 3902SOL    HW112605   6.104   3.122   1.702
 3902SOL    HW212606   6.005   3.208   1.799
 3903SOL     OW12607   3.871   5.882   6.292
 3903SOL    HW112608   3.795   5.884   6.357
 3903SOL    HW212609   3.958   5.886   6.342
 3904SOL     OW12610   2.903   1.358   5.513
 3904SOL    HW112611   2.846   1.405   5.581
 3904SOL    HW212612   2.857   1.274   5.485
 3905SOL     OW12613   0.490   0.243   6.415
 3905SOL    HW112614   0.558   0.216   6.348
 3905SOL    HW212615   0.423   0.169   6.426
 3906SOL     OW12616   5.902   6.207   5.477
 3906SOL    HW112617   5.834   6.236   5.544
 3906SOL    HW212618   5.863   6.135   5.419
 3907SOL     OW12619   5.753   0.866   3.713
 3907SOL    HW112620   5.759   0.777   3.668
 3907SOL    HW212621   5.670   0.870   3.768
 3908SOL     OW12622   1.450   2.164   0.383
 3908SOL    HW112623   1.398   2.086   0.349
 3908SOL    HW212624   1.396   2.248   0.369
 3909SOL     OW12625   6.961   6.035   5.737
 3909SOL    HW112626   0.007   5.996   5.798
 3909SOL    HW212627   6.884   5.972   5.728
 3910SOL     OW12628   3.475   3.363   2.658
 3910SOL    HW112629   3.503   3.340   2.565
 3910SOL    HW212630   3.389   3.318   2.679
 3911SOL     OW12631   4.397   1.721   6.117
 3911SOL    HW112632   4.396   1.819   6.134
 3911SOL    HW212633   4.474   1.698   6.057
 3912SOL     OW12634   4.729   0.767   5.212
 3912SOL    HW112635   4.689   0.858   5.220
 3912SOL    HW212636   4.800   0.755   5.282
 3913SOL     OW12637   1.927   6.754   6.448
 3913SOL    HW112638   2.017   6.786   6.478
 3913SOL    HW212639   1.911   6.661   6.481
 3914SOL     OW12640   3.174   0.776   0.723
 3914SOL    HW112641   3.194   0.825   0.808
 3914SOL    HW212642   3.260   0.745   0.682
 3915SOL     OW12643   4.216   5.288   1.973
 3915SOL    HW112644   4.260   5.362   1.922
 3915SOL    HW212645   4.262   5.276   2.061
 3916SOL     OW12646   1.291   0.135   4.138
 3916SOL    HW112647   1.347   0.121   4.220
 3916SOL    HW212648   1.307   0.061   4.074
 3917SOL     OW12649   6.207   5.981   0.387
 3917SOL    HW112650   6.137   5.999   0.318
 3917SOL    HW212651   6.274   6.055   0.387
 3918SOL     OW12652   4.916   6.226   1.491
 3918SOL    HW112653   4.923   6.326   1.487
 3918SOL    HW212654   4.955   6.186   1.408
 3919SOL     OW12655   2.600   6.533   6.505
 3919SOL    HW112656   2.662   6.568   6.435
 3919SOL    HW212657   2.596   6.433   6.499
 3920SOL     OW12658   3.670   2.907   0.721
 3920SOL    HW112659   3.624   2.888   0.808
 3920SOL    HW212660   3.647   2.834   0.656
 3921SOL     OW12661   0.606   3.235   1.258
 3921SOL    HW112662   0.529   3.205   1.314
 3921SOL    HW212663   0.688   3.184   1.283
 3922SOL     OW12664   6.399   3.762   1.649
 3922SOL    HW112665   6.470   3.692   1.662
 3922SOL    HW212666   6.439   3.852   1.665
 3923SOL     OW12667   6.272   1.732   6.712
 3923SOL    HW112668   6.317   1.792   6.646
 3923SOL    HW212669   6.298   1.759   6.804
 3924SOL     OW12670   0.398   4.871   3.557
 3924SOL    HW112671   0.391   4.920   3.470
 3924SOL    HW212672   0.365   4.929   3.631
 3925SOL     OW12673   3.317   5.230   1.378
 3925SOL    HW112674   3.226   5.189   1.381
 3925SOL    HW212675   3.386   5.158   1.386
 3926SOL     OW12676   6.889   5.962   3.608
 3926SOL    HW112677   6.936   6.031   3.663
 3926SOL    HW212678   6.933   5.873   3.622
 3927SOL     OW12679   6.575   2.771   3.564
 3927SOL    HW112680   6.546   2.754   3.659
 3927SOL    HW212681   6.609   2.686   3.524
 3928SOL     OW12682   3.483   6.303   5.425
 3928SOL    HW112683   3.538   6.334   5.348
 3928SOL    HW212684   3.472   6.203   5.421
 3929SOL     OW12685   6.970   1.083   5.543
 3929SOL    HW112686   6.906   1.073   5.619
 3929SOL    HW212687   6.983   0.994   5.498
 3930SOL     OW12688   2.403   1.620   3.594
 3930SOL    HW112689   2.454   1.551   3.645
 3930SOL    HW212690   2.436   1.623   3.499
 3931SOL     OW12691   2.009   1.425   1.781
 3931SOL    HW112692   1.963   1.513   1.789
 3931SOL    HW212693   1.964   1.358   1.841
 3932SOL     OW12694   1.734   4.463   3.210
 3932SOL    HW112695   1.810   4.465   3.276
 3932SOL    HW212696   1.764   4.505   3.125
 3933SOL     OW12697   1.990   6.233   7.008
 3933SOL    HW112698   2.087   6.214   0.001
 3933SOL    HW212699   1.976   6.252   6.911
 3934SOL     OW12700   6.925   1.693   0.568
 3934SOL    HW112701   6.976   1.610   0.590
 3934SOL    HW212702   6.909   1.697   0.469
 3935SOL     OW12703   2.688   6.724   0.091
 3935SOL    HW112704   2.711   6.754   7.022
 3935SOL    HW212705   2.770   6.730   0.149
 3936SOL     OW12706   0.614   5.099   5.252
 3936SOL    HW112707   0.645   5.029   5.188
 3936SOL    HW212708   0.671   5.181   5.243
 3937SOL     OW12709   6.686   1.350   3.097
 3937SOL    HW112710   6.783   1.327   3.102
 3937SOL    HW212711   6.658   1.395   3.182
 3938SOL     OW12712   0.657   1.752   3.728
 3938SOL    HW112713   0.678   1.705   3.814
 3938SOL    HW212714   0.646   1.685   3.655
 3939SOL     OW12715   2.378   1.822   2.703
 3939SOL    HW112716   2.466   1.862   2.678
 3939SOL    HW212717   2.304   1.881   2.672
 3940SOL     OW12718   4.816   5.527   1.526
 3940SOL    HW112719   4.839   5.518   1.623
 3940SOL    HW212720   4.772   5.615   1.510
 3941SOL     OW12721   4.209   3.010   6.447
 3941SOL    HW112722   4.303   3.000   6.415
 3941SOL    HW212723   4.173   2.920   6.471
 3942SOL     OW12724   0.359   7.020   0.043
 3942SOL    HW112725   0.436   0.059   0.059
 3942SOL    HW212726   0.273   0.044   0.062
 3943SOL     OW12727   6.810   3.847   3.006
 3943SOL    HW112728   6.906   3.855   3.032
 3943SOL    HW212729   6.803   3.829   2.908
 3944SOL     OW12730   4.824   2.926   4.997
 3944SOL    HW112731   4.759   2.903   5.070
 3944SOL    HW212732   4.917   2.923   5.033
 3945SOL     OW12733   0.307   1.649   1.208
 3945SOL    HW112734   0.368   1.698   1.270
 3945SOL    HW212735   0.277   1.564   1.251
 3946SOL     OW12736   5.774   6.214   5.741
 3946SOL    HW112737   5.737   6.125   5.713
 3946SOL    HW212738   5.801   6.210   5.837
 3947SOL     OW12739   5.816   5.568   0.695
 3947SOL    HW112740   5.738   5.618   0.659
 3947SOL    HW212741   5.799   5.545   0.791
 3948SOL     OW12742   1.379   5.825   1.682
 3948SOL    HW112743   1.331   5.743   1.714
 3948SOL    HW212744   1.382   5.826   1.583
 3949SOL     OW12745   4.999   0.241   3.458
 3949SOL    HW112746   4.941   0.281   3.530
 3949SOL    HW212747   5.087   0.215   3.497
 3950SOL     OW12748   1.725   4.048   1.731
 3950SOL    HW112749   1.666   4.124   1.704
 3950SOL    HW212750   1.821   4.074   1.718
 3951SOL     OW12751   5.897   6.402   0.559
 3951SOL    HW112752   5.895   6.410   0.460
 3951SOL    HW212753   5.982   6.358   0.587
 3952SOL     OW12754   6.167   3.484   2.776
 3952SOL    HW112755   6.155   3.493   2.677
 3952SOL    HW212756   6.248   3.429   2.795
 3953SOL     OW12757   4.078   4.596   1.705
 3953SOL    HW112758   4.150   4.531   1.681
 3953SOL    HW212759   4.079   4.673   1.642
 3954SOL     OW12760   4.709   4.748   5.090
 3954SOL    HW112761   4.651   4.779   5.015
 3954SOL    HW212762   4.674   4.662   5.126
 3955SOL     OW12763   3.172   5.777   6.309
 3955SOL    HW112764   3.206   5.784   6.402
 3955SOL    HW212765   3.248   5.774   6.245
 3956SOL     OW12766   6.841   0.731   3.698
 3956SOL    HW112767   6.812   0.782   3.617
 3956SOL    HW212768   6.921   0.676   3.676
 3957SOL     OW12769   4.485   6.127   3.920
 3957SOL    HW112770   4.448   6.196   3.982
 3957SOL    HW212771   4.506   6.169   3.832
 3958SOL     OW12772   6.149   0.712   4.782
 3958SOL    HW112773   6.068   0.657   4.759
 3958SOL    HW212774   6.129   0.809   4.764
 3959SOL     OW12775   4.461   6.343   0.570
 3959SOL    HW112776   4.420   6.307   0.654
 3959SOL    HW212777   4.393   6.343   0.497
 3960SOL     OW12778   4.506   1.581   6.794
 3960SOL    HW112779   4.425   1.627   6.757
 3960SOL    HW212780   4.534   1.509   6.731
 3961SOL     OW12781   5.355   2.254   2.710
 3961SOL    HW112782   5.417   2.331   2.730
 3961SOL    HW212783   5.406   2.181   2.665
 3962SOL     OW12784   2.505   4.263   0.280
 3962SOL    HW112785   2.567   4.261   0.359
 3962SOL    HW212786   2.548   4.314   0.205
 3963SOL     OW12787   4.584   4.835   4.130
 3963SOL    HW112788   4.577   4.876   4.220
 3963SOL    HW212789   4.543   4.744   4.132
 3964SOL     OW12790   4.594   4.841   3.441
 3964SOL    HW112791   4.496   4.854   3.453
 3964SOL    HW212792   4.640   4.930   3.443
 3965SOL     OW12793   4.847   3.079   6.065
 3965SOL    HW112794   4.760   3.105   6.108
 3965SOL    HW212795   4.910   3.157   6.067
 3966SOL     OW12796   5.249   5.804   7.006
 3966SOL    HW112797   5.344   5.795   0.013
 3966SOL    HW212798   5.214   5.714   6.982
 3967SOL     OW12799   1.994   3.564   2.155
 3967SOL    HW112800   2.081   3.548   2.107
 3967SOL    HW212801   1.981   3.662   2.170
 3968SOL     OW12802   4.891   0.502   1.440
 3968SOL    HW112803   4.928   0.592   1.415
 3968SOL    HW212804   4.963   0.447   1.483
 3969SOL     OW12805   1.635   4.143   2.151
 3969SOL    HW112806   1.584   4.057   2.151
 3969SOL    HW212807   1.733   4.124   2.136
 3970SOL     OW12808   6.376   6.191   3.737
 3970SOL    HW112809   6.466   6.229   3.759
 3970SOL    HW212810   6.366   6.102   3.781
 3971SOL     OW12811   2.639   5.109   2.354
 3971SOL    HW112812   2.557   5.053   2.364
 3971SOL    HW212813   2.710   5.075   2.416
 3972SOL     OW12814   1.266   4.805   0.607
 3972SOL    HW112815   1.324   4.886   0.601
 3972SOL    HW212816   1.320   4.724   0.585
 3973SOL     OW12817   1.805   5.199   6.918
 3973SOL    HW112818   1.892   5.158   6.891
 3973SOL    HW212819   1.751   5.134   6.970
 3974SOL     OW12820   2.282   0.752   4.483
 3974SOL    HW112821   2.345   0.726   4.409
 3974SOL    HW212822   2.304   0.845   4.514
 3975SOL     OW12823   5.696   1.154   5.256
 3975SOL    HW112824   5.631   1.227   5.277
 3975SOL    HW212825   5.783   1.173   5.302
 3976SOL     OW12826   1.854   6.460   1.763
 3976SOL    HW112827   1.907   6.376   1.756
 3976SOL    HW212828   1.771   6.452   1.707
 3977SOL     OW12829   2.525   3.909   5.612
 3977SOL    HW112830   2.505   4.007   5.606
 3977SOL    HW212831   2.582   3.893   5.693
 3978SOL     OW12832   5.746   4.866   4.486
 3978SOL    HW112833   5.655   4.848   4.450
 3978SOL    HW212834   5.755   4.824   4.576
 3979SOL     OW12835   2.670   6.723   0.964
 3979SOL    HW112836   2.651   6.718   1.062
 3979SOL    HW212837   2.595   6.772   0.918
 3980SOL     OW12838   6.207   5.700   0.445
 3980SOL    HW112839   6.224   5.794   0.417
 3980SOL    HW212840   6.290   5.646   0.433
 3981SOL     OW12841   2.556   0.768   0.305
 3981SOL    HW112842   2.633   0.706   0.291
 3981SOL    HW212843   2.483   0.747   0.240
 3982SOL     OW12844   2.265   0.086   3.805
 3982SOL    HW112845   2.340   0.123   3.750
 3982SOL    HW212846   2.178   0.111   3.762
 3983SOL     OW12847   5.166   4.868   3.833
 3983SOL    HW112848   5.189   4.849   3.928
 3983SOL    HW212849   5.204   4.956   3.806
 3984SOL     OW12850   6.572   1.499   3.290
 3984SOL    HW112851   6.562   1.589   3.248
 3984SOL    HW212852   6.485   1.471   3.331
 3985SOL     OW12853   3.270   4.278   6.639
 3985SOL    HW112854   3.320   4.310   6.559
 3985SOL    HW212855   3.269   4.178   6.641
 3986SOL     OW12856   6.023   2.672   3.208
 3986SOL    HW112857   6.023   2.767   3.237
 3986SOL    HW212858   6.115   2.646   3.178
 3987SOL     OW12859   3.461   5.273   4.178
 3987SOL    HW112860   3.512   5.288   4.263
 3987SOL    HW212861   3.495   5.191   4.133
 3988SOL     OW12862   3.427   4.226   0.048
 3988SOL    HW112863   3.439   4.264   0.139
 3988SOL    HW212864   3.329   4.226   0.024
 3989SOL     OW12865   6.345   2.647   0.141
 3989SOL    HW112866   6.368   2.663   0.238
 3989SOL    HW212867   6.389   2.717   0.085
 3990SOL     OW12868   4.924   2.288   2.643
 3990SOL    HW112869   4.936   2.268   2.546
 3990SOL    HW212870   5.009   2.272   2.692
 3991SOL     OW12871   5.956   0.993   2.693
 3991SOL    HW112872   6.004   0.917   2.649
 3991SOL    HW212873   5.858   0.972   2.698
 3992SOL     OW12874   3.884   2.002   0.270
 3992SOL    HW112875   3.830   2.086   0.267
 3992SOL    HW212876   3.979   2.025   0.292
 3993SOL     OW12877   1.465   1.870   3.191
 3993SOL    HW112878   1.440   1.933   3.264
 3993SOL    HW212879   1.386   1.814   3.167
 3994SOL     OW12880   1.610   0.457   5.393
 3994SOL    HW112881   1.534   0.447   5.329
 3994SOL    HW212882   1.578   0.504   5.476
 3995SOL     OW12883   2.164   3.505   5.574
 3995SOL    HW112884   2.130   3.412   5.584
 3995SOL    HW212885   2.262   3.507   5.596
 3996SOL     OW12886   1.446   0.237   4.353
 3996SOL    HW112887   1.383   0.212   4.426
 3996SOL    HW212888   1.463   0.336   4.356
 3997SOL     OW12889   5.315   1.476   4.237
 3997SOL    HW112890   5.404   1.486   4.194
 3997SOL    HW212891   5.317   1.400   4.302
 3998SOL     OW12892   4.207   1.488   4.123
 3998SOL    HW112893   4.206   1.573   4.174
 3998SOL    HW212894   4.292   1.438   4.143
 3999SOL     OW12895   6.037   3.409   4.079
 3999SOL    HW112896   6.085   3.474   4.138
 3999SOL    HW212897   6.099   3.334   4.054
 4000SOL     OW12898   2.998   6.348   3.141
 4000SOL    HW112899   2.987   6.307   3.231
 4000SOL    HW212900   2.968   6.284   3.071
 4001SOL     OW12901   2.457   1.904   3.503
 4001SOL    HW112902   2.489   1.981   3.447
 4001SOL    HW212903   2.368   1.873   3.469
 4002SOL     OW12904   3.115   3.931   0.603
 4002SOL    HW112905   3.096   3.893   0.694
 4002SOL    HW212906   3.048   4.001   0.581
 4003SOL     OW12907   3.091   6.585   3.830
 4003SOL    HW112908   3.070   6.662   3.769
 4003SOL    HW212909   3.080   6.614   3.925
 4004SOL     OW12910   5.063   1.773   4.798
 4004SOL    HW112911   4.966   1.755   4.817
 4004SOL    HW212912   5.111   1.687   4.783
 4005SOL     OW12913   4.970   4.758   0.097
 4005SOL    HW112914   5.067   4.731   0.104
 4005SOL    HW212915   4.940   4.750   0.002
 4006SOL     OW12916   4.306   5.296   2.391
 4006SOL    HW112917   4.348   5.316   2.303
 4006SOL    HW212918   4.371   5.244   2.447
 4007SOL     OW12919   0.235   2.180   0.789
 4007SOL    HW112920   0.209   2.257   0.847
 4007SOL    HW212921   0.335   2.176   0.784
 4008SOL     OW12922   3.170   1.908   3.722
 4008SOL    HW112923   3.116   1.850   3.662
 4008SOL    HW212924   3.200   1.990   3.673
 4009SOL     OW12925   4.261   3.463   1.289
 4009SOL    HW112926   4.250   3.451   1.387
 4009SOL    HW212927   4.299   3.380   1.249
 4010SOL     OW12928   2.732   3.145   1.301
 4010SOL    HW112929   2.698   3.133   1.208
 4010SOL    HW212930   2.746   3.056   1.344
 4011SOL     OW12931   0.654   1.062   1.934
 4011SOL    HW112932   0.598   0.987   1.897
 4011SOL    HW212933   0.750   1.038   1.927
 4012SOL     OW12934   5.356   5.007   1.655
 4012SOL    HW112935   5.263   5.027   1.625
 4012SOL    HW212936   5.358   4.921   1.704
 4013SOL     OW12937   2.878   1.487   5.265
 4013SOL    HW112938   2.902   1.424   5.192
 4013SOL    HW212939   2.883   1.440   5.353
 4014SOL     OW12940   5.209   6.709   2.397
 4014SOL    HW112941   5.215   6.621   2.350
 4014SOL    HW212942   5.290   6.723   2.453
 4015SOL     OW12943   5.332   4.705   6.092
 4015SOL    HW112944   5.302   4.800   6.087
 4015SOL    HW212945   5.432   4.701   6.095
 4016SOL     OW12946   2.623   6.264   6.553
 4016SOL    HW112947   2.695   6.257   6.623
 4016SOL    HW212948   2.631   6.189   6.488
 4017SOL     OW12949   0.239   5.807   0.651
 4017SOL    HW112950   0.204   5.900   0.669
 4017SOL    HW212951   0.279   5.770   0.734
 4018SOL     OW12952   4.353   6.210   2.981
 4018SOL    HW112953   4.360   6.280   3.053
 4018SOL    HW212954   4.310   6.250   2.900
 4019SOL     OW12955   5.744   3.677   3.005
 4019SOL    HW112956   5.719   3.626   3.086
 4019SOL    HW212957   5.786   3.616   2.937
 4020SOL     OW12958   4.757   1.846   5.706
 4020SOL    HW112959   4.799   1.755   5.714
 4020SOL    HW212960   4.822   1.907   5.661
 4021SOL     OW12961   3.938   4.782   6.208
 4021SOL    HW112962   3.875   4.763   6.283
 4021SOL    HW212963   3.887   4.824   6.132
 4022SOL     OW12964   4.652   0.867   6.822
 4022SOL    HW112965   4.612   0.896   6.909
 4022SOL    HW212966   4.578   0.850   6.756
 4023SOL     OW12967   6.017   1.728   4.459
 4023SOL    HW112968   5.959   1.804   4.488
 4023SOL    HW212969   5.960   1.650   4.434
 4024SOL     OW12970   3.747   6.629   3.435
 4024SOL    HW112971   3.818   6.665   3.495
 4024SOL    HW212972   3.757   6.530   3.427
 4025SOL     OW12973   0.797   5.570   3.673
 4025SOL    HW112974   0.779   5.665   3.699
 4025SOL    HW212975   0.726   5.512   3.714
 4026SOL     OW12976   5.412   5.559   4.495
 4026SOL    HW112977   5.455   5.562   4.405
 4026SOL    HW212978   5.330   5.616   4.495
 4027SOL     OW12979   3.790   4.567   1.644
 4027SOL    HW112980   3.717   4.617   1.692
 4027SOL    HW212981   3.872   4.565   1.701
 4028SOL     OW12982   1.650   2.432   4.134
 4028SOL    HW112983   1.742   2.403   4.106
 4028SOL    HW212984   1.654   2.467   4.227
 4029SOL     OW12985   2.860   4.188   5.760
 4029SOL    HW112986   2.857   4.092   5.732
 4029SOL    HW212987   2.797   4.241   5.704
 4030SOL     OW12988   1.144   1.887   5.838
 4030SOL    HW112989   1.210   1.885   5.763
 4030SOL    HW212990   1.074   1.956   5.818
 4031SOL     OW12991   4.790   5.433   3.738
 4031SOL    HW112992   4.808   5.459   3.643
 4031SOL    HW212993   4.692   5.414   3.749
 4032SOL     OW12994   6.445   6.782   3.768
 4032SOL    HW112995   6.543   6.763   3.780
 4032SOL    HW212996   6.393   6.726   3.833
 4033SOL     OW12997   3.531   2.918   3.670
 4033SOL    HW112998   3.560   2.947   3.761
 4033SOL    HW212999   3.610   2.918   3.608
 4034SOL     OW13000   5.801   1.415   5.022
 4034SOL    HW113001   5.740   1.337   5.029
 4034SOL    HW213002   5.806   1.446   4.927
 4035SOL     OW13003   0.247   3.328   0.346
 4035SOL    HW113004   0.279   3.407   0.398
 4035SOL    HW213005   0.326   3.282   0.305
 4036SOL     OW13006   6.023   6.220   2.409
 4036SOL    HW113007   6.042   6.184   2.500
 4036SOL    HW213008   5.931   6.260   2.408
 4037SOL     OW13009   1.664   3.023   6.772
 4037SOL    HW113010   1.636   2.951   6.836
 4037SOL    HW213011   1.672   3.110   6.821
 4038SOL     OW13012   5.100   4.823   2.184
 4038SOL    HW113013   5.023   4.882   2.212
 4038SOL    HW213014   5.072   4.763   2.110
 4039SOL     OW13015   5.227   5.543   0.228
 4039SOL    HW113016   5.322   5.527   0.255
 4039SOL    HW213017   5.169   5.469   0.263
 4040SOL     OW13018   3.027   6.797   0.654
 4040SOL    HW113019   2.946   6.852   0.637
 4040SOL    HW213020   3.095   6.852   0.702
 4041SOL     OW13021   1.161   5.955   2.248
 4041SOL    HW113022   1.194   5.875   2.199
 4041SOL    HW213023   1.208   6.036   2.216
 4042SOL     OW13024   6.243   5.454   2.309
 4042SOL    HW113025   6.167   5.505   2.268
 4042SOL    HW213026   6.264   5.493   2.399
 4043SOL     OW13027   5.661   1.944   3.110
 4043SOL    HW113028   5.634   2.022   3.054
 4043SOL    HW213029   5.760   1.946   3.125
 4044SOL     OW13030   6.049   0.128   3.741
 4044SOL    HW113031   6.134   0.175   3.718
 4044SOL    HW213032   5.977   0.158   3.679
 4045SOL     OW13033   2.988   4.072   6.200
 4045SOL    HW113034   3.028   4.131   6.270
 4045SOL    HW213035   2.950   4.129   6.127
 4046SOL     OW13036   1.004   2.052   1.855
 4046SOL    HW113037   1.076   2.039   1.787
 4046SOL    HW213038   1.024   2.133   1.910
 4047SOL     OW13039   3.078   3.843   1.166
 4047SOL    HW113040   3.062   3.745   1.154
 4047SOL    HW213041   2.993   3.893   1.149
 4048SOL     OW13042   5.654   0.541   1.473
 4048SOL    HW113043   5.739   0.523   1.424
 4048SOL    HW213044   5.586   0.578   1.410
 4049SOL     OW13045   6.479   6.173   6.303
 4049SOL    HW113046   6.492   6.240   6.230
 4049SOL    HW213047   6.398   6.197   6.355
 4050SOL     OW13048   1.761   6.358   0.095
 4050SOL    HW113049   1.846   6.323   0.056
 4050SOL    HW213050   1.780   6.403   0.182
 4051SOL     OW13051   2.990   4.298   0.630
 4051SOL    HW113052   3.003   4.397   0.625
 4051SOL    HW213053   3.008   4.267   0.723
 4052SOL     OW13054   0.797   0.220   0.891
 4052SOL    HW113055   0.879   0.241   0.837
 4052SOL    HW213056   0.763   0.305   0.932
 4053SOL     OW13057   2.947   5.070   3.924
 4053SOL    HW113058   3.013   5.058   3.999
 4053SOL    HW213059   2.992   5.115   3.847
 4054SOL     OW13060   2.784   2.747   0.466
 4054SOL    HW113061   2.770   2.840   0.500
 4054SOL    HW213062   2.729   2.683   0.520
 4055SOL     OW13063   2.477   2.697   6.347
 4055SOL    HW113064   2.553   2.642   6.312
 4055SOL    HW213065   2.476   2.786   6.302
 4056SOL     OW13066   3.914   3.318   6.922
 4056SOL    HW113067   3.975   3.286   6.994
 4056SOL    HW213068   3.828   3.350   6.962
 4057SOL     OW13069   5.274   3.083   0.420
 4057SOL    HW113070   5.299   3.025   0.343
 4057SOL    HW213071   5.265   3.178   0.389
 4058SOL     OW13072   2.398   1.460   4.498
 4058SOL    HW113073   2.422   1.391   4.430
 4058SOL    HW213074   2.478   1.485   4.551
 4059SOL     OW13075   2.054   2.309   3.794
 4059SOL    HW113076   1.973   2.304   3.852
 4059SOL    HW213077   2.136   2.318   3.851
 4060SOL     OW13078   3.867   5.610   4.363
 4060SOL    HW113079   3.935   5.643   4.429
 4060SOL    HW213080   3.780   5.595   4.410
 4061SOL     OW13081   3.446   4.637   1.638
 4061SOL    HW113082   3.408   4.545   1.649
 4061SOL    HW213083   3.511   4.656   1.712
 4062SOL     OW13084   3.538   1.344   2.281
 4062SOL    HW113085   3.510   1.410   2.211
 4062SOL    HW213086   3.535   1.386   2.371
 4063SOL     OW13087   3.248   6.738   5.528
 4063SOL    HW113088   3.232   6.646   5.565
 4063SOL    HW213089   3.325   6.735   5.464
 4064SOL     OW13090   1.708   0.893   2.685
 4064SOL    HW113091   1.727   0.876   2.782
 4064SOL    HW213092   1.760   0.828   2.629
 4065SOL     OW13093   0.361   6.802   1.167
 4065SOL    HW113094   0.410   6.856   1.236
 4065SOL    HW213095   0.411   6.804   1.081
 4066SOL     OW13096   5.468   4.401   1.583
 4066SOL    HW113097   5.422   4.457   1.514
 4066SOL    HW213098   5.556   4.442   1.607
 4067SOL     OW13099   5.280   1.890   3.159
 4067SOL    HW113100   5.294   1.793   3.181
 4067SOL    HW213101   5.305   1.907   3.064
 4068SOL     OW13102   4.980   0.831   4.959
 4068SOL    HW113103   4.953   0.839   5.055
 4068SOL    HW213104   5.079   0.822   4.952
 4069SOL     OW13105   5.202   4.664   1.079
 4069SOL    HW113106   5.247   4.746   1.112
 4069SOL    HW213107   5.109   4.659   1.116
 4070SOL     OW13108   2.019   3.883   2.854
 4070SOL    HW113109   2.059   3.877   2.763
 4070SOL    HW213110   1.984   3.975   2.870
 4071SOL     OW13111   1.321   0.800   5.130
 4071SOL    HW113112   1.311   0.787   5.229
 4071SOL    HW213113   1.415   0.782   5.103
 4072SOL     OW13114   1.749   6.751   4.068
 4072SOL    HW113115   1.714   6.670   4.115
 4072SOL    HW213116   1.765   6.730   3.971
 4073SOL     OW13117   2.281   6.181   6.268
 4073SOL    HW113118   2.218   6.248   6.229
 4073SOL    HW213119   2.252   6.089   6.242
 4074SOL     OW13120   0.551   2.192   1.672
 4074SOL    HW113121   0.510   2.283   1.681
 4074SOL    HW213122   0.649   2.199   1.688
 4075SOL     OW13123   4.426   2.164   2.718
 4075SOL    HW113124   4.333   2.178   2.683
 4075SOL    HW213125   4.491   2.202   2.653
 4076SOL     OW13126   2.098   3.710   5.015
 4076SOL    HW113127   2.164   3.712   5.090
 4076SOL    HW213128   2.022   3.772   5.036
 4077SOL     OW13129   3.012   0.103   0.876
 4077SOL    HW113130   3.032   0.027   0.814
 4077SOL    HW213131   3.008   0.069   0.970
 4078SOL     OW13132   6.481   4.299   1.754
 4078SOL    HW113133   6.414   4.250   1.698
 4078SOL    HW213134   6.571   4.291   1.712
 4079SOL     OW13135   1.037   1.468   3.446
 4079SOL    HW113136   0.987   1.479   3.361
 4079SOL    HW213137   1.051   1.557   3.489
 4080SOL     OW13138   3.149   3.791   0.822
 4080SOL    HW113139   3.155   3.814   0.920
 4080SOL    HW213140   3.160   3.693   0.810
 4081SOL     OW13141   2.559   1.382   4.930
 4081SOL    HW113142   2.640   1.343   4.886
 4081SOL    HW213143   2.556   1.353   5.026
 4082SOL     OW13144   0.921   2.461   5.813
 4082SOL    HW113145   0.997   2.480   5.875
 4082SOL    HW213146   0.838   2.504   5.849
 4083SOL     OW13147   5.808   4.535   3.477
 4083SOL    HW113148   5.781   4.444   3.443
 4083SOL    HW213149   5.726   4.585   3.506
 4084SOL     OW13150   4.774   2.446   2.829
 4084SOL    HW113151   4.688   2.480   2.791
 4084SOL    HW213152   4.822   2.393   2.759
 4085SOL     OW13153   3.281   5.567   1.869
 4085SOL    HW113154   3.289   5.658   1.910
 4085SOL    HW213155   3.275   5.576   1.770
 4086SOL     OW13156   6.750   5.486   6.356
 4086SOL    HW113157   6.763   5.563   6.417
 4086SOL    HW213158   6.729   5.404   6.409
 4087SOL     OW13159   2.431   0.369   2.445
 4087SOL    HW113160   2.438   0.317   2.360
 4087SOL    HW213161   2.346   0.421   2.446
 4088SOL     OW13162   6.711   0.855   5.399
 4088SOL    HW113163   6.629   0.852   5.457
 4088SOL    HW213164   6.700   0.790   5.323
 4089SOL     OW13165   6.659   6.114   4.456
 4089SOL    HW113166   6.614   6.203   4.445
 4089SOL    HW213167   6.677   6.098   4.553
 4090SOL     OW13168   2.156   6.594   4.808
 4090SOL    HW113169   2.243   6.594   4.758
 4090SOL    HW213170   2.092   6.655   4.762
 4091SOL     OW13171   1.226   5.121   0.915
 4091SOL    HW113172   1.133   5.098   0.886
 4091SOL    HW213173   1.291   5.060   0.870
 4092SOL     OW13174   4.799   3.129   4.818
 4092SOL    HW113175   4.719   3.104   4.764
 4092SOL    HW213176   4.820   3.056   4.883
 4093SOL     OW13177   5.995   5.360   2.468
 4093SOL    HW113178   5.976   5.307   2.386
 4093SOL    HW213179   6.089   5.343   2.497
 4094SOL     OW13180   0.077   4.802   6.729
 4094SOL    HW113181   0.161   4.842   6.766
 4094SOL    HW213182   0.036   4.742   6.798
 4095SOL     OW13183   0.433   4.186   0.291
 4095SOL    HW113184   0.482   4.100   0.273
 4095SOL    HW213185   0.499   4.258   0.310
 4096SOL     OW13186   1.793   1.497   6.601
 4096SOL    HW113187   1.822   1.405   6.574
 4096SOL    HW213188   1.733   1.491   6.680
 4097SOL     OW13189   0.073   3.787   5.013
 4097SOL    HW113190   0.141   3.719   4.987
 4097SOL    HW213191   0.065   3.856   4.940
 4098SOL     OW13192   2.186   4.551   2.637
 4098SOL    HW113193   2.170   4.597   2.550
 4098SOL    HW213194   2.280   4.566   2.666
 4099SOL     OW13195   4.387   4.331   6.738
 4099SOL    HW113196   4.343   4.244   6.757
 4099SOL    HW213197   4.428   4.367   6.822
 4100SOL     OW13198   1.274   1.131   3.641
 4100SOL    HW113199   1.357   1.117   3.695
 4100SOL    HW213200   1.290   1.203   3.573
 4101SOL     OW13201   6.553   0.820   6.714
 4101SOL    HW113202   6.480   0.834   6.648
 4101SOL    HW213203   6.620   0.894   6.706
 4102SOL     OW13204   1.867   0.317   0.009
 4102SOL    HW113205   1.871   0.251   6.957
 4102SOL    HW213206   1.843   0.407   6.996
 4103SOL     OW13207   0.747   6.771   2.321
 4103SOL    HW113208   0.709   6.702   2.382
 4103SOL    HW213209   0.836   6.742   2.287
 4104SOL     OW13210   0.486   6.128   2.936
 4104SOL    HW113211   0.515   6.148   2.843
 4104SOL    HW213212   0.387   6.116   2.939
 4105SOL     OW13213   4.750   1.189   1.350
 4105SOL    HW113214   4.675   1.240   1.393
 4105SOL    HW213215   4.810   1.153   1.420
 4106SOL     OW13216   0.315   1.764   3.766
 4106SOL    HW113217   0.385   1.777   3.835
 4106SOL    HW213218   0.238   1.714   3.807
 4107SOL     OW13219   0.814   5.859   6.362
 4107SOL    HW113220   0.785   5.951   6.391
 4107SOL    HW213221   0.848   5.863   6.268
 4108SOL     OW13222   0.277   4.932   4.211
 4108SOL    HW113223   0.293   4.833   4.209
 4108SOL    HW213224   0.295   4.967   4.303
 4109SOL     OW13225   6.562   5.838   3.090
 4109SOL    HW113226   6.583   5.868   3.183
 4109SOL    HW213227   6.637   5.781   3.056
 4110SOL     OW13228   4.526   3.055   0.169
 4110SOL    HW113229   4.500   2.989   0.239
 4110SOL    HW213230   4.625   3.051   0.154
 4111SOL     OW13231   6.527   4.603   6.008
 4111SOL    HW113232   6.545   4.600   5.910
 4111SOL    HW213233   6.515   4.509   6.043
 4112SOL     OW13234   4.655   6.944   4.686
 4112SOL    HW113235   4.735   6.898   4.647
 4112SOL    HW213236   4.685   0.002   4.737
 4113SOL     OW13237   4.312   4.728   4.801
 4113SOL    HW113238   4.325   4.665   4.878
 4113SOL    HW213239   4.224   4.774   4.811
 4114SOL     OW13240   6.173   1.525   3.402
 4114SOL    HW113241   6.188   1.450   3.338
 4114SOL    HW213242   6.220   1.504   3.488
 4115SOL     OW13243   2.785   5.432   3.231
 4115SOL    HW113244   2.759   5.524   3.200
 4115SOL    HW213245   2.736   5.411   3.315
 4116SOL     OW13246   5.502   2.686   3.523
 4116SOL    HW113247   5.453   2.659   3.440
 4116SOL    HW213248   5.491   2.784   3.539
 4117SOL     OW13249   1.462   2.267   2.570
 4117SOL    HW113250   1.386   2.332   2.582
 4117SOL    HW213251   1.428   2.174   2.582
 4118SOL     OW13252   6.323   6.145   6.666
 4118SOL    HW113253   6.422   6.143   6.649
 4118SOL    HW213254   6.274   6.139   6.579
 4119SOL     OW13255   2.438   0.704   3.295
 4119SOL    HW113256   2.342   0.715   3.321
 4119SOL    HW213257   2.462   0.607   3.297
 4120SOL     OW13258   2.840   1.389   6.552
 4120SOL    HW113259   2.916   1.413   6.492
 4120SOL    HW213260   2.845   1.443   6.636
 4121SOL     OW13261   0.129   6.906   2.706
 4121SOL    HW113262   0.136   6.816   2.750
 4121SOL    HW213263   0.078   6.967   2.766
 4122SOL     OW13264   6.851   5.567   4.702
 4122SOL    HW113265   6.856   5.541   4.606
 4122SOL    HW213266   6.940   5.604   4.732
 4123SOL     OW13267   3.821   4.982   3.268
 4123SOL    HW113268   3.873   4.920   3.209
 4123SOL    HW213269   3.831   5.076   3.234
 4124SOL     OW13270   6.453   5.968   0.597
 4124SOL    HW113271   6.389   5.905   0.641
 4124SOL    HW213272   6.412   6.003   0.513
 4125SOL     OW13273   5.390   2.521   2.548
 4125SOL    HW113274   5.298   2.523   2.586
 4125SOL    HW213275   5.457   2.532   2.622
 4126SOL     OW13276   1.289   3.008   2.169
 4126SOL    HW113277   1.383   2.992   2.139
 4126SOL    HW213278   1.237   3.048   2.094
 4127SOL     OW13279   4.069   2.178   3.937
 4127SOL    HW113280   4.163   2.144   3.935
 4127SOL    HW213281   4.037   2.183   4.032
 4128SOL     OW13282   0.614   2.982   1.505
 4128SOL    HW113283   0.702   3.017   1.474
 4128SOL    HW213284   0.591   3.023   1.593
 4129SOL     OW13285   3.558   2.696   0.588
 4129SOL    HW113286   3.632   2.637   0.622
 4129SOL    HW213287   3.474   2.677   0.639
 4130SOL     OW13288   6.127   2.778   1.494
 4130SOL    HW113289   6.198   2.757   1.560
 4130SOL    HW213290   6.056   2.707   1.498
 4131SOL     OW13291   5.715   0.681   2.074
 4131SOL    HW113292   5.777   0.756   2.054
 4131SOL    HW213293   5.752   0.628   2.152
 4132SOL     OW13294   6.590   4.126   4.077
 4132SOL    HW113295   6.569   4.028   4.078
 4132SOL    HW213296   6.601   4.156   3.982
 4133SOL     OW13297   5.581   6.457   1.501
 4133SOL    HW113298   5.675   6.425   1.511
 4133SOL    HW213299   5.572   6.511   1.418
 4134SOL     OW13300   2.667   3.361   1.445
 4134SOL    HW113301   2.690   3.269   1.415
 4134SOL    HW213302   2.751   3.409   1.471
 4135SOL     OW13303   0.284   2.250   2.376
 4135SOL    HW113304   0.219   2.210   2.441
 4135SOL    HW213305   0.364   2.284   2.426
 4136SOL     OW13306   0.305   4.248   1.185
 4136SOL    HW113307   0.279   4.159   1.147
 4136SOL    HW213308   0.350   4.235   1.273
 4137SOL     OW13309   1.969   2.710   0.553
 4137SOL    HW113310   2.065   2.710   0.582
 4137SOL    HW213311   1.958   2.773   0.476
 4138SOL     OW13312   4.396   6.003   0.599
 4138SOL    HW113313   4.353   6.080   0.647
 4138SOL    HW213314   4.471   5.967   0.655
 4139SOL     OW13315   1.564   1.950   2.722
 4139SOL    HW113316   1.610   2.025   2.770
 4139SOL    HW213317   1.581   1.864   2.770
 4140SOL     OW13318   2.841   2.326   4.150
 4140SOL    HW113319   2.922   2.283   4.190
 4140SOL    HW213320   2.852   2.332   4.051
 4141SOL     OW13321   4.031   6.639   6.589
 4141SOL    HW113322   4.036   6.641   6.689
 4141SOL    HW213323   4.068   6.724   6.553
 4142SOL     OW13324   6.470   4.085   2.246
 4142SOL    HW113325   6.384   4.121   2.280
 4142SOL    HW213326   6.495   4.132   2.161
 4143SOL     OW13327   5.948   3.344   0.969
 4143SOL    HW113328   5.964   3.442   0.978
 4143SOL    HW213329   5.913   3.308   1.055
 4144SOL     OW13330   5.537   1.551   0.786
 4144SOL    HW113331   5.535   1.562   0.885
 4144SOL    HW213332   5.566   1.636   0.743
 4145SOL     OW13333   0.964   6.470   0.579
 4145SOL    HW113334   1.058   6.438   0.570
 4145SOL    HW213335   0.922   6.475   0.488
 4146SOL     OW13336   5.458   6.531   3.584
 4146SOL    HW113337   5.382   6.559   3.525
 4146SOL    HW213338   5.438   6.557   3.678
 4147SOL     OW13339   5.086   4.270   5.856
 4147SOL    HW113340   5.133   4.188   5.888
 4147SOL    HW213341   5.138   4.351   5.885
 4148SOL     OW13342   2.867   0.297   5.291
 4148SOL    HW113343   2.944   0.293   5.228
 4148SOL    HW213344   2.854   0.392   5.321
 4149SOL     OW13345   1.637   3.033   0.988
 4149SOL    HW113346   1.682   2.949   0.955
 4149SOL    HW213347   1.541   3.032   0.961
 4150SOL     OW13348   6.335   3.159   6.419
 4150SOL    HW113349   6.284   3.147   6.505
 4150SOL    HW213350   6.370   3.071   6.389
 4151SOL     OW13351   2.462   6.796   4.874
 4151SOL    HW113352   2.392   6.829   4.937
 4151SOL    HW213353   2.530   6.868   4.859
 4152SOL     OW13354   3.431   5.243   1.717
 4152SOL    HW113355   3.375   5.278   1.642
 4152SOL    HW213356   3.384   5.259   1.804
 4153SOL     OW13357   6.652   4.941   1.278
 4153SOL    HW113358   6.723   5.004   1.250
 4153SOL    HW213359   6.692   4.850   1.295
 4154SOL     OW13360   7.022   5.360   3.731
 4154SOL    HW113361   6.926   5.342   3.710
 4154SOL    HW213362   0.005   5.406   3.820
 4155SOL     OW13363   0.237   2.137   1.523
 4155SOL    HW113364   0.273   2.180   1.439
 4155SOL    HW213365   0.255   2.039   1.520
 4156SOL     OW13366   6.885   4.819   4.888
 4156SOL    HW113367   6.966   4.761   4.882
 4156SOL    HW213368   6.913   4.915   4.898
 4157SOL     OW13369   6.817   6.917   2.214
 4157SOL    HW113370   6.807   6.929   2.313
 4157SOL    HW213371   6.905   6.873   2.195
 4158SOL     OW13372   1.919   2.219   1.524
 4158SOL    HW113373   1.868   2.254   1.446
 4158SOL    HW213374   2.008   2.265   1.529
 4159SOL     OW13375   2.747   1.988   2.934
 4159SOL    HW113376   2.808   2.018   2.860
 4159SOL    HW213377   2.678   2.059   2.951
 4160SOL     OW13378   6.706   6.930   6.870
 4160SOL    HW113379   6.788   6.872   6.869
 4160SOL    HW213380   6.720   7.008   6.809
 4161SOL     OW13381   2.109   1.991   0.971
 4161SOL    HW113382   2.011   1.975   0.968
 4161SOL    HW213383   2.137   2.015   1.064
 4162SOL     OW13384   6.650   5.779   0.553
 4162SOL    HW113385   6.748   5.767   0.536
 4162SOL    HW213386   6.636   5.852   0.619
 4163SOL     OW13387   4.874   0.518   1.846
 4163SOL    HW113388   4.960   0.468   1.842
 4163SOL    HW213389   4.797   0.455   1.836
 4164SOL     OW13390   0.135   6.922   5.399
 4164SOL    HW113391   0.230   6.950   5.414
 4164SOL    HW213392   0.079   6.951   5.477
 4165SOL     OW13393   4.235   0.641   5.443
 4165SOL    HW113394   4.205   0.570   5.380
 4165SOL    HW213395   4.298   0.702   5.395
 4166SOL     OW13396   6.053   0.903   2.270
 4166SOL    HW113397   6.131   0.963   2.286
 4166SOL    HW213398   5.988   0.914   2.346
 4167SOL     OW13399   2.763   4.927   6.084
 4167SOL    HW113400   2.750   4.881   5.996
 4167SOL    HW213401   2.802   5.018   6.069
 4168SOL     OW13402   6.869   4.696   0.422
 4168SOL    HW113403   6.939   4.762   0.394
 4168SOL    HW213404   6.904   4.641   0.499
 4169SOL     OW13405   5.558   4.145   5.410
 4169SOL    HW113406   5.520   4.098   5.329
 4169SOL    HW213407   5.505   4.119   5.490
 4170SOL     OW13408   4.776   2.965   4.547
 4170SOL    HW113409   4.801   2.911   4.467
 4170SOL    HW213410   4.818   3.056   4.541
 4171SOL     OW13411   1.223   4.568   1.289
 4171SOL    HW113412   1.179   4.595   1.203
 4171SOL    HW213413   1.161   4.586   1.365
 4172SOL     OW13414   3.106   3.179   0.774
 4172SOL    HW113415   3.090   3.081   0.785
 4172SOL    HW213416   3.020   3.225   0.751
 4173SOL     OW13417   4.083   2.759   5.791
 4173SOL    HW113418   4.101   2.716   5.879
 4173SOL    HW213419   4.145   2.836   5.778
 4174SOL     OW13420   4.516   0.551   3.625
 4174SOL    HW113421   4.480   0.517   3.712
 4174SOL    HW213422   4.517   0.651   3.627
 4175SOL     OW13423   2.129   4.665   6.173
 4175SOL    HW113424   2.195   4.630   6.107
 4175SOL    HW213425   2.037   4.660   6.134
 4176SOL     OW13426   4.926   6.395   0.330
 4176SOL    HW113427   4.963   6.404   0.423
 4176SOL    HW213428   4.947   6.477   0.277
 4177SOL     OW13429   4.998   4.805   4.851
 4177SOL    HW113430   4.936   4.800   4.773
 4177SOL    HW213431   4.994   4.719   4.902
 4178SOL     OW13432   4.552   6.537   2.878
 4178SOL    HW113433   4.496   6.528   2.960
 4178SOL    HW213434   4.647   6.553   2.903
 4179SOL     OW13435   5.533   3.721   3.695
 4179SOL    HW113436   5.495   3.807   3.661
 4179SOL    HW213437   5.519   3.715   3.793
 4180SOL     OW13438   5.537   3.330   0.775
 4180SOL    HW113439   5.486   3.256   0.731
 4180SOL    HW213440   5.634   3.304   0.782
 4181SOL     OW13441   5.539   0.404   5.918
 4181SOL    HW113442   5.600   0.481   5.898
 4181SOL    HW213443   5.589   0.333   5.968
 4182SOL     OW13444   0.256   5.412   3.939
 4182SOL    HW113445   0.289   5.503   3.962
 4182SOL    HW213446   0.168   5.396   3.984
 4183SOL     OW13447   2.038   1.150   0.731
 4183SOL    HW113448   2.033   1.051   0.722
 4183SOL    HW213449   2.126   1.182   0.696
 4184SOL     OW13450   3.963   0.334   2.054
 4184SOL    HW113451   3.947   0.269   1.980
 4184SOL    HW213452   4.002   0.418   2.015
 4185SOL     OW13453   0.550   4.091   3.241
 4185SOL    HW113454   0.527   4.053   3.151
 4185SOL    HW213455   0.649   4.106   3.246
 4186SOL     OW13456   2.663   6.070   6.388
 4186SOL    HW113457   2.757   6.068   6.355
 4186SOL    HW213458   2.634   5.978   6.412
 4187SOL     OW13459   2.535   3.575   6.860
 4187SOL    HW113460   2.600   3.648   6.838
 4187SOL    HW213461   2.580   3.507   6.917
 4188SOL     OW13462   5.631   0.595   5.039
 4188SOL    HW113463   5.565   0.558   4.974
 4188SOL    HW213464   5.704   0.528   5.053
 4189SOL     OW13465   3.706   5.370   3.722
 4189SOL    HW113466   3.758   5.285   3.731
 4189SOL    HW213467   3.769   5.447   3.719
 4190SOL     OW13468   0.486   6.533   1.168
 4190SOL    HW113469   0.463   6.611   1.110
 4190SOL    HW213470   0.502   6.564   1.261
 4191SOL     OW13471   5.299   4.157   6.018
 4191SOL    HW113472   5.362   4.228   6.048
 4191SOL    HW213473   5.263   4.108   6.098
 4192SOL     OW13474   1.044   1.498   2.361
 4192SOL    HW113475   1.031   1.401   2.382
 4192SOL    HW213476   1.066   1.508   2.264
 4193SOL     OW13477   5.601   0.486   0.184
 4193SOL    HW113478   5.509   0.527   0.178
 4193SOL    HW213479   5.624   0.442   0.097
 4194SOL     OW13480   4.566   0.113   4.901
 4194SOL    HW113481   4.470   0.135   4.913
 4194SOL    HW213482   4.621   0.196   4.913
 4195SOL     OW13483   4.450   6.472   1.164
 4195SOL    HW113484   4.386   6.460   1.241
 4195SOL    HW213485   4.444   6.566   1.130
 4196SOL     OW13486   0.097   2.452   3.451
 4196SOL    HW113487   0.172   2.433   3.514
 4196SOL    HW213488   0.108   2.544   3.413
 4197SOL     OW13489   3.934   5.753   5.322
 4197SOL    HW113490   4.003   5.771   5.393
 4197SOL    HW213491   3.844   5.783   5.354
 4198SOL     OW13492   6.791   0.861   2.436
 4198SOL    HW113493   6.778   0.832   2.531
 4198SOL    HW213494   6.889   0.869   2.417
 4199SOL     OW13495   1.135   2.884   5.827
 4199SOL    HW113496   1.068   2.912   5.896
 4199SOL    HW213497   1.106   2.798   5.786
 4200SOL     OW13498   2.953   0.432   5.668
 4200SOL    HW113499   2.932   0.336   5.645
 4200SOL    HW213500   3.000   0.475   5.591
 4201SOL     OW13501   6.234   6.700   2.762
 4201SOL    HW113502   6.284   6.630   2.711
 4201SOL    HW213503   6.215   6.778   2.702
 4202SOL     OW13504   3.695   5.593   6.477
 4202SOL    HW113505   3.621   5.585   6.544
 4202SOL    HW213506   3.659   5.582   6.385
 4203SOL     OW13507   5.123   4.647   0.531
 4203SOL    HW113508   5.028   4.664   0.556
 4203SOL    HW213509   5.158   4.723   0.476
 4204SOL     OW13510   3.856   3.355   5.458
 4204SOL    HW113511   3.867   3.447   5.420
 4204SOL    HW213512   3.760   3.329   5.455
 4205SOL     OW13513   3.747   5.230   4.891
 4205SOL    HW113514   3.725   5.136   4.862
 4205SOL    HW213515   3.809   5.271   4.824
 4206SOL     OW13516   0.007   1.759   4.985
 4206SOL    HW113517   6.982   1.833   4.938
 4206SOL    HW213518   7.012   1.673   4.937
 4207SOL     OW13519   2.499   2.699   1.494
 4207SOL    HW113520   2.576   2.746   1.537
 4207SOL    HW213521   2.496   2.723   1.397
 4208SOL     OW13522   1.111   3.529   6.133
 4208SOL    HW113523   1.021   3.494   6.160
 4208SOL    HW213524   1.099   3.605   6.070
 4209SOL     OW13525   6.955   6.012   2.923
 4209SOL    HW113526   6.979   6.076   2.996
 4209SOL    HW213527   6.922   5.926   2.962
 4210SOL     OW13528   4.054   3.583   3.155
 4210SOL    HW113529   4.030   3.665   3.103
 4210SOL    HW213530   4.097   3.611   3.241
 4211SOL     OW13531   3.542   1.786   5.115
 4211SOL    HW113532   3.518   1.709   5.174
 4211SOL    HW213533   3.483   1.785   5.035
 4212SOL     OW13534   6.248   1.822   4.018
 4212SOL    HW113535   6.253   1.723   4.025
 4212SOL    HW213536   6.209   1.860   4.102
 4213SOL     OW13537   2.242   0.278   3.200
 4213SOL    HW113538   2.164   0.336   3.222
 4213SOL    HW213539   2.240   0.256   3.102
 4214SOL     OW13540   0.361   5.843   4.966
 4214SOL    HW113541   0.278   5.897   4.952
 4214SOL    HW213542   0.341   5.765   5.024
 4215SOL     OW13543   5.619   7.000   5.287
 4215SOL    HW113544   5.634   0.015   5.378
 4215SOL    HW213545   5.576   0.045   5.229
 4216SOL     OW13546   1.414   0.788   2.259
 4216SOL    HW113547   1.405   0.712   2.194
 4216SOL    HW213548   1.402   0.753   2.352
 4217SOL     OW13549   1.145   0.622   1.792
 4217SOL    HW113550   1.191   0.709   1.808
 4217SOL    HW213551   1.191   0.551   1.846
 4218SOL     OW13552   3.144   0.788   1.236
 4218SOL    HW113553   3.061   0.735   1.252
 4218SOL    HW213554   3.214   0.729   1.194
 4219SOL     OW13555   4.775   6.513   4.416
 4219SOL    HW113556   4.696   6.466   4.454
 4219SOL    HW213557   4.754   6.610   4.404
 4220SOL     OW13558   5.827   3.470   2.156
 4220SOL    HW113559   5.768   3.391   2.171
 4220SOL    HW213560   5.868   3.498   2.243
 4221SOL     OW13561   6.210   4.646   6.341
 4221SOL    HW113562   6.205   4.612   6.247
 4221SOL    HW213563   6.275   4.590   6.393
 4222SOL     OW13564   6.284   1.286   3.960
 4222SOL    HW113565   6.324   1.236   3.884
 4222SOL    HW213566   6.228   1.224   4.015
 4223SOL     OW13567   4.045   3.595   1.227
 4223SOL    HW113568   4.127   3.543   1.248
 4223SOL    HW213569   4.042   3.615   1.129
 4224SOL     OW13570   5.265   4.623   4.895
 4224SOL    HW113571   5.237   4.538   4.938
 4224SOL    HW213572   5.194   4.692   4.908
 4225SOL     OW13573   1.793   2.228   5.610
 4225SOL    HW113574   1.745   2.313   5.632
 4225SOL    HW213575   1.873   2.249   5.553
 4226SOL     OW13576   1.224   5.442   3.460
 4226SOL    HW113577   1.268   5.511   3.516
 4226SOL    HW213578   1.127   5.435   3.485
 4227SOL     OW13579   5.120   6.133   1.659
 4227SOL    HW113580   5.050   6.165   1.596
 4227SOL    HW213581   5.182   6.208   1.681
 4228SOL     OW13582   0.145   6.655   5.495
 4228SOL    HW113583   0.179   6.572   5.450
 4228SOL    HW213584   0.153   6.732   5.433
 4229SOL     OW13585   4.480   5.470   5.357
 4229SOL    HW113586   4.561   5.439   5.406
 4229SOL    HW213587   4.506   5.533   5.284
 4230SOL     OW13588   0.874   6.276   3.244
 4230SOL    HW113589   0.806   6.204   3.256
 4230SOL    HW213590   0.832   6.365   3.258
 4231SOL     OW13591   5.079   0.230   5.445
 4231SOL    HW113592   5.166   0.221   5.396
 4231SOL    HW213593   5.094   0.280   5.530
 4232SOL     OW13594   1.812   4.609   3.723
 4232SOL    HW113595   1.829   4.641   3.816
 4232SOL    HW213596   1.895   4.566   3.686
 4233SOL     OW13597   6.958   0.586   4.736
 4233SOL    HW113598   6.890   0.603   4.665
 4233SOL    HW213599   6.963   0.488   4.755
 4234SOL     OW13600   2.064   5.264   4.771
 4234SOL    HW113601   1.988   5.205   4.799
 4234SOL    HW213602   2.041   5.359   4.789
 4235SOL     OW13603   6.722   5.052   5.952
 4235SOL    HW113604   6.678   5.054   5.863
 4235SOL    HW213605   6.801   4.991   5.949
 4236SOL     OW13606   0.251   4.462   1.664
 4236SOL    HW113607   0.281   4.482   1.571
 4236SOL    HW213608   0.308   4.389   1.702
 4237SOL     OW13609   0.267   3.992   4.065
 4237SOL    HW113610   0.169   3.982   4.045
 4237SOL    HW213611   0.279   4.004   4.163
 4238SOL     OW13612   1.008   0.247   3.217
 4238SOL    HW113613   1.090   0.192   3.202
 4238SOL    HW213614   0.950   0.243   3.136
 4239SOL     OW13615   4.016   1.357   2.453
 4239SOL    HW113616   4.065   1.312   2.527
 4239SOL    HW213617   4.081   1.399   2.390
 4240SOL     OW13618   2.569   5.101   0.396
 4240SOL    HW113619   2.642   5.082   0.330
 4240SOL    HW213620   2.510   5.020   0.405
 4241SOL     OW13621   5.021   0.865   0.596
 4241SOL    HW113622   5.022   0.782   0.540
 4241SOL    HW213623   4.961   0.850   0.675
 4242SOL     OW13624   2.873   1.896   4.020
 4242SOL    HW113625   2.780   1.918   3.993
 4242SOL    HW213626   2.937   1.930   3.951
 4243SOL     OW13627   5.325   1.628   2.847
 4243SOL    HW113628   5.319   1.565   2.925
 4243SOL    HW213629   5.331   1.722   2.880
 4244SOL     OW13630   3.963   4.554   1.399
 4244SOL    HW113631   3.923   4.497   1.327
 4244SOL    HW213632   3.902   4.556   1.478
 4245SOL     OW13633   6.439   2.351   6.754
 4245SOL    HW113634   6.417   2.255   6.732
 4245SOL    HW213635   6.535   2.368   6.736
 4246SOL     OW13636   6.282   4.099   3.467
 4246SOL    HW113637   6.251   4.050   3.549
 4246SOL    HW213638   6.331   4.036   3.407
 4247SOL     OW13639   1.704   6.282   3.510
 4247SOL    HW113640   1.705   6.184   3.531
 4247SOL    HW213641   1.627   6.302   3.449
 4248SOL     OW13642   2.708   2.001   4.585
 4248SOL    HW113643   2.715   2.099   4.606
 4248SOL    HW213644   2.640   1.959   4.645
 4249SOL     OW13645   6.594   2.858   5.073
 4249SOL    HW113646   6.621   2.776   5.022
 4249SOL    HW213647   6.627   2.939   5.025
 4250SOL     OW13648   0.238   4.643   3.609
 4250SOL    HW113649   0.296   4.721   3.586
 4250SOL    HW213650   0.288   4.558   3.595
 4251SOL     OW13651   5.948   5.139   0.678
 4251SOL    HW113652   5.912   5.194   0.753
 4251SOL    HW213653   5.991   5.199   0.611
 4252SOL     OW13654   6.162   6.657   5.505
 4252SOL    HW113655   6.156   6.565   5.545
 4252SOL    HW213656   6.252   6.695   5.522
 4253SOL     OW13657   2.839   0.276   1.782
 4253SOL    HW113658   2.776   0.261   1.706
 4253SOL    HW213659   2.909   0.204   1.781
 4254SOL     OW13660   1.186   2.636   1.869
 4254SOL    HW113661   1.093   2.601   1.871
 4254SOL    HW213662   1.199   2.690   1.786
 4255SOL     OW13663   5.840   2.860   3.486
 4255SOL    HW113664   5.896   2.839   3.566
 4255SOL    HW213665   5.796   2.949   3.499
 4256SOL     OW13666   1.469   6.579   0.747
 4256SOL    HW113667   1.387   6.580   0.690
 4256SOL    HW213668   1.539   6.637   0.705
 4257SOL     OW13669   3.901   0.531   4.746
 4257SOL    HW113670   3.944   0.577   4.824
 4257SOL    HW213671   3.871   0.440   4.773
 4258SOL     OW13672   5.971   6.609   1.783
 4258SOL    HW113673   5.899   6.670   1.750
 4258SOL    HW213674   6.016   6.566   1.705
 4259SOL     OW13675   3.074   0.389   6.558
 4259SOL    HW113676   3.042   0.441   6.638
 4259SOL    HW213677   3.062   0.291   6.575
 4260SOL     OW13678   5.259   6.564   5.081
 4260SOL    HW113679   5.323   6.640   5.091
 4260SOL    HW213680   5.229   6.533   5.171
 4261SOL     OW13681   1.864   0.590   1.625
 4261SOL    HW113682   1.864   0.494   1.654
 4261SOL    HW213683   1.939   0.638   1.672
 4262SOL     OW13684   1.060   4.637   5.658
 4262SOL    HW113685   1.070   4.576   5.579
 4262SOL    HW213686   1.057   4.583   5.742
 4263SOL     OW13687   2.899   6.570   3.512
 4263SOL    HW113688   2.857   6.660   3.497
 4263SOL    HW213689   2.837   6.513   3.566
 4264SOL     OW13690   6.812   1.843   2.394
 4264SOL    HW113691   6.717   1.861   2.418
 4264SOL    HW213692   6.850   1.774   2.457
 4265SOL     OW13693   5.472   1.470   0.167
 4265SOL    HW113694   5.392   1.423   0.129
 4265SOL    HW213695   5.459   1.485   0.265
 4266SOL     OW13696   1.774   5.510   0.758
 4266SOL    HW113697   1.827   5.588   0.793
 4266SOL    HW213698   1.831   5.457   0.696
 4267SOL     OW13699   2.038   3.477   4.883
 4267SOL    HW113700   2.059   3.572   4.908
 4267SOL    HW213701   1.955   3.448   4.930
 4268SOL     OW13702   1.651   0.045   6.371
 4268SOL    HW113703   1.583   0.001   6.430
 4268SOL    HW213704   1.673   0.135   6.408
 4269SOL     OW13705   2.083   1.777   0.257
 4269SOL    HW113706   2.053   1.682   0.257
 4269SOL    HW213707   2.102   1.806   0.350
 4270SOL     OW13708   2.971   3.212   4.099
 4270SOL    HW113709   2.887   3.162   4.120
 4270SOL    HW213710   3.038   3.197   4.172
 4271SOL     OW13711   0.284   1.229   6.529
 4271SOL    HW113712   0.305   1.217   6.432
 4271SOL    HW213713   0.281   1.141   6.575
 4272SOL     OW13714   0.622   4.568   4.686
 4272SOL    HW113715   0.528   4.537   4.676
 4272SOL    HW213716   0.668   4.565   4.597
 4273SOL     OW13717   4.955   6.201   4.746
 4273SOL    HW113718   5.045   6.213   4.704
 4273SOL    HW213719   4.884   6.225   4.680
 4274SOL     OW13720   1.188   0.335   2.689
 4274SOL    HW113721   1.170   0.423   2.733
 4274SOL    HW213722   1.184   0.262   2.758
 4275SOL     OW13723   6.956   1.778   5.252
 4275SOL    HW113724   6.867   1.821   5.262
 4275SOL    HW213725   6.972   1.754   5.156
 4276SOL     OW13726   1.273   4.354   3.645
 4276SOL    HW113727   1.187   4.392   3.610
 4276SOL    HW213728   1.325   4.316   3.568
 4277SOL     OW13729   6.346   4.307   4.167
 4277SOL    HW113730   6.304   4.266   4.248
 4277SOL    HW213731   6.426   4.254   4.140
 4278SOL     OW13732   0.048   0.945   4.702
 4278SOL    HW113733   7.005   0.998   4.756
 4278SOL    HW213734   0.129   0.926   4.757
 4279SOL     OW13735   3.214   6.468   5.511
 4279SOL    HW113736   3.235   6.387   5.566
 4279SOL    HW213737   3.269   6.466   5.427
 4280SOL     OW13738   5.215   1.326   5.259
 4280SOL    HW113739   5.115   1.320   5.261
 4280SOL    HW213740   5.252   1.243   5.217
 4281SOL     OW13741   2.565   4.971   4.441
 4281SOL    HW113742   2.626   4.892   4.449
 4281SOL    HW213743   2.500   4.971   4.517
 4282SOL     OW13744   3.061   2.623   0.394
 4282SOL    HW113745   3.057   2.593   0.298
 4282SOL    HW213746   2.969   2.626   0.432
 4283SOL     OW13747   1.744   0.652   3.750
 4283SOL    HW113748   1.800   0.620   3.826
 4283SOL    HW213749   1.657   0.686   3.785
 4284SOL     OW13750   5.080   6.061   2.229
 4284SOL    HW113751   5.171   6.098   2.248
 4284SOL    HW213752   5.020   6.075   2.308
 4285SOL     OW13753   0.688   0.682   6.325
 4285SOL    HW113754   0.686   0.652   6.229
 4285SOL    HW213755   0.697   0.603   6.385
 4286SOL     OW13756   5.092   5.409   6.598
 4286SOL    HW113757   5.153   5.411   6.519
 4286SOL    HW213758   4.997   5.403   6.567
 4287SOL     OW13759   5.749   1.125   6.424
 4287SOL    HW113760   5.663   1.087   6.392
 4287SOL    HW213761   5.823   1.059   6.407
 4288SOL     OW13762   0.785   5.630   3.151
 4288SOL    HW113763   0.764   5.701   3.084
 4288SOL    HW213764   0.849   5.564   3.111
 4289SOL     OW13765   6.371   3.215   0.933
 4289SOL    HW113766   6.338   3.270   1.009
 4289SOL    HW213767   6.293   3.174   0.885
 4290SOL     OW13768   2.621   6.534   1.906
 4290SOL    HW113769   2.703   6.547   1.850
 4290SOL    HW213770   2.643   6.551   2.002
 4291SOL     OW13771   4.489   3.506   1.640
 4291SOL    HW113772   4.450   3.598   1.636
 4291SOL    HW213773   4.421   3.439   1.610
 4292SOL     OW13774   6.543   4.326   6.050
 4292SOL    HW113775   6.542   4.307   6.148
 4292SOL    HW213776   6.617   4.275   6.007
 4293SOL     OW13777   6.972   3.089   0.273
 4293SOL    HW113778   0.000   3.039   0.343
 4293SOL    HW213779   6.972   3.037   0.188
 4294SOL     OW13780   3.964   2.918   0.450
 4294SOL    HW113781   3.873   2.930   0.409
 4294SOL    HW213782   4.034   2.946   0.384
 4295SOL     OW13783   3.492   5.895   4.846
 4295SOL    HW113784   3.585   5.901   4.811
 4295SOL    HW213785   3.470   5.800   4.870
 4296SOL     OW13786   3.426   1.399   6.959
 4296SOL    HW113787   3.423   1.306   6.996
 4296SOL    HW213788   3.460   1.396   6.865
 4297SOL     OW13789   5.403   0.762   5.916
 4297SOL    HW113790   5.356   0.678   5.887
 4297SOL    HW213791   5.501   0.751   5.904
 4298SOL     OW13792   2.634   5.553   6.565
 4298SOL    HW113793   2.719   5.501   6.550
 4298SOL    HW213794   2.556   5.497   6.537
 4299SOL     OW13795   0.792   2.943   0.010
 4299SOL    HW113796   0.770   2.899   0.096
 4299SOL    HW213797   0.742   2.899   6.959
 4300SOL     OW13798   3.828   1.143   6.579
 4300SOL    HW113799   3.832   1.054   6.533
 4300SOL    HW213800   3.886   1.208   6.531
 4301SOL     OW13801   2.517   1.639   0.495
 4301SOL    HW113802   2.534   1.628   0.397
 4301SOL    HW213803   2.440   1.700   0.509
 4302SOL     OW13804   0.793   6.261   5.805
 4302SOL    HW113805   0.832   6.243   5.715
 4302SOL    HW213806   0.806   6.357   5.829
 4303SOL     OW13807   5.502   4.829   4.135
 4303SOL    HW113808   5.549   4.773   4.067
 4303SOL    HW213809   5.530   4.924   4.124
 4304SOL     OW13810   3.011   3.832   4.347
 4304SOL    HW113811   3.001   3.922   4.304
 4304SOL    HW213812   2.994   3.840   4.445
 4305SOL     OW13813   6.101   1.100   4.092
 4305SOL    HW113814   6.041   1.048   4.031
 4305SOL    HW213815   6.178   1.042   4.119
 4306SOL     OW13816   6.344   3.753   6.585
 4306SOL    HW113817   6.300   3.826   6.638
 4306SOL    HW213818   6.296   3.667   6.600
 4307SOL     OW13819   5.017   4.259   6.522
 4307SOL    HW113820   4.958   4.309   6.459
 4307SOL    HW213821   4.999   4.161   6.513
 4308SOL     OW13822   5.565   5.387   6.258
 4308SOL    HW113823   5.637   5.407   6.324
 4308SOL    HW213824   5.563   5.289   6.239
 4309SOL     OW13825   1.186   0.083   0.299
 4309SOL    HW113826   1.227   0.076   0.390
 4309SOL    HW213827   1.111   0.149   0.302
 4310SOL     OW13828   2.049   2.064   3.165
 4310SOL    HW113829   1.979   2.134   3.177
 4310SOL    HW213830   2.131   2.105   3.126
 4311SOL     OW13831   1.126   5.721   3.018
 4311SOL    HW113832   1.093   5.687   2.930
 4311SOL    HW213833   1.095   5.661   3.091
 4312SOL     OW13834   1.847   5.404   1.123
 4312SOL    HW113835   1.929   5.428   1.070
 4312SOL    HW213836   1.767   5.404   1.062
 4313SOL     OW13837   4.976   1.509   1.986
 4313SOL    HW113838   4.910   1.566   2.035
 4313SOL    HW213839   4.986   1.543   1.892
 4314SOL     OW13840   5.685   2.059   3.960
 4314SOL    HW113841   5.629   2.140   3.980
 4314SOL    HW213842   5.772   2.066   4.008
 4315SOL     OW13843   2.045   1.040   2.402
 4315SOL    HW113844   2.077   1.000   2.488
 4315SOL    HW213845   1.977   0.980   2.360
 4316SOL     OW13846   5.299   6.948   1.077
 4316SOL    HW113847   5.295   7.001   1.162
 4316SOL    HW213848   5.242   6.867   1.086
 4317SOL     OW13849   3.641   1.071   4.499
 4317SOL    HW113850   3.730   1.096   4.536
 4317SOL    HW213851   3.637   1.099   4.403
 4318SOL     OW13852   1.603   3.206   3.358
 4318SOL    HW113853   1.575   3.297   3.329
 4318SOL    HW213854   1.700   3.193   3.341
 4319SOL     OW13855   2.463   2.735   0.508
 4319SOL    HW113856   2.489   2.692   0.422
 4319SOL    HW213857   2.392   2.682   0.552
 4320SOL     OW13858   0.782   5.759   1.577
 4320SOL    HW113859   0.715   5.719   1.639
 4320SOL    HW213860   0.874   5.738   1.610
 4321SOL     OW13861   6.722   0.016   4.392
 4321SOL    HW113862   6.685   7.004   4.477
 4321SOL    HW213863   6.649   0.058   4.338
 4322SOL     OW13864   6.035   1.990   6.403
 4322SOL    HW113865   6.021   1.936   6.485
 4322SOL    HW213866   6.113   1.953   6.352
 4323SOL     OW13867   5.435   4.308   1.836
 4323SOL    HW113868   5.446   4.342   1.742
 4323SOL    HW213869   5.391   4.218   1.833
 4324SOL     OW13870   5.480   4.528   6.853
 4324SOL    HW113871   5.496   4.595   6.781
 4324SOL    HW213872   5.531   4.554   6.935
 4325SOL     OW13873   1.529   0.545   0.010
 4325SOL    HW113874   1.509   0.447   0.015
 4325SOL    HW213875   1.592   0.563   6.957
 4326SOL     OW13876   6.033   2.905   4.682
 4326SOL    HW113877   6.024   2.807   4.703
 4326SOL    HW213878   5.957   2.955   4.722
 4327SOL     OW13879   5.995   5.134   2.272
 4327SOL    HW113880   5.991   5.083   2.358
 4327SOL    HW213881   5.902   5.155   2.241
 4328SOL     OW13882   4.551   3.983   5.794
 4328SOL    HW113883   4.645   4.014   5.779
 4328SOL    HW213884   4.548   3.922   5.873
 4329SOL     OW13885   3.771   1.682   5.987
 4329SOL    HW113886   3.789   1.775   6.019
 4329SOL    HW213887   3.678   1.677   5.950
 4330SOL     OW13888   2.967   0.536   4.860
 4330SOL    HW113889   2.901   0.476   4.906
 4330SOL    HW213890   2.933   0.630   4.862
 4331SOL     OW13891   4.560   3.010   0.863
 4331SOL    HW113892   4.604   3.042   0.947
 4331SOL    HW213893   4.463   2.994   0.881
 4332SOL     OW13894   5.519   4.762   2.381
 4332SOL    HW113895   5.531   4.666   2.356
 4332SOL    HW213896   5.421   4.780   2.394
 4333SOL     OW13897   4.396   0.972   5.460
 4333SOL    HW113898   4.343   0.900   5.504
 4333SOL    HW213899   4.404   1.050   5.522
 4334SOL     OW13900   2.098   2.210   2.311
 4334SOL    HW113901   2.005   2.223   2.346
 4334SOL    HW213902   2.137   2.127   2.351
 4335SOL     OW13903   3.098   3.987   3.562
 4335SOL    HW113904   3.049   3.912   3.605
 4335SOL    HW213905   3.161   4.029   3.628
 4336SOL     OW13906   0.924   6.242   5.564
 4336SOL    HW113907   0.973   6.161   5.531
 4336SOL    HW213908   0.951   6.322   5.511
 4337SOL     OW13909   1.046   4.826   0.254
 4337SOL    HW113910   0.986   4.746   0.256
 4337SOL    HW213911   1.140   4.799   0.276
 4338SOL     OW13912   4.981   5.878   4.352
 4338SOL    HW113913   4.966   5.779   4.343
 4338SOL    HW213914   4.952   5.924   4.269
 4339SOL     OW13915   5.729   3.295   5.236
 4339SOL    HW113916   5.785   3.222   5.275
 4339SOL    HW213917   5.771   3.328   5.151
 4340SOL     OW13918   6.073   4.384   2.423
 4340SOL    HW113919   6.072   4.326   2.504
 4340SOL    HW213920   5.980   4.417   2.405
 4341SOL     OW13921   0.966   5.643   2.100
 4341SOL    HW113922   0.919   5.586   2.167
 4341SOL    HW213923   1.054   5.603   2.077
 4342SOL     OW13924   6.820   3.423   3.921
 4342SOL    HW113925   6.727   3.387   3.932
 4342SOL    HW213926   6.828   3.467   3.832
 4343SOL     OW13927   2.488   6.380   6.034
 4343SOL    HW113928   2.410   6.327   5.999
 4343SOL    HW213929   2.514   6.346   6.124
 4344SOL     OW13930   1.770   5.182   2.889
 4344SOL    HW113931   1.848   5.126   2.864
 4344SOL    HW213932   1.780   5.273   2.850
 4345SOL     OW13933   1.854   2.435   5.844
 4345SOL    HW113934   1.892   2.507   5.902
 4345SOL    HW213935   1.754   2.437   5.851
 4346SOL     OW13936   2.050   2.968   1.342
 4346SOL    HW113937   1.961   2.922   1.340
 4346SOL    HW213938   2.113   2.914   1.397
 4347SOL     OW13939   6.186   0.821   2.578
 4347SOL    HW113940   6.243   0.797   2.499
 4347SOL    HW213941   6.209   0.762   2.655
 4348SOL     OW13942   0.473   3.213   2.401
 4348SOL    HW113943   0.552   3.154   2.384
 4348SOL    HW213944   0.390   3.158   2.409
 4349SOL     OW13945   6.501   1.741   3.118
 4349SOL    HW113946   6.568   1.709   3.052
 4349SOL    HW213947   6.414   1.759   3.071
 4350SOL     OW13948   4.875   2.337   4.739
 4350SOL    HW113949   4.938   2.299   4.807
 4350SOL    HW213950   4.919   2.414   4.692
 4351SOL     OW13951   2.109   6.452   0.946
 4351SOL    HW113952   2.043   6.416   0.881
 4351SOL    HW213953   2.120   6.550   0.932
 4352SOL     OW13954   1.078   2.450   2.213
 4352SOL    HW113955   1.123   2.539   2.211
 4352SOL    HW213956   0.983   2.460   2.181
 4353SOL     OW13957   3.381   4.457   0.653
 4353SOL    HW113958   3.390   4.523   0.728
 4353SOL    HW213959   3.470   4.444   0.610
 4354SOL     OW13960   1.997   6.216   5.335
 4354SOL    HW113961   1.979   6.298   5.281
 4354SOL    HW213962   1.983   6.236   5.432
 4355SOL     OW13963   3.456   0.310   2.047
 4355SOL    HW113964   3.551   0.326   2.072
 4355SOL    HW213965   3.426   0.382   1.984
 4356SOL     OW13966   4.601   4.328   1.682
 4356SOL    HW113967   4.557   4.258   1.738
 4356SOL    HW213968   4.530   4.384   1.638
 4357SOL     OW13969   6.467   0.221   6.853
 4357SOL    HW113970   6.559   0.261   6.853
 4357SOL    HW213971   6.445   0.190   6.946
 4358SOL     OW13972   6.880   5.997   0.467
 4358SOL    HW113973   6.910   5.992   0.371
 4358SOL    HW213974   6.893   5.908   0.511
 4359SOL     OW13975   1.598   2.061   5.514
 4359SOL    HW113976   1.614   2.048   5.416
 4359SOL    HW213977   1.679   2.100   5.557
 4360SOL     OW13978   1.410   3.264   2.720
 4360SOL    HW113979   1.402   3.183   2.661
 4360SOL    HW213980   1.395   3.236   2.815
 4361SOL     OW13981   3.082   2.723   1.816
 4361SOL    HW113982   3.044   2.805   1.857
 4361SOL    HW213983   3.035   2.642   1.852
 4362SOL     OW13984   6.243   4.014   4.033
 4362SOL    HW113985   6.224   4.070   3.952
 4362SOL    HW213986   6.330   3.967   4.021
 4363SOL     OW13987   5.442   2.474   6.708
 4363SOL    HW113988   5.370   2.538   6.736
 4363SOL    HW213989   5.526   2.525   6.691
 4364SOL     OW13990   3.217   3.803   5.144
 4364SOL    HW113991   3.249   3.877   5.203
 4364SOL    HW213992   3.137   3.834   5.093
 4365SOL     OW13993   2.332   2.155   1.850
 4365SOL    HW113994   2.391   2.080   1.880
 4365SOL    HW213995   2.388   2.226   1.806
 4366SOL     OW13996   5.378   6.813   0.284
 4366SOL    HW113997   5.454   6.757   0.253
 4366SOL    HW213998   5.294   6.759   0.284
 4367SOL     OW13999   1.956   4.972   5.136
 4367SOL    HW114000   1.872   5.014   5.101
 4367SOL    HW214001   1.934   4.909   5.210
 4368SOL     OW14002   4.266   5.580   1.204
 4368SOL    HW114003   4.318   5.637   1.267
 4368SOL    HW214004   4.270   5.485   1.234
 4369SOL     OW14005   4.126   5.328   3.108
 4369SOL    HW114006   4.116   5.417   3.063
 4369SOL    HW214007   4.105   5.255   3.043
 4370SOL     OW14008   4.770   4.346   2.977
 4370SOL    HW114009   4.842   4.411   2.954
 4370SOL    HW214010   4.713   4.330   2.897
 4371SOL     OW14011   6.804   0.482   1.484
 4371SOL    HW114012   6.772   0.480   1.579
 4371SOL    HW214013   6.731   0.515   1.424
 4372SOL     OW14014   4.505   1.230   2.928
 4372SOL    HW114015   4.578   1.298   2.937
 4372SOL    HW214016   4.471   1.206   3.018
 4373SOL     OW14017   6.923   2.984   6.794
 4373SOL    HW114018   6.954   3.074   6.822
 4373SOL    HW214019   6.824   2.978   6.803
 4374SOL     OW14020   0.831   2.175   1.672
 4374SOL    HW114021   0.882   2.121   1.605
 4374SOL    HW214022   0.850   2.141   1.764
 4375SOL     OW14023   3.484   0.664   3.887
 4375SOL    HW114024   3.428   0.582   3.898
 4375SOL    HW214025   3.539   0.656   3.804
 4376SOL     OW14026   6.999   0.051   2.894
 4376SOL    HW114027   6.979   0.135   2.944
 4376SOL    HW214028   6.914   0.009   2.864
 4377SOL     OW14029   5.962   4.139   0.471
 4377SOL    HW114030   5.897   4.097   0.408
 4377SOL    HW214031   6.037   4.180   0.420
 4378SOL     OW14032   1.730   1.476   2.673
 4378SOL    HW114033   1.811   1.491   2.730
 4378SOL    HW214034   1.729   1.381   2.641
 4379SOL     OW14035   2.365   1.123   3.741
 4379SOL    HW114036   2.450   1.115   3.793
 4379SOL    HW214037   2.290   1.144   3.804
 4380SOL     OW14038   1.392   0.129   1.018
 4380SOL    HW114039   1.339   0.077   1.085
 4380SOL    HW214040   1.334   0.200   0.978
 4381SOL     OW14041   0.613   6.259   4.380
 4381SOL    HW114042   0.581   6.295   4.468
 4381SOL    HW214043   0.713   6.261   4.377
 4382SOL     OW14044   0.008   3.731   6.019
 4382SOL    HW114045   0.104   3.721   5.991
 4382SOL    HW214046   0.003   3.794   6.096
 4383SOL     OW14047   0.019   3.873   6.253
 4383SOL    HW114048   6.995   3.955   6.284
 4383SOL    HW214049   7.021   3.797   6.314
 4384SOL     OW14050   6.264   0.307   3.647
 4384SOL    HW114051   6.248   0.394   3.692
 4384SOL    HW214052   6.359   0.301   3.616
 4385SOL     OW14053   4.445   2.529   5.386
 4385SOL    HW114054   4.498   2.581   5.454
 4385SOL    HW214055   4.479   2.550   5.295
 4386SOL     OW14056   1.423   4.012   5.193
 4386SOL    HW114057   1.392   3.959   5.272
 4386SOL    HW214058   1.520   3.993   5.176
 4387SOL     OW14059   0.116   2.636   2.182
 4387SOL    HW114060   0.023   2.674   2.183
 4387SOL    HW214061   0.145   2.622   2.087
 4388SOL     OW14062   3.833   2.597   6.041
 4388SOL    HW114063   3.905   2.555   5.986
 4388SOL    HW214064   3.867   2.613   6.134
 4389SOL     OW14065   6.914   3.897   0.603
 4389SOL    HW114066   6.969   3.913   0.684
 4389SOL    HW214067   6.962   3.835   0.541
 4390SOL     OW14068   4.450   0.007   1.531
 4390SOL    HW114069   4.491   6.959   1.588
 4390SOL    HW214070   4.464   7.008   1.434
 4391SOL     OW14071   2.962   4.708   7.009
 4391SOL    HW114072   3.015   4.664   0.059
 4391SOL    HW214073   3.019   4.714   6.926
 4392SOL     OW14074   0.754   2.192   4.738
 4392SOL    HW114075   0.686   2.128   4.774
 4392SOL    HW214076   0.844   2.148   4.739
 4393SOL     OW14077   6.329   0.548   1.710
 4393SOL    HW114078   6.361   0.643   1.710
 4393SOL    HW214079   6.408   0.487   1.709
 4394SOL     OW14080   0.392   6.299   1.909
 4394SOL    HW114081   0.474   6.330   1.956
 4394SOL    HW214082   0.363   6.369   1.843
 4395SOL     OW14083   2.174   0.495   1.516
 4395SOL    HW114084   2.195   0.460   1.425
 4395SOL    HW214085   2.246   0.558   1.546
 4396SOL     OW14086   1.804   1.509   4.034
 4396SOL    HW114087   1.731   1.505   3.966
 4396SOL    HW214088   1.765   1.509   4.126
 4397SOL     OW14089   1.814   2.860   4.603
 4397SOL    HW114090   1.779   2.820   4.688
 4397SOL    HW214091   1.860   2.790   4.549
 4398SOL     OW14092   1.651   3.159   6.246
 4398SOL    HW114093   1.577   3.120   6.191
 4398SOL    HW214094   1.647   3.258   6.244
 4399SOL     OW14095   2.962   6.540   1.925
 4399SOL    HW114096   3.036   6.472   1.923
 4399SOL    HW214097   2.923   6.550   1.834
 4400SOL     OW14098   2.087   6.676   3.856
 4400SOL    HW114099   2.034   6.683   3.941
 4400SOL    HW214100   2.077   6.585   3.817
 4401SOL     OW14101   3.973   6.320   5.028
 4401SOL    HW114102   3.983   6.257   5.106
 4401SOL    HW214103   3.922   6.275   4.955
 4402SOL     OW14104   0.852   0.290   2.917
 4402SOL    HW114105   0.781   0.221   2.925
 4402SOL    HW214106   0.894   0.285   2.826
 4403SOL     OW14107   1.649   6.712   0.613
 4403SOL    HW114108   1.660   6.662   0.527
 4403SOL    HW214109   1.736   6.755   0.638
 4404SOL     OW14110   0.681   6.341   5.386
 4404SOL    HW114111   0.779   6.359   5.386
 4404SOL    HW214112   0.642   6.372   5.473
 4405SOL     OW14113   2.139   4.672   2.386
 4405SOL    HW114114   2.040   4.686   2.387
 4405SOL    HW214115   2.172   4.674   2.291
 4406SOL     OW14116   6.833   3.000   0.611
 4406SOL    HW114117   6.743   3.038   0.589
 4406SOL    HW214118   6.842   2.992   0.711
 4407SOL     OW14119   0.342   5.052   1.704
 4407SOL    HW114120   0.248   5.057   1.737
 4407SOL    HW214121   0.387   5.141   1.714
 4408SOL     OW14122   2.165   6.465   6.773
 4408SOL    HW114123   2.068   6.441   6.770
 4408SOL    HW214124   2.215   6.409   6.707
 4409SOL     OW14125   4.655   0.975   1.172
 4409SOL    HW114126   4.558   0.977   1.148
 4409SOL    HW214127   4.677   1.054   1.230
 4410SOL     OW14128   6.440   5.858   6.965
 4410SOL    HW114129   6.467   5.842   0.037
 4410SOL    HW214130   6.411   5.772   6.924
 4411SOL     OW14131   3.259   4.472   5.428
 4411SOL    HW114132   3.239   4.526   5.346
 4411SOL    HW214133   3.192   4.493   5.499
 4412SOL     OW14134   4.868   6.412   4.194
 4412SOL    HW114135   4.880   6.487   4.129
 4412SOL    HW214136   4.848   6.450   4.284
 4413SOL     OW14137   5.274   5.911   3.543
 4413SOL    HW114138   5.233   5.821   3.532
 4413SOL    HW214139   5.321   5.915   3.632
 4414SOL     OW14140   4.150   5.632   0.908
 4414SOL    HW114141   4.162   5.595   1.000
 4414SOL    HW214142   4.206   5.579   0.844
 4415SOL     OW14143   3.732   3.531   0.715
 4415SOL    HW114144   3.771   3.445   0.749
 4415SOL    HW214145   3.637   3.516   0.688
 4416SOL     OW14146   3.978   1.533   3.613
 4416SOL    HW114147   3.881   1.543   3.639
 4416SOL    HW214148   4.020   1.624   3.609
 4417SOL     OW14149   5.536   3.038   4.081
 4417SOL    HW114150   5.611   3.078   4.027
 4417SOL    HW214151   5.449   3.059   4.037
 4418SOL     OW14152   6.227   1.882   2.232
 4418SOL    HW114153   6.180   1.970   2.225
 4418SOL    HW214154   6.326   1.896   2.227
 4419SOL     OW14155   6.787   0.511   6.090
 4419SOL    HW114156   6.707   0.474   6.044
 4419SOL    HW214157   6.803   0.605   6.060
 4420SOL     OW14158   3.477   1.308   1.069
 4420SOL    HW114159   3.463   1.222   1.119
 4420SOL    HW214160   3.397   1.328   1.013
 4421SOL     OW14161   1.939   1.855   5.474
 4421SOL    HW114162   2.002   1.789   5.516
 4421SOL    HW214163   1.984   1.900   5.398
 4422SOL     OW14164   0.919   4.457   6.728
 4422SOL    HW114165   0.974   4.540   6.738
 4422SOL    HW214166   0.837   4.478   6.675
 4423SOL     OW14167   6.855   4.185   6.014
 4423SOL    HW114168   6.892   4.210   6.104
 4423SOL    HW214169   6.882   4.254   5.947
 4424SOL     OW14170   5.336   6.266   5.141
 4424SOL    HW114171   5.430   6.257   5.174
 4424SOL    HW214172   5.295   6.349   5.179
 4425SOL     OW14173   1.712   5.138   0.962
 4425SOL    HW114174   1.615   5.155   0.945
 4425SOL    HW214175   1.723   5.080   1.042
 4426SOL     OW14176   1.239   1.449   3.788
 4426SOL    HW114177   1.298   1.392   3.844
 4426SOL    HW214178   1.240   1.543   3.823
 4427SOL     OW14179   4.398   6.027   2.553
 4427SOL    HW114180   4.412   6.058   2.647
 4427SOL    HW214181   4.392   5.927   2.551
 4428SOL     OW14182   4.393   0.877   4.420
 4428SOL    HW114183   4.396   0.877   4.520
 4428SOL    HW214184   4.327   0.808   4.389
 4429SOL     OW14185   2.670   6.490   2.809
 4429SOL    HW114186   2.654   6.548   2.729
 4429SOL    HW214187   2.757   6.442   2.798
 4430SOL     OW14188   5.296   4.514   4.554
 4430SOL    HW114189   5.288   4.602   4.602
 4430SOL    HW214190   5.319   4.443   4.620
 4431SOL     OW14191   2.705   1.015   2.937
 4431SOL    HW114192   2.652   1.073   2.875
 4431SOL    HW214193   2.647   0.940   2.969
 4432SOL     OW14194   2.238   3.379   6.753
 4432SOL    HW114195   2.287   3.398   6.839
 4432SOL    HW214196   2.151   3.428   6.753
 4433SOL     OW14197   0.247   2.557   4.818
 4433SOL    HW114198   0.337   2.585   4.784
 4433SOL    HW214199   0.256   2.520   4.910
 4434SOL     OW14200   5.658   1.708   2.872
 4434SOL    HW114201   5.630   1.783   2.932
 4434SOL    HW214202   5.640   1.733   2.777
 4435SOL     OW14203   4.051   3.885   1.251
 4435SOL    HW114204   4.145   3.914   1.233
 4435SOL    HW214205   4.046   3.785   1.250
 4436SOL     OW14206   3.817   1.421   1.335
 4436SOL    HW114207   3.890   1.426   1.267
 4436SOL    HW214208   3.731   1.451   1.294
 4437SOL     OW14209   0.561   3.331   2.708
 4437SOL    HW114210   0.512   3.367   2.629
 4437SOL    HW214211   0.601   3.407   2.760
 4438SOL     OW14212   5.309   6.669   5.777
 4438SOL    HW114213   5.280   6.591   5.833
 4438SOL    HW214214   5.344   6.741   5.837
 4439SOL     OW14215   0.572   5.092   2.584
 4439SOL    HW114216   0.567   4.996   2.610
 4439SOL    HW214217   0.520   5.147   2.650
 4440SOL     OW14218   2.540   4.986   0.668
 4440SOL    HW114219   2.628   5.023   0.698
 4440SOL    HW214220   2.511   5.033   0.585
 4441SOL     OW14221   6.920   1.266   0.818
 4441SOL    HW114222   6.837   1.214   0.802
 4441SOL    HW214223   6.913   1.312   0.907
 4442SOL     OW14224   1.476   5.502   5.399
 4442SOL    HW114225   1.476   5.587   5.453
 4442SOL    HW214226   1.549   5.506   5.332
 4443SOL     OW14227   0.974   4.011   6.166
 4443SOL    HW114228   1.032   4.078   6.118
 4443SOL    HW214229   1.007   3.999   6.259
 4444SOL     OW14230   4.399   3.655   0.462
 4444SOL    HW114231   4.300   3.640   0.467
 4444SOL    HW214232   4.429   3.707   0.542
 4445SOL     OW14233   1.427   5.976   0.279
 4445SOL    HW114234   1.368   5.948   0.202
 4445SOL    HW214235   1.519   5.997   0.244
 4446SOL     OW14236   5.464   1.785   0.158
 4446SOL    HW114237   5.483   1.691   0.132
 4446SOL    HW214238   5.540   1.822   0.211
 4447SOL     OW14239   6.016   3.615   4.956
 4447SOL    HW114240   6.101   3.667   4.965
 4447SOL    HW214241   6.004   3.586   4.861
 4448SOL     OW14242   3.331   6.808   1.449
 4448SOL    HW114243   3.270   6.888   1.456
 4448SOL    HW214244   3.373   6.791   1.538
 4449SOL     OW14245   4.601   1.150   6.165
 4449SOL    HW114246   4.633   1.064   6.125
 4449SOL    HW214247   4.572   1.133   6.260
 4450SOL     OW14248   3.317   1.138   6.985
 4450SOL    HW114249   3.251   1.067   7.006
 4450SOL    HW214250   3.280   1.199   6.916
 4451SOL     OW14251   4.334   5.404   4.640
 4451SOL    HW114252   4.357   5.307   4.643
 4451SOL    HW214253   4.234   5.415   4.646
 4452SOL     OW14254   6.470   5.301   4.638
 4452SOL    HW114255   6.467   5.314   4.539
 4452SOL    HW214256   6.457   5.389   4.683
 4453SOL     OW14257   1.386   3.048   1.774
 4453SOL    HW114258   1.354   3.091   1.858
 4453SOL    HW214259   1.380   2.948   1.783
 4454SOL     OW14260   0.990   1.614   0.051
 4454SOL    HW114261   0.932   1.614   6.993
 4454SOL    HW214262   0.934   1.599   0.132
 4455SOL     OW14263   5.369   5.648   5.424
 4455SOL    HW114264   5.298   5.710   5.459
 4455SOL    HW214265   5.362   5.560   5.471
 4456SOL     OW14266   2.608   5.703   3.073
 4456SOL    HW114267   2.700   5.731   3.098
 4456SOL    HW214268   2.549   5.705   3.154
 4457SOL     OW14269   2.263   1.731   4.203
 4457SOL    HW114270   2.284   1.794   4.278
 4457SOL    HW214271   2.166   1.708   4.206
 4458SOL     OW14272   2.547   3.793   1.723
 4458SOL    HW114273   2.452   3.824   1.729
 4458SOL    HW214274   2.550   3.693   1.731
 4459SOL     OW14275   3.027   1.558   4.160
 4459SOL    HW114276   2.935   1.595   4.171
 4459SOL    HW214277   3.094   1.632   4.174
 4460SOL     OW14278   0.984   2.787   6.468
 4460SOL    HW114279   0.983   2.689   6.489
 4460SOL    HW214280   0.890   2.820   6.461
 4461SOL     OW14281   1.831   0.884   0.652
 4461SOL    HW114282   1.805   0.812   0.715
 4461SOL    HW214283   1.755   0.949   0.642
 4462SOL     OW14284   6.057   4.442   2.023
 4462SOL    HW114285   6.116   4.443   1.942
 4462SOL    HW214286   6.039   4.348   2.050
 4463SOL     OW14287   5.131   1.477   1.570
 4463SOL    HW114288   5.201   1.426   1.620
 4463SOL    HW214289   5.061   1.509   1.633
 4464SOL     OW14290   0.514   6.127   0.237
 4464SOL    HW114291   0.505   6.197   0.308
 4464SOL    HW214292   0.457   6.049   0.260
 4465SOL     OW14293   2.741   5.015   0.225
 4465SOL    HW114294   2.785   4.929   0.251
 4465SOL    HW214295   2.781   5.048   0.139
 4466SOL     OW14296   1.040   2.231   2.421
 4466SOL    HW114297   1.063   2.169   2.346
 4466SOL    HW214298   1.055   2.326   2.392
 4467SOL     OW14299   2.417   5.475   3.518
 4467SOL    HW114300   2.329   5.484   3.471
 4467SOL    HW214301   2.407   5.504   3.613
 4468SOL     OW14302   1.194   4.692   0.978
 4468SOL    HW114303   1.253   4.769   0.955
 4468SOL    HW214304   1.163   4.648   0.893
 4469SOL     OW14305   2.958   1.023   1.721
 4469SOL    HW114306   2.943   1.021   1.622
 4469SOL    HW214307   2.937   0.933   1.759
 4470SOL     OW14308   0.613   1.667   2.350
 4470SOL    HW114309   0.684   1.727   2.388
 4470SOL    HW214310   0.555   1.719   2.287
 4471SOL     OW14311   2.026   2.696   6.820
 4471SOL    HW114312   1.962   2.768   6.794
 4471SOL    HW214313   1.980   2.629   6.878
 4472SOL     OW14314   0.744   1.698   0.622
 4472SOL    HW114315   0.746   1.631   0.549
 4472SOL    HW214316   0.829   1.750   0.622
 4473SOL     OW14317   5.271   2.839   3.944
 4473SOL    HW114318   5.204   2.884   4.004
 4473SOL    HW214319   5.276   2.888   3.857
 4474SOL     OW14320   2.711   6.798   2.336
 4474SOL    HW114321   2.763   6.719   2.305
 4474SOL    HW214322   2.613   6.780   2.324
 4475SOL     OW14323   0.941   3.627   1.607
 4475SOL    HW114324   0.904   3.569   1.679
 4475SOL    HW214325   0.866   3.673   1.559
 4476SOL     OW14326   6.325   0.853   4.512
 4476SOL    HW114327   6.418   0.890   4.508
 4476SOL    HW214328   6.260   0.927   4.524
 4477SOL     OW14329   1.702   0.347   5.052
 4477SOL    HW114330   1.774   0.384   5.111
 4477SOL    HW214331   1.653   0.422   5.008
 4478SOL     OW14332   1.340   0.405   1.904
 4478SOL    HW114333   1.372   0.387   1.811
 4478SOL    HW214334   1.319   0.319   1.950
 4479SOL     OW14335   1.502   1.658   0.883
 4479SOL    HW114336   1.472   1.596   0.811
 4479SOL    HW214337   1.602   1.658   0.888
 4480SOL     OW14338   0.868   4.669   5.092
 4480SOL    HW114339   0.832   4.579   5.116
 4480SOL    HW214340   0.940   4.659   5.024
 4481SOL     OW14341   2.444   5.275   4.803
 4481SOL    HW114342   2.356   5.306   4.839
 4481SOL    HW214343   2.490   5.217   4.871
 4482SOL     OW14344   2.018   2.753   5.618
 4482SOL    HW114345   2.083   2.829   5.605
 4482SOL    HW214346   1.948   2.781   5.684
 4483SOL     OW14347   0.531   2.782   2.269
 4483SOL    HW114348   0.554   2.695   2.227
 4483SOL    HW214349   0.476   2.766   2.351
 4484SOL     OW14350   2.411   2.938   0.002
 4484SOL    HW114351   2.436   2.981   6.939
 4484SOL    HW214352   2.457   2.985   0.077
 4485SOL     OW14353   4.657   2.811   5.192
 4485SOL    HW114354   4.580   2.746   5.187
 4485SOL    HW214355   4.647   2.867   5.274
 4486SOL     OW14356   5.695   4.988   5.102
 4486SOL    HW114357   5.607   4.945   5.123
 4486SOL    HW214358   5.767   4.945   5.157
 4487SOL     OW14359   2.526   3.072   0.259
 4487SOL    HW114360   2.607   3.040   0.308
 4487SOL    HW214361   2.448   3.078   0.322
 4488SOL     OW14362   0.878   3.709   4.823
 4488SOL    HW114363   0.925   3.787   4.865
 4488SOL    HW214364   0.901   3.705   4.726
 4489SOL     OW14365   4.850   5.504   5.222
 4489SOL    HW114366   4.883   5.528   5.313
 4489SOL    HW214367   4.927   5.499   5.159
 4490SOL     OW14368   4.867   2.007   1.270
 4490SOL    HW114369   4.798   2.034   1.203
 4490SOL    HW214370   4.883   2.081   1.334
 4491SOL     OW14371   0.833   3.428   3.299
 4491SOL    HW114372   0.879   3.429   3.388
 4491SOL    HW214373   0.747   3.377   3.307
 4492SOL     OW14374   5.961   2.713   2.034
 4492SOL    HW114375   5.873   2.762   2.033
 4492SOL    HW214376   6.029   2.766   1.984
 4493SOL     OW14377   5.708   6.824   4.725
 4493SOL    HW114378   5.677   6.807   4.819
 4493SOL    HW214379   5.700   6.740   4.672
 4494SOL     OW14380   1.232   0.583   5.887
 4494SOL    HW114381   1.217   0.645   5.964
 4494SOL    HW214382   1.295   0.625   5.822
 4495SOL     OW14383   4.239   0.413   2.995
 4495SOL    HW114384   4.266   0.326   2.954
 4495SOL    HW214385   4.222   0.400   3.093
 4496SOL     OW14386   5.228   6.194   0.402
 4496SOL    HW114387   5.252   6.170   0.495
 4496SOL    HW214388   5.275   6.279   0.376
 4497SOL     OW14389   3.773   2.760   6.660
 4497SOL    HW114390   3.842   2.832   6.657
 4497SOL    HW214391   3.689   2.796   6.702
 4498SOL     OW14392   6.493   4.797   6.460
 4498SOL    HW114393   6.552   4.770   6.383
 4498SOL    HW214394   6.425   4.862   6.429
 4499SOL     OW14395   6.159   2.011   3.657
 4499SOL    HW114396   6.080   2.065   3.686
 4499SOL    HW214397   6.241   2.069   3.661
 4500SOL     OW14398   3.682   4.482   6.762
 4500SOL    HW114399   3.669   4.531   6.849
 4500SOL    HW214400   3.745   4.406   6.776
 4501SOL     OW14401   6.102   2.912   2.945
 4501SOL    HW114402   6.047   2.879   3.022
 4501SOL    HW214403   6.194   2.873   2.950
 4502SOL     OW14404   1.160   3.993   6.909
 4502SOL    HW114405   1.234   3.953   6.855
 4502SOL    HW214406   1.156   4.092   6.891
 4503SOL     OW14407   3.006   0.093   2.059
 4503SOL    HW114408   2.974   0.012   2.010
 4503SOL    HW214409   2.969   0.093   2.152
 4504SOL     OW14410   6.260   2.271   4.407
 4504SOL    HW114411   6.179   2.234   4.452
 4504SOL    HW214412   6.234   2.350   4.352
 4505SOL     OW14413   6.609   4.555   1.888
 4505SOL    HW114414   6.701   4.591   1.871
 4505SOL    HW214415   6.555   4.561   1.805
 4506SOL     OW14416   5.269   2.606   3.659
 4506SOL    HW114417   5.358   2.625   3.617
 4506SOL    HW214418   5.281   2.581   3.755
 4507SOL     OW14419   0.371   2.933   3.671
 4507SOL    HW114420   0.373   2.834   3.677
 4507SOL    HW214421   0.365   2.973   3.762
 4508SOL     OW14422   1.490   4.791   6.959
 4508SOL    HW114423   1.421   4.773   6.888
 4508SOL    HW214424   1.562   4.721   6.953
 4509SOL     OW14425   4.893   2.574   3.053
 4509SOL    HW114426   4.950   2.505   3.098
 4509SOL    HW214427   4.817   2.530   3.006
 4510SOL     OW14428   4.406   1.372   4.266
 4510SOL    HW114429   4.479   1.367   4.334
 4510SOL    HW214430   4.384   1.280   4.234
 4511SOL     OW14431   6.048   3.557   0.501
 4511SOL    HW114432   6.022   3.632   0.440
 4511SOL    HW214433   6.106   3.493   0.451
 4512SOL     OW14434   3.507   1.650   5.932
 4512SOL    HW114435   3.435   1.604   5.880
 4512SOL    HW214436   3.505   1.619   6.027
 4513SOL     OW14437   1.000   6.175   6.423
 4513SOL    HW114438   1.005   6.185   6.522
 4513SOL    HW214439   0.905   6.157   6.396
 4514SOL     OW14440   3.625   2.386   6.634
 4514SOL    HW114441   3.702   2.328   6.661
 4514SOL    HW214442   3.617   2.386   6.534
 4515SOL     OW14443   5.473   1.643   4.671
 4515SOL    HW114444   5.538   1.718   4.656
 4515SOL    HW214445   5.497   1.596   4.757
 4516SOL     OW14446   2.269   0.358   5.490
 4516SOL    HW114447   2.291   0.369   5.393
 4516SOL    HW214448   2.203   0.428   5.517
 4517SOL     OW14449   4.413   6.588   6.527
 4517SOL    HW114450   4.379   6.507   6.480
 4517SOL    HW214451   4.402   6.668   6.468
 4518SOL     OW14452   1.153   6.897   1.430
 4518SOL    HW114453   1.056   6.884   1.411
 4518SOL    HW214454   1.202   6.810   1.423
 4519SOL     OW14455   4.972   6.541   6.823
 4519SOL    HW114456   5.060   6.516   6.781
 4519SOL    HW214457   4.898   6.525   6.758
 4520SOL     OW14458   4.417   5.712   5.488
 4520SOL    HW114459   4.387   5.664   5.570
 4520SOL    HW214460   4.460   5.647   5.425
 4521SOL     OW14461   5.091   2.181   5.285
 4521SOL    HW114462   5.115   2.278   5.278
 4521SOL    HW214463   5.172   2.128   5.308
 4522SOL     OW14464   6.161   4.140   2.921
 4522SOL    HW114465   6.132   4.200   2.995
 4522SOL    HW214466   6.115   4.052   2.929
 4523SOL     OW14467   1.774   4.280   6.809
 4523SOL    HW114468   1.766   4.228   6.724
 4523SOL    HW214469   1.705   4.352   6.811
 4524SOL     OW14470   6.667   3.560   2.172
 4524SOL    HW114471   6.697   3.528   2.082
 4524SOL    HW214472   6.732   3.627   2.206
 4525SOL     OW14473   3.281   2.013   5.761
 4525SOL    HW114474   3.313   1.995   5.668
 4525SOL    HW214475   3.187   1.980   5.771
 4526SOL     OW14476   0.105   1.004   0.065
 4526SOL    HW114477   0.135   0.931   0.127
 4526SOL    HW214478   0.184   1.055   0.032
 4527SOL     OW14479   6.657   0.257   2.948
 4527SOL    HW114480   6.732   0.256   2.883
 4527SOL    HW214481   6.578   0.208   2.910
 4528SOL     OW14482   4.427   0.796   6.085
 4528SOL    HW114483   4.402   0.730   6.156
 4528SOL    HW214484   4.344   0.831   6.042
 4529SOL     OW14485   2.995   1.686   5.821
 4529SOL    HW114486   3.025   1.665   5.914
 4529SOL    HW214487   3.063   1.744   5.777
 4530SOL     OW14488   2.389   5.476   3.798
 4530SOL    HW114489   2.413   5.511   3.889
 4530SOL    HW214490   2.324   5.400   3.807
 4531SOL     OW14491   1.398   3.943   6.386
 4531SOL    HW114492   1.446   3.855   6.380
 4531SOL    HW214493   1.301   3.927   6.404
 4532SOL     OW14494   5.221   0.874   3.140
 4532SOL    HW114495   5.128   0.908   3.127
 4532SOL    HW214496   5.278   0.945   3.181
 4533SOL     OW14497   1.723   1.599   3.125
 4533SOL    HW114498   1.642   1.567   3.175
 4533SOL    HW214499   1.805   1.580   3.179
 4534SOL     OW14500   4.392   2.241   5.259
 4534SOL    HW114501   4.355   2.161   5.211
 4534SOL    HW214502   4.477   2.216   5.304
 4535SOL     OW14503   3.426   1.067   1.205
 4535SOL    HW114504   3.489   0.997   1.239
 4535SOL    HW214505   3.404   1.130   1.279
 4536SOL     OW14506   3.176   1.540   5.313
 4536SOL    HW114507   3.131   1.461   5.270
 4536SOL    HW214508   3.106   1.606   5.341
 4537SOL     OW14509   3.903   3.724   2.367
 4537SOL    HW114510   3.809   3.701   2.342
 4537SOL    HW214511   3.942   3.649   2.421
 4538SOL     OW14512   2.266   1.562   2.459
 4538SOL    HW114513   2.314   1.649   2.445
 4538SOL    HW214514   2.209   1.569   2.541
 4539SOL     OW14515   2.253   5.537   4.351
 4539SOL    HW114516   2.284   5.464   4.412
 4539SOL    HW214517   2.328   5.601   4.335
 4540SOL     OW14518   1.314   1.433   0.759
 4540SOL    HW114519   1.382   1.419   0.686
 4540SOL    HW214520   1.241   1.492   0.725
 4541SOL     OW14521   4.475   1.249   6.959
 4541SOL    HW114522   4.569   1.274   6.983
 4541SOL    HW214523   4.413   1.273   0.011
 4542SOL     OW14524   0.006   1.964   1.415
 4542SOL    HW114525   6.963   2.028   1.377
 4542SOL    HW214526   0.018   1.983   1.512
 4543SOL     OW14527   4.562   2.136   0.720
 4543SOL    HW114528   4.562   2.231   0.749
 4543SOL    HW214529   4.634   2.086   0.768
 4544SOL     OW14530   4.129   4.582   0.982
 4544SOL    HW114531   4.154   4.491   0.950
 4544SOL    HW214532   4.089   4.576   1.073
 4545SOL     OW14533   0.464   3.457   5.514
 4545SOL    HW114534   0.370   3.490   5.506
 4545SOL    HW214535   0.466   3.376   5.572
 4546SOL     OW14536   2.910   6.843   5.297
 4546SOL    HW114537   3.001   6.884   5.304
 4546SOL    HW214538   2.873   6.830   5.389
 4547SOL     OW14539   6.408   0.698   0.169
 4547SOL    HW114540   6.396   0.727   0.074
 4547SOL    HW214541   6.328   0.725   0.223
 4548SOL     OW14542   2.495   2.154   3.352
 4548SOL    HW114543   2.583   2.124   3.389
 4548SOL    HW214544   2.467   2.239   3.398
 4549SOL     OW14545   5.066   4.254   2.004
 4549SOL    HW114546   5.019   4.197   1.938
 4549SOL    HW214547   5.065   4.349   1.973
 4550SOL     OW14548   1.287   4.488   3.327
 4550SOL    HW114549   1.224   4.512   3.253
 4550SOL    HW214550   1.313   4.392   3.320
 4551SOL     OW14551   0.682   3.629   5.480
 4551SOL    HW114552   0.618   3.699   5.449
 4551SOL    HW214553   0.632   3.545   5.502
 4552SOL     OW14554   5.820   2.138   1.572
 4552SOL    HW114555   5.791   2.175   1.484
 4552SOL    HW214556   5.904   2.086   1.561
 4553SOL     OW14557   4.938   4.244   6.782
 4553SOL    HW114558   4.920   4.312   6.853
 4553SOL    HW214559   4.998   4.284   6.712
 4554SOL     OW14560   0.208   6.996   1.424
 4554SOL    HW114561   0.277   0.030   1.380
 4554SOL    HW214562   0.188   0.010   1.515
 4555SOL     OW14563   1.356   1.376   6.784
 4555SOL    HW114564   1.394   1.284   6.787
 4555SOL    HW214565   1.423   1.441   6.817
 4556SOL     OW14566   6.115   3.246   5.372
 4556SOL    HW114567   6.042   3.180   5.350
 4556SOL    HW214568   6.098   3.285   5.462
 4557SOL     OW14569   6.069   4.973   4.636
 4557SOL    HW114570   5.988   4.917   4.656
 4557SOL    HW214571   6.106   5.010   4.722
 4558SOL     OW14572   6.714   3.345   5.133
 4558SOL    HW114573   6.782   3.279   5.102
 4558SOL    HW214574   6.758   3.416   5.188
 4559SOL     OW14575   0.575   3.733   2.586
 4559SOL    HW114576   0.489   3.759   2.631
 4559SOL    HW214577   0.565   3.641   2.547
 4560SOL     OW14578   6.295   4.496   2.247
 4560SOL    HW114579   6.216   4.485   2.187
 4560SOL    HW214580   6.271   4.465   2.339
 4561SOL     OW14581   3.706   1.618   3.617
 4561SOL    HW114582   3.662   1.657   3.536
 4561SOL    HW214583   3.719   1.689   3.686
 4562SOL     OW14584   1.661   6.631   0.354
 4562SOL    HW114585   1.679   6.532   0.350
 4562SOL    HW214586   1.714   6.677   0.283
 4563SOL     OW14587   6.720   3.479   1.056
 4563SOL    HW114588   6.704   3.455   1.152
 4563SOL    HW214589   6.706   3.398   0.999
 4564SOL     OW14590   6.949   4.535   2.207
 4564SOL    HW114591   0.009   4.532   2.262
 4564SOL    HW214592   6.879   4.477   2.249
 4565SOL     OW14593   1.600   1.565   4.566
 4565SOL    HW114594   1.687   1.531   4.602
 4565SOL    HW214595   1.616   1.650   4.515
 4566SOL     OW14596   0.573   3.373   0.960
 4566SOL    HW114597   0.632   3.329   1.028
 4566SOL    HW214598   0.605   3.351   0.868
 4567SOL     OW14599   0.114   0.539   6.984
 4567SOL    HW114600   0.051   0.616   6.997
 4567SOL    HW214601   0.077   0.477   6.916
 4568SOL     OW14602   1.148   4.536   5.125
 4568SOL    HW114603   1.235   4.580   5.146
 4568SOL    HW214604   1.165   4.453   5.071
 4569SOL     OW14605   2.857   0.372   2.735
 4569SOL    HW114606   2.903   0.328   2.812
 4569SOL    HW214607   2.889   0.333   2.649
 4570SOL     OW14608   6.533   6.301   2.467
 4570SOL    HW114609   6.448   6.248   2.467
 4570SOL    HW214610   6.611   6.239   2.475
 4571SOL     OW14611   4.036   3.424   6.673
 4571SOL    HW114612   4.007   3.428   6.769
 4571SOL    HW214613   4.095   3.344   6.659
 4572SOL     OW14614   1.813   1.673   6.388
 4572SOL    HW114615   1.812   1.599   6.456
 4572SOL    HW214616   1.726   1.674   6.339
 4573SOL     OW14617   0.860   0.012   0.386
 4573SOL    HW114618   0.949   7.010   0.424
 4573SOL    HW214619   0.805   6.953   0.372
 4574SOL     OW14620   5.883   4.257   6.939
 4574SOL    HW114621   5.819   4.275   7.014
 4574SOL    HW214622   5.848   4.301   6.856
 4575SOL     OW14623   5.865   0.786   4.457
 4575SOL    HW114624   5.936   0.727   4.420
 4575SOL    HW214625   5.789   0.791   4.393
 4576SOL     OW14626   2.594   4.735   5.325
 4576SOL    HW114627   2.620   4.638   5.326
 4576SOL    HW214628   2.510   4.748   5.378
 4577SOL     OW14629   1.518   2.694   3.182
 4577SOL    HW114630   1.612   2.722   3.202
 4577SOL    HW214631   1.460   2.775   3.174
 4578SOL     OW14632   0.833   1.065   4.005
 4578SOL    HW114633   0.831   1.132   4.080
 4578SOL    HW214634   0.918   1.076   3.953
 4579SOL     OW14635   4.839   1.246   1.865
 4579SOL    HW114636   4.938   1.260   1.865
 4579SOL    HW214637   4.809   1.217   1.956
 4580SOL     OW14638   5.506   4.245   0.967
 4580SOL    HW114639   5.452   4.203   0.894
 4580SOL    HW214640   5.462   4.226   1.055
 4581SOL     OW14641   2.429   6.156   2.140
 4581SOL    HW114642   2.362   6.184   2.208
 4581SOL    HW214643   2.457   6.235   2.086
 4582SOL     OW14644   4.664   1.107   3.221
 4582SOL    HW114645   4.629   1.020   3.253
 4582SOL    HW214646   4.588   1.171   3.208
 4583SOL     OW14647   2.487   1.299   6.220
 4583SOL    HW114648   2.540   1.371   6.174
 4583SOL    HW214649   2.506   1.303   6.318
 4584SOL     OW14650   1.829   6.139   5.760
 4584SOL    HW114651   1.736   6.107   5.780
 4584SOL    HW214652   1.888   6.060   5.742
 4585SOL     OW14653   1.694   4.130   3.706
 4585SOL    HW114654   1.678   4.228   3.698
 4585SOL    HW214655   1.792   4.111   3.704
 4586SOL     OW14656   5.562   3.903   0.659
 4586SOL    HW114657   5.553   3.853   0.745
 4586SOL    HW214658   5.578   4.000   0.678
 4587SOL     OW14659   3.769   3.393   4.309
 4587SOL    HW114660   3.863   3.359   4.312
 4587SOL    HW214661   3.749   3.429   4.218
 4588SOL     OW14662   3.211   3.456   5.954
 4588SOL    HW114663   3.115   3.483   5.954
 4588SOL    HW214664   3.218   3.357   5.947
 4589SOL     OW14665   5.729   6.499   1.940
 4589SOL    HW114666   5.778   6.582   1.967
 4589SOL    HW214667   5.794   6.426   1.921
 4590SOL     OW14668   3.669   6.240   1.747
 4590SOL    HW114669   3.732   6.164   1.733
 4590SOL    HW214670   3.601   6.241   1.674
 4591SOL     OW14671   2.017   0.740   4.500
 4591SOL    HW114672   1.969   0.807   4.557
 4591SOL    HW214673   2.116   0.757   4.504
 4592SOL     OW14674   2.712   1.946   3.723
 4592SOL    HW114675   2.688   1.861   3.677
 4592SOL    HW214676   2.676   1.946   3.816
 4593SOL     OW14677   6.254   5.921   2.572
 4593SOL    HW114678   6.340   5.873   2.553
 4593SOL    HW214679   6.222   5.897   2.663
 4594SOL     OW14680   3.167   0.370   3.123
 4594SOL    HW114681   3.174   0.311   3.203
 4594SOL    HW214682   3.185   0.465   3.149
 4595SOL     OW14683   4.418   2.826   6.180
 4595SOL    HW114684   4.409   2.893   6.253
 4595SOL    HW214685   4.344   2.759   6.187
 4596SOL     OW14686   6.642   0.832   2.186
 4596SOL    HW114687   6.561   0.789   2.227
 4596SOL    HW214688   6.699   0.872   2.258
 4597SOL     OW14689   2.762   5.549   6.802
 4597SOL    HW114690   2.822   5.629   6.813
 4597SOL    HW214691   2.704   5.563   6.722
 4598SOL     OW14692   2.162   5.779   1.207
 4598SOL    HW114693   2.226   5.848   1.241
 4598SOL    HW214694   2.146   5.710   1.277
 4599SOL     OW14695   1.475   3.904   2.194
 4599SOL    HW114696   1.397   3.954   2.156
 4599SOL    HW214697   1.450   3.867   2.283
 4600SOL     OW14698   0.582   0.426   5.810
 4600SOL    HW114699   0.531   0.511   5.822
 4600SOL    HW214700   0.637   0.431   5.726
 4601SOL     OW14701   0.900   1.559   5.445
 4601SOL    HW114702   0.806   1.539   5.418
 4601SOL    HW214703   0.961   1.490   5.406
 4602SOL     OW14704   3.010   0.009   6.223
 4602SOL    HW114705   2.979   0.104   6.215
 4602SOL    HW214706   3.106   0.008   6.250
 4603SOL     OW14707   3.556   5.931   0.964
 4603SOL    HW114708   3.599   5.854   0.918
 4603SOL    HW214709   3.486   5.970   0.903
 4604SOL     OW14710   5.240   0.074   5.862
 4604SOL    HW114711   5.173   0.019   5.913
 4604SOL    HW214712   5.303   0.117   5.926
 4605SOL     OW14713   2.388   0.451   1.827
 4605SOL    HW114714   2.299   0.408   1.816
 4605SOL    HW214715   2.409   0.504   1.744
 4606SOL     OW14716   6.692   0.090   2.457
 4606SOL    HW114717   6.654   0.182   2.451
 4606SOL    HW214718   6.619   0.022   2.450
 4607SOL     OW14719   2.090   3.688   3.330
 4607SOL    HW114720   2.129   3.757   3.391
 4607SOL    HW214721   2.064   3.731   3.243
 4608SOL     OW14722   0.565   3.948   3.649
 4608SOL    HW114723   0.475   3.959   3.691
 4608SOL    HW214724   0.627   3.902   3.712
 4609SOL     OW14725   5.089   5.106   6.958
 4609SOL    HW114726   5.076   5.206   6.955
 4609SOL    HW214727   5.047   5.065   6.877
 4610SOL     OW14728   4.729   2.129   6.713
 4610SOL    HW114729   4.638   2.115   6.754
 4610SOL    HW214730   4.799   2.116   6.783
 4611SOL     OW14731   0.490   1.077   5.904
 4611SOL    HW114732   0.517   0.997   5.957
 4611SOL    HW214733   0.462   1.048   5.812
 4612SOL     OW14734   2.440   6.670   1.759
 4612SOL    HW114735   2.353   6.687   1.806
 4612SOL    HW214736   2.499   6.615   1.817
 4613SOL     OW14737   1.302   5.713   2.493
 4613SOL    HW114738   1.392   5.706   2.449
 4613SOL    HW214739   1.231   5.688   2.427
 4614SOL     OW14740   6.264   3.276   3.806
 4614SOL    HW114741   6.199   3.346   3.778
 4614SOL    HW214742   6.238   3.188   3.765
 4615SOL     OW14743   1.350   0.652   1.530
 4615SOL    HW114744   1.280   0.593   1.489
 4615SOL    HW214745   1.375   0.617   1.620
 4616SOL     OW14746   6.157   2.823   4.190
 4616SOL    HW114747   6.085   2.825   4.259
 4616SOL    HW214748   6.115   2.825   4.099
 4617SOL     OW14749   1.415   2.135   2.306
 4617SOL    HW114750   1.404   2.158   2.402
 4617SOL    HW214751   1.348   2.066   2.280
 4618SOL     OW14752   2.693   3.071   5.650
 4618SOL    HW114753   2.682   3.054   5.552
 4618SOL    HW214754   2.684   3.169   5.668
 4619SOL     OW14755   3.582   6.668   3.685
 4619SOL    HW114756   3.499   6.626   3.722
 4619SOL    HW214757   3.617   6.611   3.611
 4620SOL     OW14758   0.628   4.981   1.232
 4620SOL    HW114759   0.608   5.079   1.237
 4620SOL    HW214760   0.678   4.961   1.147
 4621SOL     OW14761   5.288   0.598   2.498
 4621SOL    HW114762   5.317   0.686   2.461
 4621SOL    HW214763   5.235   0.612   2.582
 4622SOL     OW14764   4.324   5.092   1.453
 4622SOL    HW114765   4.271   5.068   1.372
 4622SOL    HW214766   4.376   5.012   1.484
 4623SOL     OW14767   3.634   5.725   0.797
 4623SOL    HW114768   3.602   5.739   0.703
 4623SOL    HW214769   3.734   5.720   0.798
 4624SOL     OW14770   3.459   1.232   3.154
 4624SOL    HW114771   3.501   1.308   3.104
 4624SOL    HW214772   3.370   1.260   3.189
 4625SOL     OW14773   2.208   5.877   1.577
 4625SOL    HW114774   2.150   5.797   1.589
 4625SOL    HW214775   2.151   5.959   1.574
 4626SOL     OW14776   4.353   3.990   1.312
 4626SOL    HW114777   4.390   3.972   1.220
 4626SOL    HW214778   4.332   3.904   1.357
 4627SOL     OW14779   0.550   6.025   5.064
 4627SOL    HW114780   0.462   5.990   5.032
 4627SOL    HW214781   0.616   5.950   5.069
 4628SOL     OW14782   4.943   4.445   4.265
 4628SOL    HW114783   4.950   4.473   4.170
 4628SOL    HW214784   5.015   4.378   4.286
 4629SOL     OW14785   2.554   5.027   6.411
 4629SOL    HW114786   2.569   4.928   6.416
 4629SOL    HW214787   2.470   5.050   6.460
 4630SOL     OW14788   2.277   5.040   2.117
 4630SOL    HW114789   2.371   5.027   2.085
 4630SOL    HW214790   2.279   5.071   2.213
 4631SOL     OW14791   0.806   6.978   3.708
 4631SOL    HW114792   0.842   6.892   3.745
 4631SOL    HW214793   0.840   6.992   3.615
 4632SOL     OW14794   2.364   5.127   2.727
 4632SOL    HW114795   2.361   5.227   2.732
 4632SOL    HW214796   2.280   5.093   2.687
 4633SOL     OW14797   4.653   1.151   4.701
 4633SOL    HW114798   4.684   1.166   4.794
 4633SOL    HW214799   4.732   1.146   4.639
 4634SOL     OW14800   2.914   3.783   4.960
 4634SOL    HW114801   2.866   3.777   5.048
 4634SOL    HW214802   2.939   3.692   4.930
 4635SOL     OW14803   4.490   4.432   1.402
 4635SOL    HW114804   4.461   4.341   1.434
 4635SOL    HW214805   4.582   4.426   1.364
 4636SOL     OW14806   1.942   5.096   0.834
 4636SOL    HW114807   1.868   5.124   0.895
 4636SOL    HW214808   1.906   5.034   0.764
 4637SOL     OW14809   0.709   6.537   0.360
 4637SOL    HW114810   0.620   6.495   0.376
 4637SOL    HW214811   0.769   6.472   0.315
 4638SOL     OW14812   3.581   5.276   6.781
 4638SOL    HW114813   3.513   5.203   6.778
 4638SOL    HW214814   3.659   5.252   6.723
 4639SOL     OW14815   2.529   2.732   6.623
 4639SOL    HW114816   2.575   2.812   6.660
 4639SOL    HW214817   2.502   2.749   6.528
 4640SOL     OW14818   6.383   3.068   4.191
 4640SOL    HW114819   6.470   3.021   4.177
 4640SOL    HW214820   6.334   3.025   4.267
 4641SOL     OW14821   1.999   0.001   3.719
 4641SOL    HW114822   1.967   6.957   3.653
 4641SOL    HW214823   1.921   0.052   3.755
 4642SOL     OW14824   1.631   0.618   3.163
 4642SOL    HW114825   1.637   0.717   3.149
 4642SOL    HW214826   1.654   0.597   3.258
 4643SOL     OW14827   6.660   2.568   0.718
 4643SOL    HW114828   6.686   2.477   0.750
 4643SOL    HW214829   6.588   2.560   0.649
 4644SOL     OW14830   6.831   1.045   5.768
 4644SOL    HW114831   6.786   1.110   5.829
 4644SOL    HW214832   6.916   1.014   5.811
 4645SOL     OW14833   1.359   0.648   4.071
 4645SOL    HW114834   1.325   0.735   4.106
 4645SOL    HW214835   1.457   0.640   4.091
 4646SOL     OW14836   2.857   5.189   4.368
 4646SOL    HW114837   2.911   5.104   4.371
 4646SOL    HW214838   2.805   5.192   4.283
 4647SOL     OW14839   0.921   0.778   3.462
 4647SOL    HW114840   0.926   0.714   3.386
 4647SOL    HW214841   0.903   0.870   3.428
 4648SOL     OW14842   2.887   0.787   4.558
 4648SOL    HW114843   2.947   0.859   4.524
 4648SOL    HW214844   2.930   0.698   4.542
 4649SOL     OW14845   5.570   0.647   1.011
 4649SOL    HW114846   5.611   0.601   0.932
 4649SOL    HW214847   5.521   0.728   0.981
 4650SOL     OW14848   4.482   5.958   1.667
 4650SOL    HW114849   4.516   6.006   1.748
 4650SOL    HW214850   4.480   6.022   1.590
 4651SOL     OW14851   6.093   3.649   6.910
 4651SOL    HW114852   6.090   3.571   6.848
 4651SOL    HW214853   6.060   3.731   6.863
 4652SOL     OW14854   6.072   6.550   4.992
 4652SOL    HW114855   6.171   6.557   4.980
 4652SOL    HW214856   6.051   6.543   5.089
 4653SOL     OW14857   5.009   5.359   0.263
 4653SOL    HW114858   4.922   5.339   0.308
 4653SOL    HW214859   4.993   5.393   0.171
 4654SOL     OW14860   6.958   6.752   5.908
 4654SOL    HW114861   6.901   6.801   5.974
 4654SOL    HW214862   0.020   6.724   5.952
 4655SOL     OW14863   4.802   3.855   1.790
 4655SOL    HW114864   4.823   3.814   1.702
 4655SOL    HW214865   4.834   3.796   1.863
 4656SOL     OW14866   0.870   0.516   1.845
 4656SOL    HW114867   0.878   0.510   1.745
 4656SOL    HW214868   0.782   0.556   1.869
 4657SOL     OW14869   5.452   6.090   2.092
 4657SOL    HW114870   5.541   6.129   2.115
 4657SOL    HW214871   5.387   6.109   2.165
 4658SOL     OW14872   2.796   2.825   5.402
 4658SOL    HW114873   2.859   2.898   5.429
 4658SOL    HW214874   2.847   2.751   5.359
 4659SOL     OW14875   3.442   4.635   0.895
 4659SOL    HW114876   3.365   4.638   0.959
 4659SOL    HW214877   3.522   4.676   0.936
 4660SOL     OW14878   1.339   6.456   3.810
 4660SOL    HW114879   1.249   6.476   3.849
 4660SOL    HW214880   1.359   6.523   3.737
 4661SOL     OW14881   2.625   4.627   5.901
 4661SOL    HW114882   2.655   4.706   5.847
 4661SOL    HW214883   2.592   4.555   5.839
 4662SOL     OW14884   3.036   0.264   5.044
 4662SOL    HW114885   3.102   0.328   5.006
 4662SOL    HW214886   2.954   0.262   4.986
 4663SOL     OW14887   0.400   6.782   0.645
 4663SOL    HW114888   0.500   6.792   0.641
 4663SOL    HW214889   0.359   6.870   0.666
 4664SOL     OW14890   0.124   0.577   0.623
 4664SOL    HW114891   0.220   0.597   0.604
 4664SOL    HW214892   0.079   0.542   0.541
 4665SOL     OW14893   2.590   0.521   6.141
 4665SOL    HW114894   2.578   0.448   6.209
 4665SOL    HW214895   2.641   0.596   6.181
 4666SOL     OW14896   2.234   2.542   6.726
 4666SOL    HW114897   2.316   2.597   6.707
 4666SOL    HW214898   2.155   2.602   6.739
 4667SOL     OW14899   6.922   3.882   1.842
 4667SOL    HW114900   6.970   3.897   1.756
 4667SOL    HW214901   6.845   3.946   1.849
 4668SOL     OW14902   4.223   1.738   5.097
 4668SOL    HW114903   4.225   1.777   5.005
 4668SOL    HW214904   4.143   1.679   5.106
 4669SOL     OW14905   5.554   0.117   6.734
 4669SOL    HW114906   5.474   0.059   6.717
 4669SOL    HW214907   5.598   0.089   6.819
 4670SOL     OW14908   1.331   3.360   7.003
 4670SOL    HW114909   1.423   3.346   0.015
 4670SOL    HW214910   1.293   3.444   0.019
 4671SOL     OW14911   0.940   3.399   0.594
 4671SOL    HW114912   0.998   3.474   0.562
 4671SOL    HW214913   0.986   3.352   0.669
 4672SOL     OW14914   4.187   4.297   5.887
 4672SOL    HW114915   4.092   4.329   5.878
 4672SOL    HW214916   4.194   4.205   5.849
 4673SOL     OW14917   5.267   0.042   0.107
 4673SOL    HW114918   5.304   6.973   0.116
 4673SOL    HW214919   5.172   0.036   0.075
 4674SOL     OW14920   5.670   1.865   0.324
 4674SOL    HW114921   5.690   1.957   0.290
 4674SOL    HW214922   5.648   1.869   0.421
 4675SOL     OW14923   3.651   0.136   6.973
 4675SOL    HW114924   3.671   0.218   0.004
 4675SOL    HW214925   3.556   0.140   6.941
 4676SOL     OW14926   0.562   6.519   4.745
 4676SOL    HW114927   0.464   6.517   4.725
 4676SOL    HW214928   0.578   6.567   4.831
 4677SOL     OW14929   2.927   0.529   0.065
 4677SOL    HW114930   2.860   0.560   7.022
 4677SOL    HW214931   2.881   0.480   0.139
 4678SOL     OW14932   2.087   5.200   2.019
 4678SOL    HW114933   2.158   5.134   2.046
 4678SOL    HW214934   2.045   5.170   1.933
 4679SOL     OW14935   3.810   1.438   6.295
 4679SOL    HW114936   3.807   1.406   6.200
 4679SOL    HW214937   3.883   1.389   6.344
 4680SOL     OW14938   2.404   6.431   1.601
 4680SOL    HW114939   2.387   6.514   1.652
 4680SOL    HW214940   2.452   6.365   1.659
 4681SOL     OW14941   6.279   6.082   4.472
 4681SOL    HW114942   6.324   6.158   4.520
 4681SOL    HW214943   6.240   6.019   4.539
 4682SOL     OW14944   4.379   5.545   6.888
 4682SOL    HW114945   4.393   5.467   6.827
 4682SOL    HW214946   4.420   5.525   6.977
 4683SOL     OW14947   5.165   4.386   2.260
 4683SOL    HW114948   5.113   4.329   2.196
 4683SOL    HW214949   5.161   4.347   2.351
 4684SOL     OW14950   0.495   2.570   4.460
 4684SOL    HW114951   0.517   2.585   4.556
 4684SOL    HW214952   0.397   2.548   4.451
 4685SOL     OW14953   6.445   5.366   4.322
 4685SOL    HW114954   6.395   5.287   4.287
 4685SOL    HW214955   6.484   5.417   4.246
 4686SOL     OW14956   5.121   5.795   0.365
 4686SOL    HW114957   5.170   5.847   0.295
 4686SOL    HW214958   5.172   5.711   0.386
 4687SOL     OW14959   6.502   4.087   4.989
 4687SOL    HW114960   6.549   4.011   4.944
 4687SOL    HW214961   6.501   4.072   5.087
 4688SOL     OW14962   7.008   3.003   6.519
 4688SOL    HW114963   6.939   2.982   6.588
 4688SOL    HW214964   0.033   2.919   6.493
 4689SOL     OW14965   5.947   0.318   6.447
 4689SOL    HW114966   5.918   0.274   6.362
 4689SOL    HW214967   6.018   0.262   6.491
 4690SOL     OW14968   1.013   0.969   6.869
 4690SOL    HW114969   0.984   0.961   6.964
 4690SOL    HW214970   1.067   1.053   6.858
 4691SOL     OW14971   2.839   3.922   1.704
 4691SOL    HW114972   2.745   3.901   1.730
 4691SOL    HW214973   2.853   4.021   1.708
 4692SOL     OW14974   6.778   5.155   2.788
 4692SOL    HW114975   6.733   5.152   2.877
 4692SOL    HW214976   6.739   5.085   2.729
 4693SOL     OW14977   0.578   0.923   4.263
 4693SOL    HW114978   0.545   0.856   4.329
 4693SOL    HW214979   0.530   0.911   4.177
 4694SOL     OW14980   3.049   0.769   0.201
 4694SOL    HW114981   3.039   0.758   0.299
 4694SOL    HW214982   2.991   0.703   0.153
 4695SOL     OW14983   3.229   3.141   1.876
 4695SOL    HW114984   3.233   3.186   1.965
 4695SOL    HW214985   3.226   3.210   1.804
 4696SOL     OW14986   0.946   4.722   6.037
 4696SOL    HW114987   0.894   4.806   6.018
 4696SOL    HW214988   1.025   4.744   6.094
 4697SOL     OW14989   1.742   3.572   0.811
 4697SOL    HW114990   1.644   3.583   0.831
 4697SOL    HW214991   1.753   3.526   0.723
 4698SOL     OW14992   4.786   4.571   2.542
 4698SOL    HW114993   4.810   4.488   2.492
 4698SOL    HW214994   4.859   4.639   2.531
 4699SOL     OW14995   0.919   0.274   2.641
 4699SOL    HW114996   0.876   0.231   2.562
 4699SOL    HW214997   1.016   0.291   2.620
 4700SOL     OW14998   5.364   1.554   1.853
 4700SOL    HW114999   5.399   1.551   1.760
 4700SOL    HW215000   5.419   1.618   1.907
 4701SOL     OW15001   1.252   1.936   0.249
 4701SOL    HW115002   1.156   1.916   0.228
 4701SOL    HW215003   1.296   1.976   0.170
 4702SOL     OW15004   4.308   4.524   6.562
 4702SOL    HW115005   4.309   4.446   6.625
 4702SOL    HW215006   4.348   4.496   6.475
 4703SOL     OW15007   0.457   2.057   2.727
 4703SOL    HW115008   0.504   1.974   2.756
 4703SOL    HW215009   0.503   2.095   2.647
 4704SOL     OW15010   7.022   6.127   1.158
 4704SOL    HW115011   6.966   6.130   1.075
 4704SOL    HW215012   0.055   6.045   1.157
 4705SOL     OW15013   3.019   3.113   3.139
 4705SOL    HW115014   2.940   3.056   3.162
 4705SOL    HW215015   3.069   3.071   3.063
 4706SOL     OW15016   4.288   6.057   6.281
 4706SOL    HW115017   4.285   6.134   6.345
 4706SOL    HW215018   4.226   6.073   6.205
 4707SOL     OW15019   2.448   6.058   0.975
 4707SOL    HW115020   2.463   6.042   0.878
 4707SOL    HW215021   2.536   6.069   1.021
 4708SOL     OW15022   2.600   2.935   0.683
 4708SOL    HW115023   2.550   2.916   0.767
 4708SOL    HW215024   2.569   2.873   0.611
 4709SOL     OW15025   3.901   5.514   5.205
 4709SOL    HW115026   3.898   5.604   5.248
 4709SOL    HW215027   3.940   5.447   5.268
 4710SOL     OW15028   4.173   1.301   6.221
 4710SOL    HW115029   4.164   1.344   6.130
 4710SOL    HW215030   4.270   1.293   6.244
 4711SOL     OW15031   4.756   0.605   2.675
 4711SOL    HW115032   4.743   0.699   2.645
 4711SOL    HW215033   4.834   0.600   2.737
 4712SOL     OW15034   2.395   4.597   0.721
 4712SOL    HW115035   2.472   4.644   0.679
 4712SOL    HW215036   2.316   4.658   0.722
 4713SOL     OW15037   3.010   4.590   0.667
 4713SOL    HW115038   3.095   4.642   0.653
 4713SOL    HW215039   3.003   4.562   0.763
 4714SOL     OW15040   2.180   2.173   0.162
 4714SOL    HW115041   2.274   2.148   0.183
 4714SOL    HW215042   2.121   2.150   0.239
 4715SOL     OW15043   6.373   3.830   2.215
 4715SOL    HW115044   6.351   3.807   2.310
 4715SOL    HW215045   6.414   3.922   2.212
 4716SOL     OW15046   3.565   5.130   6.098
 4716SOL    HW115047   3.541   5.043   6.055
 4716SOL    HW215048   3.485   5.191   6.096
 4717SOL     OW15049   1.328   6.015   2.528
 4717SOL    HW115050   1.367   6.102   2.497
 4717SOL    HW215051   1.289   5.967   2.449
 4718SOL     OW15052   5.609   1.583   6.749
 4718SOL    HW115053   5.705   1.555   6.757
 4718SOL    HW215054   5.597   1.672   6.794
 4719SOL     OW15055   4.864   2.997   2.737
 4719SOL    HW115056   4.803   3.068   2.772
 4719SOL    HW215057   4.895   2.939   2.812
 4720SOL     OW15058   2.529   6.480   5.519
 4720SOL    HW115059   2.600   6.499   5.452
 4720SOL    HW215060   2.537   6.544   5.596
 4721SOL     OW15061   0.174   2.535   1.907
 4721SOL    HW115062   0.203   2.476   1.832
 4721SOL    HW215063   0.197   2.630   1.887
 4722SOL     OW15064   1.587   5.614   6.822
 4722SOL    HW115065   1.666   5.664   6.786
 4722SOL    HW215066   1.507   5.634   6.766
 4723SOL     OW15067   1.663   5.627   6.031
 4723SOL    HW115068   1.653   5.555   5.962
 4723SOL    HW215069   1.722   5.595   6.105
 4724SOL     OW15070   4.533   6.332   2.679
 4724SOL    HW115071   4.550   6.410   2.740
 4724SOL    HW215072   4.546   6.360   2.584
 4725SOL     OW15073   5.319   6.515   3.128
 4725SOL    HW115074   5.311   6.425   3.171
 4725SOL    HW215075   5.413   6.547   3.135
 4726SOL     OW15076   1.309   3.438   6.716
 4726SOL    HW115077   1.353   3.354   6.683
 4726SOL    HW215078   1.363   3.476   6.792
 4727SOL     OW15079   0.120   5.830   6.791
 4727SOL    HW115080   0.043   5.778   6.828
 4727SOL    HW215081   0.172   5.772   6.728
 4728SOL     OW15082   4.915   1.279   0.861
 4728SOL    HW115083   4.951   1.371   0.847
 4728SOL    HW215084   4.934   1.250   0.954
 4729SOL     OW15085   2.319   0.934   2.868
 4729SOL    HW115086   2.373   0.932   2.783
 4729SOL    HW215087   2.374   0.974   2.941
 4730SOL     OW15088   2.342   5.921   5.440
 4730SOL    HW115089   2.247   5.905   5.413
 4730SOL    HW215090   2.366   6.016   5.421
 4731SOL     OW15091   5.670   0.662   5.805
 4731SOL    HW115092   5.633   0.712   5.727
 4731SOL    HW215093   5.720   0.725   5.864
 4732SOL     OW15094   6.695   3.065   6.609
 4732SOL    HW115095   6.663   2.977   6.573
 4732SOL    HW215096   6.623   3.106   6.665
 4733SOL     OW15097   1.207   3.966   3.251
 4733SOL    HW115098   1.145   3.901   3.206
 4733SOL    HW215099   1.247   3.923   3.333
 4734SOL     OW15100   5.426   2.986   6.994
 4734SOL    HW115101   5.518   3.021   6.979
 4734SOL    HW215102   5.369   3.007   6.914
 4735SOL     OW15103   0.993   5.042   3.318
 4735SOL    HW115104   0.924   5.096   3.367
 4735SOL    HW215105   1.031   4.973   3.379
 4736SOL     OW15106   0.317   1.646   6.639
 4736SOL    HW115107   0.260   1.564   6.645
 4736SOL    HW215108   0.413   1.618   6.634
 4737SOL     OW15109   2.426   4.933   2.364
 4737SOL    HW115110   2.369   4.927   2.445
 4737SOL    HW215111   2.395   4.866   2.296
 4738SOL     OW15112   0.667   6.133   2.361
 4738SOL    HW115113   0.617   6.072   2.300
 4738SOL    HW215114   0.765   6.112   2.357
 4739SOL     OW15115   4.343   0.204   2.261
 4739SOL    HW115116   4.317   0.207   2.165
 4739SOL    HW215117   4.361   0.110   2.288
 4740SOL     OW15118   0.542   1.446   2.496
 4740SOL    HW115119   0.626   1.391   2.499
 4740SOL    HW215120   0.566   1.542   2.481
 4741SOL     OW15121   3.609   2.298   1.182
 4741SOL    HW115122   3.561   2.271   1.265
 4741SOL    HW215123   3.671   2.225   1.154
 4742SOL     OW15124   1.961   6.905   6.751
 4742SOL    HW115125   1.896   6.856   6.810
 4742SOL    HW215126   1.985   6.992   6.793
 4743SOL     OW15127   2.088   3.472   3.012
 4743SOL    HW115128   2.050   3.502   2.925
 4743SOL    HW215129   2.128   3.550   3.060
 4744SOL     OW15130   2.010   5.394   0.605
 4744SOL    HW115131   2.070   5.315   0.613
 4744SOL    HW215132   2.060   5.471   0.564
 4745SOL     OW15133   2.846   3.978   0.132
 4745SOL    HW115134   2.798   3.988   0.045
 4745SOL    HW215135   2.910   4.054   0.144
 4746SOL     OW15136   4.036   5.813   3.834
 4746SOL    HW115137   3.941   5.838   3.815
 4746SOL    HW215138   4.079   5.884   3.890
 4747SOL     OW15139   1.154   3.282   0.785
 4747SOL    HW115140   1.195   3.325   0.705
 4747SOL    HW215141   1.202   3.197   0.806
 4748SOL     OW15142   1.668   6.741   1.798
 4748SOL    HW115143   1.642   6.838   1.795
 4748SOL    HW215144   1.763   6.734   1.827
 4749SOL     OW15145   2.051   0.055   6.517
 4749SOL    HW115146   1.963   0.044   6.471
 4749SOL    HW215147   2.056   7.017   6.596
 4750SOL     OW15148   6.498   3.993   5.236
 4750SOL    HW115149   6.494   4.027   5.331
 4750SOL    HW215150   6.558   3.914   5.231
 4751SOL     OW15151   5.027   2.142   2.971
 4751SOL    HW115152   4.948   2.180   3.019
 4751SOL    HW215153   5.099   2.122   3.038
 4752SOL     OW15154   4.286   1.327   0.632
 4752SOL    HW115155   4.249   1.391   0.699
 4752SOL    HW215156   4.278   1.234   0.667
 4753SOL     OW15157   1.336   6.514   4.615
 4753SOL    HW115158   1.300   6.533   4.706
 4753SOL    HW215159   1.418   6.570   4.599
 4754SOL     OW15160   4.521   3.848   6.041
 4754SOL    HW115161   4.464   3.774   6.079
 4754SOL    HW215162   4.615   3.837   6.073
 4755SOL     OW15163   2.172   0.932   0.973
 4755SOL    HW115164   2.118   0.984   1.038
 4755SOL    HW215165   2.128   0.934   0.883
 4756SOL     OW15166   6.799   4.112   6.678
 4756SOL    HW115167   6.822   4.152   6.589
 4756SOL    HW215168   6.861   4.148   6.748
 4757SOL     OW15169   1.482   2.787   1.739
 4757SOL    HW115170   1.561   2.747   1.787
 4757SOL    HW215171   1.451   2.724   1.667
 4758SOL     OW15172   1.149   0.140   3.605
 4758SOL    HW115173   1.121   0.115   3.697
 4758SOL    HW215174   1.194   0.230   3.607
 4759SOL     OW15175   0.508   5.714   0.383
 4759SOL    HW115176   0.449   5.794   0.374
 4759SOL    HW215177   0.601   5.743   0.407
 4760SOL     OW15178   1.258   6.806   0.652
 4760SOL    HW115179   1.171   6.787   0.698
 4760SOL    HW215180   1.309   6.873   0.705
 4761SOL     OW15181   0.100   0.238   0.656
 4761SOL    HW115182   0.067   0.293   0.578
 4761SOL    HW215183   0.023   0.217   0.717
 4762SOL     OW15184   1.690   5.577   1.755
 4762SOL    HW115185   1.781   5.589   1.794
 4762SOL    HW215186   1.681   5.634   1.674
 4763SOL     OW15187   4.839   6.172   2.363
 4763SOL    HW115188   4.764   6.106   2.363
 4763SOL    HW215189   4.814   6.251   2.306
 4764SOL     OW15190   4.771   3.465   5.360
 4764SOL    HW115191   4.739   3.525   5.287
 4764SOL    HW215192   4.871   3.461   5.359
 4765SOL     OW15193   3.592   0.580   5.785
 4765SOL    HW115194   3.632   0.566   5.694
 4765SOL    HW215195   3.638   0.656   5.831
 4766SOL     OW15196   6.192   0.105   4.480
 4766SOL    HW115197   6.179   0.167   4.402
 4766SOL    HW215198   6.124   0.032   4.475
 4767SOL     OW15199   2.248   5.426   5.010
 4767SOL    HW115200   2.321   5.484   5.046
 4767SOL    HW215201   2.204   5.473   4.933
 4768SOL     OW15202   4.686   3.456   6.581
 4768SOL    HW115203   4.598   3.422   6.550
 4768SOL    HW215204   4.679   3.554   6.603
 4769SOL     OW15205   2.730   6.223   0.835
 4769SOL    HW115206   2.707   6.168   0.915
 4769SOL    HW215207   2.708   6.319   0.852
 4770SOL     OW15208   6.798   2.336   5.463
 4770SOL    HW115209   6.860   2.363   5.538
 4770SOL    HW215210   6.852   2.299   5.387
 4771SOL     OW15211   2.218   6.848   5.050
 4771SOL    HW115212   2.122   6.859   5.025
 4771SOL    HW215213   2.224   6.821   5.146
 4772SOL     OW15214   3.076   5.013   0.356
 4772SOL    HW115215   3.141   5.086   0.375
 4772SOL    HW215216   3.077   4.992   0.258
 4773SOL     OW15217   1.339   5.880   4.052
 4773SOL    HW115218   1.333   5.845   4.145
 4773SOL    HW215219   1.434   5.878   4.021
 4774SOL     OW15220   1.544   4.479   0.256
 4774SOL    HW115221   1.467   4.443   0.202
 4774SOL    HW215222   1.630   4.459   0.209
 4775SOL     OW15223   5.237   6.848   4.774
 4775SOL    HW115224   5.281   6.762   4.748
 4775SOL    HW215225   5.147   6.829   4.813
 4776SOL     OW15226   1.542   0.911   4.982
 4776SOL    HW115227   1.579   0.977   5.046
 4776SOL    HW215228   1.615   0.851   4.950
 4777SOL     OW15229   1.666   5.717   0.533
 4777SOL    HW115230   1.650   5.638   0.593
 4777SOL    HW215231   1.647   5.801   0.584
 4778SOL     OW15232   0.769   2.686   4.715
 4778SOL    HW115233   0.758   2.778   4.679
 4778SOL    HW215234   0.824   2.631   4.651
 4779SOL     OW15235   6.026   0.158   4.014
 4779SOL    HW115236   6.029   0.129   3.918
 4779SOL    HW215237   5.959   0.230   4.026
 4780SOL     OW15238   5.727   2.685   5.736
 4780SOL    HW115239   5.654   2.622   5.766
 4780SOL    HW215240   5.755   2.661   5.643
 4781SOL     OW15241   2.559   5.932   2.133
 4781SOL    HW115242   2.524   6.023   2.153
 4781SOL    HW215243   2.512   5.864   2.190
 4782SOL     OW15244   6.027   5.432   5.617
 4782SOL    HW115245   6.082   5.399   5.693
 4782SOL    HW215246   5.942   5.471   5.653
 4783SOL     OW15247   5.936   3.791   0.385
 4783SOL    HW115248   5.883   3.845   0.320
 4783SOL    HW215249   5.896   3.798   0.476
 4784SOL     OW15250   6.319   2.094   6.052
 4784SOL    HW115251   6.402   2.091   5.996
 4784SOL    HW215252   6.240   2.070   5.996
 4785SOL     OW15253   0.273   6.417   2.970
 4785SOL    HW115254   0.179   6.430   3.001
 4785SOL    HW215255   0.275   6.401   2.872
 4786SOL     OW15256   2.852   0.295   0.761
 4786SOL    HW115257   2.777   0.232   0.744
 4786SOL    HW215258   2.929   0.245   0.801
 4787SOL     OW15259   4.745   2.146   4.538
 4787SOL    HW115260   4.717   2.197   4.456
 4787SOL    HW215261   4.782   2.210   4.605
 4788SOL     OW15262   5.952   5.616   0.111
 4788SOL    HW115263   6.026   5.682   0.111
 4788SOL    HW215264   5.884   5.641   0.042
 4789SOL     OW15265   5.028   1.923   2.293
 4789SOL    HW115266   5.077   1.897   2.209
 4789SOL    HW215267   4.969   2.001   2.275
 4790SOL     OW15268   5.440   1.629   5.776
 4790SOL    HW115269   5.461   1.576   5.858
 4790SOL    HW215270   5.448   1.727   5.796
 4791SOL     OW15271   0.127   2.481   0.806
 4791SOL    HW115272   0.220   2.517   0.819
 4791SOL    HW215273   0.070   2.551   0.763
 4792SOL     OW15274   1.668   5.097   4.554
 4792SOL    HW115275   1.760   5.068   4.526
 4792SOL    HW215276   1.618   5.130   4.474
 4793SOL     OW15277   1.081   3.769   6.015
 4793SOL    HW115278   1.050   3.845   6.071
 4793SOL    HW215279   1.138   3.804   5.941
 4794SOL     OW15280   4.631   0.247   4.009
 4794SOL    HW115281   4.569   0.312   3.965
 4794SOL    HW215282   4.686   0.295   4.078
 4795SOL     OW15283   7.016   1.647   4.260
 4795SOL    HW115284   0.047   1.647   4.176
 4795SOL    HW215285   6.928   1.602   4.244
 4796SOL     OW15286   3.666   0.827   5.924
 4796SOL    HW115287   3.710   0.916   5.939
 4796SOL    HW215288   3.732   0.754   5.940
 4797SOL     OW15289   0.168   5.814   4.427
 4797SOL    HW115290   0.205   5.902   4.397
 4797SOL    HW215291   0.222   5.778   4.502
 4798SOL     OW15292   5.748   4.941   5.967
 4798SOL    HW115293   5.760   4.946   5.868
 4798SOL    HW215294   5.833   4.967   6.012
 4799SOL     OW15295   3.420   1.724   6.712
 4799SOL    HW115296   3.376   1.813   6.699
 4799SOL    HW215297   3.350   1.657   6.737
 4800SOL     OW15298   1.822   4.493   0.111
 4800SOL    HW115299   1.850   4.398   0.127
 4800SOL    HW215300   1.902   4.552   0.113
 4801SOL     OW15301   4.382   2.653   0.754
 4801SOL    HW115302   4.465   2.707   0.747
 4801SOL    HW215303   4.401   2.558   0.728
 4802SOL     OW15304   6.918   6.423   1.977
 4802SOL    HW115305   6.842   6.469   2.024
 4802SOL    HW215306   6.993   6.488   1.963
 4803SOL     OW15307   5.579   5.040   0.734
 4803SOL    HW115308   5.631   4.972   0.682
 4803SOL    HW215309   5.571   5.124   0.679
 4804SOL     OW15310   5.191   1.651   0.363
 4804SOL    HW115311   5.100   1.687   0.386
 4804SOL    HW215312   5.254   1.727   0.347
 4805SOL     OW15313   6.641   1.483   2.209
 4805SOL    HW115314   6.618   1.559   2.149
 4805SOL    HW215315   6.733   1.496   2.245
 4806SOL     OW15316   1.292   3.569   3.262
 4806SOL    HW115317   1.355   3.604   3.192
 4806SOL    HW215318   1.203   3.550   3.220
 4807SOL     OW15319   1.596   3.435   6.293
 4807SOL    HW115320   1.632   3.482   6.213
 4807SOL    HW215321   1.496   3.431   6.287
 4808SOL     OW15322   4.066   6.065   0.808
 4808SOL    HW115323   4.031   6.028   0.722
 4808SOL    HW215324   3.990   6.106   0.860
 4809SOL     OW15325   3.682   4.831   1.496
 4809SOL    HW115326   3.762   4.868   1.447
 4809SOL    HW215327   3.712   4.760   1.560
 4810SOL     OW15328   0.819   4.057   4.529
 4810SOL    HW115329   0.881   4.089   4.600
 4810SOL    HW215330   0.840   4.103   4.443
 4811SOL     OW15331   3.865   4.054   4.433
 4811SOL    HW115332   3.941   4.105   4.473
 4811SOL    HW215333   3.780   4.106   4.444
 4812SOL     OW15334   0.901   0.151   1.803
 4812SOL    HW115335   0.960   0.110   1.733
 4812SOL    HW215336   0.958   0.189   1.876
 4813SOL     OW15337   5.632   1.847   6.918
 4813SOL    HW115338   5.543   1.850   6.963
 4813SOL    HW215339   5.703   1.825   6.985
 4814SOL     OW15340   0.030   3.713   2.608
 4814SOL    HW115341   0.006   3.810   2.612
 4814SOL    HW215342   0.034   3.676   2.701
 4815SOL     OW15343   5.048   5.227   2.963
 4815SOL    HW115344   5.140   5.194   2.941
 4815SOL    HW215345   5.045   5.327   2.951
 4816SOL     OW15346   1.894   0.417   1.316
 4816SOL    HW115347   1.801   0.430   1.282
 4816SOL    HW215348   1.895   0.432   1.415
 4817SOL     OW15349   4.099   0.935   1.602
 4817SOL    HW115350   4.076   0.880   1.683
 4817SOL    HW215351   4.043   0.905   1.525
 4818SOL     OW15352   1.963   0.334   4.221
 4818SOL    HW115353   1.877   0.349   4.171
 4818SOL    HW215354   1.983   0.236   4.224
 4819SOL     OW15355   3.079   2.176   1.095
 4819SOL    HW115356   3.105   2.269   1.070
 4819SOL    HW215357   3.066   2.122   1.012
 4820SOL     OW15358   6.667   3.172   0.992
 4820SOL    HW115359   6.699   3.095   0.938
 4820SOL    HW215360   6.575   3.198   0.962
 4821SOL     OW15361   6.500   5.421   1.581
 4821SOL    HW115362   6.459   5.390   1.667
 4821SOL    HW215363   6.469   5.362   1.506
 4822SOL     OW15364   1.783   3.314   3.779
 4822SOL    HW115365   1.815   3.406   3.801
 4822SOL    HW215366   1.847   3.270   3.715
 4823SOL     OW15367   0.294   0.289   3.602
 4823SOL    HW115368   0.293   0.329   3.694
 4823SOL    HW215369   0.332   0.355   3.537
 4824SOL     OW15370   5.469   2.235   3.328
 4824SOL    HW115371   5.530   2.179   3.383
 4824SOL    HW215372   5.516   2.319   3.299
 4825SOL     OW15373   1.603   2.814   4.324
 4825SOL    HW115374   1.606   2.876   4.403
 4825SOL    HW215375   1.637   2.862   4.243
 4826SOL     OW15376   0.247   6.560   0.817
 4826SOL    HW115377   0.231   6.654   0.849
 4826SOL    HW215378   0.165   6.526   0.772
 4827SOL     OW15379   5.067   1.007   1.748
 4827SOL    HW115380   5.011   1.009   1.831
 4827SOL    HW215381   5.040   0.929   1.691
 4828SOL     OW15382   5.803   4.295   1.774
 4828SOL    HW115383   5.752   4.380   1.787
 4828SOL    HW215384   5.835   4.290   1.679
 4829SOL     OW15385   3.811   6.679   6.034
 4829SOL    HW115386   3.787   6.699   6.129
 4829SOL    HW215387   3.783   6.756   5.976
 4830SOL     OW15388   5.104   5.487   3.884
 4830SOL    HW115389   5.194   5.443   3.887
 4830SOL    HW215390   5.036   5.428   3.927
 4831SOL     OW15391   6.871   4.943   5.344
 4831SOL    HW115392   6.856   4.846   5.362
 4831SOL    HW215393   6.787   4.994   5.362
 4832SOL     OW15394   2.870   2.375   5.972
 4832SOL    HW115395   2.795   2.329   6.018
 4832SOL    HW215396   2.894   2.325   5.888
 4833SOL     OW15397   4.835   1.898   3.022
 4833SOL    HW115398   4.749   1.866   2.982
 4833SOL    HW215399   4.857   1.988   2.985
 4834SOL     OW15400   3.963   0.136   0.807
 4834SOL    HW115401   3.967   0.235   0.791
 4834SOL    HW215402   3.894   0.116   0.876
 4835SOL     OW15403   1.681   6.815   6.573
 4835SOL    HW115404   1.640   6.796   6.483
 4835SOL    HW215405   1.778   6.837   6.561
 4836SOL     OW15406   4.416   2.352   3.629
 4836SOL    HW115407   4.317   2.339   3.627
 4836SOL    HW215408   4.461   2.262   3.634
 4837SOL     OW15409   3.385   2.875   1.767
 4837SOL    HW115410   3.455   2.868   1.695
 4837SOL    HW215411   3.333   2.789   1.771
 4838SOL     OW15412   2.934   4.837   2.508
 4838SOL    HW115413   2.927   4.867   2.412
 4838SOL    HW215414   2.870   4.762   2.524
 4839SOL     OW15415   0.617   4.073   5.749
 4839SOL    HW115416   0.698   4.025   5.715
 4839SOL    HW215417   0.535   4.032   5.710
 4840SOL     OW15418   6.589   0.077   6.443
 4840SOL    HW115419   6.635   0.009   6.385
 4840SOL    HW215420   6.634   0.079   6.532
 4841SOL     OW15421   3.391   5.719   2.104
 4841SOL    HW115422   3.433   5.630   2.085
 4841SOL    HW215423   3.440   5.763   2.180
 4842SOL     OW15424   3.509   4.970   1.755
 4842SOL    HW115425   3.504   5.070   1.753
 4842SOL    HW215426   3.469   4.933   1.671
 4843SOL     OW15427   6.154   4.081   0.648
 4843SOL    HW115428   6.136   4.126   0.735
 4843SOL    HW215429   6.075   4.092   0.588
 4844SOL     OW15430   6.964   3.503   6.903
 4844SOL    HW115431   6.883   3.451   6.875
 4844SOL    HW215432   6.935   3.580   6.960
 4845SOL     OW15433   6.723   5.179   4.471
 4845SOL    HW115434   6.761   5.244   4.405
 4845SOL    HW215435   6.658   5.119   4.424
 4846SOL     OW15436   0.259   3.712   1.063
 4846SOL    HW115437   0.216   3.639   1.115
 4846SOL    HW215438   0.296   3.676   0.977
 4847SOL     OW15439   3.625   1.518   5.537
 4847SOL    HW115440   3.690   1.498   5.464
 4847SOL    HW215441   3.670   1.569   5.609
 4848SOL     OW15442   1.716   1.197   4.548
 4848SOL    HW115443   1.807   1.229   4.576
 4848SOL    HW215444   1.651   1.216   4.621
 4849SOL     OW15445   1.799   6.780   0.171
 4849SOL    HW115446   1.796   6.869   0.218
 4849SOL    HW215447   1.806   6.795   0.072
 4850SOL     OW15448   3.928   0.813   1.842
 4850SOL    HW115449   3.971   0.734   1.885
 4850SOL    HW215450   3.858   0.850   1.903
 4851SOL     OW15451   3.756   6.108   5.122
 4851SOL    HW115452   3.656   6.117   5.123
 4851SOL    HW215453   3.787   6.102   5.027
 4852SOL     OW15454   1.403   0.450   6.340
 4852SOL    HW115455   1.481   0.476   6.397
 4852SOL    HW215456   1.430   0.375   6.279
 4853SOL     OW15457   3.453   1.762   2.457
 4853SOL    HW115458   3.549   1.781   2.435
 4853SOL    HW215459   3.448   1.721   2.548
 4854SOL     OW15460   4.662   6.100   2.741
 4854SOL    HW115461   4.655   6.097   2.841
 4854SOL    HW215462   4.629   6.189   2.708
 4855SOL     OW15463   5.759   2.548   2.286
 4855SOL    HW115464   5.784   2.453   2.268
 4855SOL    HW215465   5.842   2.602   2.300
 4856SOL     OW15466   1.922   4.158   2.933
 4856SOL    HW115467   1.833   4.185   2.970
 4856SOL    HW215468   1.951   4.224   2.864
 4857SOL     OW15469   1.479   1.969   5.829
 4857SOL    HW115470   1.432   1.938   5.747
 4857SOL    HW215471   1.517   2.060   5.814
 4858SOL     OW15472   2.053   0.804   4.001
 4858SOL    HW115473   2.121   0.867   4.039
 4858SOL    HW215474   1.992   0.773   4.074
 4859SOL     OW15475   1.055   6.368   4.128
 4859SOL    HW115476   1.112   6.286   4.130
 4859SOL    HW215477   1.010   6.379   4.217
 4860SOL     OW15478   3.741   5.133   2.513
 4860SOL    HW115479   3.684   5.063   2.469
 4860SOL    HW215480   3.828   5.092   2.542
 4861SOL     OW15481   5.285   5.221   0.246
 4861SOL    HW115482   5.321   5.242   0.155
 4861SOL    HW215483   5.187   5.242   0.248
 4862SOL     OW15484   2.005   5.016   3.841
 4862SOL    HW115485   2.094   5.036   3.801
 4862SOL    HW215486   1.939   5.086   3.813
 4863SOL     OW15487   5.473   5.038   0.324
 4863SOL    HW115488   5.439   4.982   0.400
 4863SOL    HW215489   5.404   5.106   0.300
 4864SOL     OW15490   3.367   1.017   4.333
 4864SOL    HW115491   3.334   1.009   4.239
 4864SOL    HW215492   3.308   0.962   4.393
 4865SOL     OW15493   1.612   0.101   5.148
 4865SOL    HW115494   1.655   0.192   5.155
 4865SOL    HW215495   1.599   0.078   5.052
 4866SOL     OW15496   6.313   4.068   1.408
 4866SOL    HW115497   6.219   4.039   1.421
 4866SOL    HW215498   6.362   4.000   1.353
 4867SOL     OW15499   4.418   5.694   2.201
 4867SOL    HW115500   4.517   5.682   2.197
 4867SOL    HW215501   4.395   5.790   2.186
 4868SOL     OW15502   6.725   4.684   2.144
 4868SOL    HW115503   6.702   4.775   2.109
 4868SOL    HW215504   6.823   4.670   2.139
 4869SOL     OW15505   1.805   1.631   0.884
 4869SOL    HW115506   1.858   1.669   0.960
 4869SOL    HW215507   1.824   1.533   0.876
 4870SOL     OW15508   0.351   6.033   1.618
 4870SOL    HW115509   0.434   6.071   1.658
 4870SOL    HW215510   0.376   5.967   1.547
 4871SOL     OW15511   1.028   0.218   3.992
 4871SOL    HW115512   1.037   0.214   4.092
 4871SOL    HW215513   0.981   0.303   3.967
 4872SOL     OW15514   6.553   6.919   3.120
 4872SOL    HW115515   6.581   6.920   3.216
 4872SOL    HW215516   6.584   6.834   3.077
 4873SOL     OW15517   6.622   5.777   4.612
 4873SOL    HW115518   6.660   5.850   4.668
 4873SOL    HW215519   6.697   5.728   4.565
 4874SOL     OW15520   5.167   3.086   2.645
 4874SOL    HW115521   5.208   3.013   2.591
 4874SOL    HW215522   5.068   3.073   2.650
 4875SOL     OW15523   5.659   0.154   0.314
 4875SOL    HW115524   5.625   0.202   0.233
 4875SOL    HW215525   5.584   0.105   0.358
 4876SOL     OW15526   6.876   0.966   3.844
 4876SOL    HW115527   6.908   0.886   3.794
 4876SOL    HW215528   6.882   0.949   3.943
 4877SOL     OW15529   0.665   2.060   5.693
 4877SOL    HW115530   0.762   2.041   5.676
 4877SOL    HW215531   0.609   1.994   5.643
 4878SOL     OW15532   6.733   1.821   1.681
 4878SOL    HW115533   6.680   1.807   1.765
 4878SOL    HW215534   6.830   1.830   1.703
 4879SOL     OW15535   4.500   2.339   1.732
 4879SOL    HW115536   4.407   2.313   1.758
 4879SOL    HW215537   4.540   2.269   1.673
 4880SOL     OW15538   6.208   3.807   0.315
 4880SOL    HW115539   6.186   3.736   0.249
 4880SOL    HW215540   6.128   3.826   0.372
 4881SOL     OW15541   1.843   1.353   6.941
 4881SOL    HW115542   1.930   1.318   6.905
 4881SOL    HW215543   1.862   1.426   7.007
 4882SOL     OW15544   3.917   1.839   5.529
 4882SOL    HW115545   3.885   1.932   5.545
 4882SOL    HW215546   4.013   1.840   5.502
 4883SOL     OW15547   5.321   4.166   0.767
 4883SOL    HW115548   5.304   4.160   0.669
 4883SOL    HW215549   5.291   4.081   0.811
 4884SOL     OW15550   3.586   5.232   1.224
 4884SOL    HW115551   3.587   5.327   1.191
 4884SOL    HW215552   3.646   5.225   1.304
 4885SOL     OW15553   2.352   4.395   1.331
 4885SOL    HW115554   2.351   4.491   1.302
 4885SOL    HW215555   2.365   4.391   1.430
 4886SOL     OW15556   3.000   6.946   1.400
 4886SOL    HW115557   3.043   6.960   1.490
 4886SOL    HW215558   3.030   6.858   1.363
 4887SOL     OW15559   0.568   6.193   1.588
 4887SOL    HW115560   0.629   6.168   1.663
 4887SOL    HW215561   0.566   6.293   1.579
 4888SOL     OW15562   2.514   6.838   2.879
 4888SOL    HW115563   2.566   6.841   2.964
 4888SOL    HW215564   2.545   6.911   2.818
 4889SOL     OW15565   6.719   1.792   5.607
 4889SOL    HW115566   6.635   1.796   5.660
 4889SOL    HW215567   6.700   1.812   5.512
 4890SOL     OW15568   0.407   1.582   5.291
 4890SOL    HW115569   0.357   1.599   5.376
 4890SOL    HW215570   0.346   1.596   5.214
 4891SOL     OW15571   2.891   5.204   0.467
 4891SOL    HW115572   2.947   5.138   0.416
 4891SOL    HW215573   2.798   5.203   0.431
 4892SOL     OW15574   5.417   5.697   2.313
 4892SOL    HW115575   5.440   5.721   2.219
 4892SOL    HW215576   5.422   5.779   2.370
 4893SOL     OW15577   6.376   3.433   1.962
 4893SOL    HW115578   6.405   3.419   1.868
 4893SOL    HW215579   6.289   3.483   1.963
 4894SOL     OW15580   3.448   0.230   2.801
 4894SOL    HW115581   3.385   0.154   2.818
 4894SOL    HW215582   3.492   0.256   2.887
 4895SOL     OW15583   0.833   4.866   3.559
 4895SOL    HW115584   0.749   4.813   3.553
 4895SOL    HW215585   0.816   4.950   3.611
 4896SOL     OW15586   2.313   4.824   2.781
 4896SOL    HW115587   2.314   4.807   2.880
 4896SOL    HW215588   2.401   4.862   2.753
 4897SOL     OW15589   1.860   5.672   5.047
 4897SOL    HW115590   1.786   5.672   4.980
 4897SOL    HW215591   1.834   5.729   5.126
 4898SOL     OW15592   4.031   0.957   5.005
 4898SOL    HW115593   4.089   1.037   5.017
 4898SOL    HW215594   3.983   0.938   5.090
 4899SOL     OW15595   6.285   5.092   3.025
 4899SOL    HW115596   6.261   5.167   3.086
 4899SOL    HW215597   6.239   5.009   3.055
 4900SOL     OW15598   4.094   6.125   6.100
 4900SOL    HW115599   4.008   6.167   6.131
 4900SOL    HW215600   4.120   6.165   6.012
 4901SOL     OW15601   2.053   1.218   5.660
 4901SOL    HW115602   2.146   1.198   5.629
 4901SOL    HW215603   2.015   1.294   5.606
 4902SOL     OW15604   1.062   1.385   5.375
 4902SOL    HW115605   1.027   1.294   5.350
 4902SOL    HW215606   1.148   1.401   5.328
 4903SOL     OW15607   4.601   5.375   0.799
 4903SOL    HW115608   4.649   5.416   0.722
 4903SOL    HW215609   4.524   5.321   0.766
 4904SOL     OW15610   2.093   0.561   5.544
 4904SOL    HW115611   2.007   0.605   5.519
 4904SOL    HW215612   2.122   0.594   5.634
 4905SOL     OW15613   2.170   0.876   3.660
 4905SOL    HW115614   2.072   0.888   3.678
 4905SOL    HW215615   2.216   0.964   3.670
 4906SOL     OW15616   4.481   2.994   6.425
 4906SOL    HW115617   4.529   2.907   6.411
 4906SOL    HW215618   4.497   3.026   6.518
 4907SOL     OW15619   4.686   0.446   1.252
 4907SOL    HW115620   4.708   0.505   1.175
 4907SOL    HW215621   4.765   0.441   1.314
 4908SOL     OW15622   5.132   6.699   0.350
 4908SOL    HW115623   5.059   6.668   0.289
 4908SOL    HW215624   5.094   6.760   0.420
 4909SOL     OW15625   6.727   5.156   3.373
 4909SOL    HW115626   6.807   5.115   3.416
 4909SOL    HW215627   6.755   5.205   3.291
 4910SOL     OW15628   5.512   0.551   4.310
 4910SOL    HW115629   5.577   0.480   4.284
 4910SOL    HW215630   5.550   0.641   4.287
 4911SOL     OW15631   1.819   3.647   3.413
 4911SOL    HW115632   1.800   3.742   3.387
 4911SOL    HW215633   1.910   3.622   3.382
 4912SOL     OW15634   5.491   1.885   5.811
 4912SOL    HW115635   5.425   1.959   5.824
 4912SOL    HW215636   5.583   1.918   5.834
 4913SOL     OW15637   4.611   3.677   5.709
 4913SOL    HW115638   4.561   3.625   5.778
 4913SOL    HW215639   4.556   3.686   5.626
 4914SOL     OW15640   4.495   6.824   5.270
 4914SOL    HW115641   4.540   6.900   5.222
 4914SOL    HW215642   4.404   6.854   5.300
 4915SOL     OW15643   2.947   6.479   5.477
 4915SOL    HW115644   3.043   6.487   5.504
 4915SOL    HW215645   2.942   6.434   5.387
 4916SOL     OW15646   0.432   0.923   4.027
 4916SOL    HW115647   0.467   0.919   3.934
 4916SOL    HW215648   0.335   0.901   4.028
 4917SOL     OW15649   3.970   5.906   0.594
 4917SOL    HW115650   4.055   5.880   0.549
 4917SOL    HW215651   3.940   5.832   0.654
 4918SOL     OW15652   5.958   6.008   2.112
 4918SOL    HW115653   5.979   6.106   2.107
 4918SOL    HW215654   5.989   5.973   2.200
 4919SOL     OW15655   3.329   2.913   2.540
 4919SOL    HW115656   3.252   2.973   2.564
 4919SOL    HW215657   3.390   2.905   2.618
 4920SOL     OW15658   5.705   0.281   4.970
 4920SOL    HW115659   5.722   0.217   4.894
 4920SOL    HW215660   5.790   0.329   4.991
 4921SOL     OW15661   1.683   4.975   0.002
 4921SOL    HW115662   1.618   4.924   6.970
 4921SOL    HW215663   1.643   4.995   0.092
 4922SOL     OW15664   3.184   2.137   4.683
 4922SOL    HW115665   3.119   2.203   4.720
 4922SOL    HW215666   3.135   2.063   4.637
 4923SOL     OW15667   2.638   1.309   2.549
 4923SOL    HW115668   2.553   1.332   2.502
 4923SOL    HW215669   2.687   1.393   2.573
 4924SOL     OW15670   2.493   1.861   4.711
 4924SOL    HW115671   2.418   1.815   4.665
 4924SOL    HW215672   2.541   1.796   4.770
 4925SOL     OW15673   5.085   0.343   2.774
 4925SOL    HW115674   4.998   0.375   2.810
 4925SOL    HW215675   5.082   0.342   2.674
 4926SOL     OW15676   5.725   2.007   1.793
 4926SOL    HW115677   5.784   2.030   1.716
 4926SOL    HW215678   5.651   1.947   1.761
 4927SOL     OW15679   2.946   3.085   5.781
 4927SOL    HW115680   3.008   3.025   5.831
 4927SOL    HW215681   2.866   3.104   5.838
 4928SOL     OW15682   1.276   0.892   6.766
 4928SOL    HW115683   1.192   0.906   6.817
 4928SOL    HW215684   1.260   0.911   6.669
 4929SOL     OW15685   6.883   0.076   3.681
 4929SOL    HW115686   6.838   0.136   3.749
 4929SOL    HW215687   6.977   0.105   3.668
 4930SOL     OW15688   6.040   0.223   2.756
 4930SOL    HW115689   5.965   0.207   2.691
 4930SOL    HW215690   6.091   0.304   2.729
 4931SOL     OW15691   6.386   6.527   1.348
 4931SOL    HW115692   6.345   6.607   1.303
 4931SOL    HW215693   6.342   6.444   1.315
 4932SOL     OW15694   3.787   3.689   3.590
 4932SOL    HW115695   3.710   3.721   3.535
 4932SOL    HW215696   3.863   3.754   3.580
 4933SOL     OW15697   2.245   6.620   2.742
 4933SOL    HW115698   2.253   6.526   2.775
 4933SOL    HW215699   2.165   6.663   2.782
 4934SOL     OW15700   3.812   6.496   2.700
 4934SOL    HW115701   3.811   6.588   2.659
 4934SOL    HW215702   3.739   6.490   2.768
 4935SOL     OW15703   1.562   1.770   6.287
 4935SOL    HW115704   1.570   1.846   6.223
 4935SOL    HW215705   1.489   1.789   6.353
 4936SOL     OW15706   2.610   5.249   0.893
 4936SOL    HW115707   2.627   5.215   0.985
 4936SOL    HW215708   2.687   5.226   0.834
 4937SOL     OW15709   4.880   2.943   5.572
 4937SOL    HW115710   4.831   2.921   5.656
 4937SOL    HW215711   4.851   3.034   5.540
 4938SOL     OW15712   2.775   5.530   6.029
 4938SOL    HW115713   2.851   5.590   6.052
 4938SOL    HW215714   2.690   5.570   6.061
 4939SOL     OW15715   5.605   2.355   4.897
 4939SOL    HW115716   5.630   2.431   4.838
 4939SOL    HW215717   5.606   2.270   4.845
 4940SOL     OW15718   1.366   0.840   4.463
 4940SOL    HW115719   1.427   0.875   4.534
 4940SOL    HW215720   1.346   0.744   4.481
 4941SOL     OW15721   3.678   1.916   6.340
 4941SOL    HW115722   3.672   1.816   6.342
 4941SOL    HW215723   3.600   1.956   6.388
 4942SOL     OW15724   4.817   3.496   5.672
 4942SOL    HW115725   4.744   3.565   5.666
 4942SOL    HW215726   4.806   3.431   5.597
 4943SOL     OW15727   4.001   2.426   0.477
 4943SOL    HW115728   3.955   2.407   0.390
 4943SOL    HW215729   4.065   2.502   0.464
 4944SOL     OW15730   2.081   3.756   3.082
 4944SOL    HW115731   2.023   3.758   3.001
 4944SOL    HW215732   2.134   3.840   3.087
 4945SOL     OW15733   1.098   1.130   3.880
 4945SOL    HW115734   1.061   1.220   3.903
 4945SOL    HW215735   1.131   1.132   3.785
 4946SOL     OW15736   0.602   2.792   1.306
 4946SOL    HW115737   0.609   2.873   1.363
 4946SOL    HW215738   0.694   2.760   1.282
 4947SOL     OW15739   1.497   6.624   1.023
 4947SOL    HW115740   1.405   6.607   1.058
 4947SOL    HW215741   1.498   6.612   0.923
 4948SOL     OW15742   2.310   0.618   2.519
 4948SOL    HW115743   2.221   0.595   2.558
 4948SOL    HW215744   2.296   0.658   2.428
 4949SOL     OW15745   4.716   0.637   5.549
 4949SOL    HW115746   4.640   0.580   5.518
 4949SOL    HW215747   4.723   0.632   5.648
 4950SOL     OW15748   3.199   5.431   3.647
 4950SOL    HW115749   3.154   5.391   3.567
 4950SOL    HW215750   3.297   5.438   3.630
 4951SOL     OW15751   5.190   1.393   4.909
 4951SOL    HW115752   5.190   1.462   4.837
 4951SOL    HW215753   5.103   1.396   4.958
 4952SOL     OW15754   0.374   0.338   5.103
 4952SOL    HW115755   0.389   0.389   5.018
 4952SOL    HW215756   0.308   0.387   5.160
 4953SOL     OW15757   2.412   5.490   1.889
 4953SOL    HW115758   2.459   5.569   1.928
 4953SOL    HW215759   2.389   5.509   1.793
 4954SOL     OW15760   4.498   4.482   6.967
 4954SOL    HW115761   4.400   4.492   6.987
 4954SOL    HW215762   4.546   4.567   6.990
 4955SOL     OW15763   1.816   5.797   6.831
 4955SOL    HW115764   1.853   5.764   6.918
 4955SOL    HW215765   1.891   5.821   6.770
 4956SOL     OW15766   4.035   0.056   5.169
 4956SOL    HW115767   3.948   0.104   5.166
 4956SOL    HW215768   4.028   6.994   5.118
 4957SOL     OW15769   0.144   1.358   3.903
 4957SOL    HW115770   0.051   1.327   3.924
 4957SOL    HW215771   0.180   1.409   3.982
 4958SOL     OW15772   0.526   6.506   6.132
 4958SOL    HW115773   0.465   6.428   6.146
 4958SOL    HW215774   0.505   6.550   6.044
 4959SOL     OW15775   0.512   1.142   0.269
 4959SOL    HW115776   0.435   1.181   0.320
 4959SOL    HW215777   0.478   1.082   0.197
 4960SOL     OW15778   3.253   6.451   4.254
 4960SOL    HW115779   3.169   6.408   4.289
 4960SOL    HW215780   3.309   6.381   4.209
 4961SOL     OW15781   5.505   1.357   5.232
 4961SOL    HW115782   5.557   1.442   5.233
 4961SOL    HW215783   5.417   1.373   5.188
 4962SOL     OW15784   5.732   3.417   1.895
 4962SOL    HW115785   5.775   3.429   1.985
 4962SOL    HW215786   5.664   3.489   1.882
 4963SOL     OW15787   6.183   6.052   1.556
 4963SOL    HW115788   6.262   6.110   1.537
 4963SOL    HW215789   6.196   5.962   1.513
 4964SOL     OW15790   3.491   6.441   2.639
 4964SOL    HW115791   3.564   6.389   2.683
 4964SOL    HW215792   3.492   6.536   2.672
 4965SOL     OW15793   0.510   0.099   5.143
 4965SOL    HW115794   0.456   0.182   5.154
 4965SOL    HW215795   0.582   0.114   5.075
 4966SOL     OW15796   2.083   5.761   4.379
 4966SOL    HW115797   2.079   5.817   4.462
 4966SOL    HW215798   2.169   5.778   4.332
 4967SOL     OW15799   3.675   3.393   6.630
 4967SOL    HW115800   3.771   3.392   6.604
 4967SOL    HW215801   3.667   3.418   6.727
 4968SOL     OW15802   5.444   3.047   3.105
 4968SOL    HW115803   5.419   3.076   3.012
 4968SOL    HW215804   5.535   3.082   3.127
 4969SOL     OW15805   1.877   1.101   2.803
 4969SOL    HW115806   1.808   1.036   2.772
 4969SOL    HW215807   1.902   1.163   2.729
 4970SOL     OW15808   1.192   2.477   4.992
 4970SOL    HW115809   1.163   2.512   5.081
 4970SOL    HW215810   1.291   2.491   4.982
 4971SOL     OW15811   6.251   5.621   3.491
 4971SOL    HW115812   6.318   5.681   3.448
 4971SOL    HW215813   6.272   5.610   3.588
 4972SOL     OW15814   2.627   3.194   0.602
 4972SOL    HW115815   2.557   3.261   0.626
 4972SOL    HW215816   2.609   3.108   0.651
 4973SOL     OW15817   6.772   6.717   1.830
 4973SOL    HW115818   6.748   6.666   1.912
 4973SOL    HW215819   6.744   6.812   1.840
 4974SOL     OW15820   6.220   5.062   1.259
 4974SOL    HW115821   6.312   5.064   1.220
 4974SOL    HW215822   6.204   5.146   1.311
 4975SOL     OW15823   6.061   6.093   1.001
 4975SOL    HW115824   6.034   6.036   0.923
 4975SOL    HW215825   6.110   6.036   1.067
 4976SOL     OW15826   3.274   0.457   3.900
 4976SOL    HW115827   3.226   0.425   3.981
 4976SOL    HW215828   3.351   0.397   3.880
 4977SOL     OW15829   5.163   3.495   0.987
 4977SOL    HW115830   5.249   3.449   1.010
 4977SOL    HW215831   5.146   3.486   0.889
 4978SOL     OW15832   6.872   3.566   5.359
 4978SOL    HW115833   6.808   3.582   5.433
 4978SOL    HW215834   6.932   3.489   5.383
 4979SOL     OW15835   6.721   2.381   5.006
 4979SOL    HW115836   6.794   2.450   5.003
 4979SOL    HW215837   6.726   2.323   4.925
 4980SOL     OW15838   4.128   6.971   2.957
 4980SOL    HW115839   4.047   6.927   2.917
 4980SOL    HW215840   4.194   6.901   2.984
 4981SOL     OW15841   4.676   6.188   5.671
 4981SOL    HW115842   4.648   6.149   5.759
 4981SOL    HW215843   4.632   6.137   5.597
 4982SOL     OW15844   2.207   1.462   6.670
 4982SOL    HW115845   2.282   1.492   6.611
 4982SOL    HW215846   2.139   1.413   6.616
 4983SOL     OW15847   4.960   3.112   4.321
 4983SOL    HW115848   4.969   3.165   4.405
 4983SOL    HW215849   4.916   3.167   4.250
 4984SOL     OW15850   5.318   3.602   4.538
 4984SOL    HW115851   5.360   3.520   4.577
 4984SOL    HW215852   5.238   3.575   4.483
 4985SOL     OW15853   6.185   5.981   4.012
 4985SOL    HW115854   6.205   6.067   4.059
 4985SOL    HW215855   6.251   5.968   3.937
 4986SOL     OW15856   5.973   4.523   2.858
 4986SOL    HW115857   5.963   4.606   2.914
 4986SOL    HW215858   5.950   4.443   2.913
 4987SOL     OW15859   0.778   1.996   1.076
 4987SOL    HW115860   0.790   1.992   0.977
 4987SOL    HW215861   0.680   1.994   1.097
 4988SOL     OW15862   6.905   1.296   3.941
 4988SOL    HW115863   6.831   1.362   3.954
 4988SOL    HW215864   6.881   1.210   3.985
 4989SOL     OW15865   5.275   1.315   1.737
 4989SOL    HW115866   5.302   1.393   1.794
 4989SOL    HW215867   5.209   1.259   1.786
 4990SOL     OW15868   1.061   2.266   6.437
 4990SOL    HW115869   1.104   2.354   6.419
 4990SOL    HW215870   0.966   2.281   6.465
 4991SOL     OW15871   0.734   3.258   4.251
 4991SOL    HW115872   0.763   3.217   4.164
 4991SOL    HW215873   0.811   3.307   4.292
 4992SOL     OW15874   4.162   0.731   4.350
 4992SOL    HW115875   4.127   0.641   4.325
 4992SOL    HW215876   4.089   0.799   4.338
 4993SOL     OW15877   2.428   4.703   3.872
 4993SOL    HW115878   2.484   4.666   3.946
 4993SOL    HW215879   2.450   4.799   3.858
 4994SOL     OW15880   1.467   0.134   2.428
 4994SOL    HW115881   1.373   0.117   2.401
 4994SOL    HW215882   1.504   0.054   2.474
 4995SOL     OW15883   6.956   3.020   6.118
 4995SOL    HW115884   6.874   3.049   6.167
 4995SOL    HW215885   0.013   3.066   6.157
 4996SOL     OW15886   0.473   0.865   1.802
 4996SOL    HW115887   0.499   0.865   1.705
 4996SOL    HW215888   0.398   0.929   1.816
 4997SOL     OW15889   6.780   2.280   2.795
 4997SOL    HW115890   6.863   2.299   2.743
 4997SOL    HW215891   6.783   2.186   2.830
 4998SOL     OW15892   2.161   4.651   5.240
 4998SOL    HW115893   2.180   4.703   5.323
 4998SOL    HW215894   2.075   4.681   5.200
 4999SOL     OW15895   5.114   5.832   1.646
 4999SOL    HW115896   5.129   5.928   1.670
 4999SOL    HW215897   5.047   5.792   1.708
 5000SOL     OW15898   0.698   0.628   4.179
 5000SOL    HW115899   0.762   0.632   4.256
 5000SOL    HW215900   0.709   0.711   4.123
 5001SOL     OW15901   1.860   3.941   6.231
 5001SOL    HW115902   1.886   4.038   6.238
 5001SOL    HW215903   1.930   3.885   6.275
 5002SOL     OW15904   1.308   2.604   3.307
 5002SOL    HW115905   1.277   2.662   3.382
 5002SOL    HW215906   1.398   2.635   3.276
 5003SOL     OW15907   0.579   6.634   3.485
 5003SOL    HW115908   0.540   6.718   3.524
 5003SOL    HW215909   0.518   6.558   3.502
 5004SOL     OW15910   2.691   5.627   5.774
 5004SOL    HW115911   2.763   5.591   5.833
 5004SOL    HW215912   2.637   5.695   5.823
 5005SOL     OW15913   3.578   2.134   0.527
 5005SOL    HW115914   3.613   2.206   0.586
 5005SOL    HW215915   3.634   2.052   0.538
 5006SOL     OW15916   5.904   0.011   5.885
 5006SOL    HW115917   5.921   6.957   5.825
 5006SOL    HW215918   5.991   0.056   5.907
 5007SOL     OW15919   2.904   0.532   5.994
 5007SOL    HW115920   2.901   0.442   5.949
 5007SOL    HW215921   2.813   0.573   5.991
 5008SOL     OW15922   6.108   0.536   3.206
 5008SOL    HW115923   6.066   0.454   3.245
 5008SOL    HW215924   6.046   0.577   3.139
 5009SOL     OW15925   1.659   6.137   1.730
 5009SOL    HW115926   1.696   6.046   1.708
 5009SOL    HW215927   1.562   6.140   1.708
 5010SOL     OW15928   2.983   3.743   4.073
 5010SOL    HW115929   3.034   3.826   4.054
 5010SOL    HW215930   2.958   3.742   4.170
 5011SOL     OW15931   2.091   3.266   2.063
 5011SOL    HW115932   2.108   3.233   2.156
 5011SOL    HW215933   2.121   3.361   2.055
 5012SOL     OW15934   6.329   2.967   5.969
 5012SOL    HW115935   6.323   3.066   5.974
 5012SOL    HW215936   6.239   2.930   5.944
 5013SOL     OW15937   4.403   0.587   6.277
 5013SOL    HW115938   4.452   0.508   6.240
 5013SOL    HW215939   4.404   0.585   6.377
 5014SOL     OW15940   6.450   5.983   0.939
 5014SOL    HW115941   6.367   5.956   0.890
 5014SOL    HW215942   6.492   6.062   0.894
 5015SOL     OW15943   4.496   1.655   4.068
 5015SOL    HW115944   4.570   1.706   4.112
 5015SOL    HW215945   4.412   1.669   4.120
 5016SOL     OW15946   2.275   1.211   2.682
 5016SOL    HW115947   2.268   1.138   2.750
 5016SOL    HW215948   2.349   1.273   2.707
 5017SOL     OW15949   2.232   2.555   0.599
 5017SOL    HW115950   2.256   2.495   0.522
 5017SOL    HW215951   2.227   2.502   0.683
 5018SOL     OW15952   0.516   4.032   2.004
 5018SOL    HW115953   0.585   4.034   1.933
 5018SOL    HW215954   0.557   4.001   2.090
 5019SOL     OW15955   2.046   4.342   0.194
 5019SOL    HW115956   2.059   4.369   0.098
 5019SOL    HW215957   2.106   4.397   0.252
 5020SOL     OW15958   6.216   5.972   5.559
 5020SOL    HW115959   6.222   5.883   5.603
 5020SOL    HW215960   6.140   5.971   5.493
 5021SOL     OW15961   1.017   4.473   6.280
 5021SOL    HW115962   0.936   4.512   6.235
 5021SOL    HW215963   1.054   4.539   6.345
 5022SOL     OW15964   1.878   6.918   0.586
 5022SOL    HW115965   1.949   6.854   0.556
 5022SOL    HW215966   1.819   6.941   0.509
 5023SOL     OW15967   6.330   2.558   1.098
 5023SOL    HW115968   6.298   2.617   1.173
 5023SOL    HW215969   6.254   2.503   1.064
 5024SOL     OW15970   6.771   4.236   2.773
 5024SOL    HW115971   6.737   4.155   2.726
 5024SOL    HW215972   6.716   4.252   2.855
 5025SOL     OW15973   4.641   1.962   2.536
 5025SOL    HW115974   4.677   2.042   2.585
 5025SOL    HW215975   4.585   1.993   2.460
 5026SOL     OW15976   6.236   5.882   5.932
 5026SOL    HW115977   6.154   5.852   5.882
 5026SOL    HW215978   6.209   5.941   6.008
 5027SOL     OW15979   1.021   6.981   3.057
 5027SOL    HW115980   1.101   7.019   3.104
 5027SOL    HW215981   0.949   6.963   3.123
 5028SOL     OW15982   0.578   5.744   1.926
 5028SOL    HW115983   0.518   5.725   1.849
 5028SOL    HW215984   0.667   5.701   1.910
 5029SOL     OW15985   6.993   2.825   2.629
 5029SOL    HW115986   0.018   2.908   2.656
 5029SOL    HW215987   6.894   2.839   2.641
 5030SOL     OW15988   0.000   0.044   0.010
 5030SOL    HW115989   7.008   6.969   0.005
 5030SOL    HW215990   7.000   0.086   6.945
 5031SOL     OW15991   6.030   1.235   4.516
 5031SOL    HW115992   5.956   1.301   4.527
 5031SOL    HW215993   6.013   1.180   4.435
 5032SOL     OW15994   0.997   4.800   0.621
 5032SOL    HW115995   1.087   4.841   0.606
 5032SOL    HW215996   0.996   4.708   0.581
 5033SOL     OW15997   2.801   5.285   5.330
 5033SOL    HW115998   2.843   5.269   5.240
 5033SOL    HW215999   2.732   5.215   5.347
 5034SOL     OW16000   6.596   3.349   1.608
 5034SOL    HW116001   6.501   3.342   1.636
 5034SOL    HW216002   6.635   3.433   1.645
 5035SOL     OW16003   5.414   5.068   0.936
 5035SOL    HW116004   5.478   5.057   0.860
 5035SOL    HW216005   5.414   4.985   0.991
 5036SOL     OW16006   1.494   6.134   6.422
 5036SOL    HW116007   1.430   6.119   6.347
 5036SOL    HW216008   1.568   6.066   6.416
 5037SOL     OW16009   4.238   1.981   3.422
 5037SOL    HW116010   4.247   2.015   3.329
 5037SOL    HW216011   4.326   1.942   3.451
 5038SOL     OW16012   1.613   6.034   5.878
 5038SOL    HW116013   1.517   6.062   5.877
 5038SOL    HW216014   1.619   5.934   5.877
 5039SOL     OW16015   2.183   3.183   4.895
 5039SOL    HW116016   2.174   3.274   4.935
 5039SOL    HW216017   2.256   3.133   4.942
 5040SOL     OW16018   2.533   3.460   6.604
 5040SOL    HW116019   2.620   3.412   6.606
 5040SOL    HW216020   2.522   3.512   6.688
 5041SOL     OW16021   0.720   3.842   1.278
 5041SOL    HW116022   0.816   3.819   1.263
 5041SOL    HW216023   0.685   3.788   1.355
 5042SOL     OW16024   6.424   2.853   6.981
 5042SOL    HW116025   6.432   2.805   6.894
 5042SOL    HW216026   6.330   2.888   6.992
 5043SOL     OW16027   3.755   1.470   5.280
 5043SOL    HW116028   3.801   1.558   5.273
 5043SOL    HW216029   3.733   1.437   5.188
 5044SOL     OW16030   5.986   6.246   3.851
 5044SOL    HW116031   5.972   6.342   3.827
 5044SOL    HW216032   5.934   6.224   3.934
 5045SOL     OW16033   5.374   3.482   0.619
 5045SOL    HW116034   5.415   3.570   0.592
 5045SOL    HW216035   5.440   3.431   0.674
 5046SOL     OW16036   3.366   2.837   5.071
 5046SOL    HW116037   3.355   2.746   5.031
 5046SOL    HW216038   3.413   2.830   5.158
 5047SOL     OW16039   5.946   1.254   2.566
 5047SOL    HW116040   5.969   1.161   2.594
 5047SOL    HW216041   5.927   1.256   2.468
 5048SOL     OW16042   6.579   2.468   2.136
 5048SOL    HW116043   6.495   2.518   2.159
 5048SOL    HW216044   6.564   2.370   2.147
 5049SOL     OW16045   0.224   1.315   3.019
 5049SOL    HW116046   0.197   1.266   2.937
 5049SOL    HW216047   0.251   1.251   3.090
 5050SOL     OW16048   0.149   1.702   1.888
 5050SOL    HW116049   0.217   1.724   1.957
 5050SOL    HW216050   0.169   1.613   1.848
 5051SOL     OW16051   2.929   4.106   1.311
 5051SOL    HW116052   2.885   4.024   1.348
 5051SOL    HW216053   3.026   4.104   1.335
 5052SOL     OW16054   3.649   4.447   0.587
 5052SOL    HW116055   3.705   4.479   0.510
 5052SOL    HW216056   3.709   4.410   0.658
 5053SOL     OW16057   1.971   4.183   2.471
 5053SOL    HW116058   2.032   4.242   2.524
 5053SOL    HW216059   1.885   4.171   2.522
 5054SOL     OW16060   3.648   5.785   5.404
 5054SOL    HW116061   3.690   5.752   5.489
 5054SOL    HW216062   3.593   5.711   5.364
 5055SOL     OW16063   0.357   1.921   4.831
 5055SOL    HW116064   0.384   1.855   4.761
 5055SOL    HW216065   0.392   1.892   4.920
 5056SOL     OW16066   0.123   3.912   6.766
 5056SOL    HW116067   0.148   3.941   6.674
 5056SOL    HW216068   0.026   3.889   6.768
 5057SOL     OW16069   0.984   5.133   2.843
 5057SOL    HW116070   1.020   5.115   2.935
 5057SOL    HW216071   1.014   5.223   2.812
 5058SOL     OW16072   3.585   3.925   7.006
 5058SOL    HW116073   3.544   3.989   6.941
 5058SOL    HW216074   3.565   3.831   6.979
 5059SOL     OW16075   4.462   2.473   4.592
 5059SOL    HW116076   4.545   2.527   4.595
 5059SOL    HW216077   4.435   2.448   4.685
 5060SOL     OW16078   6.757   2.965   5.315
 5060SOL    HW116079   6.666   2.924   5.318
 5060SOL    HW216080   6.770   3.025   5.394
 5061SOL     OW16081   2.878   3.606   4.384
 5061SOL    HW116082   2.915   3.698   4.378
 5061SOL    HW216083   2.868   3.567   4.292
 5062SOL     OW16084   5.074   1.704   2.743
 5062SOL    HW116085   5.069   1.801   2.765
 5062SOL    HW216086   5.167   1.671   2.757
 5063SOL     OW16087   1.269   6.661   1.659
 5063SOL    HW116088   1.296   6.569   1.629
 5063SOL    HW216089   1.303   6.728   1.593
 5064SOL     OW16090   4.601   5.258   1.134
 5064SOL    HW116091   4.569   5.252   1.040
 5064SOL    HW216092   4.596   5.168   1.177
 5065SOL     OW16093   1.401   0.469   3.441
 5065SOL    HW116094   1.376   0.460   3.345
 5065SOL    HW216095   1.486   0.521   3.449
 5066SOL     OW16096   2.283   4.021   2.068
 5066SOL    HW116097   2.325   4.055   1.984
 5066SOL    HW216098   2.239   3.933   2.050
 5067SOL     OW16099   4.018   2.049   1.908
 5067SOL    HW116100   3.921   2.027   1.898
 5067SOL    HW216101   4.072   1.986   1.853
 5068SOL     OW16102   3.292   5.701   0.404
 5068SOL    HW116103   3.349   5.644   0.464
 5068SOL    HW216104   3.281   5.791   0.446
 5069SOL     OW16105   2.084   3.255   5.640
 5069SOL    HW116106   2.143   3.218   5.712
 5069SOL    HW216107   2.053   3.180   5.582
 5070SOL     OW16108   5.745   3.350   4.179
 5070SOL    HW116109   5.779   3.263   4.145
 5070SOL    HW216110   5.806   3.384   4.251
 5071SOL     OW16111   4.089   1.779   3.545
 5071SOL    HW116112   4.115   1.795   3.641
 5071SOL    HW216113   4.128   1.851   3.488
 5072SOL     OW16114   1.514   0.791   0.977
 5072SOL    HW116115   1.445   0.763   0.910
 5072SOL    HW216116   1.468   0.812   1.063
 5073SOL     OW16117   2.120   6.553   2.149
 5073SOL    HW116118   2.090   6.459   2.165
 5073SOL    HW216119   2.158   6.591   2.233
 5074SOL     OW16120   3.642   1.753   1.568
 5074SOL    HW116121   3.661   1.664   1.608
 5074SOL    HW216122   3.548   1.779   1.588
 5075SOL     OW16123   0.912   2.944   0.422
 5075SOL    HW116124   0.991   2.905   0.469
 5075SOL    HW216125   0.942   2.999   0.345
 5076SOL     OW16126   5.356   0.419   6.925
 5076SOL    HW116127   5.410   0.490   6.880
 5076SOL    HW216128   5.268   0.410   6.880
 5077SOL     OW16129   1.797   3.806   5.312
 5077SOL    HW116130   1.889   3.841   5.297
 5077SOL    HW216131   1.751   3.795   5.223
 5078SOL     OW16132   0.542   1.432   4.504
 5078SOL    HW116133   0.543   1.333   4.492
 5078SOL    HW216134   0.455   1.459   4.546
 5079SOL     OW16135   2.132   1.617   5.893
 5079SOL    HW116136   2.055   1.644   5.951
 5079SOL    HW216137   2.175   1.535   5.930
 5080SOL     OW16138   6.324   5.500   5.451
 5080SOL    HW116139   6.245   5.515   5.392
 5080SOL    HW216140   6.295   5.506   5.547
 5081SOL     OW16141   2.569   5.125   5.010
 5081SOL    HW116142   2.552   5.159   5.102
 5081SOL    HW216143   2.588   5.027   5.014
 5082SOL     OW16144   4.658   6.636   0.008
 5082SOL    HW116145   4.624   6.632   0.101
 5082SOL    HW216146   4.595   6.588   6.970
 5083SOL     OW16147   2.972   0.751   1.846
 5083SOL    HW116148   2.999   0.804   1.926
 5083SOL    HW216149   2.935   0.663   1.876
 5084SOL     OW16150   0.725   4.818   4.788
 5084SOL    HW116151   0.699   4.735   4.738
 5084SOL    HW216152   0.825   4.820   4.798
 5085SOL     OW16153   1.157   2.555   5.964
 5085SOL    HW116154   1.113   2.565   6.053
 5085SOL    HW216155   1.234   2.491   5.972
 5086SOL     OW16156   0.600   4.301   2.114
 5086SOL    HW116157   0.699   4.301   2.097
 5086SOL    HW216158   0.582   4.330   2.208
 5087SOL     OW16159   6.809   5.405   2.671
 5087SOL    HW116160   6.787   5.314   2.705
 5087SOL    HW216161   6.791   5.409   2.573
 5088SOL     OW16162   4.204   5.717   2.745
 5088SOL    HW116163   4.303   5.706   2.742
 5088SOL    HW216164   4.180   5.814   2.741
 5089SOL     OW16165   5.814   4.228   4.117
 5089SOL    HW116166   5.820   4.289   4.197
 5089SOL    HW216167   5.868   4.266   4.042
 5090SOL     OW16168   2.017   0.384   3.366
 5090SOL    HW116169   1.985   0.289   3.369
 5090SOL    HW216170   1.939   0.445   3.352
 5091SOL     OW16171   6.533   0.260   0.775
 5091SOL    HW116172   6.556   0.345   0.823
 5091SOL    HW216173   6.510   0.190   0.842
 5092SOL     OW16174   4.044   3.482   4.229
 5092SOL    HW116175   4.076   3.432   4.309
 5092SOL    HW216176   4.012   3.418   4.160
 5093SOL     OW16177   2.348   1.547   1.981
 5093SOL    HW116178   2.396   1.490   2.047
 5093SOL    HW216179   2.258   1.573   2.017
 5094SOL     OW16180   2.045   6.158   6.516
 5094SOL    HW116181   2.007   6.140   6.426
 5094SOL    HW216182   2.135   6.200   6.507
 5095SOL     OW16183   0.161   1.763   3.385
 5095SOL    HW116184   0.147   1.672   3.424
 5095SOL    HW216185   0.227   1.813   3.440
 5096SOL     OW16186   5.852   4.744   6.425
 5096SOL    HW116187   5.803   4.657   6.430
 5096SOL    HW216188   5.917   4.741   6.349
 5097SOL     OW16189   6.615   0.161   0.315
 5097SOL    HW116190   6.542   0.216   0.273
 5097SOL    HW216191   6.630   0.191   0.409
 5098SOL     OW16192   3.847   2.392   1.526
 5098SOL    HW116193   3.795   2.441   1.596
 5098SOL    HW216194   3.906   2.324   1.569
 5099SOL     OW16195   0.287   6.309   1.478
 5099SOL    HW116196   0.313   6.234   1.538
 5099SOL    HW216197   0.311   6.396   1.521
 5100SOL     OW16198   4.391   5.408   2.934
 5100SOL    HW116199   4.318   5.340   2.944
 5100SOL    HW216200   4.369   5.489   2.989
 5101SOL     OW16201   4.096   0.499   4.545
 5101SOL    HW116202   4.034   0.498   4.624
 5101SOL    HW216203   4.135   0.590   4.535
 5102SOL     OW16204   5.050   5.277   4.315
 5102SOL    HW116205   5.007   5.365   4.332
 5102SOL    HW216206   5.143   5.277   4.352
 5103SOL     OW16207   0.778   1.089   4.354
 5103SOL    HW116208   0.761   1.170   4.298
 5103SOL    HW216209   0.700   1.026   4.345
 5104SOL     OW16210   3.232   5.910   2.015
 5104SOL    HW116211   3.286   5.830   2.042
 5104SOL    HW216212   3.284   5.965   1.950
 5105SOL     OW16213   3.172   3.283   0.088
 5105SOL    HW116214   3.231   3.322   0.017
 5105SOL    HW216215   3.179   3.184   0.086
 5106SOL     OW16216   3.713   1.681   1.077
 5106SOL    HW116217   3.802   1.680   1.030
 5106SOL    HW216218   3.647   1.628   1.024
 5107SOL     OW16219   5.530   2.764   1.445
 5107SOL    HW116220   5.602   2.802   1.502
 5107SOL    HW216221   5.530   2.664   1.453
 5108SOL     OW16222   4.375   3.922   5.578
 5108SOL    HW116223   4.427   3.926   5.663
 5108SOL    HW216224   4.331   3.832   5.570
 5109SOL     OW16225   1.247   2.380   0.640
 5109SOL    HW116226   1.308   2.343   0.709
 5109SOL    HW216227   1.184   2.446   0.682
 5110SOL     OW16228   0.315   0.032   6.416
 5110SOL    HW116229   0.347   6.981   6.358
 5110SOL    HW216230   0.242   0.082   6.369
 5111SOL     OW16231   1.078   6.839   4.462
 5111SOL    HW116232   0.982   6.838   4.490
 5111SOL    HW216233   1.135   6.865   4.539
 5112SOL     OW16234   0.183   0.566   2.613
 5112SOL    HW116235   0.250   0.630   2.575
 5112SOL    HW216236   0.125   0.613   2.679
 5113SOL     OW16237   1.567   5.782   1.073
 5113SOL    HW116238   1.573   5.767   1.171
 5113SOL    HW216239   1.629   5.857   1.047
 5114SOL     OW16240   3.791   6.855   0.473
 5114SOL    HW116241   3.722   6.899   0.415
 5114SOL    HW216242   3.836   6.782   0.422
 5115SOL     OW16243   1.790   3.575   1.804
 5115SOL    HW116244   1.885   3.545   1.809
 5115SOL    HW216245   1.786   3.667   1.766
 5116SOL     OW16246   2.304   6.079   6.806
 5116SOL    HW116247   2.398   6.086   6.840
 5116SOL    HW216248   2.291   6.143   6.730
 5117SOL     OW16249   1.103   3.559   3.961
 5117SOL    HW116250   1.198   3.549   3.992
 5117SOL    HW216251   1.044   3.577   4.040
 5118SOL     OW16252   6.232   6.659   0.166
 5118SOL    HW116253   6.318   6.700   0.196
 5118SOL    HW216254   6.235   6.560   0.181
 5119SOL     OW16255   4.965   1.196   1.146
 5119SOL    HW116256   5.047   1.230   1.193
 5119SOL    HW216257   4.885   1.209   1.203
 5120SOL     OW16258   4.942   0.000   5.037
 5120SOL    HW116259   4.994   6.939   5.029
 5120SOL    HW216260   4.973   0.065   4.968
 5121SOL     OW16261   3.500   3.692   0.238
 5121SOL    HW116262   3.540   3.773   0.281
 5121SOL    HW216263   3.405   3.683   0.267
 5122SOL     OW16264   3.800   6.164   2.906
 5122SOL    HW116265   3.733   6.091   2.913
 5122SOL    HW216266   3.890   6.130   2.935
 5123SOL     OW16267   5.794   2.568   3.095
 5123SOL    HW116268   5.886   2.600   3.118
 5123SOL    HW216269   5.753   2.631   3.029
 5124SOL     OW16270   1.965   6.403   3.250
 5124SOL    HW116271   2.043   6.457   3.217
 5124SOL    HW216272   1.988   6.306   3.246
 5125SOL     OW16273   0.183   1.998   2.905
 5125SOL    HW116274   0.178   2.097   2.919
 5125SOL    HW216275   0.278   1.971   2.888
 5126SOL     OW16276   1.231   6.211   0.005
 5126SOL    HW116277   1.190   6.294   6.992
 5126SOL    HW216278   1.315   6.234   0.054
 5127SOL     OW16279   1.288   5.447   0.007
 5127SOL    HW116280   1.218   5.512   6.999
 5127SOL    HW216281   1.365   5.497   0.046
 5128SOL     OW16282   6.878   6.158   0.935
 5128SOL    HW116283   6.788   6.182   0.972
 5128SOL    HW216284   6.891   6.206   0.848
 5129SOL     OW16285   5.170   6.694   1.984
 5129SOL    HW116286   5.081   6.707   1.940
 5129SOL    HW216287   5.181   6.760   2.058
 5130SOL     OW16288   0.107   4.747   2.978
 5130SOL    HW116289   0.133   4.749   2.882
 5130SOL    HW216290   0.165   4.811   3.030
 5131SOL     OW16291   1.423   3.377   4.311
 5131SOL    HW116292   1.512   3.422   4.323
 5131SOL    HW216293   1.432   3.304   4.244
 5132SOL     OW16294   3.938   3.120   6.401
 5132SOL    HW116295   4.033   3.092   6.389
 5132SOL    HW216296   3.933   3.218   6.420
 5133SOL     OW16297   3.531   4.694   0.472
 5133SOL    HW116298   3.565   4.636   0.546
 5133SOL    HW216299   3.448   4.741   0.501
 5134SOL     OW16300   0.344   2.937   1.331
 5134SOL    HW116301   0.431   2.919   1.285
 5134SOL    HW216302   0.337   2.878   1.411
 5135SOL     OW16303   6.305   2.105   5.400
 5135SOL    HW116304   6.217   2.135   5.435
 5135SOL    HW216305   6.292   2.056   5.314
 5136SOL     OW16306   5.438   0.313   5.593
 5136SOL    HW116307   5.412   0.222   5.627
 5136SOL    HW216308   5.389   0.333   5.508
 5137SOL     OW16309   5.639   3.182   6.627
 5137SOL    HW116310   5.598   3.273   6.639
 5137SOL    HW216311   5.728   3.180   6.673
 5138SOL     OW16312   3.574   3.129   6.079
 5138SOL    HW116313   3.532   3.048   6.038
 5138SOL    HW216314   3.510   3.206   6.073
 5139SOL     OW16315   1.033   6.684   3.536
 5139SOL    HW116316   0.989   6.621   3.600
 5139SOL    HW216317   0.971   6.760   3.516
 5140SOL     OW16318   3.017   1.468   0.155
 5140SOL    HW116319   2.955   1.424   0.090
 5140SOL    HW216320   3.091   1.514   0.105
 5141SOL     OW16321   6.229   3.534   0.689
 5141SOL    HW116322   6.148   3.550   0.633
 5141SOL    HW216323   6.235   3.437   0.712
 5142SOL     OW16324   6.003   1.588   4.163
 5142SOL    HW116325   5.984   1.611   4.068
 5142SOL    HW216326   5.920   1.600   4.218
 5143SOL     OW16327   0.671   4.301   3.921
 5143SOL    HW116328   0.675   4.215   3.971
 5143SOL    HW216329   0.665   4.377   3.986
 5144SOL     OW16330   1.612   6.650   6.366
 5144SOL    HW116331   1.552   6.573   6.387
 5144SOL    HW216332   1.658   6.633   6.279
 5145SOL     OW16333   2.877   5.405   6.475
 5145SOL    HW116334   2.883   5.490   6.424
 5145SOL    HW216335   2.969   5.367   6.489
 5146SOL     OW16336   4.417   3.762   6.590
 5146SOL    HW116337   4.456   3.773   6.499
 5146SOL    HW216338   4.490   3.740   6.656
 5147SOL     OW16339   0.118   4.005   1.663
 5147SOL    HW116340   0.197   3.944   1.663
 5147SOL    HW216341   0.140   4.087   1.609
 5148SOL     OW16342   0.389   6.219   1.208
 5148SOL    HW116343   0.344   6.269   1.135
 5148SOL    HW216344   0.360   6.256   1.297
 5149SOL     OW16345   5.940   6.781   4.141
 5149SOL    HW116346   5.965   6.685   4.124
 5149SOL    HW216347   5.841   6.788   4.150
 5150SOL     OW16348   2.001   5.556   3.548
 5150SOL    HW116349   2.068   5.534   3.478
 5150SOL    HW216350   1.932   5.618   3.511
 5151SOL     OW16351   5.172   1.094   0.214
 5151SOL    HW116352   5.227   1.055   0.289
 5151SOL    HW216353   5.169   1.029   0.138
 5152SOL     OW16354   2.033   4.839   6.384
 5152SOL    HW116355   2.102   4.898   6.343
 5152SOL    HW216356   2.027   4.754   6.331
 5153SOL     OW16357   2.484   1.046   6.544
 5153SOL    HW116358   2.501   1.144   6.541
 5153SOL    HW216359   2.528   1.002   6.466
 5154SOL     OW16360   1.886   3.051   6.155
 5154SOL    HW116361   1.804   3.098   6.189
 5154SOL    HW216362   1.869   2.953   6.152
 5155SOL     OW16363   4.436   6.682   2.191
 5155SOL    HW116364   4.337   6.687   2.180
 5155SOL    HW216365   4.480   6.671   2.102
 5156SOL     OW16366   6.987   2.428   6.321
 5156SOL    HW116367   6.970   2.527   6.321
 5156SOL    HW216368   6.900   2.379   6.325
 5157SOL     OW16369   4.930   2.532   3.855
 5157SOL    HW116370   4.905   2.450   3.907
 5157SOL    HW216371   4.952   2.506   3.761
 5158SOL     OW16372   3.373   1.701   1.381
 5158SOL    HW116373   3.444   1.770   1.372
 5158SOL    HW216374   3.371   1.644   1.299
 5159SOL     OW16375   0.804   3.568   5.053
 5159SOL    HW116376   0.843   3.622   4.978
 5159SOL    HW216377   0.713   3.602   5.074
 5160SOL     OW16378   1.140   3.721   4.430
 5160SOL    HW116379   1.201   3.683   4.360
 5160SOL    HW216380   1.191   3.737   4.514
 5161SOL     OW16381   1.108   4.110   5.183
 5161SOL    HW116382   1.207   4.120   5.190
 5161SOL    HW216383   1.067   4.198   5.158
 5162SOL     OW16384   0.469   5.352   4.352
 5162SOL    HW116385   0.376   5.355   4.317
 5162SOL    HW216386   0.496   5.257   4.367
 5163SOL     OW16387   4.043   5.087   1.544
 5163SOL    HW116388   4.010   5.161   1.602
 5163SOL    HW216389   4.139   5.103   1.520
 5164SOL     OW16390   5.893   2.647   5.995
 5164SOL    HW116391   5.848   2.701   5.923
 5164SOL    HW216392   5.989   2.671   6.000
 5165SOL     OW16393   5.755   4.516   4.828
 5165SOL    HW116394   5.676   4.576   4.814
 5165SOL    HW216395   5.741   4.431   4.778
 5166SOL     OW16396   1.749   5.219   1.680
 5166SOL    HW116397   1.821   5.266   1.628
 5166SOL    HW216398   1.676   5.283   1.702
 5167SOL     OW16399   6.071   0.298   5.727
 5167SOL    HW116400   6.046   0.230   5.659
 5167SOL    HW216401   5.989   0.326   5.778
 5168SOL     OW16402   5.046   2.449   3.627
 5168SOL    HW116403   5.114   2.522   3.630
 5168SOL    HW216404   5.081   2.368   3.673
 5169SOL     OW16405   3.307   2.917   6.141
 5169SOL    HW116406   3.323   2.969   6.225
 5169SOL    HW216407   3.391   2.912   6.088
 5170SOL     OW16408   6.912   4.064   6.379
 5170SOL    HW116409   6.819   4.054   6.344
 5170SOL    HW216410   6.940   4.160   6.374
 5171SOL     OW16411   2.363   4.731   4.480
 5171SOL    HW116412   2.406   4.819   4.459
 5171SOL    HW216413   2.401   4.693   4.564
 5172SOL     OW16414   1.195   3.226   1.673
 5172SOL    HW116415   1.178   3.237   1.575
 5172SOL    HW216416   1.273   3.165   1.686
 5173SOL     OW16417   5.898   4.069   6.333
 5173SOL    HW116418   5.897   3.976   6.371
 5173SOL    HW216419   5.804   4.099   6.318
 5174SOL     OW16420   1.871   4.921   4.502
 5174SOL    HW116421   1.854   4.853   4.431
 5174SOL    HW216422   1.871   4.875   4.592
 5175SOL     OW16423   2.519   4.340   6.371
 5175SOL    HW116424   2.534   4.422   6.425
 5175SOL    HW216425   2.447   4.356   6.304
 5176SOL     OW16426   3.911   3.052   0.676
 5176SOL    HW116427   3.937   3.019   0.586
 5176SOL    HW216428   3.822   3.014   0.702
 5177SOL     OW16429   5.279   0.516   5.859
 5177SOL    HW116430   5.229   0.484   5.940
 5177SOL    HW216431   5.368   0.471   5.855
 5178SOL     OW16432   2.445   2.516   0.967
 5178SOL    HW116433   2.532   2.494   0.922
 5178SOL    HW216434   2.377   2.540   0.899
 5179SOL     OW16435   4.910   5.872   5.349
 5179SOL    HW116436   4.900   5.814   5.268
 5179SOL    HW216437   4.947   5.961   5.322
 5180SOL     OW16438   3.099   2.653   6.464
 5180SOL    HW116439   3.053   2.702   6.389
 5180SOL    HW216440   3.031   2.604   6.518
 5181SOL     OW16441   3.962   1.263   2.875
 5181SOL    HW116442   3.959   1.278   2.974
 5181SOL    HW216443   3.929   1.171   2.855
 5182SOL     OW16444   5.505   4.939   1.432
 5182SOL    HW116445   5.584   4.988   1.469
 5182SOL    HW216446   5.422   4.967   1.481
 5183SOL     OW16447   4.451   6.760   1.903
 5183SOL    HW116448   4.367   6.786   1.855
 5183SOL    HW216449   4.474   6.831   1.970
 5184SOL     OW16450   0.886   1.980   3.837
 5184SOL    HW116451   0.825   2.051   3.871
 5184SOL    HW216452   0.839   1.926   3.767
 5185SOL     OW16453   4.540   0.355   3.168
 5185SOL    HW116454   4.506   0.389   3.081
 5185SOL    HW216455   4.622   0.299   3.153
 5186SOL     OW16456   6.247   4.119   0.935
 5186SOL    HW116457   6.202   4.176   1.003
 5186SOL    HW216458   6.338   4.155   0.915
 5187SOL     OW16459   6.431   0.843   3.862
 5187SOL    HW116460   6.503   0.908   3.885
 5187SOL    HW216461   6.465   0.779   3.793
 5188SOL     OW16462   0.188   5.436   0.730
 5188SOL    HW116463   0.166   5.340   0.748
 5188SOL    HW216464   0.276   5.441   0.684
 5189SOL     OW16465   4.550   5.184   0.325
 5189SOL    HW116466   4.594   5.258   0.376
 5189SOL    HW216467   4.451   5.201   0.320
 5190SOL     OW16468   1.011   2.076   4.577
 5190SOL    HW116469   0.966   1.990   4.554
 5190SOL    HW216470   0.956   2.153   4.544
 5191SOL     OW16471   3.602   1.169   1.646
 5191SOL    HW116472   3.512   1.126   1.655
 5191SOL    HW216473   3.656   1.151   1.728
 5192SOL     OW16474   4.719   5.766   2.523
 5192SOL    HW116475   4.708   5.779   2.622
 5192SOL    HW216476   4.817   5.763   2.501
 5193SOL     OW16477   4.597   4.333   3.826
 5193SOL    HW116478   4.597   4.292   3.917
 5193SOL    HW216479   4.578   4.431   3.833
 5194SOL     OW16480   5.153   0.352   6.037
 5194SOL    HW116481   5.235   0.383   6.085
 5194SOL    HW216482   5.127   0.261   6.070
 5195SOL     OW16483   6.412   6.648   4.617
 5195SOL    HW116484   6.323   6.677   4.583
 5195SOL    HW216485   6.444   6.570   4.563
 5196SOL     OW16486   0.922   3.970   1.479
 5196SOL    HW116487   0.971   3.912   1.544
 5196SOL    HW216488   0.986   4.003   1.410
 5197SOL     OW16489   1.845   6.286   3.922
 5197SOL    HW116490   1.791   6.326   3.848
 5197SOL    HW216491   1.941   6.314   3.911
 5198SOL     OW16492   2.883   0.218   4.451
 5198SOL    HW116493   2.951   0.147   4.433
 5198SOL    HW216494   2.915   0.277   4.526
 5199SOL     OW16495   2.400   5.278   1.256
 5199SOL    HW116496   2.303   5.271   1.280
 5199SOL    HW216497   2.416   5.361   1.202
 5200SOL     OW16498   0.982   2.380   4.815
 5200SOL    HW116499   1.066   2.412   4.859
 5200SOL    HW216500   0.964   2.436   4.734
 5201SOL     OW16501   5.571   5.594   4.732
 5201SOL    HW116502   5.503   5.579   4.660
 5201SOL    HW216503   5.661   5.564   4.699
 5202SOL     OW16504   5.456   3.311   0.027
 5202SOL    HW116505   5.407   3.320   6.964
 5202SOL    HW216506   5.410   3.363   0.098
 5203SOL     OW16507   1.598   0.450   5.896
 5203SOL    HW116508   1.607   0.402   5.808
 5203SOL    HW216509   1.675   0.426   5.955
 5204SOL     OW16510   2.946   6.789   6.920
 5204SOL    HW116511   2.999   6.866   6.956
 5204SOL    HW216512   2.958   6.710   6.980
 5205SOL     OW16513   6.944   5.515   0.022
 5205SOL    HW116514   6.972   5.422   0.046
 5205SOL    HW216515   6.847   5.515   7.022
 5206SOL     OW16516   0.790   4.678   5.412
 5206SOL    HW116517   0.800   4.660   5.509
 5206SOL    HW216518   0.833   4.766   5.390
 5207SOL     OW16519   6.936   0.103   4.165
 5207SOL    HW116520   6.852   0.050   4.154
 5207SOL    HW216521   6.914   0.200   4.172
 5208SOL     OW16522   4.631   2.732   6.980
 5208SOL    HW116523   4.589   2.656   6.932
 5208SOL    HW216524   4.608   2.727   0.054
 5209SOL     OW16525   4.929   7.008   2.812
 5209SOL    HW116526   4.930   7.020   2.912
 5209SOL    HW216527   4.879   0.061   2.771
 5210SOL     OW16528   5.328   4.216   1.172
 5210SOL    HW116529   5.311   4.300   1.119
 5210SOL    HW216530   5.240   4.177   1.200
 5211SOL     OW16531   4.983   2.023   4.463
 5211SOL    HW116532   5.028   2.023   4.553
 5211SOL    HW216533   4.894   2.068   4.470
 5212SOL     OW16534   1.265   1.957   0.597
 5212SOL    HW116535   1.242   1.955   0.694
 5212SOL    HW216536   1.199   2.014   0.548
 5213SOL     OW16537   3.851   3.675   1.899
 5213SOL    HW116538   3.856   3.577   1.922
 5213SOL    HW216539   3.936   3.719   1.927
 5214SOL     OW16540   4.894   4.428   6.207
 5214SOL    HW116541   4.887   4.421   6.108
 5214SOL    HW216542   4.965   4.495   6.231
 5215SOL     OW16543   6.919   3.245   4.119
 5215SOL    HW116544   7.003   3.286   4.153
 5215SOL    HW216545   6.889   3.294   4.037
 5216SOL     OW16546   5.197   5.532   1.081
 5216SOL    HW116547   5.255   5.463   1.037
 5216SOL    HW216548   5.116   5.486   1.120
 5217SOL     OW16549   3.554   5.501   3.924
 5217SOL    HW116550   3.533   5.409   3.891
 5217SOL    HW216551   3.508   5.568   3.867
 5218SOL     OW16552   0.472   1.332   0.861
 5218SOL    HW116553   0.384   1.306   0.822
 5218SOL    HW216554   0.498   1.423   0.827
 5219SOL     OW16555   3.505   1.491   4.600
 5219SOL    HW116556   3.406   1.475   4.599
 5219SOL    HW216557   3.546   1.446   4.520
 5220SOL     OW16558   1.576   5.008   2.929
 5220SOL    HW116559   1.648   5.075   2.912
 5220SOL    HW216560   1.552   4.961   2.844
 5221SOL     OW16561   6.980   0.274   1.492
 5221SOL    HW116562   6.930   0.357   1.517
 5221SOL    HW216563   6.929   0.194   1.523
 5222SOL     OW16564   4.019   5.295   1.713
 5222SOL    HW116565   4.099   5.296   1.772
 5222SOL    HW216566   3.947   5.352   1.753
 5223SOL     OW16567   0.232   2.304   1.069
 5223SOL    HW116568   0.296   2.379   1.053
 5223SOL    HW216569   0.142   2.342   1.093
 5224SOL     OW16570   0.928   1.820   4.437
 5224SOL    HW116571   1.016   1.808   4.392
 5224SOL    HW216572   0.856   1.831   4.369
 5225SOL     OW16573   6.601   1.552   4.442
 5225SOL    HW116574   6.586   1.651   4.434
 5225SOL    HW216575   6.515   1.506   4.463
 5226SOL     OW16576   0.059   5.520   3.473
 5226SOL    HW116577   0.039   5.457   3.548
 5226SOL    HW216578   0.028   5.481   3.387
 5227SOL     OW16579   0.319   4.113   5.901
 5227SOL    HW116580   0.240   4.137   5.957
 5227SOL    HW216581   0.315   4.163   5.815
 5228SOL     OW16582   1.379   2.587   6.968
 5228SOL    HW116583   1.352   2.624   0.034
 5228SOL    HW216584   1.364   2.656   6.897
 5229SOL     OW16585   3.659   5.901   6.460
 5229SOL    HW116586   3.600   5.932   6.386
 5229SOL    HW216587   3.613   5.828   6.512
 5230SOL     OW16588   0.003   0.522   2.395
 5230SOL    HW116589   6.965   0.447   2.370
 5230SOL    HW216590   0.041   0.505   2.486
 5231SOL     OW16591   5.421   1.657   3.567
 5231SOL    HW116592   5.394   1.748   3.538
 5231SOL    HW216593   5.488   1.619   3.502
 5232SOL     OW16594   1.710   3.838   5.986
 5232SOL    HW116595   1.734   3.857   6.081
 5232SOL    HW216596   1.793   3.825   5.932
 5233SOL     OW16597   3.421   1.030   2.189
 5233SOL    HW116598   3.437   1.069   2.280
 5233SOL    HW216599   3.328   1.051   2.160
 5234SOL     OW16600   2.469   3.543   0.299
 5234SOL    HW116601   2.496   3.462   0.247
 5234SOL    HW216602   2.545   3.571   0.358
 5235SOL     OW16603   2.211   2.366   0.403
 5235SOL    HW116604   2.125   2.315   0.401
 5235SOL    HW216605   2.274   2.327   0.335
 5236SOL     OW16606   2.825   5.019   1.970
 5236SOL    HW116607   2.837   5.109   1.929
 5236SOL    HW216608   2.871   4.950   1.913
 5237SOL     OW16609   2.211   1.666   4.526
 5237SOL    HW116610   2.120   1.627   4.513
 5237SOL    HW216611   2.279   1.606   4.483
 5238SOL     OW16612   1.089   4.495   2.068
 5238SOL    HW116613   1.101   4.520   1.972
 5238SOL    HW216614   1.130   4.566   2.126
 5239SOL     OW16615   3.832   4.106   1.156
 5239SOL    HW116616   3.859   4.010   1.159
 5239SOL    HW216617   3.740   4.113   1.116
 5240SOL     OW16618   2.687   2.680   5.651
 5240SOL    HW116619   2.679   2.767   5.603
 5240SOL    HW216620   2.782   2.651   5.652
 5241SOL     OW16621   1.265   6.196   2.190
 5241SOL    HW116622   1.341   6.182   2.127
 5241SOL    HW216623   1.299   6.224   2.279
 5242SOL     OW16624   5.218   0.472   1.575
 5242SOL    HW116625   5.198   0.503   1.482
 5242SOL    HW216626   5.307   0.509   1.605
 5243SOL     OW16627   2.019   6.280   1.656
 5243SOL    HW116628   2.070   6.340   1.595
 5243SOL    HW216629   2.073   6.263   1.739
 5244SOL     OW16630   4.748   3.421   0.380
 5244SOL    HW116631   4.769   3.356   0.307
 5244SOL    HW216632   4.735   3.371   0.466
 5245SOL     OW16633   3.956   4.104   0.374
 5245SOL    HW116634   3.870   4.090   0.422
 5245SOL    HW216635   4.017   4.027   0.391
 5246SOL     OW16636   6.533   2.367   2.622
 5246SOL    HW116637   6.596   2.326   2.557
 5246SOL    HW216638   6.534   2.466   2.612
 5247SOL     OW16639   3.752   1.207   5.375
 5247SOL    HW116640   3.707   1.179   5.460
 5247SOL    HW216641   3.757   1.307   5.371
 5248SOL     OW16642   6.772   2.026   2.912
 5248SOL    HW116643   6.784   1.978   2.825
 5248SOL    HW216644   6.849   2.003   2.973
 5249SOL     OW16645   1.407   5.132   6.837
 5249SOL    HW116646   1.324   5.172   6.797
 5249SOL    HW216647   1.451   5.200   6.897
 5250SOL     OW16648   1.949   5.755   0.393
 5250SOL    HW116649   1.931   5.847   0.359
 5250SOL    HW216650   1.866   5.718   0.434
 5251SOL     OW16651   0.790   4.614   1.141
 5251SOL    HW116652   0.855   4.554   1.186
 5251SOL    HW216653   0.837   4.698   1.113
 5252SOL     OW16654   2.796   0.015   2.247
 5252SOL    HW116655   2.736   0.065   2.184
 5252SOL    HW216656   2.765   6.944   2.255
 5253SOL     OW16657   6.025   4.598   5.159
 5253SOL    HW116658   6.021   4.501   5.137
 5253SOL    HW216659   5.947   4.622   5.217
 5254SOL     OW16660   5.668   0.577   3.601
 5254SOL    HW116661   5.590   0.551   3.544
 5254SOL    HW216662   5.662   0.529   3.688
 5255SOL     OW16663   5.260   2.301   4.564
 5255SOL    HW116664   5.164   2.274   4.566
 5255SOL    HW216665   5.316   2.225   4.532
 5256SOL     OW16666   5.043   1.580   3.293
 5256SOL    HW116667   5.084   1.555   3.380
 5256SOL    HW216668   4.949   1.546   3.289
 5257SOL     OW16669   4.675   0.197   0.526
 5257SOL    HW116670   4.724   0.284   0.518
 5257SOL    HW216671   4.592   0.201   0.470
 5258SOL     OW16672   5.715   1.988   2.698
 5258SOL    HW116673   5.800   1.958   2.741
 5258SOL    HW216674   5.671   2.058   2.754
 5259SOL     OW16675   4.866   5.429   2.625
 5259SOL    HW116676   4.878   5.517   2.670
 5259SOL    HW216677   4.777   5.426   2.580
 5260SOL     OW16678   3.309   5.163   0.121
 5260SOL    HW116679   3.216   5.127   0.113
 5260SOL    HW216680   3.309   5.240   0.186
 5261SOL     OW16681   0.197   4.555   0.439
 5261SOL    HW116682   0.189   4.457   0.420
 5261SOL    HW216683   0.272   4.594   0.385
 5262SOL     OW16684   2.498   0.850   3.081
 5262SOL    HW116685   2.463   0.943   3.093
 5262SOL    HW216686   2.473   0.794   3.160
 5263SOL     OW16687   1.970   1.312   2.973
 5263SOL    HW116688   1.958   1.400   2.927
 5263SOL    HW216689   1.970   1.238   2.906
 5264SOL     OW16690   6.484   1.928   2.196
 5264SOL    HW116691   6.515   1.891   2.109
 5264SOL    HW216692   6.537   1.888   2.271
 5265SOL     OW16693   5.739   3.147   4.524
 5265SOL    HW116694   5.804   3.072   4.513
 5265SOL    HW216695   5.786   3.234   4.508
 5266SOL     OW16696   2.265   6.720   1.514
 5266SOL    HW116697   2.195   6.669   1.565
 5266SOL    HW216698   2.247   6.712   1.416
 5267SOL     OW16699   4.670   2.194   4.877
 5267SOL    HW116700   4.734   2.249   4.824
 5267SOL    HW216701   4.715   2.164   4.962
 5268SOL     OW16702   5.028   0.652   6.789
 5268SOL    HW116703   5.128   0.650   6.795
 5268SOL    HW216704   4.994   0.734   6.835
 5269SOL     OW16705   0.661   6.597   2.511
 5269SOL    HW116706   0.681   6.565   2.604
 5269SOL    HW216707   0.611   6.526   2.461
 5270SOL     OW16708   5.467   1.561   1.052
 5270SOL    HW116709   5.427   1.592   1.138
 5270SOL    HW216710   5.549   1.507   1.070
 5271SOL     OW16711   6.409   4.586   5.212
 5271SOL    HW116712   6.455   4.525   5.277
 5271SOL    HW216713   6.336   4.536   5.166
 5272SOL     OW16714   3.775   6.077   0.936
 5272SOL    HW116715   3.703   6.011   0.959
 5272SOL    HW216716   3.814   6.114   1.020
 5273SOL     OW16717   0.828   3.271   2.564
 5273SOL    HW116718   0.882   3.207   2.619
 5273SOL    HW216719   0.731   3.252   2.578
 5274SOL     OW16720   5.237   6.445   2.706
 5274SOL    HW116721   5.167   6.517   2.702
 5274SOL    HW216722   5.322   6.483   2.742
 5275SOL     OW16723   2.766   1.140   1.134
 5275SOL    HW116724   2.734   1.052   1.100
 5275SOL    HW216725   2.861   1.132   1.165
 5276SOL     OW16726   2.365   0.561   2.101
 5276SOL    HW116727   2.452   0.585   2.145
 5276SOL    HW216728   2.381   0.542   2.004
 5277SOL     OW16729   2.754   0.900   2.499
 5277SOL    HW116730   2.736   0.998   2.497
 5277SOL    HW216731   2.685   0.854   2.556
 5278SOL     OW16732   4.831   4.576   3.702
 5278SOL    HW116733   4.894   4.499   3.696
 5278SOL    HW216734   4.841   4.634   3.621
 5279SOL     OW16735   2.409   5.535   1.139
 5279SOL    HW116736   2.416   5.632   1.162
 5279SOL    HW216737   2.432   5.522   1.043
 5280SOL     OW16738   2.859   6.143   4.636
 5280SOL    HW116739   2.873   6.045   4.622
 5280SOL    HW216740   2.761   6.161   4.646
 5281SOL     OW16741   6.798   2.074   2.257
 5281SOL    HW116742   6.883   2.118   2.229
 5281SOL    HW216743   6.818   1.999   2.320
 5282SOL     OW16744   2.407   1.289   3.356
 5282SOL    HW116745   2.389   1.200   3.399
 5282SOL    HW216746   2.497   1.323   3.386
 5283SOL     OW16747   5.328   6.333   1.462
 5283SOL    HW116748   5.416   6.375   1.484
 5283SOL    HW216749   5.323   6.242   1.503
 5284SOL     OW16750   5.607   4.473   2.490
 5284SOL    HW116751   5.528   4.454   2.431
 5284SOL    HW216752   5.575   4.498   2.581
 5285SOL     OW16753   3.400   5.110   3.838
 5285SOL    HW116754   3.465   5.061   3.896
 5285SOL    HW216755   3.317   5.131   3.890
 5286SOL     OW16756   2.447   4.132   1.277
 5286SOL    HW116757   2.396   4.074   1.214
 5286SOL    HW216758   2.407   4.224   1.277
 5287SOL     OW16759   2.792   1.819   0.461
 5287SOL    HW116760   2.711   1.779   0.504
 5287SOL    HW216761   2.870   1.758   0.475
 5288SOL     OW16762   4.022   0.498   1.359
 5288SOL    HW116763   4.118   0.472   1.344
 5288SOL    HW216764   4.017   0.595   1.382
 5289SOL     OW16765   0.843   5.304   0.308
 5289SOL    HW116766   0.878   5.349   0.226
 5289SOL    HW216767   0.867   5.207   0.307
 5290SOL     OW16768   3.277   5.810   6.556
 5290SOL    HW116769   3.196   5.800   6.615
 5290SOL    HW216770   3.356   5.769   6.601
 5291SOL     OW16771   2.354   5.452   5.998
 5291SOL    HW116772   2.381   5.380   5.934
 5291SOL    HW216773   2.317   5.411   6.081
 5292SOL     OW16774   5.661   3.507   6.984
 5292SOL    HW116775   5.571   3.463   6.989
 5292SOL    HW216776   5.676   3.561   0.043
 5293SOL     OW16777   1.076   0.816   4.799
 5293SOL    HW116778   1.077   0.911   4.766
 5293SOL    HW216779   1.024   0.812   4.885
 5294SOL     OW16780   5.546   2.831   6.616
 5294SOL    HW116781   5.513   2.891   6.689
 5294SOL    HW216782   5.594   2.885   6.547
 5295SOL     OW16783   5.173   1.126   2.886
 5295SOL    HW116784   5.266   1.092   2.903
 5295SOL    HW216785   5.178   1.215   2.841
 5296SOL     OW16786   2.049   4.659   0.072
 5296SOL    HW116787   2.146   4.655   0.099
 5296SOL    HW216788   2.025   4.754   0.051
 5297SOL     OW16789   2.262   1.807   0.853
 5297SOL    HW116790   2.210   1.873   0.906
 5297SOL    HW216791   2.207   1.723   0.842
 5298SOL     OW16792   6.635   4.970   2.037
 5298SOL    HW116793   6.571   4.896   2.018
 5298SOL    HW216794   6.615   5.047   1.975
 5299SOL     OW16795   2.615   1.011   1.734
 5299SOL    HW116796   2.682   1.037   1.665
 5299SOL    HW216797   2.529   1.059   1.718
 5300SOL     OW16798   0.296   5.627   3.362
 5300SOL    HW116799   0.320   5.587   3.274
 5300SOL    HW216800   0.207   5.591   3.392
 5301SOL     OW16801   4.268   1.601   0.072
 5301SOL    HW116802   4.256   1.698   0.095
 5301SOL    HW216803   4.362   1.573   0.095
 5302SOL     OW16804   6.973   4.490   3.010
 5302SOL    HW116805   7.014   4.576   2.978
 5302SOL    HW216806   6.873   4.497   3.006
 5303SOL     OW16807   6.411   4.732   4.026
 5303SOL    HW116808   6.460   4.752   4.111
 5303SOL    HW216809   6.336   4.668   4.046
 5304SOL     OW16810   4.782   2.170   5.942
 5304SOL    HW116811   4.825   2.256   5.918
 5304SOL    HW216812   4.685   2.186   5.963
 5305SOL     OW16813   2.234   0.505   4.199
 5305SOL    HW116814   2.237   0.534   4.103
 5305SOL    HW216815   2.148   0.457   4.216
 5306SOL     OW16816   2.368   6.274   5.668
 5306SOL    HW116817   2.424   6.355   5.654
 5306SOL    HW216818   2.293   6.296   5.732
 5307SOL     OW16819   4.471   6.759   6.323
 5307SOL    HW116820   4.543   6.714   6.270
 5307SOL    HW216821   4.502   6.849   6.353
 5308SOL     OW16822   6.947   0.285   3.874
 5308SOL    HW116823   6.922   0.323   3.963
 5308SOL    HW216824   7.014   0.212   3.886
 5309SOL     OW16825   3.657   3.529   3.790
 5309SOL    HW116826   3.678   3.436   3.759
 5309SOL    HW216827   3.679   3.593   3.717
 5310SOL     OW16828   5.519   2.494   1.470
 5310SOL    HW116829   5.460   2.444   1.407
 5310SOL    HW216830   5.545   2.434   1.546
 5311SOL     OW16831   2.577   5.543   0.051
 5311SOL    HW116832   2.648   5.493   0.101
 5311SOL    HW216833   2.618   5.620   0.002
 5312SOL     OW16834   1.301   4.673   2.425
 5312SOL    HW116835   1.395   4.644   2.408
 5312SOL    HW216836   1.250   4.675   2.339
 5313SOL     OW16837   1.053   5.755   6.465
 5313SOL    HW116838   0.958   5.784   6.455
 5313SOL    HW216839   1.082   5.707   6.383
 5314SOL     OW16840   4.524   5.467   0.112
 5314SOL    HW116841   4.496   5.468   0.208
 5314SOL    HW216842   4.565   5.378   0.090
 5315SOL     OW16843   5.607   4.075   1.852
 5315SOL    HW116844   5.663   4.145   1.806
 5315SOL    HW216845   5.666   4.015   1.905
 5316SOL     OW16846   0.160   4.926   4.613
 5316SOL    HW116847   0.205   4.848   4.570
 5316SOL    HW216848   0.172   4.921   4.712
 5317SOL     OW16849   5.740   0.674   2.611
 5317SOL    HW116850   5.723   0.765   2.649
 5317SOL    HW216851   5.663   0.614   2.631
 5318SOL     OW16852   0.126   2.852   4.755
 5318SOL    HW116853   0.169   2.772   4.794
 5318SOL    HW216854   0.121   2.842   4.655
 5319SOL     OW16855   5.666   0.037   6.973
 5319SOL    HW116856   5.684   6.983   0.011
 5319SOL    HW216857   5.590   0.091   7.009
 5320SOL     OW16858   5.275   3.555   0.181
 5320SOL    HW116859   5.278   3.646   0.222
 5320SOL    HW216860   5.217   3.556   0.099
 5321SOL     OW16861   2.054   5.574   5.464
 5321SOL    HW116862   2.015   5.499   5.517
 5321SOL    HW216863   2.153   5.565   5.462
 5322SOL     OW16864   4.408   5.843   6.182
 5322SOL    HW116865   4.380   5.924   6.234
 5322SOL    HW216866   4.351   5.836   6.100
 5323SOL     OW16867   3.837   1.878   0.017
 5323SOL    HW116868   3.853   1.925   0.103
 5323SOL    HW216869   3.745   1.900   7.007
 5324SOL     OW16870   3.874   3.318   1.379
 5324SOL    HW116871   3.871   3.415   1.402
 5324SOL    HW216872   3.824   3.302   1.294
 5325SOL     OW16873   4.854   6.510   2.296
 5325SOL    HW116874   4.824   6.604   2.279
 5325SOL    HW216875   4.788   6.446   2.257
 5326SOL     OW16876   6.894   5.583   1.744
 5326SOL    HW116877   6.852   5.550   1.659
 5326SOL    HW216878   6.972   5.525   1.768
 5327SOL     OW16879   6.703   6.440   4.560
 5327SOL    HW116880   6.749   6.518   4.602
 5327SOL    HW216881   6.635   6.473   4.495
 5328SOL     OW16882   3.858   3.750   6.789
 5328SOL    HW116883   3.839   3.764   6.886
 5328SOL    HW216884   3.916   3.825   6.756
 5329SOL     OW16885   0.731   4.565   0.695
 5329SOL    HW116886   0.775   4.512   0.768
 5329SOL    HW216887   0.643   4.522   0.671
 5330SOL     OW16888   3.545   3.889   1.040
 5330SOL    HW116889   3.464   3.927   1.086
 5330SOL    HW216890   3.515   3.826   0.969
 5331SOL     OW16891   4.258   1.795   0.500
 5331SOL    HW116892   4.343   1.743   0.513
 5331SOL    HW216893   4.280   1.891   0.483
 5332SOL     OW16894   6.320   5.466   0.918
 5332SOL    HW116895   6.269   5.552   0.924
 5332SOL    HW216896   6.411   5.479   0.959
 5333SOL     OW16897   1.751   1.339   3.675
 5333SOL    HW116898   1.849   1.349   3.659
 5333SOL    HW216899   1.700   1.384   3.602
 5334SOL     OW16900   4.569   4.373   3.393
 5334SOL    HW116901   4.513   4.352   3.473
 5334SOL    HW216902   4.538   4.460   3.354
 5335SOL     OW16903   0.203   4.831   1.530
 5335SOL    HW116904   0.285   4.871   1.569
 5335SOL    HW216905   0.228   4.750   1.476
 5336SOL     OW16906   2.079   2.025   4.194
 5336SOL    HW116907   2.145   2.086   4.240
 5336SOL    HW216908   2.113   2.002   4.103
 5337SOL     OW16909   6.681   4.637   1.326
 5337SOL    HW116910   6.713   4.619   1.233
 5337SOL    HW216911   6.739   4.588   1.391
 5338SOL     OW16912   6.324   3.024   0.239
 5338SOL    HW116913   6.368   2.944   0.281
 5338SOL    HW216914   6.376   3.106   0.261
 5339SOL     OW16915   6.272   2.416   2.725
 5339SOL    HW116916   6.362   2.412   2.681
 5339SOL    HW216917   6.235   2.323   2.734
 5340SOL     OW16918   5.537   2.889   2.283
 5340SOL    HW116919   5.536   2.789   2.287
 5340SOL    HW216920   5.538   2.926   2.376
 5341SOL     OW16921   4.884   4.768   3.467
 5341SOL    HW116922   4.920   4.732   3.381
 5341SOL    HW216923   4.793   4.805   3.451
 5342SOL     OW16924   6.114   0.078   5.364
 5342SOL    HW116925   6.034   0.134   5.387
 5342SOL    HW216926   6.174   0.128   5.302
 5343SOL     OW16927   3.968   3.623   5.399
 5343SOL    HW116928   3.942   3.711   5.439
 5343SOL    HW216929   4.015   3.639   5.312
 5344SOL     OW16930   0.417   1.590   6.961
 5344SOL    HW116931   0.447   1.586   0.033
 5344SOL    HW216932   0.489   1.630   6.904
 5345SOL     OW16933   5.470   1.022   6.962
 5345SOL    HW116934   5.467   1.121   6.948
 5345SOL    HW216935   5.552   0.998   7.013
 5346SOL     OW16936   2.668   5.320   3.755
 5346SOL    HW116937   2.689   5.222   3.750
 5346SOL    HW216938   2.578   5.332   3.796
 5347SOL     OW16939   6.293   2.302   4.007
 5347SOL    HW116940   6.222   2.335   4.070
 5347SOL    HW216941   6.302   2.367   3.931
 5348SOL     OW16942   5.350   1.992   4.173
 5348SOL    HW116943   5.255   2.016   4.152
 5348SOL    HW216944   5.370   1.901   4.137
 5349SOL     OW16945   1.185   2.815   1.625
 5349SOL    HW116946   1.227   2.891   1.576
 5349SOL    HW216947   1.085   2.821   1.616
 5350SOL     OW16948   1.758   6.533   5.777
 5350SOL    HW116949   1.755   6.628   5.806
 5350SOL    HW216950   1.788   6.475   5.853
 5351SOL     OW16951   0.451   5.313   1.830
 5351SOL    HW116952   0.407   5.341   1.916
 5351SOL    HW216953   0.543   5.279   1.849
 5352SOL     OW16954   1.582   4.081   3.946
 5352SOL    HW116955   1.643   4.067   3.868
 5352SOL    HW216956   1.499   4.128   3.915
 5353SOL     OW16957   4.606   5.305   3.361
 5353SOL    HW116958   4.510   5.290   3.335
 5353SOL    HW216959   4.651   5.359   3.291
 5354SOL     OW16960   4.004   5.495   0.586
 5354SOL    HW116961   3.952   5.433   0.644
 5354SOL    HW216962   4.101   5.493   0.612
 5355SOL     OW16963   5.194   4.948   5.492
 5355SOL    HW116964   5.136   5.012   5.441
 5355SOL    HW216965   5.136   4.881   5.539
 5356SOL     OW16966   0.255   4.583   1.395
 5356SOL    HW116967   0.169   4.532   1.399
 5356SOL    HW216968   0.294   4.575   1.303
 5357SOL     OW16969   4.421   5.077   1.785
 5357SOL    HW116970   4.419   4.981   1.760
 5357SOL    HW216971   4.328   5.108   1.805
 5358SOL     OW16972   4.331   1.300   0.160
 5358SOL    HW116973   4.282   1.386   0.143
 5358SOL    HW216974   4.265   1.230   0.188
 5359SOL     OW16975   1.746   2.054   0.357
 5359SOL    HW116976   1.739   1.989   0.433
 5359SOL    HW216977   1.658   2.101   0.346
 5360SOL     OW16978   5.672   4.652   4.006
 5360SOL    HW116979   5.740   4.642   3.933
 5360SOL    HW216980   5.589   4.603   3.980
 5361SOL     OW16981   3.353   6.485   2.413
 5361SOL    HW116982   3.374   6.577   2.379
 5361SOL    HW216983   3.393   6.473   2.504
 5362SOL     OW16984   5.018   0.020   2.099
 5362SOL    HW116985   5.029   0.113   2.135
 5362SOL    HW216986   4.922   7.016   2.105
 5363SOL     OW16987   5.929   5.642   4.946
 5363SOL    HW116988   5.851   5.704   4.936
 5363SOL    HW216989   5.967   5.651   5.038
 5364SOL     OW16990   4.939   0.704   3.045
 5364SOL    HW116991   4.858   0.647   3.060
 5364SOL    HW216992   4.913   0.791   3.005
 5365SOL     OW16993   2.881   3.491   4.142
 5365SOL    HW116994   2.820   3.422   4.102
 5365SOL    HW216995   2.921   3.546   4.068
 5366SOL     OW16996   6.337   6.992   1.622
 5366SOL    HW116997   6.382   7.000   1.533
 5366SOL    HW216998   6.405   6.967   1.692
 5367SOL     OW16999   6.903   6.443   0.817
 5367SOL    HW117000   6.875   6.432   0.721
 5367SOL    HW217001   6.826   6.420   0.877
 5368SOL     OW17002   6.370   5.787   3.316
 5368SOL    HW117003   6.467   5.811   3.323
 5368SOL    HW217004   6.357   5.725   3.239
 5369SOL     OW17005   2.885   5.321   1.940
 5369SOL    HW117006   2.838   5.308   1.853
 5369SOL    HW217007   2.980   5.349   1.924
 5370SOL     OW17008   3.189   4.064   1.405
 5370SOL    HW117009   3.279   4.100   1.431
 5370SOL    HW217010   3.192   3.964   1.404
 5371SOL     OW17011   0.130   5.368   5.533
 5371SOL    HW117012   0.096   5.274   5.535
 5371SOL    HW217013   0.105   5.414   5.618
 5372SOL     OW17014   0.855   0.607   2.699
 5372SOL    HW117015   0.946   0.633   2.730
 5372SOL    HW217016   0.861   0.526   2.640
 5373SOL     OW17017   4.259   6.825   5.687
 5373SOL    HW117018   4.159   6.830   5.680
 5373SOL    HW217019   4.284   6.747   5.744
 5374SOL     OW17020   2.864   5.187   1.289
 5374SOL    HW117021   2.925   5.213   1.214
 5374SOL    HW217022   2.770   5.185   1.256
 5375SOL     OW17023   0.714   5.806   5.053
 5375SOL    HW117024   0.797   5.804   4.997
 5375SOL    HW217025   0.674   5.715   5.056
 5376SOL     OW17026   1.615   1.572   0.440
 5376SOL    HW117027   1.698   1.623   0.465
 5376SOL    HW217028   1.546   1.637   0.407
 5377SOL     OW17029   2.160   0.752   2.978
 5377SOL    HW117030   2.236   0.810   2.949
 5377SOL    HW217031   2.086   0.809   3.013
 5378SOL     OW17032   5.807   0.733   1.167
 5378SOL    HW117033   5.734   0.698   1.109
 5378SOL    HW217034   5.785   0.825   1.197
 5379SOL     OW17035   0.501   2.980   5.924
 5379SOL    HW117036   0.520   2.979   6.023
 5379SOL    HW217037   0.579   2.939   5.876
 5380SOL     OW17038   4.864   6.860   1.578
 5380SOL    HW117039   4.818   6.948   1.589
 5380SOL    HW217040   4.963   6.874   1.574
 5381SOL     OW17041   5.160   6.696   3.048
 5381SOL    HW117042   5.223   6.620   3.067
 5381SOL    HW217043   5.183   6.736   2.959
 5382SOL     OW17044   4.000   1.758   2.398
 5382SOL    HW117045   3.956   1.690   2.340
 5382SOL    HW217046   4.003   1.724   2.492
 5383SOL     OW17047   1.491   3.185   4.114
 5383SOL    HW117048   1.500   3.211   4.017
 5383SOL    HW217049   1.537   3.097   4.128
 5384SOL     OW17050   4.597   5.903   5.564
 5384SOL    HW117051   4.639   5.862   5.645
 5384SOL    HW217052   4.536   5.837   5.520
 5385SOL     OW17053   6.037   2.830   5.540
 5385SOL    HW117054   5.974   2.773   5.489
 5385SOL    HW217055   6.130   2.816   5.506
 5386SOL     OW17056   6.589   4.181   3.790
 5386SOL    HW117057   6.596   4.114   3.716
 5386SOL    HW217058   6.511   4.241   3.774
 5387SOL     OW17059   2.079   1.154   2.144
 5387SOL    HW117060   2.086   1.118   2.237
 5387SOL    HW217061   2.168   1.144   2.098
 5388SOL     OW17062   0.876   6.905   2.561
 5388SOL    HW117063   0.806   6.848   2.519
 5388SOL    HW217064   0.879   6.888   2.660
 5389SOL     OW17065   4.679   1.844   4.163
 5389SOL    HW117066   4.776   1.859   4.178
 5389SOL    HW217067   4.631   1.932   4.162
 5390SOL     OW17068   6.464   3.622   3.699
 5390SOL    HW117069   6.510   3.584   3.618
 5390SOL    HW217070   6.372   3.652   3.674
 5391SOL     OW17071   2.078   2.529   0.252
 5391SOL    HW117072   2.136   2.514   0.172
 5391SOL    HW217073   2.108   2.471   0.327
 5392SOL     OW17074   5.121   1.585   3.578
 5392SOL    HW117075   5.109   1.673   3.625
 5392SOL    HW217076   5.211   1.581   3.537
 5393SOL     OW17077   4.021   1.098   5.631
 5393SOL    HW117078   4.050   1.129   5.541
 5393SOL    HW217079   4.008   0.999   5.630
 5394SOL     OW17080   2.385   0.348   0.649
 5394SOL    HW117081   2.412   0.253   0.661
 5394SOL    HW217082   2.377   0.368   0.551
 5395SOL     OW17083   4.974   2.290   1.402
 5395SOL    HW117084   4.962   2.312   1.305
 5395SOL    HW217085   4.916   2.350   1.457
 5396SOL     OW17086   6.008   5.635   2.738
 5396SOL    HW117087   5.957   5.701   2.684
 5396SOL    HW217088   6.032   5.556   2.681
 5397SOL     OW17089   6.327   1.271   2.978
 5397SOL    HW117090   6.307   1.188   2.925
 5397SOL    HW217091   6.320   1.351   2.918
 5398SOL     OW17092   4.839   2.455   3.412
 5398SOL    HW117093   4.780   2.534   3.396
 5398SOL    HW217094   4.905   2.476   3.485
 5399SOL     OW17095   1.770   6.741   5.302
 5399SOL    HW117096   1.687   6.769   5.350
 5399SOL    HW217097   1.827   6.822   5.283
 5400SOL     OW17098   3.529   3.379   1.426
 5400SOL    HW117099   3.568   3.408   1.513
 5400SOL    HW217100   3.503   3.459   1.372
 5401SOL     OW17101   5.839   4.476   2.356
 5401SOL    HW117102   5.756   4.475   2.412
 5401SOL    HW217103   5.814   4.493   2.260
 5402SOL     OW17104   2.209   0.146   0.953
 5402SOL    HW117105   2.200   0.104   1.043
 5402SOL    HW217106   2.221   0.245   0.963
 5403SOL     OW17107   4.821   3.262   0.164
 5403SOL    HW117108   4.844   3.165   0.162
 5403SOL    HW217109   4.904   3.316   0.151
 5404SOL     OW17110   6.437   1.093   0.817
 5404SOL    HW117111   6.470   1.079   0.910
 5404SOL    HW217112   6.514   1.121   0.759
 5405SOL     OW17113   5.195   5.551   6.967
 5405SOL    HW117114   5.205   5.535   0.041
 5405SOL    HW217115   5.237   5.476   6.916
 5406SOL     OW17116   2.828   0.067   4.113
 5406SOL    HW117117   2.885   0.090   4.034
 5406SOL    HW217118   2.810   0.149   4.167
 5407SOL     OW17119   2.476   0.778   1.433
 5407SOL    HW117120   2.399   0.832   1.399
 5407SOL    HW217121   2.556   0.837   1.444
 5408SOL     OW17122   2.497   2.599   4.819
 5408SOL    HW117123   2.420   2.537   4.831
 5408SOL    HW217124   2.524   2.600   4.722
 5409SOL     OW17125   0.878   2.404   1.262
 5409SOL    HW117126   0.913   2.360   1.179
 5409SOL    HW217127   0.784   2.375   1.278
 5410SOL     OW17128   0.888   1.997   0.817
 5410SOL    HW117129   0.890   2.095   0.797
 5410SOL    HW217130   0.912   1.945   0.735
 5411SOL     OW17131   4.079   5.216   6.982
 5411SOL    HW117132   4.110   5.242   6.891
 5411SOL    HW217133   4.144   5.150   7.022
 5412SOL     OW17134   0.279   1.986   6.285
 5412SOL    HW117135   0.333   1.902   6.291
 5412SOL    HW217136   0.250   2.000   6.190
 5413SOL     OW17137   6.843   6.623   5.180
 5413SOL    HW117138   6.844   6.597   5.084
 5413SOL    HW217139   6.879   6.548   5.235
 5414SOL     OW17140   6.531   4.275   5.700
 5414SOL    HW117141   6.480   4.190   5.697
 5414SOL    HW217142   6.629   4.255   5.712
 5415SOL     OW17143   3.189   0.311   0.869
 5415SOL    HW117144   3.283   0.304   0.835
 5415SOL    HW217145   3.146   0.221   0.867
 5416SOL     OW17146   3.309   4.816   5.463
 5416SOL    HW117147   3.358   4.807   5.550
 5416SOL    HW217148   3.282   4.725   5.431
 5417SOL     OW17149   4.714   6.066   3.566
 5417SOL    HW117150   4.701   6.006   3.487
 5417SOL    HW217151   4.763   6.016   3.638
 5418SOL     OW17152   6.219   4.301   4.422
 5418SOL    HW117153   6.215   4.204   4.447
 5418SOL    HW217154   6.271   4.352   4.491
 5419SOL     OW17155   3.719   6.914   6.608
 5419SOL    HW117156   3.727   6.817   6.586
 5419SOL    HW217157   3.708   6.966   6.524
 5420SOL     OW17158   1.674   1.340   1.093
 5420SOL    HW117159   1.584   1.366   1.057
 5420SOL    HW217160   1.662   1.283   1.174
 5421SOL     OW17161   3.591   4.931   2.436
 5421SOL    HW117162   3.545   4.891   2.516
 5421SOL    HW217163   3.525   4.946   2.363
 5422SOL     OW17164   2.290   6.114   3.681
 5422SOL    HW117165   2.300   6.062   3.596
 5422SOL    HW217166   2.194   6.112   3.710
 5423SOL     OW17167   6.747   6.067   2.758
 5423SOL    HW117168   6.729   6.165   2.769
 5423SOL    HW217169   6.817   6.039   2.824
 5424SOL     OW17170   4.558   4.210   5.218
 5424SOL    HW117171   4.541   4.120   5.256
 5424SOL    HW217172   4.600   4.201   5.128
 5425SOL     OW17173   0.395   3.706   6.341
 5425SOL    HW117174   0.342   3.787   6.315
 5425SOL    HW217175   0.399   3.642   6.264
 5426SOL     OW17176   5.736   5.161   2.195
 5426SOL    HW117177   5.660   5.096   2.199
 5426SOL    HW217178   5.709   5.240   2.138
 5427SOL     OW17179   4.798   2.410   6.628
 5427SOL    HW117180   4.782   2.323   6.674
 5427SOL    HW217181   4.889   2.444   6.652
 5428SOL     OW17182   6.755   5.296   3.139
 5428SOL    HW117183   6.683   5.255   3.082
 5428SOL    HW217184   6.823   5.340   3.080
 5429SOL     OW17185   2.623   0.411   3.942
 5429SOL    HW117186   2.663   0.334   3.892
 5429SOL    HW217187   2.533   0.385   3.978
 5430SOL     OW17188   2.587   3.650   6.377
 5430SOL    HW117189   2.657   3.676   6.443
 5430SOL    HW217190   2.581   3.550   6.373
 5431SOL     OW17191   2.859   5.073   5.778
 5431SOL    HW117192   2.790   5.001   5.766
 5431SOL    HW217193   2.841   5.124   5.862
 5432SOL     OW17194   5.931   6.086   1.379
 5432SOL    HW117195   5.839   6.095   1.418
 5432SOL    HW217196   5.998   6.121   1.444
 5433SOL     OW17197   1.524   7.017   0.796
 5433SOL    HW117198   1.594   6.955   0.831
 5433SOL    HW217199   1.491   0.053   0.869
 5434SOL     OW17200   4.958   0.918   5.558
 5434SOL    HW117201   5.055   0.902   5.576
 5434SOL    HW217202   4.921   0.842   5.504
 5435SOL     OW17203   6.051   3.881   0.959
 5435SOL    HW117204   6.108   3.871   1.041
 5435SOL    HW217205   6.092   3.950   0.899
 5436SOL     OW17206   1.620   5.213   2.451
 5436SOL    HW117207   1.533   5.219   2.500
 5436SOL    HW217208   1.611   5.257   2.362
 5437SOL     OW17209   3.644   5.659   0.294
 5437SOL    HW117210   3.713   5.724   0.264
 5437SOL    HW217211   3.681   5.566   0.290
 5438SOL     OW17212   4.386   4.561   2.870
 5438SOL    HW117213   4.439   4.626   2.814
 5438SOL    HW217214   4.399   4.469   2.835
 5439SOL     OW17215   0.963   4.434   1.212
 5439SOL    HW117216   0.951   4.366   1.285
 5439SOL    HW217217   1.041   4.408   1.155
 5440SOL     OW17218   5.457   6.009   3.382
 5440SOL    HW117219   5.367   5.994   3.422
 5440SOL    HW217220   5.478   6.107   3.384
 5441SOL     OW17221   4.569   2.618   3.665
 5441SOL    HW117222   4.535   2.638   3.757
 5441SOL    HW217223   4.510   2.549   3.622
 5442SOL     OW17224   5.212   0.105   4.640
 5442SOL    HW117225   5.115   0.100   4.616
 5442SOL    HW217226   5.254   0.016   4.626
 5443SOL     OW17227   4.880   6.872   4.560
 5443SOL    HW117228   4.883   6.972   4.558
 5443SOL    HW217229   4.885   6.837   4.466
 5444SOL     OW17230   0.146   0.831   4.046
 5444SOL    HW117231   0.057   0.874   4.032
 5444SOL    HW217232   0.142   0.772   4.127
 5445SOL     OW17233   5.419   5.654   5.744
 5445SOL    HW117234   5.445   5.737   5.694
 5445SOL    HW217235   5.419   5.576   5.681
 5446SOL     OW17236   0.600   4.273   5.960
 5446SOL    HW117237   0.646   4.257   6.047
 5446SOL    HW217238   0.607   4.191   5.903
 5447SOL     OW17239   1.227   1.377   0.424
 5447SOL    HW117240   1.233   1.381   0.324
 5447SOL    HW217241   1.320   1.379   0.462
 5448SOL     OW17242   3.796   5.841   3.521
 5448SOL    HW117243   3.890   5.807   3.529
 5448SOL    HW217244   3.790   5.903   3.442
 5449SOL     OW17245   3.318   1.621   1.785
 5449SOL    HW117246   3.257   1.673   1.725
 5449SOL    HW217247   3.382   1.684   1.829
 5450SOL     OW17248   4.115   5.771   1.907
 5450SOL    HW117249   4.051   5.716   1.853
 5450SOL    HW217250   4.189   5.803   1.848
 5451SOL     OW17251   1.296   0.515   3.175
 5451SOL    HW117252   1.320   0.612   3.178
 5451SOL    HW217253   1.197   0.506   3.162
 5452SOL     OW17254   2.102   4.381   2.115
 5452SOL    HW117255   2.099   4.415   2.021
 5452SOL    HW217256   2.031   4.426   2.169
 5453SOL     OW17257   5.612   4.348   3.136
 5453SOL    HW117258   5.674   4.328   3.212
 5453SOL    HW217259   5.583   4.263   3.092
 5454SOL     OW17260   6.128   5.331   3.802
 5454SOL    HW117261   6.030   5.349   3.814
 5454SOL    HW217262   6.172   5.412   3.764
 5455SOL     OW17263   0.125   1.939   2.639
 5455SOL    HW117264   0.164   1.847   2.627
 5455SOL    HW217265   0.136   1.968   2.734
 5456SOL     OW17266   5.144   0.942   6.430
 5456SOL    HW117267   5.230   0.989   6.448
 5456SOL    HW217268   5.150   0.848   6.462
 5457SOL     OW17269   6.135   2.205   0.697
 5457SOL    HW117270   6.114   2.118   0.653
 5457SOL    HW217271   6.063   2.272   0.675
 5458SOL     OW17272   5.831   4.703   0.921
 5458SOL    HW117273   5.840   4.756   1.005
 5458SOL    HW217274   5.922   4.676   0.889
 5459SOL     OW17275   2.236   4.464   5.788
 5459SOL    HW117276   2.288   4.430   5.866
 5459SOL    HW217277   2.270   4.423   5.704
 5460SOL     OW17278   1.700   0.300   0.445
 5460SOL    HW117279   1.773   0.272   0.383
 5460SOL    HW217280   1.737   0.362   0.514
 5461SOL     OW17281   6.923   1.303   6.666
 5461SOL    HW117282   6.879   1.283   6.753
 5461SOL    HW217283   7.009   1.252   6.660
 5462SOL     OW17284   5.047   6.217   6.598
 5462SOL    HW117285   5.077   6.136   6.650
 5462SOL    HW217286   5.085   6.299   6.640
 5463SOL     OW17287   0.170   2.855   7.008
 5463SOL    HW117288   0.095   2.880   0.046
 5463SOL    HW217289   0.163   2.909   6.924
 5464SOL     OW17290   6.135   6.409   5.585
 5464SOL    HW117291   6.225   6.375   5.612
 5464SOL    HW217292   6.092   6.343   5.524
 5465SOL     OW17293   7.011   6.348   3.574
 5465SOL    HW117294   0.079   6.377   3.546
 5465SOL    HW217295   6.949   6.354   3.496
 5466SOL     OW17296   5.873   2.891   5.214
 5466SOL    HW117297   5.878   2.813   5.278
 5466SOL    HW217298   5.793   2.879   5.155
 5467SOL     OW17299   5.595   3.499   3.537
 5467SOL    HW117300   5.659   3.430   3.572
 5467SOL    HW217301   5.564   3.557   3.612
 5468SOL     OW17302   6.534   1.782   2.437
 5468SOL    HW117303   6.586   1.725   2.501
 5468SOL    HW217304   6.469   1.839   2.488
 5469SOL     OW17305   1.905   0.867   5.417
 5469SOL    HW117306   1.842   0.874   5.494
 5469SOL    HW217307   1.997   0.888   5.447
 5470SOL     OW17308   4.041   5.650   4.580
 5470SOL    HW117309   4.024   5.567   4.633
 5470SOL    HW217310   4.047   5.728   4.642
 5471SOL     OW17311   5.059   0.042   2.450
 5471SOL    HW117312   5.140   7.011   2.470
 5471SOL    HW217313   5.072   0.135   2.485
 5472SOL     OW17314   3.284   1.290   5.998
 5472SOL    HW117315   3.218   1.266   5.927
 5472SOL    HW217316   3.370   1.241   5.982
 5473SOL     OW17317   2.091   4.512   1.404
 5473SOL    HW117318   2.187   4.516   1.378
 5473SOL    HW217319   2.037   4.573   1.345
 5474SOL     OW17320   0.542   5.268   3.476
 5474SOL    HW117321   0.502   5.353   3.442
 5474SOL    HW217322   0.518   5.256   3.572
 5475SOL     OW17323   0.701   1.816   6.780
 5475SOL    HW117324   0.782   1.874   6.768
 5475SOL    HW217325   0.635   1.863   6.838
 5476SOL     OW17326   2.651   6.267   5.811
 5476SOL    HW117327   2.574   6.310   5.860
 5476SOL    HW217328   2.715   6.338   5.781
 5477SOL     OW17329   2.160   5.205   4.085
 5477SOL    HW117330   2.100   5.129   4.112
 5477SOL    HW217331   2.124   5.290   4.121
 5478SOL     OW17332   5.967   4.768   6.169
 5478SOL    HW117333   6.063   4.765   6.196
 5478SOL    HW217334   5.944   4.861   6.139
 5479SOL     OW17335   4.249   1.857   4.839
 5479SOL    HW117336   4.315   1.926   4.870
 5479SOL    HW217337   4.256   1.847   4.740
 5480SOL     OW17338   6.270   4.411   5.069
 5480SOL    HW117339   6.198   4.394   5.002
 5480SOL    HW217340   6.359   4.396   5.026
 5481SOL     OW17341   4.022   1.063   6.235
 5481SOL    HW117342   4.062   1.036   6.323
 5481SOL    HW217343   4.038   1.160   6.219
 5482SOL     OW17344   3.442   3.844   1.759
 5482SOL    HW117345   3.490   3.759   1.737
 5482SOL    HW217346   3.347   3.823   1.781
 5483SOL     OW17347   6.298   3.242   5.962
 5483SOL    HW117348   6.371   3.268   6.025
 5483SOL    HW217349   6.226   3.312   5.964
 5484SOL     OW17350   6.840   6.120   3.935
 5484SOL    HW117351   6.900   6.197   3.913
 5484SOL    HW217352   6.863   6.085   4.025
 5485SOL     OW17353   3.648   7.004   4.892
 5485SOL    HW117354   3.648   6.908   4.921
 5485SOL    HW217355   3.738   0.003   4.853
 5486SOL     OW17356   1.719   0.596   3.444
 5486SOL    HW117357   1.745   0.500   3.446
 5486SOL    HW217358   1.697   0.627   3.537
 5487SOL     OW17359   6.140   4.543   0.525
 5487SOL    HW117360   6.200   4.479   0.477
 5487SOL    HW217361   6.137   4.520   0.622
 5488SOL     OW17362   4.676   2.234   0.062
 5488SOL    HW117363   4.734   2.208   7.008
 5488SOL    HW217364   4.602   2.168   0.072
 5489SOL     OW17365   1.711   4.236   2.588
 5489SOL    HW117366   1.729   4.324   2.632
 5489SOL    HW217367   1.680   4.170   2.656
 5490SOL     OW17368   3.466   0.265   0.840
 5490SOL    HW117369   3.512   0.223   0.918
 5490SOL    HW217370   3.480   0.208   0.759
 5491SOL     OW17371   1.276   4.669   0.278
 5491SOL    HW117372   1.272   4.571   0.294
 5491SOL    HW217373   1.357   4.707   0.325
 5492SOL     OW17374   1.370   1.916   6.451
 5492SOL    HW117375   1.296   1.870   6.402
 5492SOL    HW217376   1.377   2.011   6.420
 5493SOL     OW17377   3.752   3.007   5.748
 5493SOL    HW117378   3.825   3.060   5.705
 5493SOL    HW217379   3.791   2.948   5.819
 5494SOL     OW17380   6.906   3.544   0.745
 5494SOL    HW117381   6.856   3.459   0.730
 5494SOL    HW217382   6.869   3.592   0.825
 5495SOL     OW17383   3.739   4.193   1.467
 5495SOL    HW117384   3.768   4.249   1.545
 5495SOL    HW217385   3.814   4.184   1.402
 5496SOL     OW17386   3.642   5.928   1.990
 5496SOL    HW117387   3.573   5.952   1.922
 5496SOL    HW217388   3.732   5.958   1.959
 5497SOL     OW17389   0.480   1.854   2.955
 5497SOL    HW117390   0.579   1.841   2.965
 5497SOL    HW217391   0.433   1.812   3.032
 5498SOL     OW17392   4.482   1.407   6.147
 5498SOL    HW117393   4.499   1.446   6.056
 5498SOL    HW217394   4.526   1.317   6.152
 5499SOL     OW17395   0.296   0.916   3.657
 5499SOL    HW117396   0.262   0.835   3.610
 5499SOL    HW217397   0.378   0.892   3.709
 5500SOL     OW17398   2.334   5.565   0.255
 5500SOL    HW117399   2.255   5.541   0.197
 5500SOL    HW217400   2.401   5.491   0.252
 5501SOL     OW17401   2.517   0.255   2.190
 5501SOL    HW117402   2.535   0.277   2.095
 5501SOL    HW217403   2.602   0.265   2.243
 5502SOL     OW17404   5.994   3.906   5.556
 5502SOL    HW117405   5.939   3.967   5.499
 5502SOL    HW217406   6.067   3.958   5.599
 5503SOL     OW17407   1.016   4.700   2.851
 5503SOL    HW117408   1.073   4.651   2.917
 5503SOL    HW217409   1.072   4.728   2.773
 5504SOL     OW17410   3.433   0.635   4.758
 5504SOL    HW117411   3.525   0.669   4.772
 5504SOL    HW217412   3.436   0.542   4.722
 5505SOL     OW17413   2.129   6.063   4.945
 5505SOL    HW117414   2.184   6.107   5.016
 5505SOL    HW217415   2.065   6.129   4.906
 5506SOL     OW17416   6.772   0.651   4.552
 5506SOL    HW117417   6.725   0.702   4.624
 5506SOL    HW217418   6.712   0.578   4.519
 5507SOL     OW17419   2.233   6.162   2.949
 5507SOL    HW117420   2.255   6.076   2.903
 5507SOL    HW217421   2.183   6.222   2.886
 5508SOL     OW17422   2.712   0.575   6.567
 5508SOL    HW117423   2.625   0.556   6.523
 5508SOL    HW217424   2.757   0.651   6.520
 5509SOL     OW17425   5.973   6.032   0.248
 5509SOL    HW117426   5.917   5.961   0.292
 5509SOL    HW217427   5.985   6.108   0.311
 5510SOL     OW17428   4.110   6.911   6.561
 5510SOL    HW117429   4.064   6.925   6.648
 5510SOL    HW217430   4.208   6.933   6.570
 5511SOL     OW17431   1.120   0.443   2.460
 5511SOL    HW117432   1.150   0.376   2.527
 5511SOL    HW217433   1.173   0.527   2.469
 5512SOL     OW17434   6.750   2.152   0.702
 5512SOL    HW117435   6.810   2.212   0.754
 5512SOL    HW217436   6.805   2.087   0.649
 5513SOL     OW17437   4.665   4.468   4.807
 5513SOL    HW117438   4.679   4.566   4.791
 5513SOL    HW217439   4.568   4.446   4.792
 5514SOL     OW17440   5.849   4.973   2.912
 5514SOL    HW117441   5.932   5.011   2.871
 5514SOL    HW217442   5.812   5.037   2.979
 5515SOL     OW17443   6.666   2.681   1.756
 5515SOL    HW117444   6.635   2.730   1.837
 5515SOL    HW217445   6.708   2.746   1.692
 5516SOL     OW17446   1.854   3.076   0.099
 5516SOL    HW117447   1.800   3.130   0.034
 5516SOL    HW217448   1.933   3.037   0.052
 5517SOL     OW17449   3.307   2.177   1.584
 5517SOL    HW117450   3.394   2.217   1.554
 5517SOL    HW217451   3.306   2.172   1.684
 5518SOL     OW17452   5.644   5.122   6.210
 5518SOL    HW117453   5.666   5.099   6.115
 5518SOL    HW217454   5.617   5.038   6.258
 5519SOL     OW17455   5.166   3.792   3.049
 5519SOL    HW117456   5.069   3.810   3.064
 5519SOL    HW217457   5.190   3.703   3.088
 5520SOL     OW17458   1.463   3.968   3.115
 5520SOL    HW117459   1.388   3.990   3.178
 5520SOL    HW217460   1.480   4.045   3.055
 5521SOL     OW17461   5.006   6.136   1.906
 5521SOL    HW117462   5.055   6.212   1.950
 5521SOL    HW217463   5.047   6.117   1.817
 5522SOL     OW17464   2.249   3.542   1.273
 5522SOL    HW117465   2.228   3.565   1.178
 5522SOL    HW217466   2.337   3.494   1.276
 5523SOL     OW17467   3.495   6.808   2.983
 5523SOL    HW117468   3.584   6.807   3.030
 5523SOL    HW217469   3.425   6.844   3.044
 5524SOL     OW17470   0.207   5.615   5.110
 5524SOL    HW117471   0.228   5.546   5.179
 5524SOL    HW217472   0.109   5.614   5.090
 5525SOL     OW17473   6.658   4.877   0.097
 5525SOL    HW117474   6.665   4.974   0.122
 5525SOL    HW217475   6.573   4.840   0.135
 5526SOL     OW17476   6.055   3.708   4.022
 5526SOL    HW117477   6.137   3.689   4.076
 5526SOL    HW217478   5.996   3.772   4.073
 5527SOL     OW17479   0.653   3.031   2.299
 5527SOL    HW117480   0.607   2.942   2.293
 5527SOL    HW217481   0.733   3.030   2.239
 5528SOL     OW17482   0.172   2.290   5.777
 5528SOL    HW117483   0.173   2.346   5.860
 5528SOL    HW217484   0.238   2.216   5.787
 5529SOL     OW17485   2.039   0.150   4.901
 5529SOL    HW117486   2.037   0.063   4.949
 5529SOL    HW217487   2.093   0.216   4.953
 5530SOL     OW17488   0.275   2.417   1.697
 5530SOL    HW117489   0.241   2.447   1.608
 5530SOL    HW217490   0.311   2.324   1.689
 5531SOL     OW17491   4.142   3.403   4.700
 5531SOL    HW117492   4.113   3.354   4.782
 5531SOL    HW217493   4.128   3.501   4.713
 5532SOL     OW17494   1.325   0.921   0.735
 5532SOL    HW117495   1.250   0.858   0.717
 5532SOL    HW217496   1.288   1.009   0.765
 5533SOL     OW17497   2.548   1.142   2.748
 5533SOL    HW117498   2.597   1.194   2.678
 5533SOL    HW217499   2.485   1.078   2.704
 5534SOL     OW17500   0.925   3.070   6.801
 5534SOL    HW117501   0.887   3.157   6.770
 5534SOL    HW217502   0.872   3.037   6.879
 5535SOL     OW17503   6.789   3.423   2.749
 5535SOL    HW117504   6.779   3.329   2.781
 5535SOL    HW217505   6.827   3.422   2.656
 5536SOL     OW17506   2.704   0.923   4.241
 5536SOL    HW117507   2.675   0.939   4.336
 5536SOL    HW217508   2.739   0.829   4.233
 5537SOL     OW17509   3.786   0.557   4.495
 5537SOL    HW117510   3.755   0.651   4.483
 5537SOL    HW217511   3.827   0.547   4.586
 5538SOL     OW17512   4.235   0.160   5.314
 5538SOL    HW117513   4.161   0.122   5.259
 5538SOL    HW217514   4.233   0.259   5.309
 5539SOL     OW17515   0.576   1.967   1.487
 5539SOL    HW117516   0.650   1.942   1.550
 5539SOL    HW217517   0.543   2.059   1.508
 5540SOL     OW17518   4.921   2.943   1.394
 5540SOL    HW117519   4.907   3.023   1.453
 5540SOL    HW217520   5.014   2.944   1.358
 5541SOL     OW17521   5.117   3.287   5.811
 5541SOL    HW117522   5.082   3.304   5.903
 5541SOL    HW217523   5.105   3.190   5.789
 5542SOL     OW17524   5.806   5.690   5.642
 5542SOL    HW117525   5.774   5.615   5.700
 5542SOL    HW217526   5.784   5.669   5.546
 5543SOL     OW17527   2.597   5.792   6.924
 5543SOL    HW117528   2.664   5.786   6.850
 5543SOL    HW217529   2.600   5.883   6.964
 5544SOL     OW17530   5.537   5.229   5.509
 5544SOL    HW117531   5.618   5.259   5.458
 5544SOL    HW217532   5.493   5.154   5.461
 5545SOL     OW17533   4.689   1.277   2.564
 5545SOL    HW117534   4.596   1.302   2.591
 5545SOL    HW217535   4.714   1.190   2.607
 5546SOL     OW17536   0.558   6.449   4.169
 5546SOL    HW117537   0.544   6.388   4.091
 5546SOL    HW217538   0.574   6.395   4.251
 5547SOL     OW17539   3.573   0.904   5.085
 5547SOL    HW117540   3.495   0.911   5.147
 5547SOL    HW217541   3.641   0.974   5.109
 5548SOL     OW17542   6.540   3.941   5.906
 5548SOL    HW117543   6.589   4.006   5.964
 5548SOL    HW217544   6.468   3.988   5.856
 5549SOL     OW17545   4.335   3.234   1.743
 5549SOL    HW117546   4.281   3.156   1.714
 5549SOL    HW217547   4.403   3.205   1.811
 5550SOL     OW17548   2.444   4.493   3.184
 5550SOL    HW117549   2.521   4.555   3.173
 5550SOL    HW217550   2.418   4.456   3.094
 5551SOL     OW17551   1.506   6.548   2.727
 5551SOL    HW117552   1.444   6.505   2.793
 5551SOL    HW217553   1.455   6.573   2.645
 5552SOL     OW17554   6.076   0.674   6.457
 5552SOL    HW117555   6.116   0.656   6.547
 5552SOL    HW217556   6.047   0.770   6.452
 5553SOL     OW17557   4.307   6.818   6.033
 5553SOL    HW117558   4.237   6.749   6.050
 5553SOL    HW217559   4.370   6.786   5.962
 5554SOL     OW17560   4.910   3.365   2.247
 5554SOL    HW117561   4.880   3.397   2.158
 5554SOL    HW217562   4.882   3.269   2.259
 5555SOL     OW17563   1.230   3.384   2.086
 5555SOL    HW117564   1.216   3.465   2.029
 5555SOL    HW217565   1.327   3.373   2.105
 5556SOL     OW17566   6.206   0.724   3.979
 5556SOL    HW117567   6.224   0.714   4.077
 5556SOL    HW217568   6.280   0.775   3.937
 5557SOL     OW17569   3.811   5.411   1.923
 5557SOL    HW117570   3.816   5.511   1.920
 5557SOL    HW217571   3.834   5.380   2.016
 5558SOL     OW17572   3.508   3.154   6.860
 5558SOL    HW117573   3.433   3.221   6.863
 5558SOL    HW217574   3.534   3.129   6.954
 5559SOL     OW17575   1.410   0.590   2.080
 5559SOL    HW117576   1.386   0.515   2.019
 5559SOL    HW217577   1.488   0.640   2.044
 5560SOL     OW17578   0.354   5.530   1.372
 5560SOL    HW117579   0.323   5.475   1.450
 5560SOL    HW217580   0.451   5.511   1.355
 5561SOL     OW17581   2.568   0.518   4.563
 5561SOL    HW117582   2.545   0.600   4.615
 5561SOL    HW217583   2.540   0.529   4.468
 5562SOL     OW17584   4.330   3.257   0.192
 5562SOL    HW117585   4.401   3.189   0.211
 5562SOL    HW217586   4.373   3.347   0.179
 5563SOL     OW17587   2.972   5.418   3.041
 5563SOL    HW117588   3.053   5.368   3.070
 5563SOL    HW217589   2.905   5.420   3.115
 5564SOL     OW17590   4.507   0.029   6.284
 5564SOL    HW117591   4.512   0.129   6.278
 5564SOL    HW217592   4.576   7.020   6.349
 5565SOL     OW17593   3.629   2.449   6.355
 5565SOL    HW117594   3.666   2.366   6.312
 5565SOL    HW217595   3.569   2.496   6.290
 5566SOL     OW17596   2.010   4.253   6.927
 5566SOL    HW117597   1.914   4.261   6.898
 5566SOL    HW217598   2.046   4.165   6.897
 5567SOL     OW17599   0.132   4.227   1.505
 5567SOL    HW117600   0.094   4.316   1.482
 5567SOL    HW217601   0.103   4.160   1.437
 5568SOL     OW17602   4.862   1.220   3.522
 5568SOL    HW117603   4.843   1.137   3.469
 5568SOL    HW217604   4.813   1.216   3.609
 5569SOL     OW17605   1.649   2.040   2.435
 5569SOL    HW117606   1.616   1.996   2.519
 5569SOL    HW217607   1.572   2.058   2.374
 5570SOL     OW17608   5.777   3.820   3.813
 5570SOL    HW117609   5.709   3.803   3.742
 5570SOL    HW217610   5.732   3.863   3.892
 5571SOL     OW17611   6.533   5.659   2.132
 5571SOL    HW117612   6.559   5.575   2.086
 5571SOL    HW217613   6.615   5.711   2.156
 5572SOL     OW17614   1.077   4.569   4.770
 5572SOL    HW117615   1.061   4.514   4.687
 5572SOL    HW217616   1.175   4.569   4.791
 5573SOL     OW17617   1.194   5.897   4.870
 5573SOL    HW117618   1.110   5.847   4.893
 5573SOL    HW217619   1.174   5.995   4.864
 5574SOL     OW17620   0.133   2.703   1.177
 5574SOL    HW117621   0.113   2.713   1.274
 5574SOL    HW217622   0.108   2.786   1.128
 5575SOL     OW17623   6.636   1.200   0.674
 5575SOL    HW117624   6.659   1.214   0.577
 5575SOL    HW217625   6.627   1.289   0.719
 5576SOL     OW17626   1.542   4.588   2.334
 5576SOL    HW117627   1.599   4.507   2.348
 5576SOL    HW217628   1.520   4.598   2.237
 5577SOL     OW17629   2.581   2.444   6.634
 5577SOL    HW117630   2.482   2.428   6.633
 5577SOL    HW217631   2.602   2.521   6.574
 5578SOL     OW17632   3.803   4.041   1.927
 5578SOL    HW117633   3.842   4.122   1.970
 5578SOL    HW217634   3.868   3.965   1.933
 5579SOL     OW17635   0.812   3.809   0.588
 5579SOL    HW117636   0.794   3.729   0.530
 5579SOL    HW217637   0.860   3.879   0.535
 5580SOL     OW17638   4.921   2.078   5.599
 5580SOL    HW117639   4.970   2.022   5.532
 5580SOL    HW217640   4.984   2.142   5.642
 5581SOL     OW17641   1.704   0.726   1.957
 5581SOL    HW117642   1.677   0.811   1.912
 5581SOL    HW217643   1.762   0.746   2.035
 5582SOL     OW17644   3.677   4.160   6.686
 5582SOL    HW117645   3.736   4.183   6.764
 5582SOL    HW217646   3.590   4.125   6.720
 5583SOL     OW17647   4.636   0.969   2.856
 5583SOL    HW117648   4.736   0.975   2.852
 5583SOL    HW217649   4.600   1.055   2.892
 5584SOL     OW17650   6.897   3.892   4.568
 5584SOL    HW117651   6.871   3.797   4.550
 5584SOL    HW217652   6.818   3.942   4.605
 5585SOL     OW17653   5.712   5.515   3.372
 5585SOL    HW117654   5.759   5.455   3.436
 5585SOL    HW217655   5.728   5.484   3.278
 5586SOL     OW17656   0.494   3.911   6.011
 5586SOL    HW117657   0.452   3.997   5.984
 5586SOL    HW217658   0.570   3.890   5.949
 5587SOL     OW17659   4.312   6.764   0.443
 5587SOL    HW117660   4.241   6.834   0.435
 5587SOL    HW217661   4.272   6.675   0.422
 5588SOL     OW17662   2.340   5.396   2.774
 5588SOL    HW117663   2.439   5.381   2.768
 5588SOL    HW217664   2.316   5.479   2.723
 5589SOL     OW17665   6.302   3.646   5.761
 5589SOL    HW117666   6.286   3.731   5.710
 5589SOL    HW217667   6.375   3.659   5.828
 5590SOL     OW17668   0.089   6.040   3.785
 5590SOL    HW117669   0.180   6.000   3.792
 5590SOL    HW217670   0.095   6.140   3.790
 5591SOL     OW17671   6.298   2.109   1.773
 5591SOL    HW117672   6.319   2.050   1.696
 5591SOL    HW217673   6.382   2.152   1.806
 5592SOL     OW17674   2.282   5.657   3.222
 5592SOL    HW117675   2.259   5.753   3.233
 5592SOL    HW217676   2.378   5.643   3.244
 5593SOL     OW17677   0.710   3.205   0.007
 5593SOL    HW117678   0.691   3.109   0.028
 5593SOL    HW217679   0.690   3.221   6.933
 5594SOL     OW17680   5.252   0.868   5.604
 5594SOL    HW117681   5.228   0.939   5.670
 5594SOL    HW217682   5.214   0.780   5.634
 5595SOL     OW17683   0.704   1.790   4.637
 5595SOL    HW117684   0.731   1.795   4.733
 5595SOL    HW217685   0.785   1.790   4.580
 5596SOL     OW17686   4.559   0.386   2.867
 5596SOL    HW117687   4.552   0.308   2.805
 5596SOL    HW217688   4.515   0.465   2.826
 5597SOL     OW17689   4.871   2.818   4.755
 5597SOL    HW117690   4.856   2.852   4.848
 5597SOL    HW217691   4.849   2.890   4.689
 5598SOL     OW17692   5.017   3.773   4.350
 5598SOL    HW117693   5.023   3.680   4.314
 5598SOL    HW217694   4.973   3.771   4.440
 5599SOL     OW17695   1.171   2.045   3.843
 5599SOL    HW117696   1.197   2.044   3.939
 5599SOL    HW217697   1.096   1.980   3.829
 5600SOL     OW17698   1.177   1.206   1.951
 5600SOL    HW117699   1.189   1.108   1.965
 5600SOL    HW217700   1.104   1.222   1.884
 5601SOL     OW17701   2.240   1.004   5.326
 5601SOL    HW117702   2.271   1.040   5.415
 5601SOL    HW217703   2.225   0.906   5.333
 5602SOL     OW17704   6.007   1.526   1.472
 5602SOL    HW117705   6.079   1.561   1.411
 5602SOL    HW217706   6.031   1.548   1.566
 5603SOL     OW17707   5.749   2.115   6.474
 5603SOL    HW117708   5.759   2.195   6.533
 5603SOL    HW217709   5.748   2.032   6.531
 5604SOL     OW17710   6.296   1.841   4.767
 5604SOL    HW117711   6.236   1.776   4.814
 5604SOL    HW217712   6.295   1.822   4.669
 5605SOL     OW17713   0.084   1.280   5.171
 5605SOL    HW117714   0.181   1.255   5.169
 5605SOL    HW217715   0.075   1.374   5.203
 5606SOL     OW17716   4.930   6.646   0.181
 5606SOL    HW117717   4.876   6.713   0.233
 5606SOL    HW217718   4.913   6.659   0.083
 5607SOL     OW17719   5.707   0.890   2.767
 5607SOL    HW117720   5.629   0.828   2.766
 5607SOL    HW217721   5.708   0.942   2.853
 5608SOL     OW17722   5.086   0.210   4.949
 5608SOL    HW117723   5.173   0.174   4.914
 5608SOL    HW217724   5.099   0.305   4.979
 5609SOL     OW17725   2.950   6.699   1.282
 5609SOL    HW117726   2.967   6.672   1.377
 5609SOL    HW217727   2.971   6.622   1.221
 5610SOL     OW17728   3.949   6.485   0.800
 5610SOL    HW117729   3.964   6.503   0.898
 5610SOL    HW217730   3.876   6.418   0.790
 5611SOL     OW17731   1.160   5.462   2.385
 5611SOL    HW117732   1.215   5.450   2.468
 5611SOL    HW217733   1.209   5.423   2.307
 5612SOL     OW17734   3.904   2.214   6.965
 5612SOL    HW117735   3.960   2.292   6.938
 5612SOL    HW217736   3.844   2.240   0.018
 5613SOL     OW17737   5.465   4.132   3.869
 5613SOL    HW117738   5.494   4.203   3.804
 5613SOL    HW217739   5.507   4.149   3.958
 5614SOL     OW17740   4.682   2.221   4.290
 5614SOL    HW117741   4.773   2.255   4.266
 5614SOL    HW217742   4.623   2.298   4.314
 5615SOL     OW17743   0.276   1.456   4.660
 5615SOL    HW117744   0.278   1.360   4.690
 5615SOL    HW217745   0.222   1.463   4.576
 5616SOL     OW17746   2.551   1.874   5.018
 5616SOL    HW117747   2.589   1.962   4.987
 5616SOL    HW217748   2.588   1.801   4.961
 5617SOL     OW17749   3.221   0.349   6.005
 5617SOL    HW117750   3.212   0.323   6.101
 5617SOL    HW217751   3.318   0.350   5.980
 5618SOL     OW17752   0.113   4.495   4.066
 5618SOL    HW117753   0.096   4.406   4.023
 5618SOL    HW217754   0.085   4.491   4.162
 5619SOL     OW17755   2.589   3.907   5.886
 5619SOL    HW117756   2.687   3.925   5.877
 5619SOL    HW217757   2.551   3.963   5.959
 5620SOL     OW17758   4.061   3.073   1.051
 5620SOL    HW117759   4.043   2.988   1.000
 5620SOL    HW217760   3.975   3.122   1.065
 5621SOL     OW17761   1.817   1.987   6.862
 5621SOL    HW117762   1.900   1.955   6.817
 5621SOL    HW217763   1.737   1.954   6.812
 5622SOL     OW17764   4.908   0.547   5.982
 5622SOL    HW117765   4.965   0.628   5.970
 5622SOL    HW217766   4.962   0.473   6.023
 5623SOL     OW17767   2.602   6.083   5.111
 5623SOL    HW117768   2.594   5.985   5.090
 5623SOL    HW217769   2.525   6.132   5.072
 5624SOL     OW17770   0.787   4.417   3.368
 5624SOL    HW117771   0.727   4.490   3.334
 5624SOL    HW217772   0.741   4.367   3.441
 5625SOL     OW17773   6.535   1.465   4.770
 5625SOL    HW117774   6.619   1.413   4.753
 5625SOL    HW217775   6.544   1.557   4.731
 5626SOL     OW17776   2.419   6.357   3.688
 5626SOL    HW117777   2.415   6.395   3.781
 5626SOL    HW217778   2.377   6.266   3.687
 5627SOL     OW17779   0.813   5.449   6.433
 5627SOL    HW117780   0.792   5.518   6.502
 5627SOL    HW217781   0.880   5.485   6.369
 5628SOL     OW17782   1.270   2.756   0.138
 5628SOL    HW117783   1.303   2.845   0.107
 5628SOL    HW217784   1.176   2.743   0.106
 5629SOL     OW17785   3.402   4.098   2.557
 5629SOL    HW117786   3.499   4.096   2.535
 5629SOL    HW217787   3.390   4.119   2.654
 5630SOL     OW17788   1.987   4.679   0.758
 5630SOL    HW117789   2.076   4.706   0.720
 5630SOL    HW217790   1.923   4.756   0.751
 5631SOL     OW17791   4.477   1.626   0.529
 5631SOL    HW117792   4.495   1.575   0.445
 5631SOL    HW217793   4.523   1.582   0.606
 5632SOL     OW17794   3.498   2.371   5.823
 5632SOL    HW117795   3.522   2.452   5.877
 5632SOL    HW217796   3.400   2.373   5.802
 5633SOL     OW17797   6.805   3.596   4.143
 5633SOL    HW117798   6.866   3.524   4.112
 5633SOL    HW217799   6.841   3.685   4.115
 5634SOL     OW17800   2.356   5.389   4.559
 5634SOL    HW117801   2.430   5.357   4.618
 5634SOL    HW217802   2.289   5.316   4.548
 5635SOL     OW17803   2.223   4.071   5.685
 5635SOL    HW117804   2.140   4.087   5.631
 5635SOL    HW217805   2.270   3.989   5.651
 5636SOL     OW17806   3.949   6.652   3.832
 5636SOL    HW117807   3.992   6.708   3.761
 5636SOL    HW217808   4.014   6.634   3.905
 5637SOL     OW17809   4.828   6.494   3.477
 5637SOL    HW117810   4.730   6.513   3.488
 5637SOL    HW217811   4.875   6.578   3.448
 5638SOL     OW17812   6.124   3.515   1.343
 5638SOL    HW117813   6.049   3.456   1.370
 5638SOL    HW217814   6.140   3.584   1.414
 5639SOL     OW17815   0.906   0.596   0.333
 5639SOL    HW117816   0.973   0.627   0.400
 5639SOL    HW217817   0.815   0.628   0.360
 5640SOL     OW17818   3.096   0.446   3.687
 5640SOL    HW117819   3.148   0.475   3.767
 5640SOL    HW217820   2.999   0.468   3.700
 5641SOL     OW17821   0.733   5.476   5.216
 5641SOL    HW117822   0.648   5.516   5.182
 5641SOL    HW217823   0.746   5.386   5.174
 5642SOL     OW17824   2.101   6.832   5.823
 5642SOL    HW117825   2.083   6.835   5.724
 5642SOL    HW217826   2.060   6.911   5.867
 5643SOL     OW17827   4.866   1.727   5.312
 5643SOL    HW117828   4.816   1.643   5.290
 5643SOL    HW217829   4.803   1.805   5.313
 5644SOL     OW17830   3.334   0.307   4.843
 5644SOL    HW117831   3.292   0.372   4.905
 5644SOL    HW217832   3.359   0.353   4.758
 5645SOL     OW17833   6.414   4.318   3.617
 5645SOL    HW117834   6.364   4.264   3.549
 5645SOL    HW217835   6.483   4.373   3.572
 5646SOL     OW17836   1.491   5.217   3.095
 5646SOL    HW117837   1.526   5.294   3.042
 5646SOL    HW217838   1.504   5.132   3.043
 5647SOL     OW17839   5.136   6.650   1.062
 5647SOL    HW117840   5.179   6.604   1.140
 5647SOL    HW217841   5.172   6.610   0.977
 5648SOL     OW17842   1.730   5.531   2.566
 5648SOL    HW117843   1.782   5.483   2.636
 5648SOL    HW217844   1.696   5.466   2.499
 5649SOL     OW17845   0.878   6.677   3.800
 5649SOL    HW117846   0.962   6.631   3.830
 5649SOL    HW217847   0.809   6.669   3.872
 5650SOL     OW17848   1.051   4.622   1.530
 5650SOL    HW117849   1.030   4.685   1.606
 5650SOL    HW217850   0.971   4.566   1.510
 5651SOL     OW17851   1.723   0.947   0.124
 5651SOL    HW117852   1.781   0.945   0.205
 5651SOL    HW217853   1.689   0.855   0.104
 5652SOL     OW17854   6.648   6.267   1.001
 5652SOL    HW117855   6.602   6.301   1.083
 5652SOL    HW217856   6.584   6.266   0.924
 5653SOL     OW17857   6.876   5.948   7.004
 5653SOL    HW117858   6.780   5.977   7.008
 5653SOL    HW217859   6.932   6.023   6.968
 5654SOL     OW17860   0.706   5.570   4.519
 5654SOL    HW117861   0.618   5.615   4.506
 5654SOL    HW217862   0.766   5.590   4.441
 5655SOL     OW17863   0.106   2.722   3.310
 5655SOL    HW117864   0.106   2.724   3.210
 5655SOL    HW217865   0.014   2.743   3.343
 5656SOL     OW17866   6.872   3.863   6.760
 5656SOL    HW117867   6.821   3.787   6.720
 5656SOL    HW217868   6.834   3.950   6.727
 5657SOL     OW17869   4.989   4.111   5.253
 5657SOL    HW117870   4.906   4.129   5.305
 5657SOL    HW217871   5.068   4.146   5.304
 5658SOL     OW17872   2.627   3.356   5.755
 5658SOL    HW117873   2.660   3.448   5.733
 5658SOL    HW217874   2.548   3.334   5.698
 5659SOL     OW17875   3.922   3.635   6.315
 5659SOL    HW117876   3.889   3.709   6.373
 5659SOL    HW217877   4.009   3.661   6.273
 5660SOL     OW17878   4.434   6.640   5.827
 5660SOL    HW117879   4.492   6.561   5.809
 5660SOL    HW217880   4.479   6.723   5.794
 5661SOL     OW17881   1.796   5.705   4.467
 5661SOL    HW117882   1.809   5.731   4.371
 5661SOL    HW217883   1.866   5.638   4.493
 5662SOL     OW17884   2.572   0.310   2.666
 5662SOL    HW117885   2.536   0.330   2.575
 5662SOL    HW217886   2.667   0.339   2.672
 5663SOL     OW17887   2.564   2.117   0.638
 5663SOL    HW117888   2.652   2.110   0.685
 5663SOL    HW217889   2.526   2.025   0.624
 5664SOL     OW17890   6.475   3.443   3.921
 5664SOL    HW117891   6.409   3.373   3.894
 5664SOL    HW217892   6.483   3.511   3.848
 5665SOL     OW17893   1.244   6.431   0.542
 5665SOL    HW117894   1.282   6.348   0.500
 5665SOL    HW217895   1.280   6.511   0.495
 5666SOL     OW17896   6.503   0.020   3.480
 5666SOL    HW117897   6.430   0.005   3.546
 5666SOL    HW217898   6.538   0.113   3.488
 5667SOL     OW17899   1.060   5.196   4.814
 5667SOL    HW117900   1.074   5.288   4.776
 5667SOL    HW217901   0.971   5.161   4.785
 5668SOL     OW17902   6.392   2.982   3.475
 5668SOL    HW117903   6.429   2.889   3.481
 5668SOL    HW217904   6.440   3.032   3.403
 5669SOL     OW17905   6.616   5.013   0.620
 5669SOL    HW117906   6.712   5.035   0.641
 5669SOL    HW217907   6.560   5.095   0.633
 5670SOL     OW17908   1.693   3.048   3.687
 5670SOL    HW117909   1.653   3.015   3.601
 5670SOL    HW217910   1.653   3.136   3.710
 5671SOL     OW17911   6.366   5.763   5.728
 5671SOL    HW117912   6.315   5.801   5.805
 5671SOL    HW217913   6.352   5.664   5.725
 5672SOL     OW17914   5.244   4.211   5.401
 5672SOL    HW117915   5.303   4.143   5.445
 5672SOL    HW217916   5.179   4.247   5.467
 5673SOL     OW17917   1.001   6.417   1.018
 5673SOL    HW117918   0.944   6.364   1.081
 5673SOL    HW217919   1.074   6.359   0.981
 5674SOL     OW17920   2.217   4.540   4.885
 5674SOL    HW117921   2.253   4.448   4.867
 5674SOL    HW217922   2.171   4.575   4.803
 5675SOL     OW17923   4.742   2.497   0.184
 5675SOL    HW117924   4.722   2.414   0.131
 5675SOL    HW217925   4.746   2.474   0.281
 5676SOL     OW17926   2.784   1.815   2.369
 5676SOL    HW117927   2.810   1.877   2.296
 5676SOL    HW217928   2.867   1.781   2.415
 5677SOL     OW17929   0.660   0.661   0.457
 5677SOL    HW117930   0.600   0.731   0.418
 5677SOL    HW217931   0.640   0.651   0.555
 5678SOL     OW17932   4.669   1.127   2.339
 5678SOL    HW117933   4.725   1.055   2.382
 5678SOL    HW217934   4.672   1.209   2.396
 5679SOL     OW17935   5.403   1.291   4.663
 5679SOL    HW117936   5.481   1.255   4.714
 5679SOL    HW217937   5.333   1.321   4.727
 5680SOL     OW17938   2.029   5.474   6.802
 5680SOL    HW117939   2.073   5.559   6.773
 5680SOL    HW217940   2.031   5.468   6.902
 5681SOL     OW17941   0.356   3.783   2.294
 5681SOL    HW117942   0.391   3.857   2.352
 5681SOL    HW217943   0.314   3.713   2.352
 5682SOL     OW17944   2.270   5.761   3.950
 5682SOL    HW117945   2.176   5.730   3.938
 5682SOL    HW217946   2.327   5.686   3.983
 5683SOL     OW17947   3.579   2.623   5.971
 5683SOL    HW117948   3.678   2.610   5.978
 5683SOL    HW217949   3.540   2.636   6.062
 5684SOL     OW17950   2.000   3.660   6.152
 5684SOL    HW117951   2.029   3.669   6.247
 5684SOL    HW217952   1.919   3.601   6.147
 5685SOL     OW17953   2.325   2.147   3.116
 5685SOL    HW117954   2.359   2.077   3.054
 5685SOL    HW217955   2.349   2.123   3.210
 5686SOL     OW17956   3.142   1.405   4.810
 5686SOL    HW117957   3.176   1.399   4.716
 5686SOL    HW217958   3.195   1.474   4.860
 5687SOL     OW17959   1.365   6.062   6.193
 5687SOL    HW117960   1.397   5.994   6.127
 5687SOL    HW217961   1.265   6.058   6.198
 5688SOL     OW17962   1.714   2.883   2.905
 5688SOL    HW117963   1.639   2.822   2.882
 5688SOL    HW217964   1.723   2.953   2.834
 5689SOL     OW17965   2.620   0.771   1.885
 5689SOL    HW117966   2.626   0.856   1.834
 5689SOL    HW217967   2.603   0.695   1.822
 5690SOL     OW17968   1.796   5.368   6.641
 5690SOL    HW117969   1.806   5.270   6.625
 5690SOL    HW217970   1.855   5.396   6.716
 5691SOL     OW17971   3.615   0.835   2.252
 5691SOL    HW117972   3.565   0.753   2.280
 5691SOL    HW217973   3.550   0.909   2.235
 5692SOL     OW17974   4.917   4.736   1.177
 5692SOL    HW117975   4.939   4.794   1.100
 5692SOL    HW217976   4.868   4.789   1.247
 5693SOL     OW17977   4.251   0.167   1.411
 5693SOL    HW117978   4.314   0.192   1.338
 5693SOL    HW217979   4.297   0.107   1.476
 5694SOL     OW17980   0.616   0.430   2.360
 5694SOL    HW117981   0.529   0.474   2.340
 5694SOL    HW217982   0.611   0.387   2.451
 5695SOL     OW17983   1.388   1.310   2.645
 5695SOL    HW117984   1.451   1.333   2.719
 5695SOL    HW217985   1.392   1.381   2.575
 5696SOL     OW17986   1.320   6.945   3.983
 5696SOL    HW117987   1.267   6.868   4.020
 5696SOL    HW217988   1.272   6.985   3.905
 5697SOL     OW17989   5.877   2.190   2.464
 5697SOL    HW117990   5.927   2.212   2.380
 5697SOL    HW217991   5.779   2.191   2.446
 5698SOL     OW17992   1.528   4.455   4.492
 5698SOL    HW117993   1.606   4.517   4.503
 5698SOL    HW217994   1.552   4.365   4.528
 5699SOL     OW17995   2.205   2.866   2.738
 5699SOL    HW117996   2.194   2.772   2.771
 5699SOL    HW217997   2.233   2.865   2.642
 5700SOL     OW17998   6.685   6.858   3.387
 5700SOL    HW117999   6.611   6.913   3.424
 5700SOL    HW218000   6.665   6.760   3.399
 5701SOL     OW18001   6.948   0.609   1.308
 5701SOL    HW118002   6.908   0.532   1.358
 5701SOL    HW218003   6.885   0.639   1.237
 5702SOL     OW18004   1.374   6.617   4.199
 5702SOL    HW118005   1.307   6.669   4.146
 5702SOL    HW218006   1.330   6.536   4.237
 5703SOL     OW18007   6.524   4.044   6.670
 5703SOL    HW118008   6.620   4.071   6.675
 5703SOL    HW218009   6.505   4.002   6.581
 5704SOL     OW18010   4.890   3.832   3.101
 5704SOL    HW118011   4.848   3.920   3.079
 5704SOL    HW218012   4.846   3.793   3.182
 5705SOL     OW18013   5.417   5.993   6.761
 5705SOL    HW118014   5.352   5.935   6.811
 5705SOL    HW218015   5.484   5.935   6.714
 5706SOL     OW18016   5.307   2.637   1.777
 5706SOL    HW118017   5.323   2.734   1.757
 5706SOL    HW218018   5.224   2.607   1.730
 5707SOL     OW18019   6.410   0.692   0.538
 5707SOL    HW118020   6.333   0.705   0.477
 5707SOL    HW218021   6.389   0.732   0.627
 5708SOL     OW18022   5.162   6.231   2.519
 5708SOL    HW118023   5.107   6.160   2.561
 5708SOL    HW218024   5.197   6.293   2.590
 5709SOL     OW18025   0.527   0.835   3.025
 5709SOL    HW118026   0.469   0.916   3.026
 5709SOL    HW218027   0.538   0.804   2.930
 5710SOL     OW18028   3.129   2.102   0.306
 5710SOL    HW118029   3.064   2.061   0.243
 5710SOL    HW218030   3.167   2.185   0.266
 5711SOL     OW18031   5.235   0.703   1.833
 5711SOL    HW118032   5.264   0.788   1.878
 5711SOL    HW218033   5.315   0.654   1.800
 5712SOL     OW18034   6.540   6.740   0.242
 5712SOL    HW118035   6.544   6.810   0.171
 5712SOL    HW218036   6.570   6.779   0.329
 5713SOL     OW18037   3.452   4.988   1.421
 5713SOL    HW118038   3.543   4.947   1.421
 5713SOL    HW218039   3.392   4.937   1.483
 5714SOL     OW18040   6.890   6.217   0.625
 5714SOL    HW118041   6.817   6.276   0.589
 5714SOL    HW218042   6.886   6.128   0.578
 5715SOL     OW18043   0.098   0.420   2.977
 5715SOL    HW118044   0.193   0.438   3.003
 5715SOL    HW218045   0.060   0.348   3.036
 5716SOL     OW18046   0.933   5.861   6.123
 5716SOL    HW118047   0.992   5.940   6.108
 5716SOL    HW218048   0.931   5.805   6.041
 5717SOL     OW18049   2.040   5.360   1.602
 5717SOL    HW118050   2.077   5.405   1.683
 5717SOL    HW218051   2.098   5.283   1.576
 5718SOL     OW18052   1.270   3.573   0.141
 5718SOL    HW118053   1.210   3.638   0.095
 5718SOL    HW218054   1.243   3.565   0.237
 5719SOL     OW18055   2.865   3.610   0.859
 5719SOL    HW118056   2.940   3.605   0.925
 5719SOL    HW218057   2.778   3.608   0.909
 5720SOL     OW18058   1.845   6.454   4.363
 5720SOL    HW118059   1.931   6.505   4.367
 5720SOL    HW218060   1.794   6.482   4.282
 5721SOL     OW18061   5.851   4.458   0.601
 5721SOL    HW118062   5.942   4.455   0.559
 5721SOL    HW218063   5.795   4.527   0.556
 5722SOL     OW18064   0.056   2.497   5.139
 5722SOL    HW118065   7.011   2.561   5.104
 5722SOL    HW218066   0.092   2.530   5.226
 5723SOL     OW18067   4.255   3.685   0.121
 5723SOL    HW118068   4.223   3.647   0.208
 5723SOL    HW218069   4.283   3.610   0.061
 5724SOL     OW18070   5.845   3.113   4.052
 5724SOL    HW118071   5.939   3.082   4.036
 5724SOL    HW218072   5.795   3.113   3.965
 5725SOL     OW18073   6.501   5.032   4.620
 5725SOL    HW118074   6.525   4.982   4.703
 5725SOL    HW218075   6.504   5.130   4.638
 5726SOL     OW18076   5.978   5.171   4.482
 5726SOL    HW118077   6.040   5.249   4.472
 5726SOL    HW218078   6.020   5.102   4.542
 5727SOL     OW18079   0.004   2.468   4.744
 5727SOL    HW118080   6.962   2.544   4.748
 5727SOL    HW218081   0.097   2.503   4.740
 5728SOL     OW18082   5.265   5.995   5.111
 5728SOL    HW118083   5.312   6.083   5.123
 5728SOL    HW218084   5.169   6.011   5.090
 5729SOL     OW18085   1.688   2.120   6.553
 5729SOL    HW118086   1.761   2.069   6.507
 5729SOL    HW218087   1.635   2.171   6.485
 5730SOL     OW18088   6.217   4.024   6.664
 5730SOL    HW118089   6.204   4.093   6.736
 5730SOL    HW218090   6.133   3.972   6.651
 5731SOL     OW18091   7.008   0.289   2.054
 5731SOL    HW118092   6.938   0.307   2.123
 5731SOL    HW218093   7.013   0.191   2.036
 5732SOL     OW18094   0.736   6.450   3.703
 5732SOL    HW118095   0.652   6.444   3.649
 5732SOL    HW218096   0.755   6.546   3.724
 5733SOL     OW18097   4.225   6.456   5.186
 5733SOL    HW118098   4.289   6.380   5.198
 5733SOL    HW218099   4.175   6.471   5.271
 5734SOL     OW18100   1.053   6.843   5.158
 5734SOL    HW118101   1.118   6.830   5.084
 5734SOL    HW218102   0.969   6.882   5.122
 5735SOL     OW18103   3.032   1.351   1.028
 5735SOL    HW118104   3.023   1.261   1.071
 5735SOL    HW218105   3.028   1.421   1.099
 5736SOL     OW18106   0.102   4.403   0.118
 5736SOL    HW118107   0.132   4.384   0.211
 5736SOL    HW218108   0.167   4.363   0.053
 5737SOL     OW18109   5.186   6.382   0.121
 5737SOL    HW118110   5.264   6.321   0.107
 5737SOL    HW218111   5.168   6.390   0.219
 5738SOL     OW18112   1.644   3.508   6.789
 5738SOL    HW118113   1.645   3.546   6.696
 5738SOL    HW218114   1.666   3.581   6.854
 5739SOL     OW18115   1.789   1.195   6.402
 5739SOL    HW118116   1.697   1.178   6.437
 5739SOL    HW218117   1.783   1.239   6.312
 5740SOL     OW18118   4.104   5.850   0.220
 5740SOL    HW118119   4.152   5.809   0.143
 5740SOL    HW218120   4.085   5.946   0.201
 5741SOL     OW18121   6.802   5.647   4.430
 5741SOL    HW118122   6.880   5.596   4.392
 5741SOL    HW218123   6.733   5.659   4.358
 5742SOL     OW18124   5.122   6.436   2.305
 5742SOL    HW118125   5.137   6.369   2.378
 5742SOL    HW218126   5.023   6.450   2.293
 5743SOL     OW18127   3.227   0.012   4.630
 5743SOL    HW118128   3.180   7.020   4.717
 5743SOL    HW218129   3.181   6.984   4.558
 5744SOL     OW18130   4.409   0.410   0.592
 5744SOL    HW118131   4.378   0.346   0.520
 5744SOL    HW218132   4.422   0.501   0.552
 5745SOL     OW18133   3.011   1.630   4.505
 5745SOL    HW118134   3.042   1.656   4.414
 5745SOL    HW218135   3.076   1.664   4.573
 5746SOL     OW18136   5.016   0.599   0.451
 5746SOL    HW118137   4.947   0.651   0.400
 5746SOL    HW218138   4.973   0.518   0.490
 5747SOL     OW18139   0.330   5.469   2.600
 5747SOL    HW118140   0.360   5.380   2.566
 5747SOL    HW218141   0.379   5.541   2.551
 5748SOL     OW18142   2.095   4.789   1.567
 5748SOL    HW118143   2.158   4.712   1.576
 5748SOL    HW218144   2.085   4.834   1.656
 5749SOL     OW18145   2.389   1.287   4.266
 5749SOL    HW118146   2.310   1.250   4.315
 5749SOL    HW218147   2.427   1.215   4.207
 5750SOL     OW18148   5.857   5.085   4.911
 5750SOL    HW118149   5.802   5.038   4.981
 5750SOL    HW218150   5.857   5.183   4.930
 5751SOL     OW18151   2.278   2.438   5.002
 5751SOL    HW118152   2.197   2.465   5.054
 5751SOL    HW218153   2.360   2.450   5.059
 5752SOL     OW18154   6.479   0.984   6.030
 5752SOL    HW118155   6.535   1.052   5.984
 5752SOL    HW218156   6.383   1.006   6.017
 5753SOL     OW18157   3.369   3.120   6.322
 5753SOL    HW118158   3.304   3.182   6.279
 5753SOL    HW218159   3.392   3.154   6.413
 5754SOL     OW18160   5.898   5.385   1.668
 5754SOL    HW118161   5.898   5.369   1.569
 5754SOL    HW218162   5.876   5.481   1.686
 5755SOL     OW18163   2.860   3.455   6.247
 5755SOL    HW118164   2.857   3.477   6.150
 5755SOL    HW218165   2.946   3.487   6.286
 5756SOL     OW18166   6.444   4.642   3.398
 5756SOL    HW118167   6.396   4.682   3.477
 5756SOL    HW218168   6.497   4.563   3.429
 5757SOL     OW18169   6.432   6.200   1.524
 5757SOL    HW118170   6.445   6.251   1.609
 5757SOL    HW218171   6.521   6.166   1.492
 5758SOL     OW18172   2.722   2.382   4.846
 5758SOL    HW118173   2.716   2.477   4.877
 5758SOL    HW218174   2.723   2.321   4.926
 5759SOL     OW18175   4.987   2.336   6.175
 5759SOL    HW118176   5.077   2.307   6.210
 5759SOL    HW218177   4.917   2.315   6.242
 5760SOL     OW18178   1.641   6.121   2.286
 5760SOL    HW118179   1.701   6.118   2.206
 5760SOL    HW218180   1.568   6.189   2.270
 5761SOL     OW18181   5.974   0.048   5.017
 5761SOL    HW118182   5.925   0.009   5.095
 5761SOL    HW218183   6.037   7.004   4.979
 5762SOL     OW18184   5.770   6.929   0.200
 5762SOL    HW118185   5.730   7.004   0.253
 5762SOL    HW218186   5.870   6.936   0.202
 5763SOL     OW18187   0.947   6.738   0.639
 5763SOL    HW118188   0.961   6.777   0.548
 5763SOL    HW218189   0.977   6.643   0.640
 5764SOL     OW18190   5.958   4.300   5.534
 5764SOL    HW118191   5.919   4.386   5.567
 5764SOL    HW218192   6.046   4.319   5.489
 5765SOL     OW18193   6.140   4.194   6.871
 5765SOL    HW118194   6.041   4.193   6.883
 5765SOL    HW218195   6.174   4.288   6.882
 5766SOL     OW18196   3.368   1.343   1.845
 5766SOL    HW118197   3.302   1.283   1.890
 5766SOL    HW218198   3.327   1.433   1.830
 5767SOL     OW18199   1.196   6.253   0.937
 5767SOL    HW118200   1.146   6.170   0.911
 5767SOL    HW218201   1.284   6.228   0.978
 5768SOL     OW18202   7.011   0.747   3.312
 5768SOL    HW118203   6.950   0.825   3.302
 5768SOL    HW218204   0.044   0.738   3.230
 5769SOL     OW18205   2.563   6.713   3.140
 5769SOL    HW118206   2.616   6.636   3.106
 5769SOL    HW218207   2.625   6.777   3.187
 5770SOL     OW18208   6.867   6.813   1.149
 5770SOL    HW118209   6.888   6.715   1.151
 5770SOL    HW218210   6.952   6.866   1.160
 5771SOL     OW18211   1.259   0.335   0.907
 5771SOL    HW118212   1.196   0.332   0.828
 5771SOL    HW218213   1.309   0.421   0.906
 5772SOL     OW18214   5.923   2.403   0.625
 5772SOL    HW118215   5.836   2.415   0.673
 5772SOL    HW218216   5.956   2.492   0.594
 5773SOL     OW18217   5.660   6.354   4.169
 5773SOL    HW118218   5.700   6.420   4.233
 5773SOL    HW218219   5.612   6.283   4.221
 5774SOL     OW18220   2.663   4.655   3.156
 5774SOL    HW118221   2.677   4.700   3.068
 5774SOL    HW218222   2.660   4.723   3.229
 5775SOL     OW18223   0.239   0.358   0.308
 5775SOL    HW118224   0.308   0.367   0.381
 5775SOL    HW218225   0.187   0.274   0.322
 5776SOL     OW18226   5.418   0.734   6.405
 5776SOL    HW118227   5.393   0.786   6.324
 5776SOL    HW218228   5.453   0.795   6.475
 5777SOL     OW18229   5.931   0.747   4.173
 5777SOL    HW118230   5.930   0.733   4.074
 5777SOL    HW218231   6.019   0.716   4.210
 5778SOL     OW18232   2.009   0.525   2.439
 5778SOL    HW118233   1.954   0.466   2.498
 5778SOL    HW218234   2.061   0.468   2.375
 5779SOL     OW18235   3.792   1.180   1.139
 5779SOL    HW118236   3.728   1.230   1.081
 5779SOL    HW218237   3.742   1.117   1.198
 5780SOL     OW18238   6.460   4.770   1.991
 5780SOL    HW118239   6.378   4.766   1.934
 5780SOL    HW218240   6.499   4.679   2.000
 5781SOL     OW18241   2.075   4.154   5.054
 5781SOL    HW118242   2.167   4.123   5.028
 5781SOL    HW218243   2.042   4.220   4.986
 5782SOL     OW18244   1.711   0.993   1.493
 5782SOL    HW118245   1.782   1.002   1.564
 5782SOL    HW218246   1.710   0.899   1.459
 5783SOL     OW18247   1.619   0.636   0.361
 5783SOL    HW118248   1.537   0.595   0.322
 5783SOL    HW218249   1.697   0.617   0.303
 5784SOL     OW18250   0.520   6.427   6.993
 5784SOL    HW118251   0.549   6.491   6.922
 5784SOL    HW218252   0.585   6.351   6.999
 5785SOL     OW18253   1.088   0.816   1.063
 5785SOL    HW118254   1.121   0.909   1.049
 5785SOL    HW218255   1.162   0.759   1.099
 5786SOL     OW18256   1.695   3.333   1.557
 5786SOL    HW118257   1.656   3.315   1.647
 5786SOL    HW218258   1.793   3.313   1.558
 5787SOL     OW18259   5.952   2.938   4.426
 5787SOL    HW118260   5.996   2.957   4.514
 5787SOL    HW218261   5.868   2.886   4.441
 5788SOL     OW18262   3.172   0.596   2.215
 5788SOL    HW118263   3.120   0.606   2.300
 5788SOL    HW218264   3.149   0.672   2.153
 5789SOL     OW18265   3.449   3.567   0.628
 5789SOL    HW118266   3.463   3.493   0.562
 5789SOL    HW218267   3.397   3.641   0.584
 5790SOL     OW18268   5.860   5.371   4.944
 5790SOL    HW118269   5.897   5.464   4.932
 5790SOL    HW218270   5.769   5.366   4.904
 5791SOL     OW18271   3.481   1.447   2.522
 5791SOL    HW118272   3.543   1.420   2.595
 5791SOL    HW218273   3.390   1.465   2.560
 5792SOL     OW18274   4.932   3.154   3.015
 5792SOL    HW118275   4.923   3.235   2.957
 5792SOL    HW218276   5.010   3.167   3.077
 5793SOL     OW18277   5.989   2.747   4.954
 5793SOL    HW118278   5.916   2.693   4.996
 5793SOL    HW218279   5.978   2.843   4.979
 5794SOL     OW18280   2.591   6.676   5.717
 5794SOL    HW118281   2.498   6.702   5.743
 5794SOL    HW218282   2.655   6.702   5.790
 5795SOL     OW18283   0.850   5.222   1.474
 5795SOL    HW118284   0.760   5.231   1.432
 5795SOL    HW218285   0.899   5.147   1.430
 5796SOL     OW18286   4.160   1.577   6.034
 5796SOL    HW118287   4.237   1.637   6.055
 5796SOL    HW218288   4.129   1.594   5.940
 5797SOL     OW18289   4.858   1.923   0.101
 5797SOL    HW118290   4.767   1.938   0.064
 5797SOL    HW218291   4.889   1.831   0.077
 5798SOL     OW18292   1.101   3.698   5.267
 5798SOL    HW118293   1.046   3.614   5.277
 5798SOL    HW218294   1.044   3.771   5.230
 5799SOL     OW18295   1.318   6.482   3.332
 5799SOL    HW118296   1.270   6.550   3.276
 5799SOL    HW218297   1.267   6.397   3.333
 5800SOL     OW18298   0.421   0.022   0.964
 5800SOL    HW118299   0.395   0.054   0.873
 5800SOL    HW218300   0.465   0.097   1.015
 5801SOL     OW18301   2.161   2.862   2.172
 5801SOL    HW118302   2.146   2.800   2.094
 5801SOL    HW218303   2.228   2.821   2.234
 5802SOL     OW18304   6.692   1.663   2.910
 5802SOL    HW118305   6.790   1.654   2.923
 5802SOL    HW218306   6.656   1.580   2.866
 5803SOL     OW18307   1.404   5.314   4.745
 5803SOL    HW118308   1.459   5.396   4.725
 5803SOL    HW218309   1.307   5.339   4.750
 5804SOL     OW18310   5.742   6.273   3.601
 5804SOL    HW118311   5.734   6.335   3.679
 5804SOL    HW218312   5.837   6.271   3.570
 5805SOL     OW18313   2.427   3.184   0.892
 5805SOL    HW118314   2.353   3.208   0.954
 5805SOL    HW218315   2.419   3.238   0.808
 5806SOL     OW18316   0.766   3.224   3.767
 5806SOL    HW118317   0.801   3.193   3.855
 5806SOL    HW218318   0.740   3.144   3.712
 5807SOL     OW18319   1.464   6.270   0.413
 5807SOL    HW118320   1.463   6.171   0.400
 5807SOL    HW218321   1.506   6.292   0.501
 5808SOL     OW18322   5.872   0.348   4.106
 5808SOL    HW118323   5.786   0.321   4.150
 5808SOL    HW218324   5.941   0.368   4.176
 5809SOL     OW18325   0.263   2.693   6.094
 5809SOL    HW118326   0.180   2.669   6.144
 5809SOL    HW218327   0.302   2.612   6.052
 5810SOL     OW18328   4.098   6.786   4.617
 5810SOL    HW118329   4.136   6.872   4.652
 5810SOL    HW218330   4.168   6.738   4.564
 5811SOL     OW18331   2.946   3.146   6.076
 5811SOL    HW118332   2.965   3.048   6.066
 5811SOL    HW218333   2.851   3.158   6.105
 5812SOL     OW18334   5.729   2.885   0.627
 5812SOL    HW118335   5.645   2.911   0.579
 5812SOL    HW218336   5.807   2.903   0.568
 5813SOL     OW18337   4.647   6.244   0.840
 5813SOL    HW118338   4.621   6.325   0.788
 5813SOL    HW218339   4.650   6.267   0.937
 5814SOL     OW18340   6.003   1.943   2.405
 5814SOL    HW118341   6.099   1.953   2.378
 5814SOL    HW218342   5.977   2.019   2.465
 5815SOL     OW18343   6.553   0.655   4.111
 5815SOL    HW118344   6.630   0.651   4.048
 5815SOL    HW218345   6.487   0.584   4.087
 5816SOL     OW18346   0.473   4.407   2.604
 5816SOL    HW118347   0.429   4.322   2.633
 5816SOL    HW218348   0.553   4.424   2.662
 5817SOL     OW18349   5.519   4.287   4.432
 5817SOL    HW118350   5.491   4.296   4.527
 5817SOL    HW218351   5.487   4.365   4.379
 5818SOL     OW18352   1.748   6.886   4.624
 5818SOL    HW118353   1.720   6.914   4.532
 5818SOL    HW218354   1.680   6.918   4.690
 5819SOL     OW18355   4.102   4.817   6.973
 5819SOL    HW118356   4.197   4.844   6.989
 5819SOL    HW218357   4.044   4.854   0.023
 5820SOL     OW18358   5.526   4.960   2.198
 5820SOL    HW118359   5.542   4.889   2.267
 5820SOL    HW218360   5.437   4.944   2.154
 5821SOL     OW18361   6.445   1.091   1.151
 5821SOL    HW118362   6.411   0.997   1.164
 5821SOL    HW218363   6.540   1.096   1.180
 5822SOL     OW18364   1.190   2.486   2.696
 5822SOL    HW118365   1.116   2.437   2.648
 5822SOL    HW218366   1.238   2.545   2.631
 5823SOL     OW18367   2.380   6.554   3.492
 5823SOL    HW118368   2.409   6.473   3.542
 5823SOL    HW218369   2.460   6.607   3.464
 5824SOL     OW18370   1.019   0.084   2.179
 5824SOL    HW118371   1.020   0.019   2.103
 5824SOL    HW218372   0.997   0.175   2.144
 5825SOL     OW18373   6.144   0.300   4.243
 5825SOL    HW118374   6.230   0.351   4.233
 5825SOL    HW218375   6.129   0.244   4.161
 5826SOL     OW18376   0.082   0.328   5.287
 5826SOL    HW118377   0.091   0.307   5.385
 5826SOL    HW218378   0.021   0.261   5.244
 5827SOL     OW18379   1.717   4.589   5.378
 5827SOL    HW118380   1.782   4.532   5.328
 5827SOL    HW218381   1.712   4.558   5.473
 5828SOL     OW18382   4.887   6.670   4.069
 5828SOL    HW118383   4.803   6.721   4.052
 5828SOL    HW218384   4.949   6.681   3.992
 5829SOL     OW18385   2.619   0.712   3.771
 5829SOL    HW118386   2.583   0.753   3.687
 5829SOL    HW218387   2.544   0.672   3.823
 5830SOL     OW18388   3.384   5.300   5.359
 5830SOL    HW118389   3.336   5.253   5.285
 5830SOL    HW218390   3.475   5.260   5.370
 5831SOL     OW18391   1.579   1.097   5.189
 5831SOL    HW118392   1.651   1.127   5.251
 5831SOL    HW218393   1.493   1.085   5.239
 5832SOL     OW18394   3.530   4.791   1.143
 5832SOL    HW118395   3.440   4.824   1.112
 5832SOL    HW218396   3.594   4.867   1.145
 5833SOL     OW18397   4.274   3.673   5.517
 5833SOL    HW118398   4.203   3.614   5.554
 5833SOL    HW218399   4.353   3.619   5.491
 5834SOL     OW18400   6.496   4.546   0.050
 5834SOL    HW118401   6.531   4.506   6.989
 5834SOL    HW218402   6.556   4.520   0.126
 5835SOL     OW18403   5.878   0.551   2.831
 5835SOL    HW118404   5.951   0.504   2.781
 5835SOL    HW218405   5.818   0.598   2.766
 5836SOL     OW18406   4.603   6.867   1.699
 5836SOL    HW118407   4.566   6.825   1.782
 5836SOL    HW218408   4.650   6.798   1.645
 5837SOL     OW18409   3.317   4.033   0.477
 5837SOL    HW118410   3.345   3.985   0.393
 5837SOL    HW218411   3.227   4.001   0.505
 5838SOL     OW18412   2.945   1.806   1.286
 5838SOL    HW118413   2.851   1.774   1.278
 5838SOL    HW218414   2.946   1.898   1.324
 5839SOL     OW18415   1.533   2.778   2.159
 5839SOL    HW118416   1.598   2.741   2.226
 5839SOL    HW218417   1.501   2.705   2.099
 5840SOL     OW18418   0.784   3.507   2.431
 5840SOL    HW118419   0.821   3.489   2.340
 5840SOL    HW218420   0.782   3.422   2.484
 5841SOL     OW18421   4.483   0.889   0.634
 5841SOL    HW118422   4.453   0.963   0.573
 5841SOL    HW218423   4.404   0.833   0.658
 5842SOL     OW18424   2.952   1.408   0.633
 5842SOL    HW118425   3.015   1.360   0.572
 5842SOL    HW218426   2.932   1.349   0.712
 5843SOL     OW18427   1.846   3.167   1.070
 5843SOL    HW118428   1.771   3.106   1.046
 5843SOL    HW218429   1.869   3.225   0.991
 5844SOL     OW18430   0.798   0.678   4.859
 5844SOL    HW118431   0.848   0.692   4.773
 5844SOL    HW218432   0.832   0.741   4.928
 5845SOL     OW18433   0.633   6.514   1.902
 5845SOL    HW118434   0.661   6.490   1.995
 5845SOL    HW218435   0.712   6.508   1.841
 5846SOL     OW18436   6.513   3.664   5.956
 5846SOL    HW118437   6.601   3.617   5.957
 5846SOL    HW218438   6.528   3.763   5.946
 5847SOL     OW18439   2.801   3.081   0.859
 5847SOL    HW118440   2.760   3.008   0.804
 5847SOL    HW218441   2.844   3.148   0.799
 5848SOL     OW18442   2.130   6.404   3.847
 5848SOL    HW118443   2.226   6.400   3.874
 5848SOL    HW218444   2.123   6.398   3.747
 5849SOL     OW18445   1.972   5.998   5.173
 5849SOL    HW118446   2.028   6.030   5.097
 5849SOL    HW218447   1.959   6.072   5.238
 5850SOL     OW18448   1.437   2.548   1.982
 5850SOL    HW118449   1.505   2.532   1.911
 5850SOL    HW218450   1.349   2.570   1.939
 5851SOL     OW18451   5.705   3.554   4.744
 5851SOL    HW118452   5.607   3.534   4.751
 5851SOL    HW218453   5.717   3.646   4.707
 5852SOL     OW18454   5.354   5.262   3.587
 5852SOL    HW118455   5.297   5.223   3.658
 5852SOL    HW218456   5.426   5.318   3.628
 5853SOL     OW18457   3.618   5.019   5.751
 5853SOL    HW118458   3.712   5.021   5.716
 5853SOL    HW218459   3.581   5.111   5.752
 5854SOL     OW18460   2.803   4.497   6.131
 5854SOL    HW118461   2.887   4.516   6.181
 5854SOL    HW218462   2.759   4.584   6.106
 5855SOL     OW18463   2.089   2.486   3.579
 5855SOL    HW118464   2.054   2.418   3.644
 5855SOL    HW218465   2.012   2.530   3.532
 5856SOL     OW18466   1.726   6.910   2.924
 5856SOL    HW118467   1.734   6.818   2.885
 5856SOL    HW218468   1.639   6.950   2.897
 5857SOL     OW18469   0.856   3.459   6.200
 5857SOL    HW118470   0.812   3.513   6.272
 5857SOL    HW218471   0.847   3.507   6.112
 5858SOL     OW18472   2.181   1.624   3.038
 5858SOL    HW118473   2.095   1.673   3.049
 5858SOL    HW218474   2.196   1.604   2.941
 5859SOL     OW18475   6.405   0.079   2.627
 5859SOL    HW118476   6.412   0.071   2.727
 5859SOL    HW218477   6.385   0.174   2.602
 5860SOL     OW18478   0.245   3.341   3.506
 5860SOL    HW118479   0.202   3.342   3.597
 5860SOL    HW218480   0.333   3.388   3.511
 5861SOL     OW18481   6.039   0.981   4.961
 5861SOL    HW118482   5.959   1.003   5.017
 5861SOL    HW218483   6.082   0.898   4.995
 5862SOL     OW18484   0.046   5.175   2.822
 5862SOL    HW118485   6.975   5.157   2.792
 5862SOL    HW218486   0.100   5.204   2.744
 5863SOL     OW18487   3.447   0.403   4.620
 5863SOL    HW118488   3.449   0.304   4.634
 5863SOL    HW218489   3.518   0.430   4.556
 5864SOL     OW18490   3.607   3.757   3.371
 5864SOL    HW118491   3.534   3.699   3.406
 5864SOL    HW218492   3.570   3.848   3.351
 5865SOL     OW18493   6.191   0.949   5.731
 5865SOL    HW118494   6.218   1.042   5.757
 5865SOL    HW218495   6.095   0.949   5.704
 5866SOL     OW18496   4.159   3.588   1.813
 5866SOL    HW118497   4.221   3.636   1.752
 5866SOL    HW218498   4.128   3.650   1.885
 5867SOL     OW18499   2.432   2.184   1.020
 5867SOL    HW118500   2.523   2.145   1.002
 5867SOL    HW218501   2.436   2.243   1.100
 5868SOL     OW18502   0.371   1.732   6.197
 5868SOL    HW118503   0.442   1.678   6.152
 5868SOL    HW218504   0.398   1.748   6.292
 5869SOL     OW18505   0.655   4.535   4.049
 5869SOL    HW118506   0.741   4.568   4.088
 5869SOL    HW218507   0.580   4.554   4.112
 5870SOL     OW18508   4.325   4.757   5.170
 5870SOL    HW118509   4.236   4.785   5.135
 5870SOL    HW218510   4.368   4.692   5.107
 5871SOL     OW18511   3.377   2.931   3.457
 5871SOL    HW118512   3.388   2.906   3.553
 5871SOL    HW218513   3.280   2.930   3.433
 5872SOL     OW18514   4.265   6.228   2.341
 5872SOL    HW118515   4.176   6.271   2.357
 5872SOL    HW218516   4.282   6.158   2.410
 5873SOL     OW18517   3.688   4.903   2.826
 5873SOL    HW118518   3.667   4.878   2.920
 5873SOL    HW218519   3.606   4.892   2.769
 5874SOL     OW18520   2.052   4.213   5.487
 5874SOL    HW118521   2.101   4.190   5.403
 5874SOL    HW218522   2.045   4.313   5.496
 5875SOL     OW18523   3.345   1.932   0.071
 5875SOL    HW118524   3.255   1.905   0.037
 5875SOL    HW218525   3.383   1.858   0.127
 5876SOL     OW18526   4.162   3.384   2.030
 5876SOL    HW118527   4.259   3.357   2.032
 5876SOL    HW218528   4.139   3.415   1.938
 5877SOL     OW18529   5.926   6.257   1.158
 5877SOL    HW118530   5.977   6.198   1.096
 5877SOL    HW218531   5.923   6.215   1.249
 5878SOL     OW18532   1.635   4.961   2.346
 5878SOL    HW118533   1.548   4.925   2.381
 5878SOL    HW218534   1.654   5.049   2.388
 5879SOL     OW18535   6.127   4.036   0.084
 5879SOL    HW118536   6.105   4.082   7.021
 5879SOL    HW218537   6.184   3.957   0.065
 5880SOL     OW18538   2.965   6.190   1.428
 5880SOL    HW118539   2.879   6.204   1.380
 5880SOL    HW218540   3.031   6.259   1.400
 5881SOL     OW18541   0.645   4.357   3.609
 5881SOL    HW118542   0.693   4.318   3.687
 5881SOL    HW218543   0.554   4.389   3.638
 5882SOL     OW18544   5.115   0.549   0.814
 5882SOL    HW118545   5.041   0.617   0.819
 5882SOL    HW218546   5.083   0.469   0.764
 5883SOL     OW18547   6.839   2.603   6.651
 5883SOL    HW118548   6.931   2.620   6.618
 5883SOL    HW218549   6.822   2.659   6.732
 5884SOL     OW18550   1.278   1.346   3.455
 5884SOL    HW118551   1.322   1.404   3.524
 5884SOL    HW218552   1.180   1.365   3.454
 5885SOL     OW18553   6.450   6.998   1.371
 5885SOL    HW118554   6.414   6.906   1.359
 5885SOL    HW218555   6.502   0.001   1.290
 5886SOL     OW18556   0.648   2.538   5.437
 5886SOL    HW118557   0.650   2.483   5.520
 5886SOL    HW218558   0.716   2.611   5.444
 5887SOL     OW18559   3.714   0.724   4.010
 5887SOL    HW118560   3.730   0.677   4.097
 5887SOL    HW218561   3.617   0.715   3.986
 5888SOL     OW18562   1.889   6.205   2.829
 5888SOL    HW118563   1.856   6.130   2.886
 5888SOL    HW218564   1.812   6.252   2.786
 5889SOL     OW18565   2.246   0.513   1.244
 5889SOL    HW118566   2.228   0.611   1.248
 5889SOL    HW218567   2.333   0.496   1.198
 5890SOL     OW18568   0.984   6.469   5.414
 5890SOL    HW118569   0.936   6.534   5.355
 5890SOL    HW218570   1.081   6.469   5.391
 5891SOL     OW18571   3.646   3.363   6.954
 5891SOL    HW118572   3.571   3.428   6.962
 5891SOL    HW218573   3.611   3.278   6.914
 5892SOL     OW18574   1.022   6.114   1.274
 5892SOL    HW118575   0.953   6.171   1.228
 5892SOL    HW218576   0.976   6.041   1.324
 5893SOL     OW18577   1.376   2.914   3.230
 5893SOL    HW118578   1.390   2.985   3.161
 5893SOL    HW218579   1.420   2.942   3.316
 5894SOL     OW18580   1.717   4.429   3.531
 5894SOL    HW118581   1.719   4.480   3.617
 5894SOL    HW218582   1.794   4.458   3.474
 5895SOL     OW18583   5.348   2.393   5.003
 5895SOL    HW118584   5.441   2.393   4.966
 5895SOL    HW218585   5.342   2.457   5.080
 5896SOL     OW18586   3.804   2.168   6.702
 5896SOL    HW118587   3.781   2.072   6.687
 5896SOL    HW218588   3.809   2.186   6.800
 5897SOL     OW18589   3.990   0.236   1.414
 5897SOL    HW118590   4.085   0.206   1.401
 5897SOL    HW218591   3.985   0.335   1.400
 5898SOL     OW18592   1.080   0.083   1.605
 5898SOL    HW118593   1.136   0.025   1.545
 5898SOL    HW218594   1.018   0.138   1.549
 5899SOL     OW18595   6.252   6.838   5.230
 5899SOL    HW118596   6.199   6.915   5.267
 5899SOL    HW218597   6.226   6.823   5.135
 5900SOL     OW18598   4.573   4.955   2.834
 5900SOL    HW118599   4.606   5.046   2.809
 5900SOL    HW218600   4.611   4.929   2.923
 5901SOL     OW18601   1.769   6.842   6.924
 5901SOL    HW118602   1.726   6.755   6.899
 5901SOL    HW218603   1.710   6.917   6.897
 5902SOL     OW18604   6.966   2.053   0.918
 5902SOL    HW118605   6.980   1.954   0.919
 5902SOL    HW218606   6.868   2.072   0.913
 5903SOL     OW18607   5.720   4.690   0.383
 5903SOL    HW118608   5.699   4.746   0.463
 5903SOL    HW218609   5.648   4.621   0.372
 5904SOL     OW18610   0.432   3.462   2.500
 5904SOL    HW118611   0.424   3.367   2.473
 5904SOL    HW218612   0.350   3.512   2.471
 5905SOL     OW18613   6.657   6.703   3.013
 5905SOL    HW118614   6.624   6.728   2.922
 5905SOL    HW218615   6.757   6.703   3.014
 5906SOL     OW18616   5.589   0.431   3.875
 5906SOL    HW118617   5.512   0.447   3.937
 5906SOL    HW218618   5.671   0.475   3.911
 5907SOL     OW18619   1.179   6.333   1.374
 5907SOL    HW118620   1.141   6.253   1.327
 5907SOL    HW218621   1.275   6.316   1.395
 5908SOL     OW18622   0.939   1.978   5.609
 5908SOL    HW118623   0.932   2.041   5.532
 5908SOL    HW218624   0.987   1.895   5.579
 5909SOL     OW18625   1.088   5.889   0.204
 5909SOL    HW118626   1.031   5.812   0.233
 5909SOL    HW218627   1.181   5.856   0.187
 5910SOL     OW18628   0.821   3.093   3.501
 5910SOL    HW118629   0.842   2.999   3.476
 5910SOL    HW218630   0.755   3.131   3.436
 5911SOL     OW18631   6.882   5.833   6.362
 5911SOL    HW118632   6.848   5.790   6.446
 5911SOL    HW218633   6.909   5.927   6.383
 5912SOL     OW18634   5.950   1.581   5.479
 5912SOL    HW118635   5.927   1.654   5.542
 5912SOL    HW218636   5.934   1.492   5.523
 5913SOL     OW18637   5.498   2.811   0.438
 5913SOL    HW118638   5.452   2.831   0.351
 5913SOL    HW218639   5.434   2.766   0.500
 5914SOL     OW18640   0.889   6.872   6.672
 5914SOL    HW118641   0.918   6.783   6.708
 5914SOL    HW218642   0.851   6.927   6.747
 5915SOL     OW18643   3.070   6.489   6.910
 5915SOL    HW118644   3.142   6.495   6.979
 5915SOL    HW218645   3.112   6.481   6.819
 5916SOL     OW18646   0.465   6.762   1.909
 5916SOL    HW118647   0.504   6.676   1.878
 5916SOL    HW218648   0.538   6.821   1.944
 5917SOL     OW18649   3.138   3.830   6.202
 5917SOL    HW118650   3.236   3.838   6.189
 5917SOL    HW218651   3.097   3.921   6.203
 5918SOL     OW18652   2.377   6.015   5.716
 5918SOL    HW118653   2.361   5.964   5.631
 5918SOL    HW218654   2.359   6.112   5.701
 5919SOL     OW18655   3.064   3.546   3.399
 5919SOL    HW118656   3.158   3.512   3.390
 5919SOL    HW218657   3.001   3.469   3.408
 5920SOL     OW18658   5.447   1.160   6.194
 5920SOL    HW118659   5.516   1.181   6.125
 5920SOL    HW218660   5.370   1.223   6.185
 5921SOL     OW18661   3.943   4.618   6.865
 5921SOL    HW118662   4.009   4.678   6.910
 5921SOL    HW218663   3.960   4.619   6.766
 5922SOL     OW18664   6.162   3.963   3.680
 5922SOL    HW118665   6.135   3.869   3.657
 5922SOL    HW218666   6.119   3.990   3.765
 5923SOL     OW18667   6.349   1.315   1.495
 5923SOL    HW118668   6.306   1.251   1.559
 5923SOL    HW218669   6.433   1.273   1.459
 5924SOL     OW18670   5.608   6.960   2.905
 5924SOL    HW118671   5.534   6.982   2.968
 5924SOL    HW218672   5.679   6.907   2.952
 5925SOL     OW18673   4.052   6.085   1.634
 5925SOL    HW118674   4.073   5.995   1.595
 5925SOL    HW218675   4.094   6.156   1.578
 5926SOL     OW18676   4.334   4.887   3.464
 5926SOL    HW118677   4.266   4.834   3.413
 5926SOL    HW218678   4.291   4.934   3.540
 5927SOL     OW18679   1.443   4.081   1.866
 5927SOL    HW118680   1.500   3.999   1.861
 5927SOL    HW218681   1.382   4.074   1.945
 5928SOL     OW18682   4.002   0.104   1.149
 5928SOL    HW118683   3.978   0.173   1.217
 5928SOL    HW218684   3.923   0.083   1.092
 5929SOL     OW18685   6.681   0.560   5.354
 5929SOL    HW118686   6.583   0.570   5.373
 5929SOL    HW218687   6.729   0.532   5.437
 5930SOL     OW18688   1.316   3.029   1.472
 5930SOL    HW118689   1.414   3.046   1.478
 5930SOL    HW218690   1.276   3.088   1.401
 5931SOL     OW18691   6.218   6.260   2.907
 5931SOL    HW118692   6.184   6.220   2.822
 5931SOL    HW218693   6.188   6.204   2.984
 5932SOL     OW18694   3.293   7.005   6.553
 5932SOL    HW118695   3.338   6.967   6.634
 5932SOL    HW218696   3.211   0.032   6.582
 5933SOL     OW18697   0.047   5.656   4.270
 5933SOL    HW118698   0.076   5.703   4.354
 5933SOL    HW218699   0.127   5.628   4.218
 5934SOL     OW18700   3.609   3.416   5.907
 5934SOL    HW118701   3.618   3.477   5.986
 5934SOL    HW218702   3.670   3.448   5.834
 5935SOL     OW18703   0.391   6.112   5.505
 5935SOL    HW118704   0.369   6.042   5.574
 5935SOL    HW218705   0.485   6.099   5.474
 5936SOL     OW18706   2.978   3.207   2.422
 5936SOL    HW118707   3.019   3.121   2.391
 5936SOL    HW218708   2.919   3.244   2.350
 5937SOL     OW18709   6.784   2.518   1.964
 5937SOL    HW118710   6.706   2.545   2.022
 5937SOL    HW218711   6.768   2.550   1.871
 5938SOL     OW18712   6.059   5.660   5.199
 5938SOL    HW118713   6.060   5.755   5.231
 5938SOL    HW218714   6.027   5.601   5.274
 5939SOL     OW18715   3.410   6.201   4.223
 5939SOL    HW118716   3.507   6.182   4.209
 5939SOL    HW218717   3.358   6.173   4.143
 5940SOL     OW18718   4.429   5.030   3.233
 5940SOL    HW118719   4.427   4.963   3.306
 5940SOL    HW218720   4.520   5.033   3.193
 5941SOL     OW18721   6.061   2.691   2.560
 5941SOL    HW118722   6.042   2.718   2.465
 5941SOL    HW218723   6.021   2.601   2.577
 5942SOL     OW18724   5.795   3.258   6.064
 5942SOL    HW118725   5.724   3.258   5.993
 5942SOL    HW218726   5.768   3.320   6.138
 5943SOL     OW18727   4.128   3.653   0.540
 5943SOL    HW118728   4.094   3.617   0.453
 5943SOL    HW218729   4.131   3.580   0.608
 5944SOL     OW18730   0.781   2.538   0.231
 5944SOL    HW118731   0.804   2.528   0.135
 5944SOL    HW218732   0.766   2.635   0.251
 5945SOL     OW18733   0.468   6.225   5.224
 5945SOL    HW118734   0.527   6.285   5.277
 5945SOL    HW218735   0.524   6.161   5.171
 5946SOL     OW18736   3.325   4.760   0.154
 5946SOL    HW118737   3.250   4.699   0.181
 5946SOL    HW218738   3.352   4.740   0.059
 5947SOL     OW18739   3.020   3.314   4.583
 5947SOL    HW118740   3.026   3.357   4.493
 5947SOL    HW218741   2.954   3.363   4.640
 5948SOL     OW18742   4.829   4.492   1.989
 5948SOL    HW118743   4.760   4.497   1.916
 5948SOL    HW218744   4.810   4.413   2.047
 5949SOL     OW18745   6.027   5.599   1.434
 5949SOL    HW118746   5.947   5.541   1.417
 5949SOL    HW218747   6.047   5.600   1.532
 5950SOL     OW18748   5.225   2.330   5.572
 5950SOL    HW118749   5.282   2.253   5.541
 5950SOL    HW218750   5.169   2.363   5.496
 5951SOL     OW18751   0.756   5.775   5.358
 5951SOL    HW118752   0.661   5.755   5.384
 5951SOL    HW218753   0.767   5.762   5.260
 5952SOL     OW18754   3.835   5.196   3.133
 5952SOL    HW118755   3.759   5.253   3.103
 5952SOL    HW218756   3.897   5.181   3.056
 5953SOL     OW18757   6.282   3.281   4.461
 5953SOL    HW118758   6.214   3.233   4.406
 5953SOL    HW218759   6.359   3.308   4.404
 5954SOL     OW18760   0.451   5.108   5.681
 5954SOL    HW118761   0.506   5.039   5.633
 5954SOL    HW218762   0.424   5.179   5.615
 5955SOL     OW18763   4.570   5.391   1.495
 5955SOL    HW118764   4.523   5.385   1.407
 5955SOL    HW218765   4.646   5.457   1.488
 5956SOL     OW18766   5.491   2.131   4.379
 5956SOL    HW118767   5.447   2.104   4.294
 5956SOL    HW218768   5.456   2.075   4.454
 5957SOL     OW18769   1.543   1.154   3.083
 5957SOL    HW118770   1.526   1.076   3.022
 5957SOL    HW218771   1.471   1.158   3.153
 5958SOL     OW18772   3.946   0.487   2.998
 5958SOL    HW118773   4.036   0.445   3.012
 5958SOL    HW218774   3.884   0.454   3.069
 5959SOL     OW18775   4.616   2.718   5.518
 5959SOL    HW118776   4.584   2.716   5.613
 5959SOL    HW218777   4.646   2.811   5.496
 5960SOL     OW18778   3.285   6.422   4.685
 5960SOL    HW118779   3.279   6.504   4.628
 5960SOL    HW218780   3.212   6.358   4.660
 5961SOL     OW18781   3.709   1.837   2.391
 5961SOL    HW118782   3.706   1.920   2.336
 5961SOL    HW218783   3.803   1.801   2.392
 5962SOL     OW18784   5.348   6.250   6.156
 5962SOL    HW118785   5.326   6.177   6.091
 5962SOL    HW218786   5.283   6.248   6.232
 5963SOL     OW18787   3.367   4.483   6.966
 5963SOL    HW118788   3.283   4.463   6.916
 5963SOL    HW218789   3.408   4.397   6.997
 5964SOL     OW18790   2.339   6.809   3.234
 5964SOL    HW118791   2.366   6.903   3.255
 5964SOL    HW218792   2.417   6.761   3.193
 5965SOL     OW18793   1.849   0.254   6.463
 5965SOL    HW118794   1.946   0.248   6.436
 5965SOL    HW218795   1.803   0.320   6.404
 5966SOL     OW18796   1.656   0.005   5.686
 5966SOL    HW118797   1.606   0.011   5.600
 5966SOL    HW218798   1.714   0.086   5.696
 5967SOL     OW18799   2.645   1.596   5.171
 5967SOL    HW118800   2.576   1.524   5.169
 5967SOL    HW218801   2.722   1.567   5.228
 5968SOL     OW18802   5.596   2.198   0.509
 5968SOL    HW118803   5.514   2.191   0.453
 5968SOL    HW218804   5.571   2.204   0.605
 5969SOL     OW18805   4.712   0.655   6.379
 5969SOL    HW118806   4.800   0.638   6.334
 5969SOL    HW218807   4.696   0.753   6.385
 5970SOL     OW18808   0.203   4.448   0.703
 5970SOL    HW118809   0.156   4.359   0.705
 5970SOL    HW218810   0.199   4.486   0.611
 5971SOL     OW18811   6.048   0.485   2.116
 5971SOL    HW118812   5.970   0.484   2.055
 5971SOL    HW218813   6.046   0.404   2.175
 5972SOL     OW18814   5.434   5.245   6.557
 5972SOL    HW118815   5.482   5.191   6.626
 5972SOL    HW218816   5.415   5.187   6.477
 5973SOL     OW18817   2.154   3.863   2.605
 5973SOL    HW118818   2.126   3.777   2.564
 5973SOL    HW218819   2.171   3.931   2.533
 5974SOL     OW18820   4.965   0.274   0.051
 5974SOL    HW118821   4.963   0.174   0.040
 5974SOL    HW218822   4.979   0.317   6.985
 5975SOL     OW18823   4.962   5.411   1.226
 5975SOL    HW118824   4.921   5.415   1.135
 5975SOL    HW218825   4.932   5.489   1.280
 5976SOL     OW18826   3.325   3.648   5.756
 5976SOL    HW118827   3.422   3.675   5.754
 5976SOL    HW218828   3.308   3.591   5.836
 5977SOL     OW18829   0.925   5.669   0.268
 5977SOL    HW118830   0.880   5.658   0.356
 5977SOL    HW218831   0.905   5.589   0.210
 5978SOL     OW18832   3.669   5.166   0.672
 5978SOL    HW118833   3.599   5.141   0.605
 5978SOL    HW218834   3.626   5.207   0.752
 5979SOL     OW18835   6.310   0.550   2.003
 5979SOL    HW118836   6.227   0.529   2.056
 5979SOL    HW218837   6.290   0.540   1.905
 5980SOL     OW18838   3.244   2.895   2.035
 5980SOL    HW118839   3.250   2.988   1.999
 5980SOL    HW218840   3.230   2.831   1.959
 5981SOL     OW18841   4.735   1.606   0.320
 5981SOL    HW118842   4.783   1.540   0.262
 5981SOL    HW218843   4.640   1.614   0.289
 5982SOL     OW18844   5.616   2.183   2.371
 5982SOL    HW118845   5.520   2.211   2.369
 5982SOL    HW218846   5.631   2.111   2.303
 5983SOL     OW18847   1.192   0.561   3.850
 5983SOL    HW118848   1.249   0.606   3.920
 5983SOL    HW218849   1.153   0.630   3.790
 5984SOL     OW18850   5.643   6.326   3.889
 5984SOL    HW118851   5.544   6.341   3.876
 5984SOL    HW218852   5.659   6.290   3.981
 5985SOL     OW18853   6.188   2.500   3.800
 5985SOL    HW118854   6.269   2.499   3.740
 5985SOL    HW218855   6.107   2.478   3.746
 5986SOL     OW18856   4.215   3.710   5.883
 5986SOL    HW118857   4.302   3.681   5.843
 5986SOL    HW218858   4.228   3.796   5.931
 5987SOL     OW18859   6.256   0.722   4.251
 5987SOL    HW118860   6.232   0.701   4.346
 5987SOL    HW218861   6.326   0.794   4.249
 5988SOL     OW18862   3.318   1.134   6.563
 5988SOL    HW118863   3.299   1.152   6.466
 5988SOL    HW218864   3.409   1.168   6.585
 5989SOL     OW18865   1.725   5.515   6.278
 5989SOL    HW118866   1.783   5.563   6.345
 5989SOL    HW218867   1.637   5.495   6.319
 5990SOL     OW18868   3.796   3.852   0.966
 5990SOL    HW118869   3.718   3.903   1.003
 5990SOL    HW218870   3.803   3.868   0.868
 5991SOL     OW18871   4.208   5.779   6.992
 5991SOL    HW118872   4.203   5.679   6.991
 5991SOL    HW218873   4.294   5.808   6.950
 5992SOL     OW18874   2.858   6.972   2.542
 5992SOL    HW118875   2.817   6.947   2.455
 5992SOL    HW218876   2.947   6.927   2.551
 5993SOL     OW18877   5.572   3.746   6.525
 5993SOL    HW118878   5.538   3.716   6.614
 5993SOL    HW218879   5.649   3.808   6.538
 5994SOL     OW18880   6.987   2.689   0.698
 5994SOL    HW118881   6.906   2.736   0.733
 5994SOL    HW218882   6.962   2.636   0.617
 5995SOL     OW18883   4.401   2.947   1.683
 5995SOL    HW118884   4.486   2.960   1.735
 5995SOL    HW218885   4.422   2.901   1.597
 5996SOL     OW18886   1.970   5.974   1.277
 5996SOL    HW118887   1.996   5.887   1.235
 5996SOL    HW218888   2.015   6.049   1.229
 5997SOL     OW18889   0.315   6.606   3.651
 5997SOL    HW118890   0.317   6.693   3.602
 5997SOL    HW218891   0.362   6.616   3.739
 5998SOL     OW18892   5.461   0.562   1.665
 5998SOL    HW118893   5.525   0.568   1.588
 5998SOL    HW218894   5.497   0.614   1.743
 5999SOL     OW18895   3.471   3.542   1.186
 5999SOL    HW118896   3.445   3.599   1.263
 5999SOL    HW218897   3.550   3.583   1.140
 6000SOL     OW18898   0.336   5.915   0.298
 6000SOL    HW118899   0.307   5.920   0.203
 6000SOL    HW218900   0.276   5.972   0.354
 6001SOL     OW18901   5.661   6.024   6.549
 6001SOL    HW118902   5.699   5.956   6.611
 6001SOL    HW218903   5.714   6.109   6.556
 6002SOL     OW18904   6.981   0.015   5.610
 6002SOL    HW118905   6.899   6.984   5.592
 6002SOL    HW218906   6.968   0.108   5.577
 6003SOL     OW18907   6.510   2.615   4.722
 6003SOL    HW118908   6.507   2.706   4.680
 6003SOL    HW218909   6.507   2.546   4.650
 6004SOL     OW18910   5.863   2.581   3.439
 6004SOL    HW118911   5.917   2.611   3.361
 6004SOL    HW218912   5.827   2.661   3.487
 6005SOL     OW18913   5.357   4.517   5.198
 6005SOL    HW118914   5.362   4.465   5.283
 6005SOL    HW218915   5.297   4.596   5.210
 6006SOL     OW18916   3.378   0.108   5.234
 6006SOL    HW118917   3.460   0.101   5.177
 6006SOL    HW218918   3.297   0.100   5.176
 6007SOL     OW18919   0.219   3.446   6.993
 6007SOL    HW118920   0.121   3.427   6.989
 6007SOL    HW218921   0.234   3.530   0.022
 6008SOL     OW18922   2.275   4.434   5.458
 6008SOL    HW118923   2.316   4.382   5.384
 6008SOL    HW218924   2.288   4.532   5.441
 6009SOL     OW18925   4.602   5.621   3.541
 6009SOL    HW118926   4.559   5.684   3.606
 6009SOL    HW218927   4.560   5.531   3.549
 6010SOL     OW18928   0.598   3.948   4.321
 6010SOL    HW118929   0.688   3.990   4.326
 6010SOL    HW218930   0.601   3.868   4.261
 6011SOL     OW18931   4.603   2.419   2.383
 6011SOL    HW118932   4.617   2.516   2.404
 6011SOL    HW218933   4.527   2.410   2.319
 6012SOL     OW18934   6.120   0.857   0.103
 6012SOL    HW118935   6.036   0.872   0.051
 6012SOL    HW218936   6.142   0.940   0.153
 6013SOL     OW18937   4.931   1.249   2.742
 6013SOL    HW118938   5.027   1.267   2.720
 6013SOL    HW218939   4.892   1.328   2.789
 6014SOL     OW18940   3.683   3.829   3.981
 6014SOL    HW118941   3.691   3.846   4.079
 6014SOL    HW218942   3.688   3.731   3.963
 6015SOL     OW18943   5.924   3.348   4.392
 6015SOL    HW118944   5.993   3.277   4.375
 6015SOL    HW218945   5.970   3.434   4.413
 6016SOL     OW18946   5.330   2.106   5.864
 6016SOL    HW118947   5.264   2.158   5.811
 6016SOL    HW218948   5.293   2.087   5.955
 6017SOL     OW18949   0.252   4.096   4.994
 6017SOL    HW118950   0.316   4.019   5.003
 6017SOL    HW218951   0.172   4.067   4.941
 6018SOL     OW18952   3.442   1.140   4.662
 6018SOL    HW118953   3.345   1.125   4.646
 6018SOL    HW218954   3.495   1.093   4.592
 6019SOL     OW18955   0.761   3.350   5.757
 6019SOL    HW118956   0.796   3.428   5.808
 6019SOL    HW218957   0.670   3.325   5.791
 6020SOL     OW18958   0.997   5.034   0.787
 6020SOL    HW118959   1.001   4.958   0.722
 6020SOL    HW218960   0.981   5.119   0.737
 6021SOL     OW18961   4.858   0.449   2.912
 6021SOL    HW118962   4.759   0.464   2.916
 6021SOL    HW218963   4.892   0.432   3.004
 6022SOL     OW18964   6.505   1.771   3.389
 6022SOL    HW118965   6.433   1.755   3.457
 6022SOL    HW218966   6.466   1.765   3.297
 6023SOL     OW18967   5.315   0.084   1.307
 6023SOL    HW118968   5.323   0.099   1.406
 6023SOL    HW218969   5.359   0.160   1.259
 6024SOL     OW18970   0.352   4.748   0.594
 6024SOL    HW118971   0.286   4.675   0.573
 6024SOL    HW218972   0.418   4.715   0.661
 6025SOL     OW18973   2.780   1.120   3.591
 6025SOL    HW118974   2.778   1.217   3.614
 6025SOL    HW218975   2.760   1.066   3.673
 6026SOL     OW18976   6.157   4.655   4.663
 6026SOL    HW118977   6.148   4.748   4.698
 6026SOL    HW218978   6.140   4.655   4.564
 6027SOL     OW18979   6.342   3.634   6.182
 6027SOL    HW118980   6.408   3.616   6.255
 6027SOL    HW218981   6.390   3.635   6.094
 6028SOL     OW18982   5.576   5.299   1.400
 6028SOL    HW118983   5.502   5.353   1.360
 6028SOL    HW218984   5.561   5.291   1.498
 6029SOL     OW18985   1.903   6.830   3.556
 6029SOL    HW118986   1.862   6.755   3.608
 6029SOL    HW218987   1.955   6.793   3.479
 6030SOL     OW18988   5.017   3.626   4.831
 6030SOL    HW118989   4.937   3.626   4.892
 6030SOL    HW218990   5.090   3.572   4.873
 6031SOL     OW18991   1.680   5.581   3.638
 6031SOL    HW118992   1.691   5.482   3.637
 6031SOL    HW218993   1.617   5.607   3.711
 6032SOL     OW18994   3.092   5.397   3.399
 6032SOL    HW118995   3.183   5.418   3.363
 6032SOL    HW218996   3.051   5.324   3.344
 6033SOL     OW18997   2.147   2.421   2.461
 6033SOL    HW118998   2.140   2.351   2.389
 6033SOL    HW218999   2.241   2.422   2.496
 6034SOL     OW19000   0.967   0.416   6.308
 6034SOL    HW119001   1.021   0.492   6.345
 6034SOL    HW219002   0.896   0.391   6.374
 6035SOL     OW19003   0.721   0.856   2.614
 6035SOL    HW119004   0.624   0.846   2.591
 6035SOL    HW219005   0.754   0.770   2.654
 6036SOL     OW19006   6.199   4.660   1.385
 6036SOL    HW119007   6.287   4.676   1.341
 6036SOL    HW219008   6.183   4.731   1.454
 6037SOL     OW19009   4.196   0.253   1.042
 6037SOL    HW119010   4.137   0.178   1.072
 6037SOL    HW219011   4.292   0.230   1.063
 6038SOL     OW19012   0.408   2.214   6.383
 6038SOL    HW119013   0.357   2.135   6.349
 6038SOL    HW219014   0.430   2.201   6.480
 6039SOL     OW19015   3.896   4.011   3.939
 6039SOL    HW119016   3.818   3.953   3.914
 6039SOL    HW219017   3.919   4.070   3.861
 6040SOL     OW19018   1.740   1.093   6.920
 6040SOL    HW119019   1.794   1.176   6.930
 6040SOL    HW219020   1.748   1.038   7.003
 6041SOL     OW19021   3.102   2.892   5.199
 6041SOL    HW119022   3.135   2.985   5.217
 6041SOL    HW219023   3.173   2.840   5.153
 6042SOL     OW19024   3.981   6.296   3.249
 6042SOL    HW119025   3.894   6.341   3.268
 6042SOL    HW219026   3.989   6.213   3.304
 6043SOL     OW19027   1.325   0.574   4.377
 6043SOL    HW119028   1.243   0.568   4.433
 6043SOL    HW219029   1.300   0.598   4.283
 6044SOL     OW19030   2.068   2.085   1.910
 6044SOL    HW119031   2.165   2.098   1.893
 6044SOL    HW219032   2.053   2.071   2.008
 6045SOL     OW19033   4.847   3.186   3.859
 6045SOL    HW119034   4.846   3.097   3.905
 6045SOL    HW219035   4.844   3.172   3.760
 6046SOL     OW19036   3.262   2.908   0.918
 6046SOL    HW119037   3.292   2.998   0.951
 6046SOL    HW219038   3.227   2.917   0.825
 6047SOL     OW19039   5.487   2.141   1.365
 6047SOL    HW119040   5.407   2.166   1.311
 6047SOL    HW219041   5.568   2.183   1.325
 6048SOL     OW19042   5.087   5.350   5.389
 6048SOL    HW119043   5.122   5.326   5.480
 6048SOL    HW219044   5.051   5.443   5.390
 6049SOL     OW19045   5.648   4.481   5.984
 6049SOL    HW119046   5.744   4.494   6.007
 6049SOL    HW219047   5.640   4.451   5.888
 6050SOL     OW19048   2.960   5.080   0.959
 6050SOL    HW119049   2.958   5.177   0.983
 6050SOL    HW219050   2.997   5.070   0.867
 6051SOL     OW19051   1.332   0.605   2.545
 6051SOL    HW119052   1.389   0.685   2.564
 6051SOL    HW219053   1.387   0.522   2.551
 6052SOL     OW19054   5.402   0.872   1.446
 6052SOL    HW119055   5.310   0.910   1.441
 6052SOL    HW219056   5.412   0.799   1.378
 6053SOL     OW19057   4.126   0.341   6.064
 6053SOL    HW119058   4.041   0.294   6.039
 6053SOL    HW219059   4.119   0.437   6.040
 6054SOL     OW19060   3.566   5.271   0.889
 6054SOL    HW119061   3.487   5.252   0.949
 6054SOL    HW219062   3.610   5.356   0.918
 6055SOL     OW19063   3.403   5.269   6.391
 6055SOL    HW119064   3.389   5.225   6.302
 6055SOL    HW219065   3.501   5.289   6.403
 6056SOL     OW19066   5.643   2.772   5.135
 6056SOL    HW119067   5.566   2.836   5.135
 6056SOL    HW219068   5.676   2.760   5.041
 6057SOL     OW19069   6.092   0.645   2.340
 6057SOL    HW119070   6.056   0.737   2.324
 6057SOL    HW219071   6.085   0.591   2.255
 6058SOL     OW19072   5.601   3.278   0.479
 6058SOL    HW119073   5.542   3.212   0.524
 6058SOL    HW219074   5.564   3.370   0.491
 6059SOL     OW19075   5.029   3.988   5.634
 6059SOL    HW119076   5.100   3.931   5.676
 6059SOL    HW219077   4.939   3.959   5.668
 6060SOL     OW19078   3.155   3.159   0.448
 6060SOL    HW119079   3.118   3.119   0.531
 6060SOL    HW219080   3.255   3.161   0.454
 6061SOL     OW19081   4.422   4.632   0.774
 6061SOL    HW119082   4.358   4.709   0.779
 6061SOL    HW219083   4.437   4.607   0.679
 6062SOL     OW19084   2.613   2.038   6.537
 6062SOL    HW119085   2.528   2.078   6.503
 6062SOL    HW219086   2.642   2.087   6.619
 6063SOL     OW19087   3.749   4.224   5.472
 6063SOL    HW119088   3.732   4.129   5.444
 6063SOL    HW219089   3.663   4.266   5.501
 6064SOL     OW19090   0.876   0.468   1.232
 6064SOL    HW119091   0.876   0.553   1.285
 6064SOL    HW219092   0.880   0.490   1.134
 6065SOL     OW19093   0.852   5.951   1.413
 6065SOL    HW119094   0.771   5.977   1.360
 6065SOL    HW219095   0.826   5.884   1.482
 6066SOL     OW19096   5.216   0.948   3.916
 6066SOL    HW119097   5.175   0.924   4.004
 6066SOL    HW219098   5.261   1.037   3.923
 6067SOL     OW19099   4.854   1.131   5.742
 6067SOL    HW119100   4.906   1.111   5.825
 6067SOL    HW219101   4.868   1.057   5.675
 6068SOL     OW19102   5.129   2.258   4.910
 6068SOL    HW119103   5.058   2.265   4.980
 6068SOL    HW219104   5.216   2.289   4.948
 6069SOL     OW19105   6.771   3.071   6.323
 6069SOL    HW119106   6.702   3.143   6.332
 6069SOL    HW219107   6.839   3.080   6.396
 6070SOL     OW19108   3.556   2.295   1.558
 6070SOL    HW119109   3.578   2.296   1.655
 6070SOL    HW219110   3.550   2.389   1.524
 6071SOL     OW19111   0.278   6.017   4.259
 6071SOL    HW119112   0.285   6.113   4.288
 6071SOL    HW219113   0.351   5.997   4.194
 6072SOL     OW19114   6.658   1.642   1.427
 6072SOL    HW119115   6.757   1.629   1.434
 6072SOL    HW219116   6.612   1.571   1.479
 6073SOL     OW19117   5.082   2.883   1.029
 6073SOL    HW119118   4.982   2.875   1.031
 6073SOL    HW219119   5.108   2.976   1.057
 6074SOL     OW19120   1.895   0.126   2.010
 6074SOL    HW119121   1.844   0.210   1.991
 6074SOL    HW219122   1.925   0.126   2.105
 6075SOL     OW19123   4.846   0.162   5.613
 6075SOL    HW119124   4.935   0.195   5.582
 6075SOL    HW219125   4.815   0.087   5.554
 6076SOL     OW19126   2.846   5.045   3.494
 6076SOL    HW119127   2.777   5.093   3.440
 6076SOL    HW219128   2.885   5.107   3.561
 6077SOL     OW19129   5.383   6.376   0.835
 6077SOL    HW119130   5.474   6.358   0.871
 6077SOL    HW219131   5.323   6.300   0.857
 6078SOL     OW19132   4.469   4.318   0.967
 6078SOL    HW119133   4.375   4.346   0.949
 6078SOL    HW219134   4.468   4.229   1.013
 6079SOL     OW19135   5.000   4.875   6.198
 6079SOL    HW119136   4.951   4.952   6.239
 6079SOL    HW219137   5.010   4.802   6.265
 6080SOL     OW19138   0.505   4.880   1.856
 6080SOL    HW119139   0.554   4.830   1.785
 6080SOL    HW219140   0.435   4.938   1.813
 6081SOL     OW19141   6.891   3.001   5.781
 6081SOL    HW119142   6.962   2.970   5.718
 6081SOL    HW219143   6.933   3.045   5.860
 6082SOL     OW19144   3.095   6.356   2.258
 6082SOL    HW119145   3.060   6.347   2.164
 6082SOL    HW219146   3.172   6.419   2.259
 6083SOL     OW19147   5.481   5.859   0.462
 6083SOL    HW119148   5.419   5.872   0.384
 6083SOL    HW219149   5.504   5.949   0.501
 6084SOL     OW19150   1.071   6.556   1.958
 6084SOL    HW119151   1.011   6.529   1.883
 6084SOL    HW219152   1.016   6.577   2.039
 6085SOL     OW19153   6.083   6.017   6.133
 6085SOL    HW119154   5.985   6.030   6.143
 6085SOL    HW219155   6.131   6.100   6.161
 6086SOL     OW19156   2.989   2.684   5.966
 6086SOL    HW119157   2.981   2.687   5.866
 6086SOL    HW219158   3.032   2.597   5.993
 6087SOL     OW19159   4.491   5.858   0.961
 6087SOL    HW119160   4.501   5.758   0.965
 6087SOL    HW219161   4.397   5.881   0.935
 6088SOL     OW19162   6.139   6.245   5.358
 6088SOL    HW119163   6.053   6.223   5.405
 6088SOL    HW219164   6.165   6.167   5.300
 6089SOL     OW19165   6.464   2.576   3.089
 6089SOL    HW119166   6.364   2.570   3.086
 6089SOL    HW219167   6.502   2.534   3.006
 6090SOL     OW19168   2.936   5.123   4.619
 6090SOL    HW119169   2.845   5.088   4.641
 6090SOL    HW219170   2.931   5.181   4.538
 6091SOL     OW19171   2.987   1.655   0.522
 6091SOL    HW119172   2.964   1.569   0.569
 6091SOL    HW219173   3.085   1.672   0.532
 6092SOL     OW19174   4.444   1.181   1.845
 6092SOL    HW119175   4.344   1.187   1.848
 6092SOL    HW219176   4.476   1.137   1.929
 6093SOL     OW19177   2.441   2.499   2.077
 6093SOL    HW119178   2.427   2.441   2.157
 6093SOL    HW219179   2.512   2.459   2.019
 6094SOL     OW19180   1.177   6.231   3.269
 6094SOL    HW119181   1.079   6.237   3.249
 6094SOL    HW219182   1.192   6.164   3.343
 6095SOL     OW19183   4.564   4.979   6.587
 6095SOL    HW119184   4.473   5.008   6.616
 6095SOL    HW219185   4.617   4.950   6.667
 6096SOL     OW19186   5.630   6.673   2.222
 6096SOL    HW119187   5.539   6.645   2.191
 6096SOL    HW219188   5.686   6.697   2.143
 6097SOL     OW19189   1.480   5.406   1.801
 6097SOL    HW119190   1.395   5.455   1.781
 6097SOL    HW219191   1.557   5.471   1.799
 6098SOL     OW19192   6.593   0.956   5.669
 6098SOL    HW119193   6.683   0.991   5.695
 6098SOL    HW219194   6.580   0.865   5.708
 6099SOL     OW19195   5.079   5.865   5.606
 6099SOL    HW119196   5.039   5.876   5.515
 6099SOL    HW219197   5.019   5.907   5.674
 6100SOL     OW19198   0.213   5.782   1.839
 6100SOL    HW119199   0.225   5.869   1.887
 6100SOL    HW219200   0.134   5.788   1.778
 6101SOL     OW19201   6.388   2.811   2.969
 6101SOL    HW119202   6.416   2.729   3.019
 6101SOL    HW219203   6.446   2.888   2.998
 6102SOL     OW19204   4.022   6.294   2.686
 6102SOL    HW119205   3.970   6.379   2.690
 6102SOL    HW219206   4.105   6.302   2.742
 6103SOL     OW19207   6.732   1.131   1.143
 6103SOL    HW119208   6.735   1.231   1.135
 6103SOL    HW219209   6.760   1.104   1.234
 6104SOL     OW19210   6.175   0.797   5.145
 6104SOL    HW119211   6.194   0.730   5.073
 6104SOL    HW219212   6.261   0.834   5.180
 6105SOL     OW19213   1.928   5.623   5.776
 6105SOL    HW119214   2.025   5.637   5.758
 6105SOL    HW219215   1.895   5.546   5.721
 6106SOL     OW19216   1.168   5.287   0.291
 6106SOL    HW119217   1.100   5.236   0.343
 6106SOL    HW219218   1.191   5.237   0.208
 6107SOL     OW19219   4.313   5.460   3.964
 6107SOL    HW119220   4.259   5.405   4.028
 6107SOL    HW219221   4.261   5.540   3.936
 6108SOL     OW19222   1.541   2.213   3.083
 6108SOL    HW119223   1.575   2.284   3.144
 6108SOL    HW219224   1.444   2.195   3.102
 6109SOL     OW19225   5.554   1.118   5.014
 6109SOL    HW119226   5.612   1.150   5.089
 6109SOL    HW219227   5.461   1.104   5.048
 6110SOL     OW19228   1.688   2.875   6.990
 6110SOL    HW119229   1.705   2.780   6.965
 6110SOL    HW219230   1.741   2.898   0.049
 6111SOL     OW19231   1.329   3.407   1.824
 6111SOL    HW119232   1.338   3.500   1.788
 6111SOL    HW219233   1.291   3.347   1.753
 6112SOL     OW19234   4.483   0.591   2.662
 6112SOL    HW119235   4.581   0.586   2.644
 6112SOL    HW219236   4.433   0.581   2.576
 6113SOL     OW19237   2.396   3.367   6.243
 6113SOL    HW119238   2.410   3.269   6.226
 6113SOL    HW219239   2.448   3.420   6.176
 6114SOL     OW19240   5.360   3.186   2.409
 6114SOL    HW119241   5.287   3.126   2.378
 6114SOL    HW219242   5.324   3.250   2.477
 6115SOL     OW19243   6.901   1.585   5.689
 6115SOL    HW119244   6.910   1.658   5.757
 6115SOL    HW219245   6.833   1.612   5.620
 6116SOL     OW19246   4.177   2.211   5.499
 6116SOL    HW119247   4.118   2.201   5.579
 6116SOL    HW219248   4.142   2.152   5.425
 6117SOL     OW19249   1.251   2.134   3.182
 6117SOL    HW119250   1.254   2.125   3.082
 6117SOL    HW219251   1.203   2.056   3.221
 6118SOL     OW19252   5.322   0.993   1.862
 6118SOL    HW119253   5.232   1.012   1.823
 6118SOL    HW219254   5.393   1.014   1.795
 6119SOL     OW19255   0.776   2.778   0.624
 6119SOL    HW119256   0.823   2.849   0.571
 6119SOL    HW219257   0.844   2.713   0.659
 6120SOL     OW19258   1.792   6.539   5.498
 6120SOL    HW119259   1.757   6.614   5.442
 6120SOL    HW219260   1.802   6.570   5.593
 6121SOL     OW19261   0.821   3.826   5.702
 6121SOL    HW119262   0.897   3.891   5.703
 6121SOL    HW219263   0.851   3.741   5.659
 6122SOL     OW19264   4.866   5.056   6.394
 6122SOL    HW119265   4.829   5.122   6.459
 6122SOL    HW219266   4.802   5.044   6.318
 6123SOL     OW19267   5.372   0.888   5.355
 6123SOL    HW119268   5.435   0.812   5.339
 6123SOL    HW219269   5.335   0.882   5.448
 6124SOL     OW19270   0.677   6.696   5.545
 6124SOL    HW119271   0.578   6.690   5.550
 6124SOL    HW219272   0.705   6.792   5.556
 6125SOL     OW19273   2.537   3.975   7.003
 6125SOL    HW119274   2.618   3.942   6.955
 6125SOL    HW219275   2.512   3.910   0.051
 6126SOL     OW19276   1.072   1.753   5.524
 6126SOL    HW119277   1.160   1.742   5.478
 6126SOL    HW219278   1.010   1.681   5.494
 6127SOL     OW19279   4.358   0.501   1.582
 6127SOL    HW119280   4.439   0.556   1.567
 6127SOL    HW219281   4.316   0.478   1.494
 6128SOL     OW19282   5.333   5.299   0.504
 6128SOL    HW119283   5.346   5.398   0.507
 6128SOL    HW219284   5.288   5.273   0.419
 6129SOL     OW19285   1.265   3.943   3.791
 6129SOL    HW119286   1.290   3.863   3.844
 6129SOL    HW219287   1.287   4.026   3.843
 6130SOL     OW19288   6.129   2.236   3.101
 6130SOL    HW119289   6.204   2.257   3.039
 6130SOL    HW219290   6.148   2.150   3.149
 6131SOL     OW19291   0.668   2.065   2.193
 6131SOL    HW119292   0.756   2.030   2.160
 6131SOL    HW219293   0.636   2.137   2.130
 6132SOL     OW19294   3.635   1.937   6.689
 6132SOL    HW119295   3.603   1.952   6.596
 6132SOL    HW219296   3.617   1.842   6.716
 6133SOL     OW19297   1.594   2.424   3.263
 6133SOL    HW119298   1.555   2.414   3.355
 6133SOL    HW219299   1.574   2.515   3.227
 6134SOL     OW19300   4.117   0.031   6.787
 6134SOL    HW119301   4.166   0.078   6.713
 6134SOL    HW219302   4.026   0.071   6.797
 6135SOL     OW19303   6.112   6.213   0.655
 6135SOL    HW119304   6.066   6.157   0.724
 6135SOL    HW219305   6.100   6.172   0.565
 6136SOL     OW19306   1.347   2.319   1.260
 6136SOL    HW119307   1.428   2.266   1.235
 6136SOL    HW219308   1.265   2.263   1.249
 6137SOL     OW19309   0.795   3.953   2.225
 6137SOL    HW119310   0.809   3.900   2.309
 6137SOL    HW219311   0.813   4.050   2.244
 6138SOL     OW19312   3.911   0.091   2.775
 6138SOL    HW119313   3.818   0.056   2.790
 6138SOL    HW219314   3.938   0.147   2.853
 6139SOL     OW19315   0.598   0.133   5.437
 6139SOL    HW119316   0.550   0.066   5.380
 6139SOL    HW219317   0.591   0.224   5.395
 6140SOL     OW19318   0.414   1.482   3.282
 6140SOL    HW119319   0.410   1.543   3.202
 6140SOL    HW219320   0.333   1.424   3.283
 6141SOL     OW19321   1.002   0.514   5.733
 6141SOL    HW119322   1.079   0.527   5.795
 6141SOL    HW219323   0.947   0.436   5.763
 6142SOL     OW19324   1.161   6.858   5.979
 6142SOL    HW119325   1.212   6.943   5.971
 6142SOL    HW219326   1.209   6.797   6.044
 6143SOL     OW19327   6.906   4.265   0.875
 6143SOL    HW119328   6.953   4.291   0.960
 6143SOL    HW219329   6.974   4.245   0.805
 6144SOL     OW19330   5.204   4.378   3.243
 6144SOL    HW119331   5.213   4.478   3.238
 6144SOL    HW219332   5.178   4.343   3.152
 6145SOL     OW19333   5.838   4.573   4.501
 6145SOL    HW119334   5.760   4.570   4.440
 6145SOL    HW219335   5.811   4.613   4.589
 6146SOL     OW19336   3.292   6.238   3.967
 6146SOL    HW119337   3.277   6.171   3.894
 6146SOL    HW219338   3.354   6.309   3.934
 6147SOL     OW19339   2.020   2.672   4.676
 6147SOL    HW119340   2.082   2.719   4.614
 6147SOL    HW219341   2.025   2.714   4.767
 6148SOL     OW19342   3.809   5.237   6.622
 6148SOL    HW119343   3.907   5.218   6.622
 6148SOL    HW219344   3.776   5.246   6.528
 6149SOL     OW19345   1.772   0.356   1.922
 6149SOL    HW119346   1.717   0.405   1.990
 6149SOL    HW219347   1.718   0.346   1.838
 6150SOL     OW19348   5.949   3.883   6.910
 6150SOL    HW119349   5.863   3.887   6.960
 6150SOL    HW219350   5.966   3.971   6.866
 6151SOL     OW19351   4.899   5.212   4.634
 6151SOL    HW119352   4.817   5.155   4.622
 6151SOL    HW219353   4.943   5.227   4.546
 6152SOL     OW19354   0.852   5.617   4.735
 6152SOL    HW119355   0.821   5.633   4.641
 6152SOL    HW219356   0.775   5.585   4.790
 6153SOL     OW19357   5.015   5.117   1.264
 6153SOL    HW119358   4.994   5.064   1.182
 6153SOL    HW219359   4.992   5.213   1.248
 6154SOL     OW19360   5.583   3.148   2.772
 6154SOL    HW119361   5.644   3.140   2.851
 6154SOL    HW219362   5.493   3.111   2.795
 6155SOL     OW19363   3.087   0.717   2.655
 6155SOL    HW119364   2.997   0.713   2.698
 6155SOL    HW219365   3.122   0.811   2.660
 6156SOL     OW19366   4.760   4.532   1.725
 6156SOL    HW119367   4.714   4.608   1.678
 6156SOL    HW219368   4.704   4.450   1.717
 6157SOL     OW19369   0.640   2.382   3.239
 6157SOL    HW119370   0.665   2.476   3.216
 6157SOL    HW219371   0.716   2.321   3.216
 6158SOL     OW19372   2.969   1.732   6.943
 6158SOL    HW119373   3.057   1.686   6.933
 6158SOL    HW219374   2.923   1.699   0.002
 6159SOL     OW19375   5.358   2.822   0.872
 6159SOL    HW119376   5.431   2.875   0.914
 6159SOL    HW219377   5.269   2.861   0.899
 6160SOL     OW19378   6.956   6.807   6.869
 6160SOL    HW119379   6.964   6.770   6.776
 6160SOL    HW219380   0.024   6.825   6.906
 6161SOL     OW19381   4.916   1.033   0.279
 6161SOL    HW119382   4.919   1.043   0.379
 6161SOL    HW219383   5.007   1.050   0.241
 6162SOL     OW19384   5.676   6.034   3.751
 6162SOL    HW119385   5.703   5.973   3.676
 6162SOL    HW219386   5.671   6.127   3.717
 6163SOL     OW19387   5.519   5.916   2.482
 6163SOL    HW119388   5.587   5.986   2.458
 6163SOL    HW219389   5.525   5.896   2.579
 6164SOL     OW19390   3.610   4.130   4.774
 6164SOL    HW119391   3.684   4.132   4.841
 6164SOL    HW219392   3.530   4.086   4.814
 6165SOL     OW19393   3.679   2.140   5.756
 6165SOL    HW119394   3.597   2.196   5.760
 6165SOL    HW219395   3.682   2.090   5.669
 6166SOL     OW19396   5.999   1.957   0.238
 6166SOL    HW119397   5.924   2.017   0.214
 6166SOL    HW219398   6.031   1.978   0.331
 6167SOL     OW19399   0.599   4.614   3.306
 6167SOL    HW119400   0.521   4.580   3.253
 6167SOL    HW219401   0.625   4.704   3.271
 6168SOL     OW19402   0.411   2.541   3.285
 6168SOL    HW119403   0.490   2.479   3.281
 6168SOL    HW219404   0.425   2.607   3.358
 6169SOL     OW19405   0.685   1.125   6.240
 6169SOL    HW119406   0.765   1.077   6.203
 6169SOL    HW219407   0.654   1.079   6.323
 6170SOL     OW19408   3.205   4.350   6.033
 6170SOL    HW119409   3.272   4.307   6.092
 6170SOL    HW219410   3.114   4.342   6.075
 6171SOL     OW19411   1.589   3.338   1.296
 6171SOL    HW119412   1.637   3.331   1.383
 6171SOL    HW219413   1.653   3.371   1.226
 6172SOL     OW19414   0.049   0.722   2.797
 6172SOL    HW119415   0.117   0.792   2.820
 6172SOL    HW219416   0.051   0.650   2.866
 6173SOL     OW19417   6.922   4.725   2.772
 6173SOL    HW119418   6.973   4.711   2.687
 6173SOL    HW219419   6.987   4.741   2.847
 6174SOL     OW19420   5.923   4.747   3.022
 6174SOL    HW119421   5.845   4.744   3.085
 6174SOL    HW219422   5.916   4.827   2.963
 6175SOL     OW19423   5.575   0.058   3.586
 6175SOL    HW119424   5.503   7.023   3.623
 6175SOL    HW219425   5.554   0.079   3.490
 6176SOL     OW19426   6.060   2.703   7.005
 6176SOL    HW119427   6.023   2.627   0.034
 6176SOL    HW219428   6.037   2.692   6.908
 6177SOL     OW19429   5.467   1.515   1.600
 6177SOL    HW119430   5.501   1.553   1.514
 6177SOL    HW219431   5.466   1.415   1.595
 6178SOL     OW19432   4.733   5.796   1.559
 6178SOL    HW119433   4.770   5.878   1.515
 6178SOL    HW219434   4.758   5.796   1.655
 6179SOL     OW19435   0.043   3.995   4.832
 6179SOL    HW119436   0.086   3.959   4.749
 6179SOL    HW219437   7.021   4.082   4.810
 6180SOL     OW19438   3.054   6.573   6.148
 6180SOL    HW119439   3.122   6.586   6.076
 6180SOL    HW219440   3.012   6.483   6.138
 6181SOL     OW19441   5.294   6.491   0.410
 6181SOL    HW119442   5.382   6.509   0.455
 6181SOL    HW219443   5.245   6.577   0.399
 6182SOL     OW19444   5.455   4.439   5.453
 6182SOL    HW119445   5.552   4.427   5.434
 6182SOL    HW219446   5.407   4.352   5.438
 6183SOL     OW19447   2.599   0.109   3.152
 6183SOL    HW119448   2.683   0.161   3.164
 6183SOL    HW219449   2.573   0.109   3.056
 6184SOL     OW19450   1.786   6.602   6.172
 6184SOL    HW119451   1.873   6.645   6.150
 6184SOL    HW219452   1.786   6.508   6.137
 6185SOL     OW19453   1.641   4.550   6.907
 6185SOL    HW119454   1.562   4.489   6.911
 6185SOL    HW219455   1.707   4.523   6.978
 6186SOL     OW19456   5.676   6.843   3.826
 6186SOL    HW119457   5.693   6.941   3.835
 6186SOL    HW219458   5.742   6.804   3.761
 6187SOL     OW19459   4.712   4.369   4.380
 6187SOL    HW119460   4.732   4.312   4.460
 6187SOL    HW219461   4.795   4.414   4.349
 6188SOL     OW19462   2.267   6.164   1.313
 6188SOL    HW119463   2.243   6.148   1.218
 6188SOL    HW219464   2.212   6.239   1.350
 6189SOL     OW19465   4.528   4.548   4.111
 6189SOL    HW119466   4.573   4.592   4.033
 6189SOL    HW219467   4.562   4.455   4.120
 6190SOL     OW19468   6.221   3.925   6.241
 6190SOL    HW119469   6.262   3.835   6.259
 6190SOL    HW219470   6.145   3.915   6.177
 6191SOL     OW19471   4.568   2.431   0.768
 6191SOL    HW119472   4.640   2.468   0.710
 6191SOL    HW219473   4.602   2.422   0.862
 6192SOL     OW19474   3.368   3.265   0.778
 6192SOL    HW119475   3.278   3.223   0.780
 6192SOL    HW219476   3.425   3.218   0.711
 6193SOL     OW19477   4.152   1.271   2.673
 6193SOL    HW119478   4.229   1.334   2.684
 6193SOL    HW219479   4.107   1.257   2.762
 6194SOL     OW19480   2.160   6.598   0.286
 6194SOL    HW119481   2.148   6.534   0.210
 6194SOL    HW219482   2.245   6.649   0.275
 6195SOL     OW19483   3.661   5.208   5.411
 6195SOL    HW119484   3.685   5.111   5.404
 6195SOL    HW219485   3.681   5.253   5.324
 6196SOL     OW19486   5.927   2.072   1.138
 6196SOL    HW119487   5.939   2.166   1.170
 6196SOL    HW219488   5.969   2.008   1.202
 6197SOL     OW19489   4.788   3.662   0.668
 6197SOL    HW119490   4.769   3.675   0.570
 6197SOL    HW219491   4.786   3.751   0.714
 6198SOL     OW19492   3.113   5.531   2.322
 6198SOL    HW119493   3.121   5.533   2.421
 6198SOL    HW219494   3.021   5.562   2.296
 6199SOL     OW19495   0.578   0.187   1.093
 6199SOL    HW119496   0.630   0.102   1.092
 6199SOL    HW219497   0.504   0.181   1.160
 6200SOL     OW19498   2.068   0.946   5.638
 6200SOL    HW119499   2.084   0.912   5.731
 6200SOL    HW219500   2.045   1.043   5.641
 6201SOL     OW19501   1.934   3.651   5.535
 6201SOL    HW119502   1.852   3.601   5.506
 6201SOL    HW219503   2.013   3.590   5.531
 6202SOL     OW19504   3.980   1.970   1.440
 6202SOL    HW119505   3.901   2.031   1.449
 6202SOL    HW219506   3.959   1.882   1.482
 6203SOL     OW19507   5.175   6.864   3.520
 6203SOL    HW119508   5.115   6.836   3.594
 6203SOL    HW219509   5.263   6.895   3.557
 6204SOL     OW19510   0.730   5.115   4.884
 6204SOL    HW119511   0.631   5.115   4.899
 6204SOL    HW219512   0.763   5.020   4.882
 6205SOL     OW19513   5.620   6.623   6.555
 6205SOL    HW119514   5.548   6.576   6.605
 6205SOL    HW219515   5.614   6.599   6.458
 6206SOL     OW19516   6.509   6.920   2.459
 6206SOL    HW119517   6.479   6.985   2.530
 6206SOL    HW219518   6.467   6.831   2.476
 6207SOL     OW19519   1.346   4.023   4.928
 6207SOL    HW119520   1.398   4.013   5.012
 6207SOL    HW219521   1.307   4.115   4.924
 6208SOL     OW19522   6.185   0.658   6.694
 6208SOL    HW119523   6.231   0.719   6.758
 6208SOL    HW219524   6.206   0.563   6.717
 6209SOL     OW19525   4.851   5.548   6.813
 6209SOL    HW119526   4.824   5.496   6.733
 6209SOL    HW219527   4.837   5.646   6.796
 6210SOL     OW19528   5.823   4.901   3.726
 6210SOL    HW119529   5.745   4.943   3.680
 6210SOL    HW219530   5.907   4.923   3.677
 6211SOL     OW19531   3.579   6.429   4.706
 6211SOL    HW119532   3.483   6.409   4.726
 6211SOL    HW219533   3.600   6.401   4.613
 6212SOL     OW19534   1.406   5.309   2.604
 6212SOL    HW119535   1.344   5.241   2.643
 6212SOL    HW219536   1.397   5.395   2.655
 6213SOL     OW19537   4.773   0.134   6.482
 6213SOL    HW119538   4.766   0.124   6.582
 6213SOL    HW219539   4.866   0.160   6.458
 6214SOL     OW19540   5.719   4.755   3.204
 6214SOL    HW119541   5.663   4.673   3.212
 6214SOL    HW219542   5.791   4.754   3.272
 6215SOL     OW19543   3.908   1.563   6.736
 6215SOL    HW119544   3.827   1.597   6.688
 6215SOL    HW219545   3.918   1.465   6.718
 6216SOL     OW19546   6.484   2.626   2.534
 6216SOL    HW119547   6.414   2.685   2.575
 6216SOL    HW219548   6.479   2.634   2.435
 6217SOL     OW19549   6.716   2.819   2.647
 6217SOL    HW119550   6.685   2.903   2.602
 6217SOL    HW219551   6.658   2.743   2.617
 6218SOL     OW19552   3.490   5.205   4.622
 6218SOL    HW119553   3.402   5.211   4.576
 6218SOL    HW219554   3.478   5.162   4.711
 6219SOL     OW19555   0.790   1.439   4.639
 6219SOL    HW119556   0.698   1.420   4.605
 6219SOL    HW219557   0.842   1.488   4.570
 6220SOL     OW19558   1.266   3.692   5.604
 6220SOL    HW119559   1.268   3.703   5.703
 6220SOL    HW219560   1.308   3.605   5.579
 6221SOL     OW19561   6.381   5.623   6.137
 6221SOL    HW119562   6.354   5.620   6.233
 6221SOL    HW219563   6.410   5.716   6.114
 6222SOL     OW19564   0.954   6.547   1.329
 6222SOL    HW119565   0.921   6.456   1.354
 6222SOL    HW219566   1.054   6.544   1.318
 6223SOL     OW19567   0.162   3.861   4.600
 6223SOL    HW119568   0.198   3.769   4.616
 6223SOL    HW219569   0.063   3.856   4.587
 6224SOL     OW19570   2.038   1.822   6.344
 6224SOL    HW119571   1.958   1.768   6.371
 6224SOL    HW219572   2.045   1.903   6.402
 6225SOL     OW19573   3.346   3.122   1.051
 6225SOL    HW119574   3.329   3.218   1.032
 6225SOL    HW219575   3.332   3.104   1.149
 6226SOL     OW19576   5.424   1.980   4.600
 6226SOL    HW119577   5.380   1.966   4.689
 6226SOL    HW219578   5.378   1.924   4.531
 6227SOL     OW19579   3.679   5.220   6.352
 6227SOL    HW119580   3.659   5.180   6.263
 6227SOL    HW219581   3.742   5.297   6.340
 6228SOL     OW19582   0.205   3.057   2.258
 6228SOL    HW119583   0.131   2.993   2.278
 6228SOL    HW219584   0.196   3.137   2.318
 6229SOL     OW19585   0.881   3.171   2.051
 6229SOL    HW119586   0.934   3.193   2.133
 6229SOL    HW219587   0.913   3.085   2.012
 6230SOL     OW19588   1.307   1.097   4.031
 6230SOL    HW119589   1.315   1.005   4.069
 6230SOL    HW219590   1.221   1.105   3.981
 6231SOL     OW19591   6.960   4.780   1.460
 6231SOL    HW119592   6.958   4.772   1.360
 6231SOL    HW219593   0.029   4.804   1.490
 6232SOL     OW19594   6.183   1.750   0.945
 6232SOL    HW119595   6.097   1.792   0.976
 6232SOL    HW219596   6.184   1.654   0.970
 6233SOL     OW19597   5.700   1.008   0.096
 6233SOL    HW119598   5.686   1.080   0.165
 6233SOL    HW219599   5.784   1.027   0.045
 6234SOL     OW19600   7.023   1.303   6.060
 6234SOL    HW119601   0.076   1.338   6.114
 6234SOL    HW219602   0.033   1.274   5.970
 6235SOL     OW19603   1.348   0.169   2.061
 6235SOL    HW119604   1.384   0.078   2.043
 6235SOL    HW219605   1.268   0.162   2.122
 6236SOL     OW19606   0.618   4.947   0.309
 6236SOL    HW119607   0.664   4.984   0.390
 6236SOL    HW219608   0.542   5.006   0.283
 6237SOL     OW19609   3.332   6.210   0.141
 6237SOL    HW119610   3.373   6.132   0.094
 6237SOL    HW219611   3.388   6.234   0.221
 6238SOL     OW19612   4.128   4.730   3.364
 6238SOL    HW119613   4.212   4.691   3.326
 6238SOL    HW219614   4.081   4.783   3.293
 6239SOL     OW19615   2.804   6.596   1.717
 6239SOL    HW119616   2.765   6.519   1.667
 6239SOL    HW219617   2.788   6.681   1.666
 6240SOL     OW19618   3.136   2.576   6.995
 6240SOL    HW119619   3.038   2.572   7.009
 6240SOL    HW219620   3.175   2.651   0.025
 6241SOL     OW19621   2.244   0.726   2.279
 6241SOL    HW119622   2.148   0.748   2.261
 6241SOL    HW219623   2.278   0.666   2.207
 6242SOL     OW19624   5.289   0.607   3.616
 6242SOL    HW119625   5.264   0.652   3.531
 6242SOL    HW219626   5.326   0.675   3.680
 6243SOL     OW19627   5.253   6.607   3.387
 6243SOL    HW119628   5.256   6.594   3.288
 6243SOL    HW219629   5.220   6.699   3.408
 6244SOL     OW19630   1.795   2.351   2.124
 6244SOL    HW119631   1.859   2.421   2.092
 6244SOL    HW219632   1.716   2.395   2.167
 6245SOL     OW19633   1.956   4.686   1.241
 6245SOL    HW119634   1.951   4.635   1.155
 6245SOL    HW219635   2.007   4.771   1.226
 6246SOL     OW19636   2.130   3.084   6.033
 6246SOL    HW119637   2.179   3.155   5.983
 6246SOL    HW219638   2.039   3.117   6.058
 6247SOL     OW19639   0.485   6.397   3.588
 6247SOL    HW119640   0.480   6.303   3.555
 6247SOL    HW219641   0.393   6.434   3.600
 6248SOL     OW19642   2.493   4.052   0.849
 6248SOL    HW119643   2.453   4.041   0.941
 6248SOL    HW219644   2.525   4.146   0.838
 6249SOL     OW19645   0.612   4.685   0.246
 6249SOL    HW119646   0.624   4.782   0.268
 6249SOL    HW219647   0.516   4.668   0.224
 6250SOL     OW19648   6.685   5.858   0.300
 6250SOL    HW119649   6.781   5.860   0.274
 6250SOL    HW219650   6.676   5.880   0.397
 6251SOL     OW19651   3.469   6.409   6.956
 6251SOL    HW119652   3.477   6.455   6.868
 6251SOL    HW219653   3.404   6.458   7.014
 6252SOL     OW19654   1.738   6.812   4.956
 6252SOL    HW119655   1.718   6.896   4.907
 6252SOL    HW219656   1.717   6.824   5.053
 6253SOL     OW19657   2.298   4.246   2.629
 6253SOL    HW119658   2.317   4.156   2.590
 6253SOL    HW219659   2.326   4.317   2.565
 6254SOL     OW19660   5.177   0.976   0.822
 6254SOL    HW119661   5.114   0.951   0.748
 6254SOL    HW219662   5.129   0.973   0.910
 6255SOL     OW19663   2.011   0.945   1.435
 6255SOL    HW119664   1.934   0.962   1.496
 6255SOL    HW219665   1.978   0.909   1.348
 6256SOL     OW19666   3.511   5.768   3.067
 6256SOL    HW119667   3.561   5.683   3.049
 6256SOL    HW219668   3.483   5.770   3.163
 6257SOL     OW19669   5.612   2.473   1.118
 6257SOL    HW119670   5.514   2.493   1.121
 6257SOL    HW219671   5.640   2.460   1.022
 6258SOL     OW19672   4.298   0.249   3.559
 6258SOL    HW119673   4.292   0.174   3.625
 6258SOL    HW219674   4.243   0.326   3.590
 6259SOL     OW19675   2.974   2.184   0.541
 6259SOL    HW119676   2.982   2.091   0.576
 6259SOL    HW219677   2.972   2.182   0.441
 6260SOL     OW19678   2.584   4.287   6.799
 6260SOL    HW119679   2.508   4.320   6.857
 6260SOL    HW219680   2.547   4.256   6.711
 6261SOL     OW19681   3.171   0.304   6.283
 6261SOL    HW119682   3.220   0.218   6.298
 6261SOL    HW219683   3.159   0.351   6.370
 6262SOL     OW19684   1.613   4.702   0.951
 6262SOL    HW119685   1.623   4.628   1.018
 6262SOL    HW219686   1.663   4.783   0.982
 6263SOL     OW19687   0.010   0.589   5.947
 6263SOL    HW119688   0.083   0.599   6.014
 6263SOL    HW219689   6.959   0.652   5.969
 6264SOL     OW19690   1.653   6.835   0.959
 6264SOL    HW119691   1.583   6.770   0.992
 6264SOL    HW219692   1.641   6.923   1.005
 6265SOL     OW19693   3.583   4.161   0.882
 6265SOL    HW119694   3.506   4.121   0.833
 6265SOL    HW219695   3.562   4.166   0.980
 6266SOL     OW19696   4.431   0.180   4.511
 6266SOL    HW119697   4.387   0.118   4.446
 6266SOL    HW219698   4.364   0.207   4.581
 6267SOL     OW19699   3.238   0.285   0.098
 6267SOL    HW119700   3.287   0.201   0.074
 6267SOL    HW219701   3.205   0.278   0.192
 6268SOL     OW19702   3.245   6.393   3.025
 6268SOL    HW119703   3.243   6.402   2.925
 6268SOL    HW219704   3.152   6.375   3.058
 6269SOL     OW19705   6.743   5.829   2.147
 6269SOL    HW119706   6.773   5.805   2.055
 6269SOL    HW219707   6.705   5.922   2.146
 6270SOL     OW19708   1.628   0.018   4.846
 6270SOL    HW119709   1.681   0.097   4.815
 6270SOL    HW219710   1.531   0.043   4.850
 6271SOL     OW19711   5.903   2.658   5.388
 6271SOL    HW119712   5.953   2.587   5.339
 6271SOL    HW219713   5.807   2.633   5.395
 6272SOL     OW19714   1.377   2.581   5.784
 6272SOL    HW119715   1.406   2.562   5.691
 6272SOL    HW219716   1.278   2.599   5.785
 6273SOL     OW19717   1.678   0.497   2.160
 6273SOL    HW119718   1.662   0.554   2.241
 6273SOL    HW219719   1.633   0.409   2.172
 6274SOL     OW19720   2.192   5.614   5.818
 6274SOL    HW119721   2.236   5.686   5.765
 6274SOL    HW219722   2.261   5.559   5.865
 6275SOL     OW19723   2.121   6.290   4.615
 6275SOL    HW119724   2.136   6.274   4.712
 6275SOL    HW219725   2.027   6.269   4.591
 6276SOL     OW19726   1.549   5.144   3.726
 6276SOL    HW119727   1.468   5.129   3.783
 6276SOL    HW219728   1.546   5.083   3.647
 6277SOL     OW19729   5.435   3.114   2.163
 6277SOL    HW119730   5.472   3.025   2.189
 6277SOL    HW219731   5.412   3.166   2.246
 6278SOL     OW19732   4.951   0.117   4.544
 6278SOL    HW119733   4.995   0.146   4.459
 6278SOL    HW219734   4.907   0.195   4.587
 6279SOL     OW19735   3.618   0.685   6.408
 6279SOL    HW119736   3.651   0.631   6.485
 6279SOL    HW219737   3.584   0.623   6.337
 6280SOL     OW19738   0.651   2.069   6.095
 6280SOL    HW119739   0.567   2.038   6.050
 6280SOL    HW219740   0.730   2.029   6.050
 6281SOL     OW19741   1.708   5.667   4.806
 6281SOL    HW119742   1.737   5.714   4.722
 6281SOL    HW219743   1.741   5.572   4.804
 6282SOL     OW19744   1.250   0.636   4.905
 6282SOL    HW119745   1.171   0.686   4.868
 6282SOL    HW219746   1.266   0.664   4.999
 6283SOL     OW19747   6.409   3.089   5.508
 6283SOL    HW119748   6.393   3.174   5.558
 6283SOL    HW219749   6.419   3.109   5.411
 6284SOL     OW19750   1.929   5.382   5.060
 6284SOL    HW119751   2.028   5.372   5.047
 6284SOL    HW219752   1.903   5.476   5.039
 6285SOL     OW19753   1.213   2.725   3.541
 6285SOL    HW119754   1.151   2.775   3.602
 6285SOL    HW219755   1.222   2.631   3.573
 6286SOL     OW19756   6.364   2.051   3.904
 6286SOL    HW119757   6.324   1.968   3.943
 6286SOL    HW219758   6.325   2.131   3.949
 6287SOL     OW19759   4.338   4.699   3.121
 6287SOL    HW119760   4.350   4.632   3.048
 6287SOL    HW219761   4.286   4.777   3.085
 6288SOL     OW19762   5.892   4.752   2.273
 6288SOL    HW119763   5.898   4.832   2.333
 6288SOL    HW219764   5.883   4.669   2.328
 6289SOL     OW19765   1.251   4.517   2.722
 6289SOL    HW119766   1.269   4.536   2.625
 6289SOL    HW219767   1.275   4.596   2.777
 6290SOL     OW19768   6.118   4.006   4.267
 6290SOL    HW119769   6.142   4.021   4.171
 6290SOL    HW219770   6.201   4.001   4.322
 6291SOL     OW19771   3.701   3.476   4.059
 6291SOL    HW119772   3.768   3.486   3.986
 6291SOL    HW219773   3.609   3.488   4.022
 6292SOL     OW19774   1.239   2.495   3.660
 6292SOL    HW119775   1.298   2.438   3.603
 6292SOL    HW219776   1.206   2.442   3.738
 6293SOL     OW19777   4.317   0.091   6.987
 6293SOL    HW119778   4.274   0.055   6.905
 6293SOL    HW219779   4.250   0.097   0.038
 6294SOL     OW19780   3.464   4.994   4.335
 6294SOL    HW119781   3.426   5.064   4.397
 6294SOL    HW219782   3.398   4.920   4.324
 6295SOL     OW19783   4.954   5.108   5.409
 6295SOL    HW119784   4.900   5.067   5.336
 6295SOL    HW219785   4.990   5.196   5.379
 6296SOL     OW19786   0.086   6.616   5.099
 6296SOL    HW119787   0.003   6.643   5.147
 6296SOL    HW219788   0.121   6.531   5.139
 6297SOL     OW19789   4.975   7.017   5.329
 6297SOL    HW119790   4.989   7.010   5.231
 6297SOL    HW219791   4.994   0.088   5.358
 6298SOL     OW19792   1.592   2.385   5.973
 6298SOL    HW119793   1.648   2.409   6.052
 6298SOL    HW219794   1.628   2.302   5.931
 6299SOL     OW19795   4.931   1.576   0.642
 6299SOL    HW119796   4.930   1.484   0.604
 6299SOL    HW219797   4.946   1.642   0.568
 6300SOL     OW19798   5.194   0.643   5.245
 6300SOL    HW119799   5.121   0.679   5.303
 6300SOL    HW219800   5.254   0.718   5.216
 6301SOL     OW19801   2.724   0.921   1.439
 6301SOL    HW119802   2.792   0.861   1.482
 6301SOL    HW219803   2.749   1.016   1.458
 6302SOL     OW19804   1.436   1.678   3.998
 6302SOL    HW119805   1.461   1.595   3.947
 6302SOL    HW219806   1.500   1.752   3.975
 6303SOL     OW19807   2.300   0.969   4.622
 6303SOL    HW119808   2.244   0.953   4.703
 6303SOL    HW219809   2.382   1.020   4.647
 6304SOL     OW19810   2.024   1.411   0.576
 6304SOL    HW119811   2.108   1.360   0.560
 6304SOL    HW219812   1.947   1.347   0.584
 6305SOL     OW19813   6.031   6.933   0.729
 6305SOL    HW119814   6.055   0.005   0.747
 6305SOL    HW219815   5.976   6.898   0.805
 6306SOL     OW19816   1.396   3.972   4.538
 6306SOL    HW119817   1.427   3.881   4.510
 6306SOL    HW219818   1.456   4.008   4.609
 6307SOL     OW19819   3.954   3.862   5.527
 6307SOL    HW119820   3.918   3.827   5.614
 6307SOL    HW219821   4.033   3.921   5.545
 6308SOL     OW19822   1.362   1.792   4.762
 6308SOL    HW119823   1.348   1.874   4.818
 6308SOL    HW219824   1.415   1.725   4.814
 6309SOL     OW19825   4.789   4.032   4.633
 6309SOL    HW119826   4.809   4.021   4.536
 6309SOL    HW219827   4.809   4.125   4.662
 6310SOL     OW19828   1.973   5.447   3.792
 6310SOL    HW119829   1.995   5.475   3.698
 6310SOL    HW219830   2.053   5.405   3.833
 6311SOL     OW19831   6.008   0.598   5.607
 6311SOL    HW119832   6.006   0.619   5.509
 6311SOL    HW219833   6.020   0.500   5.620
 6312SOL     OW19834   5.812   5.200   5.617
 6312SOL    HW119835   5.871   5.217   5.538
 6312SOL    HW219836   5.774   5.108   5.610
 6313SOL     OW19837   1.633   5.721   3.019
 6313SOL    HW119838   1.666   5.684   3.105
 6313SOL    HW219839   1.582   5.806   3.036
 6314SOL     OW19840   4.222   6.239   1.472
 6314SOL    HW119841   4.306   6.193   1.444
 6314SOL    HW219842   4.225   6.335   1.444
 6315SOL     OW19843   3.675   3.212   6.327
 6315SOL    HW119844   3.638   3.173   6.243
 6315SOL    HW219845   3.770   3.183   6.338
 6316SOL     OW19846   4.702   2.007   6.491
 6316SOL    HW119847   4.715   2.059   6.574
 6316SOL    HW219848   4.700   1.909   6.512
 6317SOL     OW19849   4.993   5.567   3.307
 6317SOL    HW119850   5.057   5.497   3.339
 6317SOL    HW219851   4.989   5.642   3.374
 6318SOL     OW19852   3.138   1.877   4.844
 6318SOL    HW119853   3.059   1.823   4.874
 6318SOL    HW219854   3.174   1.839   4.759
 6319SOL     OW19855   0.269   2.263   3.319
 6319SOL    HW119856   0.206   2.305   3.385
 6319SOL    HW219857   0.360   2.303   3.331
 6320SOL     OW19858   6.000   4.392   4.953
 6320SOL    HW119859   5.913   4.433   4.927
 6320SOL    HW219860   6.020   4.315   4.892
 6321SOL     OW19861   3.338   4.963   0.963
 6321SOL    HW119862   3.374   5.054   0.984
 6321SOL    HW219863   3.253   4.949   1.013
 6322SOL     OW19864   1.522   2.597   6.490
 6322SOL    HW119865   1.536   2.569   6.395
 6322SOL    HW219866   1.530   2.517   6.549
 6323SOL     OW19867   3.682   2.958   1.210
 6323SOL    HW119868   3.625   2.923   1.135
 6323SOL    HW219869   3.700   2.884   1.275
 6324SOL     OW19870   5.025   0.114   6.064
 6324SOL    HW119871   4.963   0.192   6.056
 6324SOL    HW219872   5.000   0.060   6.144
 6325SOL     OW19873   1.030   1.995   2.267
 6325SOL    HW119874   1.026   1.912   2.322
 6325SOL    HW219875   1.116   1.997   2.216
 6326SOL     OW19876   4.520   6.183   2.005
 6326SOL    HW119877   4.471   6.252   1.951
 6326SOL    HW219878   4.596   6.146   1.952
 6327SOL     OW19879   0.165   0.590   5.260
 6327SOL    HW119880   0.084   0.646   5.278
 6327SOL    HW219881   0.145   0.494   5.278
 6328SOL     OW19882   1.822   4.061   0.730
 6328SOL    HW119883   1.901   4.085   0.786
 6328SOL    HW219884   1.793   4.141   0.677
 6329SOL     OW19885   2.281   2.706   3.316
 6329SOL    HW119886   2.287   2.764   3.234
 6329SOL    HW219887   2.354   2.637   3.312
 6330SOL     OW19888   4.620   0.910   1.597
 6330SOL    HW119889   4.545   0.970   1.570
 6330SOL    HW219890   4.608   0.881   1.692
 6331SOL     OW19891   6.036   2.012   0.522
 6331SOL    HW119892   5.951   2.036   0.570
 6331SOL    HW219893   6.064   1.920   0.547
 6332SOL     OW19894   6.976   4.156   2.174
 6332SOL    HW119895   0.005   4.233   2.211
 6332SOL    HW219896   0.010   4.074   2.171
 6333SOL     OW19897   4.202   4.807   4.275
 6333SOL    HW119898   4.201   4.747   4.355
 6333SOL    HW219899   4.190   4.752   4.192
 6334SOL     OW19900   2.068   0.358   2.246
 6334SOL    HW119901   2.038   0.389   2.156
 6334SOL    HW219902   2.145   0.294   2.235
 6335SOL     OW19903   4.632   1.279   1.082
 6335SOL    HW119904   4.682   1.306   1.164
 6335SOL    HW219905   4.572   1.354   1.054
 6336SOL     OW19906   0.137   1.517   6.247
 6336SOL    HW119907   0.236   1.503   6.239
 6336SOL    HW219908   0.111   1.598   6.194
 6337SOL     OW19909   4.714   3.995   6.344
 6337SOL    HW119910   4.639   4.060   6.339
 6337SOL    HW219911   4.795   4.034   6.300
 6338SOL     OW19912   2.927   2.054   2.736
 6338SOL    HW119913   2.858   2.095   2.676
 6338SOL    HW219914   3.011   2.108   2.731
 6339SOL     OW19915   0.652   2.857   3.284
 6339SOL    HW119916   0.657   2.946   3.238
 6339SOL    HW219917   0.701   2.862   3.371
 6340SOL     OW19918   1.955   4.854   2.882
 6340SOL    HW119919   1.976   4.757   2.872
 6340SOL    HW219920   1.996   4.888   2.967
 6341SOL     OW19921   0.724   4.827   3.840
 6341SOL    HW119922   0.630   4.850   3.816
 6341SOL    HW219923   0.744   4.733   3.812
 6342SOL     OW19924   2.713   1.988   1.717
 6342SOL    HW119925   2.763   2.026   1.640
 6342SOL    HW219926   2.747   1.895   1.736
 6343SOL     OW19927   4.816   2.271   6.383
 6343SOL    HW119928   4.825   2.342   6.452
 6343SOL    HW219929   4.751   2.202   6.414
 6344SOL     OW19930   6.028   3.387   5.619
 6344SOL    HW119931   6.037   3.476   5.574
 6344SOL    HW219932   5.938   3.381   5.663
 6345SOL     OW19933   4.424   1.685   2.364
 6345SOL    HW119934   4.392   1.599   2.404
 6345SOL    HW219935   4.521   1.697   2.385
 6346SOL     OW19936   6.922   3.571   3.679
 6346SOL    HW119937   6.926   3.638   3.606
 6346SOL    HW219938   6.979   3.492   3.654
 6347SOL     OW19939   2.292   0.776   1.158
 6347SOL    HW119940   2.382   0.736   1.142
 6347SOL    HW219941   2.274   0.846   1.090
 6348SOL     OW19942   1.223   4.284   4.936
 6348SOL    HW119943   1.134   4.264   4.977
 6348SOL    HW219944   1.216   4.278   4.836
 6349SOL     OW19945   3.083   0.387   1.351
 6349SOL    HW119946   3.158   0.392   1.417
 6349SOL    HW219947   3.110   0.329   1.274
 6350SOL     OW19948   2.473   4.982   3.885
 6350SOL    HW119949   2.479   5.016   3.979
 6350SOL    HW219950   2.565   4.976   3.846
 6351SOL     OW19951   6.484   3.316   2.479
 6351SOL    HW119952   6.536   3.396   2.451
 6351SOL    HW219953   6.425   3.339   2.556
 6352SOL     OW19954   2.183   5.195   4.537
 6352SOL    HW119955   2.131   5.190   4.622
 6352SOL    HW219956   2.180   5.106   4.492
 6353SOL     OW19957   6.503   0.861   6.280
 6353SOL    HW119958   6.584   0.905   6.318
 6353SOL    HW219959   6.495   0.885   6.183
 6354SOL     OW19960   1.508   0.372   2.554
 6354SOL    HW119961   1.503   0.284   2.507
 6354SOL    HW219962   1.587   0.423   2.522
 6355SOL     OW19963   1.461   4.912   5.788
 6355SOL    HW119964   1.500   4.981   5.728
 6355SOL    HW219965   1.533   4.872   5.845
 6356SOL     OW19966   4.147   4.681   2.700
 6356SOL    HW119967   4.218   4.640   2.757
 6356SOL    HW219968   4.158   4.649   2.606
 6357SOL     OW19969   4.813   2.527   1.897
 6357SOL    HW119970   4.741   2.463   1.923
 6357SOL    HW219971   4.824   2.596   1.969
 6358SOL     OW19972   0.911   1.988   6.092
 6358SOL    HW119973   0.956   1.998   6.003
 6358SOL    HW219974   0.980   1.964   6.161
 6359SOL     OW19975   6.104   7.019   5.612
 6359SOL    HW119976   6.062   6.929   5.608
 6359SOL    HW219977   6.133   0.024   5.521
 6360SOL     OW19978   1.986   4.016   4.290
 6360SOL    HW119979   2.024   4.014   4.197
 6360SOL    HW219980   1.969   4.110   4.317
 6361SOL     OW19981   6.233   0.283   0.282
 6361SOL    HW119982   6.142   0.320   0.302
 6361SOL    HW219983   6.223   0.195   0.236
 6362SOL     OW19984   6.291   5.363   6.428
 6362SOL    HW119985   6.299   5.461   6.407
 6362SOL    HW219986   6.333   5.343   6.516
 6363SOL     OW19987   2.451   4.883   3.075
 6363SOL    HW119988   2.395   4.963   3.092
 6363SOL    HW219989   2.507   4.864   3.156
 6364SOL     OW19990   3.436   1.012   5.916
 6364SOL    HW119991   3.470   0.920   5.893
 6364SOL    HW219992   3.512   1.076   5.917
 6365SOL     OW19993   5.315   6.752   4.296
 6365SOL    HW119994   5.392   6.698   4.329
 6365SOL    HW219995   5.333   6.849   4.309
 6366SOL     OW19996   0.590   5.708   6.428
 6366SOL    HW119997   0.597   5.608   6.431
 6366SOL    HW219998   0.680   5.748   6.447
 6367SOL     OW19999   3.919   0.485   3.861
 6367SOL    HW120000   3.923   0.461   3.958
 6367SOL    HW220001   3.910   0.584   3.852
 6368SOL     OW20002   3.602   0.248   3.366
 6368SOL    HW120003   3.616   0.162   3.317
 6368SOL    HW220004   3.675   0.261   3.433
 6369SOL     OW20005   2.389   4.981   4.690
 6369SOL    HW120006   2.404   4.912   4.760
 6369SOL    HW220007   2.374   5.070   4.733
 6370SOL     OW20008   1.372   3.188   2.372
 6370SOL    HW120009   1.463   3.219   2.345
 6370SOL    HW220010   1.341   3.117   2.308
 6371SOL     OW20011   4.822   3.279   4.172
 6371SOL    HW120012   4.777   3.369   4.179
 6371SOL    HW220013   4.830   3.253   4.076
 6372SOL     OW20014   3.444   0.092   1.819
 6372SOL    HW120015   3.483   0.130   1.903
 6372SOL    HW220016   3.513   0.098   1.746
 6373SOL     OW20017   5.831   4.178   3.682
 6373SOL    HW120018   5.886   4.192   3.600
 6373SOL    HW220019   5.885   4.128   3.749
 6374SOL     OW20020   3.638   4.082   4.063
 6374SOL    HW120021   3.665   4.030   3.982
 6374SOL    HW220022   3.710   4.076   4.132
 6375SOL     OW20023   0.162   1.676   4.032
 6375SOL    HW120024   0.160   1.768   4.071
 6375SOL    HW220025   0.225   1.619   4.084
 6376SOL     OW20026   6.213   2.364   5.514
 6376SOL    HW120027   6.296   2.350   5.460
 6376SOL    HW220028   6.234   2.351   5.611
 6377SOL     OW20029   6.359   1.581   5.562
 6377SOL    HW120030   6.306   1.664   5.540
 6377SOL    HW220031   6.455   1.605   5.575
 6378SOL     OW20032   5.052   5.275   3.363
 6378SOL    HW120033   5.138   5.250   3.318
 6378SOL    HW220034   5.054   5.243   3.458
 6379SOL     OW20035   2.577   4.572   4.322
 6379SOL    HW120036   2.555   4.476   4.303
 6379SOL    HW220037   2.494   4.619   4.354
 6380SOL     OW20038   0.289   1.620   5.862
 6380SOL    HW120039   0.235   1.684   5.918
 6380SOL    HW220040   0.232   1.585   5.788
 6381SOL     OW20041   3.388   3.350   2.002
 6381SOL    HW120042   3.359   3.300   2.084
 6381SOL    HW220043   3.455   3.295   1.952
 6382SOL     OW20044   1.324   3.084   0.566
 6382SOL    HW120045   1.356   3.138   0.487
 6382SOL    HW220046   1.265   3.010   0.534
 6383SOL     OW20047   2.206   2.358   2.793
 6383SOL    HW120048   2.191   2.404   2.881
 6383SOL    HW220049   2.234   2.425   2.724
 6384SOL     OW20050   5.631   4.250   1.294
 6384SOL    HW120051   5.613   4.330   1.235
 6384SOL    HW220052   5.544   4.212   1.325
 6385SOL     OW20053   6.858   4.490   4.437
 6385SOL    HW120054   6.827   4.418   4.375
 6385SOL    HW220055   6.842   4.579   4.396
 6386SOL     OW20056   2.748   4.030   6.368
 6386SOL    HW120057   2.657   4.069   6.351
 6386SOL    HW220058   2.813   4.067   6.301
 6387SOL     OW20059   0.563   1.585   6.728
 6387SOL    HW120060   0.625   1.661   6.745
 6387SOL    HW220061   0.616   1.504   6.704
 6388SOL     OW20062   4.467   4.556   1.891
 6388SOL    HW120063   4.488   4.460   1.912
 6388SOL    HW220064   4.533   4.615   1.938
 6389SOL     OW20065   0.844   5.926   2.078
 6389SOL    HW120066   0.748   5.899   2.082
 6389SOL    HW220067   0.902   5.844   2.071
 6390SOL     OW20068   1.277   2.186   4.551
 6390SOL    HW120069   1.202   2.143   4.602
 6390SOL    HW220070   1.352   2.121   4.539
 6391SOL     OW20071   2.934   0.277   5.924
 6391SOL    HW120072   2.910   0.180   5.918
 6391SOL    HW220073   3.030   0.289   5.899
 6392SOL     OW20074   2.206   6.791   3.595
 6392SOL    HW120075   2.150   6.826   3.520
 6392SOL    HW220076   2.260   6.713   3.563
 6393SOL     OW20077   6.252   6.311   1.246
 6393SOL    HW120078   6.255   6.319   1.147
 6393SOL    HW220079   6.247   6.214   1.271
 6394SOL     OW20080   2.679   4.408   1.198
 6394SOL    HW120081   2.599   4.375   1.247
 6394SOL    HW220082   2.684   4.508   1.205
 6395SOL     OW20083   5.789   2.691   1.253
 6395SOL    HW120084   5.727   2.619   1.220
 6395SOL    HW220085   5.828   2.664   1.341
 6396SOL     OW20086   5.142   2.924   6.755
 6396SOL    HW120087   5.116   2.827   6.764
 6396SOL    HW220088   5.086   2.979   6.816
 6397SOL     OW20089   5.784   2.438   7.007
 6397SOL    HW120090   5.751   2.391   0.066
 6397SOL    HW220091   5.841   2.375   6.953
 6398SOL     OW20092   3.551   0.746   0.681
 6398SOL    HW120093   3.501   0.733   0.596
 6398SOL    HW220094   3.572   0.658   0.723
 6399SOL     OW20095   1.518   4.930   6.355
 6399SOL    HW120096   1.476   4.948   6.444
 6399SOL    HW220097   1.616   4.948   6.360
 6400SOL     OW20098   2.096   5.574   3.021
 6400SOL    HW120099   2.091   5.623   2.934
 6400SOL    HW220100   2.163   5.618   3.081
 6401SOL     OW20101   6.533   4.783   3.774
 6401SOL    HW120102   6.538   4.756   3.871
 6401SOL    HW220103   6.438   4.785   3.745
 6402SOL     OW20104   3.191   0.801   3.064
 6402SOL    HW120105   3.216   0.733   2.995
 6402SOL    HW220106   3.274   0.843   3.101
 6403SOL     OW20107   0.737   6.145   6.392
 6403SOL    HW120108   0.724   6.207   6.316
 6403SOL    HW220109   0.724   6.194   6.478
 6404SOL     OW20110   4.248   1.405   3.046
 6404SOL    HW120111   4.227   1.488   2.995
 6404SOL    HW220112   4.169   1.344   3.045
 6405SOL     OW20113   1.563   1.026   3.465
 6405SOL    HW120114   1.551   1.061   3.558
 6405SOL    HW220115   1.639   1.074   3.421
 6406SOL     OW20116   1.855   2.252   3.510
 6406SOL    HW120117   1.902   2.216   3.430
 6406SOL    HW220118   1.850   2.351   3.505
 6407SOL     OW20119   3.283   0.008   2.899
 6407SOL    HW120120   3.202   6.973   2.892
 6407SOL    HW220121   3.330   7.012   2.986
 6408SOL     OW20122   5.967   2.270   6.903
 6408SOL    HW120123   6.025   2.297   6.981
 6408SOL    HW220124   6.025   2.250   6.824
 6409SOL     OW20125   0.211   3.980   2.917
 6409SOL    HW120126   0.131   4.030   2.885
 6409SOL    HW220127   0.217   3.986   3.017
 6410SOL     OW20128   1.913   1.565   0.075
 6410SOL    HW120129   1.881   1.659   0.084
 6410SOL    HW220130   1.962   1.538   0.158
 6411SOL     OW20131   0.620   3.213   3.348
 6411SOL    HW120132   0.547   3.172   3.403
 6411SOL    HW220133   0.600   3.200   3.251
 6412SOL     OW20134   0.084   2.882   5.672
 6412SOL    HW120135   0.163   2.876   5.733
 6412SOL    HW220136   0.053   2.789   5.649
 6413SOL     OW20137   5.137   4.940   3.213
 6413SOL    HW120138   5.209   4.913   3.148
 6413SOL    HW220139   5.050   4.900   3.184
 6414SOL     OW20140   6.028   0.679   1.846
 6414SOL    HW120141   6.096   0.633   1.903
 6414SOL    HW220142   5.988   0.755   1.898
 6415SOL     OW20143   2.703   2.173   2.605
 6415SOL    HW120144   2.705   2.255   2.548
 6415SOL    HW220145   2.683   2.199   2.699
 6416SOL     OW20146   0.971   1.005   5.585
 6416SOL    HW120147   0.878   0.968   5.581
 6416SOL    HW220148   0.973   1.081   5.649
 6417SOL     OW20149   0.117   4.283   2.377
 6417SOL    HW120150   0.181   4.209   2.355
 6417SOL    HW220151   0.073   4.264   2.465
 6418SOL     OW20152   5.729   4.847   2.065
 6418SOL    HW120153   5.642   4.891   2.088
 6418SOL    HW220154   5.770   4.811   2.149
 6419SOL     OW20155   2.586   4.985   2.700
 6419SOL    HW120156   2.676   5.028   2.710
 6419SOL    HW220157   2.515   5.055   2.710
 6420SOL     OW20158   2.962   3.359   5.667
 6420SOL    HW120159   3.002   3.276   5.706
 6420SOL    HW220160   2.959   3.351   5.568
 6421SOL     OW20161   5.974   1.697   2.256
 6421SOL    HW120162   6.004   1.623   2.316
 6421SOL    HW220163   5.994   1.785   2.299
 6422SOL     OW20164   0.086   0.110   3.960
 6422SOL    HW120165   0.104   0.017   3.928
 6422SOL    HW220166   0.027   0.107   4.041
 6423SOL     OW20167   4.915   4.449   2.349
 6423SOL    HW120168   5.002   4.479   2.312
 6423SOL    HW220169   4.840   4.487   2.293
 6424SOL     OW20170   6.792   5.485   5.885
 6424SOL    HW120171   6.766   5.488   5.789
 6424SOL    HW220172   6.715   5.448   5.938
 6425SOL     OW20173   6.747   5.376   3.676
 6425SOL    HW120174   6.684   5.322   3.619
 6425SOL    HW220175   6.697   5.417   3.752
 6426SOL     OW20176   0.632   4.634   3.615
 6426SOL    HW120177   0.644   4.537   3.636
 6426SOL    HW220178   0.586   4.644   3.527
 6427SOL     OW20179   1.931   3.416   6.784
 6427SOL    HW120180   1.859   3.485   6.798
 6427SOL    HW220181   1.934   3.392   6.687
 6428SOL     OW20182   6.545   3.588   0.627
 6428SOL    HW120183   6.452   3.592   0.591
 6428SOL    HW220184   6.560   3.665   0.689
 6429SOL     OW20185   0.648   1.502   4.904
 6429SOL    HW120186   0.704   1.469   4.828
 6429SOL    HW220187   0.706   1.547   4.972
 6430SOL     OW20188   5.083   1.053   2.206
 6430SOL    HW120189   5.000   1.072   2.153
 6430SOL    HW220190   5.122   0.966   2.177
 6431SOL     OW20191   5.494   0.140   3.325
 6431SOL    HW120192   5.403   0.139   3.284
 6431SOL    HW220193   5.512   0.229   3.366
 6432SOL     OW20194   3.816   3.808   0.040
 6432SOL    HW120195   3.889   3.877   0.038
 6432SOL    HW220196   3.727   3.853   0.041
 6433SOL     OW20197   3.777   4.328   0.819
 6433SOL    HW120198   3.846   4.343   0.889
 6433SOL    HW220199   3.704   4.270   0.855
 6434SOL     OW20200   2.001   3.940   0.573
 6434SOL    HW120201   2.064   4.000   0.523
 6434SOL    HW220202   1.941   3.996   0.631
 6435SOL     OW20203   3.965   5.425   0.090
 6435SOL    HW120204   4.016   5.359   0.037
 6435SOL    HW220205   3.922   5.492   0.029
 6436SOL     OW20206   2.084   3.109   3.979
 6436SOL    HW120207   2.084   3.074   3.885
 6436SOL    HW220208   2.059   3.035   4.042
 6437SOL     OW20209   1.588   1.019   0.791
 6437SOL    HW120210   1.502   0.970   0.777
 6437SOL    HW220211   1.631   0.989   0.875
 6438SOL     OW20212   0.296   4.378   6.053
 6438SOL    HW120213   0.292   4.433   5.970
 6438SOL    HW220214   0.387   4.337   6.062
 6439SOL     OW20215   6.956   0.121   1.801
 6439SOL    HW120216   6.953   0.220   1.816
 6439SOL    HW220217   6.905   0.099   1.718
 6440SOL     OW20218   1.899   1.706   1.857
 6440SOL    HW120219   1.980   1.715   1.915
 6440SOL    HW220220   1.897   1.781   1.792
 6441SOL     OW20221   0.608   0.291   2.598
 6441SOL    HW120222   0.564   0.265   2.684
 6441SOL    HW220223   0.701   0.253   2.596
 6442SOL     OW20224   1.935   1.420   3.234
 6442SOL    HW120225   2.004   1.396   3.303
 6442SOL    HW220226   1.967   1.390   3.144
 6443SOL     OW20227   3.792   2.517   0.139
 6443SOL    HW120228   3.742   2.566   0.210
 6443SOL    HW220229   3.773   2.419   0.145
 6444SOL     OW20230   1.072   2.874   3.758
 6444SOL    HW120231   1.071   2.972   3.741
 6444SOL    HW220232   1.019   2.854   3.840
 6445SOL     OW20233   4.662   2.633   5.791
 6445SOL    HW120234   4.742   2.649   5.733
 6445SOL    HW220235   4.659   2.701   5.864
 6446SOL     OW20236   0.876   0.971   6.159
 6446SOL    HW120237   0.893   0.946   6.063
 6446SOL    HW220238   0.913   0.901   6.219
 6447SOL     OW20239   0.105   5.936   2.384
 6447SOL    HW120240   0.096   5.981   2.295
 6447SOL    HW220241   0.182   5.976   2.434
 6448SOL     OW20242   5.441   4.509   2.270
 6448SOL    HW120243   5.489   4.507   2.183
 6448SOL    HW220244   5.346   4.479   2.256
 6449SOL     OW20245   3.796   4.717   1.048
 6449SOL    HW120246   3.770   4.773   0.969
 6449SOL    HW220247   3.719   4.713   1.113
 6450SOL     OW20248   0.292   3.543   1.433
 6450SOL    HW120249   0.284   3.459   1.379
 6450SOL    HW220250   0.301   3.621   1.371
 6451SOL     OW20251   2.559   6.550   5.015
 6451SOL    HW120252   2.652   6.562   4.980
 6451SOL    HW220253   2.494   6.593   4.953
 6452SOL     OW20254   3.479   5.991   5.325
 6452SOL    HW120255   3.413   5.973   5.398
 6452SOL    HW220256   3.546   5.916   5.322
 6453SOL     OW20257   1.650   6.054   0.124
 6453SOL    HW120258   1.653   6.153   0.111
 6453SOL    HW220259   1.632   6.010   0.037
 6454SOL     OW20260   3.090   1.158   3.553
 6454SOL    HW120261   3.159   1.142   3.624
 6454SOL    HW220262   3.009   1.199   3.595
 6455SOL     OW20263   0.798   2.323   4.193
 6455SOL    HW120264   0.775   2.341   4.289
 6455SOL    HW220265   0.886   2.276   4.188
 6456SOL     OW20266   1.700   0.305   3.412
 6456SOL    HW120267   1.673   0.314   3.508
 6456SOL    HW220268   1.770   0.234   3.404
 6457SOL     OW20269   5.168   0.995   1.402
 6457SOL    HW120270   5.084   0.942   1.393
 6457SOL    HW220271   5.146   1.089   1.427
 6458SOL     OW20272   0.924   6.969   3.465
 6458SOL    HW120273   0.979   0.029   3.466
 6458SOL    HW220274   0.862   6.969   3.387
 6459SOL     OW20275   5.671   5.790   0.654
 6459SOL    HW120276   5.597   5.774   0.588
 6459SOL    HW220277   5.650   5.871   0.709
 6460SOL     OW20278   4.373   5.013   6.054
 6460SOL    HW120279   4.420   5.101   6.056
 6460SOL    HW220280   4.387   4.965   6.140
 6461SOL     OW20281   2.900   5.056   5.180
 6461SOL    HW120282   2.894   5.027   5.276
 6461SOL    HW220283   2.899   4.975   5.121
 6462SOL     OW20284   2.240   2.786   5.124
 6462SOL    HW120285   2.274   2.880   5.129
 6462SOL    HW220286   2.318   2.723   5.121
 6463SOL     OW20287   1.759   4.106   6.552
 6463SOL    HW120288   1.710   4.085   6.467
 6463SOL    HW220289   1.834   4.040   6.564
 6464SOL     OW20290   1.015   4.805   5.275
 6464SOL    HW120291   0.986   4.731   5.214
 6464SOL    HW220292   1.101   4.779   5.320
 6465SOL     OW20293   6.386   2.817   4.019
 6465SOL    HW120294   6.324   2.830   4.097
 6465SOL    HW220295   6.480   2.833   4.048
 6466SOL     OW20296   0.577   1.285   6.557
 6466SOL    HW120297   0.504   1.320   6.498
 6466SOL    HW220298   0.549   1.292   6.653
 6467SOL     OW20299   3.128   0.953   7.020
 6467SOL    HW120300   3.050   1.012   7.002
 6467SOL    HW220301   3.097   0.868   0.038
 6468SOL     OW20302   3.851   6.402   1.873
 6468SOL    HW120303   3.775   6.362   1.822
 6468SOL    HW220304   3.866   6.349   1.956
 6469SOL     OW20305   4.930   0.442   5.277
 6469SOL    HW120306   4.842   0.435   5.229
 6469SOL    HW220307   4.952   0.355   5.319
 6470SOL     OW20308   5.874   5.127   6.433
 6470SOL    HW120309   5.816   5.073   6.373
 6470SOL    HW220310   5.952   5.163   6.382
 6471SOL     OW20311   6.818   5.755   5.901
 6471SOL    HW120312   6.817   5.656   5.893
 6471SOL    HW220313   6.748   5.794   5.841
 6472SOL     OW20314   0.465   4.720   0.861
 6472SOL    HW120315   0.501   4.635   0.899
 6472SOL    HW220316   0.428   4.777   0.935
 6473SOL     OW20317   2.329   1.898   4.390
 6473SOL    HW120318   2.290   1.843   4.464
 6473SOL    HW220319   2.287   1.989   4.391
 6474SOL     OW20320   1.906   3.199   5.914
 6474SOL    HW120321   1.900   3.114   5.968
 6474SOL    HW220322   1.921   3.176   5.818
 6475SOL     OW20323   6.749   5.264   4.763
 6475SOL    HW120324   6.791   5.350   4.790
 6475SOL    HW220325   6.731   5.265   4.664
 6476SOL     OW20326   4.312   3.741   1.642
 6476SOL    HW120327   4.366   3.820   1.671
 6476SOL    HW220328   4.217   3.770   1.626
 6477SOL     OW20329   0.400   4.824   1.280
 6477SOL    HW120330   0.440   4.739   1.313
 6477SOL    HW220331   0.474   4.888   1.258
 6478SOL     OW20332   3.395   6.211   2.364
 6478SOL    HW120333   3.348   6.179   2.446
 6478SOL    HW220334   3.393   6.311   2.361
 6479SOL     OW20335   3.717   5.555   3.221
 6479SOL    HW120336   3.649   5.537   3.149
 6479SOL    HW220337   3.674   5.605   3.296
 6480SOL     OW20338   3.212   2.902   5.553
 6480SOL    HW120339   3.252   2.994   5.553
 6480SOL    HW220340   3.258   2.846   5.484
 6481SOL     OW20341   3.064   1.911   1.764
 6481SOL    HW120342   3.075   1.983   1.832
 6481SOL    HW220343   3.016   1.947   1.684
 6482SOL     OW20344   0.216   0.816   6.405
 6482SOL    HW120345   0.151   0.744   6.379
 6482SOL    HW220346   0.269   0.843   6.325
 6483SOL     OW20347   2.631   5.509   1.467
 6483SOL    HW120348   2.656   5.605   1.482
 6483SOL    HW220349   2.713   5.452   1.479
 6484SOL     OW20350   3.586   0.271   3.042
 6484SOL    HW120351   3.525   0.264   3.121
 6484SOL    HW220352   3.649   0.348   3.055
 6485SOL     OW20353   1.986   3.585   3.890
 6485SOL    HW120354   1.903   3.583   3.834
 6485SOL    HW220355   2.046   3.510   3.864
 6486SOL     OW20356   1.285   4.666   4.220
 6486SOL    HW120357   1.343   4.718   4.157
 6486SOL    HW220358   1.202   4.718   4.240
 6487SOL     OW20359   6.420   5.858   4.850
 6487SOL    HW120360   6.436   5.791   4.777
 6487SOL    HW220361   6.506   5.899   4.877
 6488SOL     OW20362   2.640   5.915   4.767
 6488SOL    HW120363   2.580   5.985   4.728
 6488SOL    HW220364   2.589   5.860   4.832
 6489SOL     OW20365   2.396   3.728   6.588
 6489SOL    HW120366   2.478   3.694   6.543
 6489SOL    HW220367   2.420   3.803   6.649
 6490SOL     OW20368   4.073   2.823   6.826
 6490SOL    HW120369   3.987   2.786   6.862
 6490SOL    HW220370   4.143   2.752   6.827
 6491SOL     OW20371   4.249   1.122   6.576
 6491SOL    HW120372   4.252   1.092   6.672
 6491SOL    HW220373   4.250   1.222   6.573
 6492SOL     OW20374   5.858   6.169   6.869
 6492SOL    HW120375   5.773   6.123   6.895
 6492SOL    HW220376   5.934   6.127   6.918
 6493SOL     OW20377   1.599   6.133   5.446
 6493SOL    HW120378   1.639   6.200   5.383
 6493SOL    HW220379   1.530   6.079   5.398
 6494SOL     OW20380   6.940   1.245   3.213
 6494SOL    HW120381   6.948   1.164   3.156
 6494SOL    HW220382   6.892   1.222   3.298
 6495SOL     OW20383   4.737   5.962   4.702
 6495SOL    HW120384   4.745   6.021   4.622
 6495SOL    HW220385   4.659   5.991   4.757
 6496SOL     OW20386   0.092   6.324   2.292
 6496SOL    HW120387   0.173   6.383   2.285
 6496SOL    HW220388   0.079   6.298   2.388
 6497SOL     OW20389   2.646   3.359   7.020
 6497SOL    HW120390   2.652   3.357   0.097
 6497SOL    HW220391   2.736   3.342   6.981
 6498SOL     OW20392   2.655   4.709   4.062
 6498SOL    HW120393   2.703   4.795   4.077
 6498SOL    HW220394   2.635   4.666   4.150
 6499SOL     OW20395   5.904   1.816   4.970
 6499SOL    HW120396   5.981   1.754   4.954
 6499SOL    HW220397   5.926   1.879   5.045
 6500SOL     OW20398   0.353   4.294   4.179
 6500SOL    HW120399   0.384   4.199   4.187
 6500SOL    HW220400   0.286   4.313   4.250
 6501SOL     OW20401   6.957   2.327   0.399
 6501SOL    HW120402   6.997   2.274   0.473
 6501SOL    HW220403   7.016   2.320   0.318
 6502SOL     OW20404   6.612   4.094   3.122
 6502SOL    HW120405   6.552   4.064   3.048
 6502SOL    HW220406   6.705   4.060   3.106
 6503SOL     OW20407   5.075   6.751   3.761
 6503SOL    HW120408   4.975   6.741   3.756
 6503SOL    HW220409   5.117   6.661   3.771
 6504SOL     OW20410   4.600   6.315   6.250
 6504SOL    HW120411   4.615   6.413   6.235
 6504SOL    HW220412   4.679   6.276   6.298
 6505SOL     OW20413   5.685   4.529   1.693
 6505SOL    HW120414   5.657   4.609   1.746
 6505SOL    HW220415   5.745   4.559   1.618
 6506SOL     OW20416   0.508   2.950   1.010
 6506SOL    HW120417   0.474   2.943   0.916
 6506SOL    HW220418   0.542   2.861   1.039
 6507SOL     OW20419   1.674   5.939   6.380
 6507SOL    HW120420   1.608   5.864   6.389
 6507SOL    HW220421   1.752   5.921   6.439
 6508SOL     OW20422   2.167   1.784   3.594
 6508SOL    HW120423   2.170   1.881   3.618
 6508SOL    HW220424   2.257   1.743   3.609
 6509SOL     OW20425   2.390   2.659   4.545
 6509SOL    HW120426   2.352   2.744   4.582
 6509SOL    HW220427   2.316   2.594   4.527
 6510SOL     OW20428   0.523   5.207   6.549
 6510SOL    HW120429   0.563   5.273   6.613
 6510SOL    HW220430   0.470   5.256   6.480
 6511SOL     OW20431   5.224   0.945   4.932
 6511SOL    HW120432   5.305   0.911   4.885
 6511SOL    HW220433   5.184   1.019   4.878
 6512SOL     OW20434   5.352   0.274   2.679
 6512SOL    HW120435   5.307   0.318   2.757
 6512SOL    HW220436   5.356   0.175   2.693
 6513SOL     OW20437   3.161   6.102   3.482
 6513SOL    HW120438   3.222   6.143   3.414
 6513SOL    HW220439   3.067   6.134   3.467
 6514SOL     OW20440   5.998   0.264   3.251
 6514SOL    HW120441   5.919   0.203   3.241
 6514SOL    HW220442   6.053   0.235   3.329
 6515SOL     OW20443   0.168   5.047   3.996
 6515SOL    HW120444   0.199   5.005   4.082
 6515SOL    HW220445   0.090   5.107   4.015
 6516SOL     OW20446   0.442   2.486   0.499
 6516SOL    HW120447   0.440   2.389   0.523
 6516SOL    HW220448   0.390   2.500   0.414
 6517SOL     OW20449   5.634   1.114   0.728
 6517SOL    HW120450   5.535   1.114   0.738
 6517SOL    HW220451   5.670   1.023   0.746
 6518SOL     OW20452   0.603   6.090   6.819
 6518SOL    HW120453   0.629   6.153   6.892
 6518SOL    HW220454   0.521   6.040   6.845
 6519SOL     OW20455   2.422   1.757   3.091
 6519SOL    HW120456   2.329   1.722   3.075
 6519SOL    HW220457   2.426   1.853   3.063
 6520SOL     OW20458   6.848   5.750   3.077
 6520SOL    HW120459   6.860   5.729   3.174
 6520SOL    HW220460   6.913   5.698   3.023
 6521SOL     OW20461   1.097   1.548   4.319
 6521SOL    HW120462   1.133   1.607   4.391
 6521SOL    HW220463   1.020   1.594   4.274
 6522SOL     OW20464   3.121   4.438   6.827
 6522SOL    HW120465   3.162   4.367   6.768
 6522SOL    HW220466   3.022   4.429   6.826
 6523SOL     OW20467   3.247   1.227   6.308
 6523SOL    HW120468   3.167   1.187   6.352
 6523SOL    HW220469   3.239   1.218   6.209
 6524SOL     OW20470   3.411   3.091   2.961
 6524SOL    HW120471   3.448   3.179   2.988
 6524SOL    HW220472   3.473   3.046   2.897
 6525SOL     OW20473   2.095   3.309   2.679
 6525SOL    HW120474   2.101   3.400   2.720
 6525SOL    HW220475   2.122   3.315   2.582
 6526SOL     OW20476   0.799   6.393   4.727
 6526SOL    HW120477   0.713   6.440   4.706
 6526SOL    HW220478   0.786   6.294   4.720
 6527SOL     OW20479   0.522   1.611   4.261
 6527SOL    HW120480   0.568   1.698   4.281
 6527SOL    HW220481   0.542   1.546   4.335
 6528SOL     OW20482   0.171   0.709   3.806
 6528SOL    HW120483   0.147   0.768   3.883
 6528SOL    HW220484   0.238   0.756   3.748
 6529SOL     OW20485   6.254   1.473   3.645
 6529SOL    HW120486   6.303   1.392   3.678
 6529SOL    HW220487   6.181   1.496   3.709
 6530SOL     OW20488   6.711   3.960   1.233
 6530SOL    HW120489   6.764   4.046   1.237
 6530SOL    HW220490   6.737   3.910   1.151
 6531SOL     OW20491   5.196   3.361   4.539
 6531SOL    HW120492   5.129   3.434   4.548
 6531SOL    HW220493   5.194   3.303   4.621
 6532SOL     OW20494   5.739   1.092   0.998
 6532SOL    HW120495   5.735   1.014   0.936
 6532SOL    HW220496   5.657   1.148   0.987
 6533SOL     OW20497   5.549   5.778   1.759
 6533SOL    HW120498   5.614   5.842   1.717
 6533SOL    HW220499   5.495   5.825   1.828
 6534SOL     OW20500   3.045   4.709   1.467
 6534SOL    HW120501   3.050   4.671   1.559
 6534SOL    HW220502   3.126   4.682   1.415
 6535SOL     OW20503   0.321   3.296   4.564
 6535SOL    HW120504   0.399   3.315   4.504
 6535SOL    HW220505   0.337   3.210   4.612
 6536SOL     OW20506   6.633   2.116   5.970
 6536SOL    HW120507   6.724   2.155   5.952
 6536SOL    HW220508   6.627   2.024   5.930
 6537SOL     OW20509   6.118   5.899   6.705
 6537SOL    HW120510   6.103   5.951   6.621
 6537SOL    HW220511   6.178   5.952   6.766
 6538SOL     OW20512   3.804   4.256   0.104
 6538SOL    HW120513   3.805   4.157   0.086
 6538SOL    HW220514   3.727   4.278   0.165
 6539SOL     OW20515   2.600   1.760   5.973
 6539SOL    HW120516   2.616   1.730   6.067
 6539SOL    HW220517   2.667   1.716   5.913
 6540SOL     OW20518   4.686   1.945   5.269
 6540SOL    HW120519   4.599   1.900   5.251
 6540SOL    HW220520   4.670   2.031   5.318
 6541SOL     OW20521   3.767   1.854   4.387
 6541SOL    HW120522   3.730   1.947   4.382
 6541SOL    HW220523   3.742   1.813   4.475
 6542SOL     OW20524   0.116   4.596   3.371
 6542SOL    HW120525   0.066   4.678   3.342
 6542SOL    HW220526   0.156   4.612   3.462
 6543SOL     OW20527   6.161   4.197   0.280
 6543SOL    HW120528   6.155   4.285   0.232
 6543SOL    HW220529   6.146   4.123   0.215
 6544SOL     OW20530   0.445   6.185   3.418
 6544SOL    HW120531   0.452   6.238   3.333
 6544SOL    HW220532   0.349   6.164   3.436
 6545SOL     OW20533   5.037   2.101   6.666
 6545SOL    HW120534   4.992   2.093   6.577
 6545SOL    HW220535   5.119   2.158   6.656
 6546SOL     OW20536   4.412   4.399   6.309
 6546SOL    HW120537   4.429   4.300   6.308
 6546SOL    HW220538   4.347   4.422   6.237
 6547SOL     OW20539   4.090   1.623   5.787
 6547SOL    HW120540   4.140   1.631   5.700
 6547SOL    HW220541   3.993   1.607   5.768
 6548SOL     OW20542   0.805   3.897   6.844
 6548SOL    HW120543   0.786   3.833   6.918
 6548SOL    HW220544   0.859   3.852   6.773
 6549SOL     OW20545   3.371   1.314   0.487
 6549SOL    HW120546   3.343   1.275   0.399
 6549SOL    HW220547   3.313   1.277   0.559
 6550SOL     OW20548   6.798   6.244   3.342
 6550SOL    HW120549   6.699   6.238   3.344
 6550SOL    HW220550   6.837   6.175   3.404
 6551SOL     OW20551   1.911   4.083   2.170
 6551SOL    HW120552   1.955   4.168   2.196
 6551SOL    HW220553   1.896   4.027   2.251
 6552SOL     OW20554   2.703   6.940   4.871
 6552SOL    HW120555   2.694   6.941   4.971
 6552SOL    HW220556   2.753   6.859   4.842
 6553SOL     OW20557   0.288   1.869   1.586
 6553SOL    HW120558   0.369   1.852   1.530
 6553SOL    HW220559   0.218   1.799   1.567
 6554SOL     OW20560   5.710   1.982   5.980
 6554SOL    HW120561   5.782   1.926   5.939
 6554SOL    HW220562   5.702   1.958   6.077
 6555SOL     OW20563   1.517   1.547   1.758
 6555SOL    HW120564   1.533   1.449   1.746
 6555SOL    HW220565   1.499   1.589   1.669
 6556SOL     OW20566   4.596   4.500   5.110
 6556SOL    HW120567   4.657   4.450   5.049
 6556SOL    HW220568   4.515   4.529   5.059
 6557SOL     OW20569   5.319   5.738   1.474
 6557SOL    HW120570   5.220   5.733   1.471
 6557SOL    HW220571   5.354   5.679   1.547
 6558SOL     OW20572   6.160   5.959   1.228
 6558SOL    HW120573   6.086   5.978   1.293
 6558SOL    HW220574   6.192   5.866   1.242
 6559SOL     OW20575   6.413   4.114   0.372
 6559SOL    HW120576   6.432   4.064   0.457
 6559SOL    HW220577   6.314   4.130   0.365
 6560SOL     OW20578   3.543   2.958   1.979
 6560SOL    HW120579   3.507   2.916   2.063
 6560SOL    HW220580   3.474   2.952   1.907
 6561SOL     OW20581   3.431   3.574   2.157
 6561SOL    HW120582   3.417   3.504   2.087
 6561SOL    HW220583   3.343   3.596   2.200
 6562SOL     OW20584   5.865   4.806   6.713
 6562SOL    HW120585   5.863   4.782   6.616
 6562SOL    HW220586   5.859   4.905   6.723
 6563SOL     OW20587   0.586   6.642   6.818
 6563SOL    HW120588   0.610   6.666   6.723
 6563SOL    HW220589   0.488   6.656   6.832
 6564SOL     OW20590   0.504   3.570   2.189
 6564SOL    HW120591   0.470   3.658   2.222
 6564SOL    HW220592   0.577   3.538   2.249
 6565SOL     OW20593   6.501   1.890   4.434
 6565SOL    HW120594   6.429   1.826   4.458
 6565SOL    HW220595   6.513   1.892   4.335
 6566SOL     OW20596   3.575   6.880   1.301
 6566SOL    HW120597   3.544   6.941   1.228
 6566SOL    HW220598   3.496   6.851   1.355
 6567SOL     OW20599   4.232   2.166   1.478
 6567SOL    HW120600   4.169   2.089   1.490
 6567SOL    HW220601   4.222   2.229   1.555
 6568SOL     OW20602   4.918   4.836   2.681
 6568SOL    HW120603   4.912   4.935   2.693
 6568SOL    HW220604   5.005   4.813   2.637
 6569SOL     OW20605   3.502   4.612   1.379
 6569SOL    HW120606   3.479   4.603   1.476
 6569SOL    HW220607   3.548   4.699   1.364
 6570SOL     OW20608   4.726   6.734   1.336
 6570SOL    HW120609   4.762   6.759   1.425
 6570SOL    HW220610   4.788   6.767   1.264
 6571SOL     OW20611   2.527   6.475   2.216
 6571SOL    HW120612   2.609   6.427   2.185
 6571SOL    HW220613   2.545   6.518   2.304
 6572SOL     OW20614   6.424   4.858   5.273
 6572SOL    HW120615   6.399   4.766   5.243
 6572SOL    HW220616   6.513   4.883   5.234
 6573SOL     OW20617   3.102   1.496   2.852
 6573SOL    HW120618   3.118   1.594   2.834
 6573SOL    HW220619   3.007   1.483   2.881
 6574SOL     OW20620   2.833   5.891   2.442
 6574SOL    HW120621   2.848   5.985   2.409
 6574SOL    HW220622   2.913   5.836   2.419
 6575SOL     OW20623   0.771   1.848   1.675
 6575SOL    HW120624   0.823   1.887   1.599
 6575SOL    HW220625   0.825   1.775   1.718
 6576SOL     OW20626   1.392   6.484   6.751
 6576SOL    HW120627   1.396   6.481   6.651
 6576SOL    HW220628   1.470   6.434   6.789
 6577SOL     OW20629   0.826   1.768   3.403
 6577SOL    HW120630   0.879   1.763   3.488
 6577SOL    HW220631   0.769   1.850   3.404
 6578SOL     OW20632   0.398   4.613   2.928
 6578SOL    HW120633   0.372   4.595   3.023
 6578SOL    HW220634   0.332   4.569   2.866
 6579SOL     OW20635   0.374   4.049   4.626
 6579SOL    HW120636   0.330   4.137   4.609
 6579SOL    HW220637   0.305   3.976   4.622
 6580SOL     OW20638   5.960   1.252   1.294
 6580SOL    HW120639   6.037   1.191   1.311
 6580SOL    HW220640   5.957   1.322   1.366
 6581SOL     OW20641   3.842   0.647   6.095
 6581SOL    HW120642   3.803   0.572   6.149
 6581SOL    HW220643   3.940   0.631   6.081
 6582SOL     OW20644   1.599   0.586   1.769
 6582SOL    HW120645   1.642   0.627   1.850
 6582SOL    HW220646   1.664   0.589   1.693
 6583SOL     OW20647   3.928   0.568   5.768
 6583SOL    HW120648   4.026   0.549   5.767
 6583SOL    HW220649   3.895   0.580   5.675
 6584SOL     OW20650   5.220   1.418   0.028
 6584SOL    HW120651   5.155   1.368   0.085
 6584SOL    HW220652   5.171   1.483   6.993
 6585SOL     OW20653   6.286   1.310   0.082
 6585SOL    HW120654   6.281   1.381   0.153
 6585SOL    HW220655   6.203   1.255   0.085
 6586SOL     OW20656   5.821   2.409   6.200
 6586SOL    HW120657   5.836   2.485   6.138
 6586SOL    HW220658   5.739   2.358   6.172
 6587SOL     OW20659   2.868   5.756   3.899
 6587SOL    HW120660   2.872   5.820   3.823
 6587SOL    HW220661   2.957   5.713   3.910
 6588SOL     OW20662   1.987   3.963   1.603
 6588SOL    HW120663   1.941   3.897   1.545
 6588SOL    HW220664   2.039   4.027   1.546
 6589SOL     OW20665   4.071   0.528   6.472
 6589SOL    HW120666   4.125   0.485   6.399
 6589SOL    HW220667   3.977   0.495   6.468
 6590SOL     OW20668   0.591   1.607   6.148
 6590SOL    HW120669   0.658   1.664   6.100
 6590SOL    HW220670   0.630   1.574   6.233
 6591SOL     OW20671   5.679   6.136   2.468
 6591SOL    HW120672   5.636   6.210   2.415
 6591SOL    HW220673   5.715   6.173   2.554
 6592SOL     OW20674   5.202   6.621   4.079
 6592SOL    HW120675   5.220   6.523   4.094
 6592SOL    HW220676   5.240   6.673   4.155
 6593SOL     OW20677   2.274   2.323   3.455
 6593SOL    HW120678   2.201   2.386   3.481
 6593SOL    HW220679   2.335   2.308   3.532
 6594SOL     OW20680   3.588   1.005   0.617
 6594SOL    HW120681   3.680   1.035   0.644
 6594SOL    HW220682   3.571   0.913   0.653
 6595SOL     OW20683   0.563   3.908   0.663
 6595SOL    HW120684   0.653   3.875   0.634
 6595SOL    HW220685   0.520   3.838   0.721
 6596SOL     OW20686   4.055   0.084   4.553
 6596SOL    HW120687   4.104   0.113   4.636
 6596SOL    HW220688   4.120   0.065   4.480
 6597SOL     OW20689   1.588   6.249   3.046
 6597SOL    HW120690   1.502   6.259   2.997
 6597SOL    HW220691   1.636   6.168   3.014
 6598SOL     OW20692   1.488   6.257   4.892
 6598SOL    HW120693   1.544   6.300   4.821
 6598SOL    HW220694   1.542   6.248   4.976
 6599SOL     OW20695   3.871   5.015   5.634
 6599SOL    HW120696   3.909   5.107   5.635
 6599SOL    HW220697   3.853   4.987   5.540
 6600SOL     OW20698   5.154   5.314   5.638
 6600SOL    HW120699   5.131   5.383   5.706
 6600SOL    HW220700   5.117   5.225   5.667
 6601SOL     OW20701   1.069   0.673   0.529
 6601SOL    HW120702   1.069   0.702   0.625
 6601SOL    HW220703   1.118   0.586   0.520
 6602SOL     OW20704   6.323   1.558   1.853
 6602SOL    HW120705   6.278   1.633   1.901
 6602SOL    HW220706   6.262   1.478   1.852
 6603SOL     OW20707   1.061   2.759   4.157
 6603SOL    HW120708   1.093   2.666   4.172
 6603SOL    HW220709   1.138   2.822   4.158
 6604SOL     OW20710   2.707   6.214   1.345
 6604SOL    HW120711   2.681   6.118   1.359
 6604SOL    HW220712   2.647   6.255   1.276
 6605SOL     OW20713   5.125   5.143   0.597
 6605SOL    HW120714   5.113   5.161   0.694
 6605SOL    HW220715   5.178   5.217   0.555
 6606SOL     OW20716   4.709   6.747   2.266
 6606SOL    HW120717   4.614   6.746   2.234
 6606SOL    HW220718   4.745   6.840   2.261
 6607SOL     OW20719   2.237   2.134   1.592
 6607SOL    HW120720   2.313   2.079   1.558
 6607SOL    HW220721   2.239   2.135   1.692
 6608SOL     OW20722   5.308   4.950   2.043
 6608SOL    HW120723   5.248   4.879   2.079
 6608SOL    HW220724   5.271   5.040   2.067
 6609SOL     OW20725   4.670   0.924   6.412
 6609SOL    HW120726   4.570   0.925   6.415
 6609SOL    HW220727   4.706   0.991   6.477
 6610SOL     OW20728   2.689   0.308   6.631
 6610SOL    HW120729   2.730   0.397   6.609
 6610SOL    HW220730   2.757   0.236   6.617
 6611SOL     OW20731   6.653   2.415   3.207
 6611SOL    HW120732   6.627   2.319   3.212
 6611SOL    HW220733   6.576   2.469   3.173
 6612SOL     OW20734   0.286   3.706   0.053
 6612SOL    HW120735   0.248   3.785   0.101
 6612SOL    HW220736   0.380   3.689   0.085
 6613SOL     OW20737   5.410   5.850   3.795
 6613SOL    HW120738   5.378   5.792   3.869
 6613SOL    HW220739   5.504   5.878   3.812
 6614SOL     OW20740   4.721   6.672   6.592
 6614SOL    HW120741   4.701   6.594   6.533
 6614SOL    HW220742   4.681   6.657   6.682
 6615SOL     OW20743   1.053   4.267   4.235
 6615SOL    HW120744   1.112   4.333   4.282
 6615SOL    HW220745   1.096   4.176   4.239
 6616SOL     OW20746   4.176   0.928   6.050
 6616SOL    HW120747   4.129   0.955   6.133
 6616SOL    HW220748   4.237   1.002   6.020
 6617SOL     OW20749   3.105   6.101   3.031
 6617SOL    HW120750   3.101   6.008   3.069
 6617SOL    HW220751   3.034   6.112   2.962
 6618SOL     OW20752   0.469   3.631   2.993
 6618SOL    HW120753   0.551   3.599   2.946
 6618SOL    HW220754   0.491   3.711   3.048
 6619SOL     OW20755   6.648   6.693   4.863
 6619SOL    HW120756   6.603   6.699   4.774
 6619SOL    HW220757   6.630   6.776   4.915
 6620SOL     OW20758   1.800   2.711   5.251
 6620SOL    HW120759   1.897   2.706   5.276
 6620SOL    HW220760   1.792   2.731   5.153
 6621SOL     OW20761   2.687   3.308   0.245
 6621SOL    HW120762   2.784   3.303   0.269
 6621SOL    HW220763   2.643   3.221   0.266
 6622SOL     OW20764   6.268   6.256   1.938
 6622SOL    HW120765   6.249   6.347   1.974
 6622SOL    HW220766   6.293   6.195   2.013
 6623SOL     OW20767   2.988   3.017   1.822
 6623SOL    HW120768   2.999   2.986   1.728
 6623SOL    HW220769   3.077   3.045   1.859
 6624SOL     OW20770   2.442   0.240   4.246
 6624SOL    HW120771   2.534   0.268   4.220
 6624SOL    HW220772   2.375   0.282   4.184
 6625SOL     OW20773   5.282   2.204   6.655
 6625SOL    HW120774   5.324   2.143   6.723
 6625SOL    HW220775   5.348   2.275   6.629
 6626SOL     OW20776   3.871   5.125   3.709
 6626SOL    HW120777   3.932   5.096   3.783
 6626SOL    HW220778   3.894   5.075   3.626
 6627SOL     OW20779   2.363   0.679   5.679
 6627SOL    HW120780   2.280   0.705   5.729
 6627SOL    HW220781   2.413   0.610   5.731
 6628SOL     OW20782   4.968   5.222   3.632
 6628SOL    HW120783   5.048   5.203   3.689
 6628SOL    HW220784   4.889   5.241   3.690
 6629SOL     OW20785   2.735   6.371   0.478
 6629SOL    HW120786   2.786   6.439   0.531
 6629SOL    HW220787   2.643   6.363   0.515
 6630SOL     OW20788   3.403   1.833   1.047
 6630SOL    HW120789   3.494   1.806   1.078
 6630SOL    HW220790   3.363   1.896   1.113
 6631SOL     OW20791   4.466   0.391   2.393
 6631SOL    HW120792   4.427   0.342   2.316
 6631SOL    HW220793   4.424   0.482   2.399
 6632SOL     OW20794   0.058   1.024   1.615
 6632SOL    HW120795   0.061   1.112   1.569
 6632SOL    HW220796   6.986   0.998   1.631
 6633SOL     OW20797   1.566   5.468   5.831
 6633SOL    HW120798   1.629   5.456   5.754
 6633SOL    HW220799   1.571   5.388   5.891
 6634SOL     OW20800   5.716   3.443   5.731
 6634SOL    HW120801   5.654   3.365   5.736
 6634SOL    HW220802   5.682   3.517   5.788
 6635SOL     OW20803   4.287   5.307   3.343
 6635SOL    HW120804   4.325   5.217   3.324
 6635SOL    HW220805   4.219   5.330   3.272
 6636SOL     OW20806   2.728   2.084   5.655
 6636SOL    HW120807   2.665   2.148   5.699
 6636SOL    HW220808   2.715   2.088   5.556
 6637SOL     OW20809   1.515   0.208   6.723
 6637SOL    HW120810   1.506   0.167   6.633
 6637SOL    HW220811   1.451   0.285   6.732
 6638SOL     OW20812   4.045   4.770   5.144
 6638SOL    HW120813   3.976   4.841   5.130
 6638SOL    HW220814   4.023   4.718   5.227
 6639SOL     OW20815   5.666   6.299   6.457
 6639SOL    HW120816   5.640   6.380   6.404
 6639SOL    HW220817   5.702   6.329   6.546
 6640SOL     OW20818   0.175   1.883   5.368
 6640SOL    HW120819   0.088   1.849   5.331
 6640SOL    HW220820   0.188   1.978   5.342
 6641SOL     OW20821   2.377   3.025   6.308
 6641SOL    HW120822   2.300   2.977   6.265
 6641SOL    HW220823   2.348   3.059   6.398
 6642SOL     OW20824   3.151   5.123   0.763
 6642SOL    HW120825   3.174   5.214   0.728
 6642SOL    HW220826   3.233   5.078   0.798
 6643SOL     OW20827   6.384   4.497   6.520
 6643SOL    HW120828   6.380   4.430   6.594
 6643SOL    HW220829   6.435   4.577   6.551
 6644SOL     OW20830   2.883   4.809   1.794
 6644SOL    HW120831   2.970   4.801   1.745
 6644SOL    HW220832   2.857   4.719   1.830
 6645SOL     OW20833   6.612   5.296   0.434
 6645SOL    HW120834   6.587   5.288   0.530
 6645SOL    HW220835   6.690   5.358   0.425
 6646SOL     OW20836   4.289   6.103   4.258
 6646SOL    HW120837   4.361   6.033   4.256
 6646SOL    HW220838   4.214   6.071   4.317
 6647SOL     OW20839   3.390   1.540   2.138
 6647SOL    HW120840   3.388   1.631   2.180
 6647SOL    HW220841   3.334   1.541   2.055
 6648SOL     OW20842   3.114   6.035   2.292
 6648SOL    HW120843   3.076   6.128   2.292
 6648SOL    HW220844   3.130   6.006   2.198
 6649SOL     OW20845   5.112   1.600   6.882
 6649SOL    HW120846   5.163   1.673   6.928
 6649SOL    HW220847   5.087   1.630   6.790
 6650SOL     OW20848   4.017   1.568   5.101
 6650SOL    HW120849   4.013   1.497   5.171
 6650SOL    HW220850   3.936   1.626   5.108
 6651SOL     OW20851   1.419   1.981   6.994
 6651SOL    HW120852   1.381   1.928   6.918
 6651SOL    HW220853   1.478   2.053   6.959
 6652SOL     OW20854   6.402   4.768   0.174
 6652SOL    HW120855   6.377   4.784   0.269
 6652SOL    HW220856   6.432   4.673   0.163
 6653SOL     OW20857   3.948   3.178   3.207
 6653SOL    HW120858   3.908   3.094   3.171
 6653SOL    HW220859   3.877   3.231   3.254
 6654SOL     OW20860   2.225   2.673   0.890
 6654SOL    HW120861   2.200   2.750   0.831
 6654SOL    HW220862   2.143   2.640   0.937
 6655SOL     OW20863   3.149   6.998   1.620
 6655SOL    HW120864   3.198   6.955   1.696
 6655SOL    HW220865   3.164   0.073   1.621
 6656SOL     OW20866   6.142   1.553   2.840
 6656SOL    HW120867   6.050   1.574   2.806
 6656SOL    HW220868   6.206   1.549   2.763
 6657SOL     OW20869   4.841   6.234   6.348
 6657SOL    HW120870   4.850   6.135   6.334
 6657SOL    HW220871   4.870   6.257   6.441
 6658SOL     OW20872   6.127   1.686   4.898
 6658SOL    HW120873   6.171   1.615   4.953
 6658SOL    HW220874   6.088   1.645   4.815
 6659SOL     OW20875   2.868   2.246   0.274
 6659SOL    HW120876   2.815   2.287   0.348
 6659SOL    HW220877   2.931   2.314   0.235
 6660SOL     OW20878   0.312   6.389   0.995
 6660SOL    HW120879   0.369   6.429   1.067
 6660SOL    HW220880   0.288   6.460   0.929
 6661SOL     OW20881   0.611   5.432   3.811
 6661SOL    HW120882   0.635   5.418   3.907
 6661SOL    HW220883   0.546   5.363   3.783
 6662SOL     OW20884   1.803   0.236   6.746
 6662SOL    HW120885   1.703   0.243   6.755
 6662SOL    HW220886   1.827   0.231   6.649
 6663SOL     OW20887   0.001   5.357   3.013
 6663SOL    HW120888   0.002   5.280   2.949
 6663SOL    HW220889   0.051   5.434   2.972
 6664SOL     OW20890   1.584   6.770   1.262
 6664SOL    HW120891   1.585   6.700   1.191
 6664SOL    HW220892   1.599   6.860   1.221
 6665SOL     OW20893   1.880   0.349   2.591
 6665SOL    HW120894   1.823   0.275   2.627
 6665SOL    HW220895   1.897   0.417   2.662
 6666SOL     OW20896   5.787   1.856   5.521
 6666SOL    HW120897   5.711   1.792   5.510
 6666SOL    HW220898   5.773   1.934   5.460
 6667SOL     OW20899   6.979   5.206   5.175
 6667SOL    HW120900   6.935   5.185   5.262
 6667SOL    HW220901   6.934   5.155   5.102
 6668SOL     OW20902   6.809   6.009   1.678
 6668SOL    HW120903   6.711   6.019   1.696
 6668SOL    HW220904   6.823   5.983   1.583
 6669SOL     OW20905   2.065   2.885   4.159
 6669SOL    HW120906   2.144   2.866   4.101
 6669SOL    HW220907   1.990   2.824   4.135
 6670SOL     OW20908   3.424   3.844   6.463
 6670SOL    HW120909   3.482   3.830   6.383
 6670SOL    HW220910   3.481   3.865   6.543
 6671SOL     OW20911   5.484   5.725   0.911
 6671SOL    HW120912   5.413   5.758   0.974
 6671SOL    HW220913   5.572   5.722   0.958
 6672SOL     OW20914   0.985   1.718   5.139
 6672SOL    HW120915   1.021   1.775   5.065
 6672SOL    HW220916   1.044   1.727   5.220
 6673SOL     OW20917   4.247   5.992   3.095
 6673SOL    HW120918   4.300   5.908   3.084
 6673SOL    HW220919   4.301   6.070   3.063
 6674SOL     OW20920   0.931   5.036   6.284
 6674SOL    HW120921   0.929   5.070   6.378
 6674SOL    HW220922   0.837   5.022   6.253
 6675SOL     OW20923   4.503   3.904   1.706
 6675SOL    HW120924   4.586   3.861   1.741
 6675SOL    HW220925   4.492   3.994   1.748
 6676SOL     OW20926   0.179   3.497   5.534
 6676SOL    HW120927   0.155   3.586   5.571
 6676SOL    HW220928   0.189   3.431   5.608
 6677SOL     OW20929   0.495   2.962   0.181
 6677SOL    HW120930   0.464   2.878   0.138
 6677SOL    HW220931   0.458   3.041   0.131
 6678SOL     OW20932   1.630   2.621   6.923
 6678SOL    HW120933   1.688   2.540   6.925
 6678SOL    HW220934   1.535   2.594   6.939
 6679SOL     OW20935   2.640   1.800   4.379
 6679SOL    HW120936   2.540   1.800   4.385
 6679SOL    HW220937   2.678   1.838   4.463
 6680SOL     OW20938   4.537   6.024   5.879
 6680SOL    HW120939   4.453   6.025   5.826
 6680SOL    HW220940   4.538   6.103   5.941
 6681SOL     OW20941   4.894   5.014   0.123
 6681SOL    HW120942   4.935   4.925   0.141
 6681SOL    HW220943   4.963   5.076   0.086
 6682SOL     OW20944   0.970   4.016   2.588
 6682SOL    HW120945   1.037   4.056   2.526
 6682SOL    HW220946   0.942   3.926   2.556
 6683SOL     OW20947   5.240   2.785   5.805
 6683SOL    HW120948   5.215   2.731   5.886
 6683SOL    HW220949   5.340   2.786   5.796
 6684SOL     OW20950   2.015   6.863   1.210
 6684SOL    HW120951   2.069   6.931   1.259
 6684SOL    HW220952   1.936   6.907   1.167
 6685SOL     OW20953   5.515   2.333   5.827
 6685SOL    HW120954   5.574   2.338   5.907
 6685SOL    HW220955   5.469   2.245   5.824
 6686SOL     OW20956   5.569   5.435   3.625
 6686SOL    HW120957   5.646   5.441   3.690
 6686SOL    HW220958   5.544   5.527   3.595
 6687SOL     OW20959   0.507   1.697   1.476
 6687SOL    HW120960   0.551   1.786   1.477
 6687SOL    HW220961   0.546   1.641   1.403
 6688SOL     OW20962   0.367   4.287   1.835
 6688SOL    HW120963   0.290   4.244   1.884
 6688SOL    HW220964   0.395   4.369   1.884
 6689SOL     OW20965   4.355   2.376   0.575
 6689SOL    HW120966   4.433   2.387   0.635
 6689SOL    HW220967   4.324   2.281   0.577
 6690SOL     OW20968   2.618   0.928   2.127
 6690SOL    HW120969   2.603   0.895   2.033
 6690SOL    HW220970   2.716   0.939   2.143
 6691SOL     OW20971   3.262   5.625   1.597
 6691SOL    HW120972   3.330   5.697   1.610
 6691SOL    HW220973   3.175   5.666   1.570
 6692SOL     OW20974   2.860   4.770   5.313
 6692SOL    HW120975   2.760   4.770   5.309
 6692SOL    HW220976   2.895   4.692   5.263
 6693SOL     OW20977   5.203   3.541   6.438
 6693SOL    HW120978   5.199   3.634   6.475
 6693SOL    HW220979   5.294   3.524   6.401
 6694SOL     OW20980   4.767   5.797   6.763
 6694SOL    HW120981   4.782   5.788   6.665
 6694SOL    HW220982   4.715   5.880   6.782
 6695SOL     OW20983   1.161   1.799   6.295
 6695SOL    HW120984   1.115   1.717   6.329
 6695SOL    HW220985   1.113   1.880   6.329
 6696SOL     OW20986   1.665   2.306   0.560
 6696SOL    HW120987   1.752   2.339   0.521
 6696SOL    HW220988   1.603   2.282   0.485
 6697SOL     OW20989   4.418   2.484   2.941
 6697SOL    HW120990   4.451   2.531   2.859
 6697SOL    HW220991   4.474   2.511   3.019
 6698SOL     OW20992   3.504   2.444   0.350
 6698SOL    HW120993   3.408   2.424   0.366
 6698SOL    HW220994   3.552   2.453   0.437
 6699SOL     OW20995   3.551   4.496   0.204
 6699SOL    HW120996   3.458   4.514   0.233
 6699SOL    HW220997   3.571   4.548   0.121
 6700SOL     OW20998   0.035   5.857   0.975
 6700SOL    HW120999   0.086   5.901   0.901
 6700SOL    HW221000   0.076   5.883   1.063
 6701SOL     OW21001   6.163   2.769   1.197
 6701SOL    HW121002   6.170   2.860   1.155
 6701SOL    HW221003   6.138   2.780   1.294
 6702SOL     OW21004   2.861   2.559   0.077
 6702SOL    HW121005   2.876   2.652   0.109
 6702SOL    HW221006   2.773   2.526   0.113
 6703SOL     OW21007   6.333   2.028   0.105
 6703SOL    HW121008   6.241   2.055   0.076
 6703SOL    HW221009   6.373   2.102   0.160
 6704SOL     OW21010   4.136   2.196   2.661
 6704SOL    HW121011   4.156   2.230   2.569
 6704SOL    HW221012   4.045   2.156   2.663
 6705SOL     OW21013   0.189   2.034   1.984
 6705SOL    HW121014   0.251   2.016   1.907
 6705SOL    HW221015   0.143   2.122   1.969
 6706SOL     OW21016   1.169   4.149   0.463
 6706SOL    HW121017   1.247   4.093   0.490
 6706SOL    HW221018   1.098   4.091   0.423
 6707SOL     OW21019   6.597   5.541   4.806
 6707SOL    HW121020   6.697   5.534   4.809
 6707SOL    HW221021   6.570   5.584   4.720
 6708SOL     OW21022   1.799   5.813   2.551
 6708SOL    HW121023   1.811   5.721   2.589
 6708SOL    HW221024   1.865   5.828   2.478
 6709SOL     OW21025   3.215   5.829   1.306
 6709SOL    HW121026   3.290   5.892   1.327
 6709SOL    HW221027   3.240   5.773   1.227
 6710SOL     OW21028   2.168   2.145   6.213
 6710SOL    HW121029   2.082   2.170   6.259
 6710SOL    HW221030   2.148   2.088   6.133
 6711SOL     OW21031   5.793   4.376   6.713
 6711SOL    HW121032   5.852   4.318   6.657
 6711SOL    HW221033   5.762   4.455   6.659
 6712SOL     OW21034   4.417   5.453   0.361
 6712SOL    HW121035   4.405   5.535   0.418
 6712SOL    HW221036   4.350   5.384   0.389
 6713SOL     OW21037   2.160   1.678   1.555
 6713SOL    HW121038   2.243   1.655   1.604
 6713SOL    HW221039   2.114   1.754   1.601
 6714SOL     OW21040   5.540   0.823   5.627
 6714SOL    HW121041   5.459   0.880   5.644
 6714SOL    HW221042   5.540   0.792   5.532
 6715SOL     OW21043   0.051   0.655   0.281
 6715SOL    HW121044   0.003   0.702   0.207
 6715SOL    HW221045   0.119   0.593   0.242
 6716SOL     OW21046   1.127   6.355   1.637
 6716SOL    HW121047   1.129   6.366   1.537
 6716SOL    HW221048   1.052   6.294   1.662
 6717SOL     OW21049   4.613   2.791   0.686
 6717SOL    HW121050   4.598   2.867   0.749
 6717SOL    HW221051   4.606   2.823   0.592
 6718SOL     OW21052   4.103   5.821   6.413
 6718SOL    HW121053   4.136   5.726   6.410
 6718SOL    HW221054   4.177   5.882   6.384
 6719SOL     OW21055   0.739   0.306   6.138
 6719SOL    HW121056   0.831   0.343   6.142
 6719SOL    HW221057   0.743   0.207   6.126
 6720SOL     OW21058   2.297   6.051   1.908
 6720SOL    HW121059   2.304   6.025   2.004
 6720SOL    HW221060   2.275   6.148   1.902
 6721SOL     OW21061   5.829   6.456   4.371
 6721SOL    HW121062   5.928   6.458   4.355
 6721SOL    HW221063   5.805   6.373   4.421
 6722SOL     OW21064   5.202   3.117   1.093
 6722SOL    HW121065   5.302   3.113   1.093
 6722SOL    HW221066   5.169   3.137   1.186
 6723SOL     OW21067   2.075   6.850   3.322
 6723SOL    HW121068   2.018   6.866   3.241
 6723SOL    HW221069   2.165   6.818   3.293
 6724SOL     OW21070   1.687   4.237   5.467
 6724SOL    HW121071   1.746   4.197   5.537
 6724SOL    HW221072   1.591   4.222   5.492
 6725SOL     OW21073   0.857   4.276   2.018
 6725SOL    HW121074   0.866   4.282   2.117
 6725SOL    HW221075   0.895   4.358   1.975
 6726SOL     OW21076   1.809   2.024   4.557
 6726SOL    HW121077   1.831   1.981   4.645
 6726SOL    HW221078   1.727   2.080   4.567
 6727SOL     OW21079   5.714   3.585   6.014
 6727SOL    HW121080   5.719   3.558   6.110
 6727SOL    HW221081   5.778   3.660   5.998
 6728SOL     OW21082   4.605   1.705   4.384
 6728SOL    HW121083   4.654   1.733   4.302
 6728SOL    HW221084   4.633   1.612   4.409
 6729SOL     OW21085   6.612   1.546   2.584
 6729SOL    HW121086   6.645   1.518   2.674
 6729SOL    HW221087   6.642   1.479   2.515
 6730SOL     OW21088   2.461   6.662   6.679
 6730SOL    HW121089   2.361   6.653   6.675
 6730SOL    HW221090   2.500   6.627   6.594
 6731SOL     OW21091   2.848   4.335   0.967
 6731SOL    HW121092   2.931   4.391   0.964
 6731SOL    HW221093   2.798   4.354   1.051
 6732SOL     OW21094   2.994   5.760   6.611
 6732SOL    HW121095   2.951   5.755   6.522
 6732SOL    HW221096   3.031   5.670   6.635
 6733SOL     OW21097   4.678   5.338   6.388
 6733SOL    HW121098   4.678   5.378   6.296
 6733SOL    HW221099   4.609   5.267   6.394
 6734SOL     OW21100   0.475   3.282   5.839
 6734SOL    HW121101   0.462   3.240   5.749
 6734SOL    HW221102   0.494   3.210   5.906
 6735SOL     OW21103   0.458   5.310   5.505
 6735SOL    HW121104   0.547   5.356   5.504
 6735SOL    HW221105   0.434   5.281   5.412
 6736SOL     OW21106   1.832   3.429   0.580
 6736SOL    HW121107   1.914   3.454   0.630
 6736SOL    HW221108   1.835   3.469   0.488
 6737SOL     OW21109   2.101   1.775   1.313
 6737SOL    HW121110   2.126   1.718   1.391
 6737SOL    HW221111   2.178   1.778   1.248
 6738SOL     OW21112   2.011   2.566   1.963
 6738SOL    HW121113   2.098   2.613   1.950
 6738SOL    HW221114   1.999   2.498   1.890
 6739SOL     OW21115   3.260   5.611   5.671
 6739SOL    HW121116   3.339   5.552   5.654
 6739SOL    HW221117   3.289   5.692   5.722
 6740SOL     OW21118   1.911   1.630   4.477
 6740SOL    HW121119   1.902   1.564   4.403
 6740SOL    HW221120   1.883   1.720   4.444
 6741SOL     OW21121   4.441   1.579   5.837
 6741SOL    HW121122   4.366   1.632   5.796
 6741SOL    HW221123   4.509   1.641   5.874
 6742SOL     OW21124   7.009   5.918   4.181
 6742SOL    HW121125   0.080   5.948   4.195
 6742SOL    HW221126   7.000   5.823   4.209
 6743SOL     OW21127   3.982   3.926   6.615
 6743SOL    HW121128   4.065   3.917   6.559
 6743SOL    HW221129   3.902   3.901   6.560
 6744SOL     OW21130   4.089   5.539   6.134
 6744SOL    HW121131   4.149   5.466   6.167
 6744SOL    HW221132   4.079   5.531   6.035
 6745SOL     OW21133   1.117   5.033   2.502
 6745SOL    HW121134   1.034   5.068   2.545
 6745SOL    HW221135   1.098   5.008   2.407
 6746SOL     OW21136   0.603   0.617   1.863
 6746SOL    HW121137   0.641   0.632   1.954
 6746SOL    HW221138   0.540   0.692   1.841
 6747SOL     OW21139   5.729   6.241   4.515
 6747SOL    HW121140   5.734   6.241   4.615
 6747SOL    HW221141   5.637   6.212   4.487
 6748SOL     OW21142   1.008   1.230   2.413
 6748SOL    HW121143   1.064   1.162   2.365
 6748SOL    HW221144   1.032   1.230   2.510
 6749SOL     OW21145   3.085   0.002   6.999
 6749SOL    HW121146   3.174   0.037   6.971
 6749SOL    HW221147   3.017   0.074   6.992
 6750SOL     OW21148   3.414   1.740   4.423
 6750SOL    HW121149   3.453   1.673   4.359
 6750SOL    HW221150   3.487   1.793   4.465
 6751SOL     OW21151   2.953   2.124   3.785
 6751SOL    HW121152   3.028   2.139   3.720
 6751SOL    HW221153   2.905   2.040   3.762
 6752SOL     OW21154   6.134   2.401   1.574
 6752SOL    HW121155   6.088   2.346   1.643
 6752SOL    HW221156   6.214   2.447   1.614
 6753SOL     OW21157   4.171   1.541   6.842
 6753SOL    HW121158   4.096   1.590   6.797
 6753SOL    HW221159   4.178   1.572   6.937
 6754SOL     OW21160   6.699   2.261   6.404
 6754SOL    HW121161   6.609   2.251   6.361
 6754SOL    HW221162   6.688   2.301   6.495
 6755SOL     OW21163   5.102   1.491   3.874
 6755SOL    HW121164   5.021   1.494   3.815
 6755SOL    HW221165   5.109   1.576   3.926
 6756SOL     OW21166   4.813   3.991   4.360
 6756SOL    HW121167   4.796   4.074   4.309
 6756SOL    HW221168   4.849   3.920   4.299
 6757SOL     OW21169   4.424   5.641   0.554
 6757SOL    HW121170   4.342   5.694   0.534
 6757SOL    HW221171   4.505   5.693   0.526
 6758SOL     OW21172   5.173   3.500   2.209
 6758SOL    HW121173   5.105   3.434   2.241
 6758SOL    HW221174   5.132   3.591   2.204
 6759SOL     OW21175   1.346   4.198   3.901
 6759SOL    HW121176   1.312   4.226   3.991
 6759SOL    HW221177   1.321   4.267   3.833
 6760SOL     OW21178   0.228   4.913   4.891
 6760SOL    HW121179   0.197   4.832   4.941
 6760SOL    HW221180   0.205   4.995   4.943
 6761SOL     OW21181   5.482   2.841   5.706
 6761SOL    HW121182   5.557   2.811   5.765
 6761SOL    HW221183   5.497   2.936   5.678
 6762SOL     OW21184   6.414   4.985   3.467
 6762SOL    HW121185   6.410   4.901   3.521
 6762SOL    HW221186   6.396   5.064   3.525
 6763SOL     OW21187   5.907   5.815   4.631
 6763SOL    HW121188   5.957   5.750   4.688
 6763SOL    HW221189   5.964   5.843   4.554
 6764SOL     OW21190   3.137   3.827   5.851
 6764SOL    HW121191   3.208   3.767   5.815
 6764SOL    HW221192   3.052   3.775   5.862
 6765SOL     OW21193   6.255   4.726   3.581
 6765SOL    HW121194   6.204   4.808   3.604
 6765SOL    HW221195   6.192   4.651   3.561
 6766SOL     OW21196   2.113   0.421   6.230
 6766SOL    HW121197   2.170   0.480   6.173
 6766SOL    HW221198   2.114   0.454   6.325
 6767SOL     OW21199   0.313   2.548   0.251
 6767SOL    HW121200   0.256   2.607   0.309
 6767SOL    HW221201   0.255   2.483   0.202
 6768SOL     OW21202   0.667   0.713   3.602
 6768SOL    HW121203   0.700   0.619   3.608
 6768SOL    HW221204   0.729   0.768   3.546
 6769SOL     OW21205   3.239   1.941   5.280
 6769SOL    HW121206   3.142   1.961   5.293
 6769SOL    HW221207   3.249   1.854   5.233
 6770SOL     OW21208   0.143   2.806   3.911
 6770SOL    HW121209   0.234   2.766   3.897
 6770SOL    HW221210   0.084   2.782   3.834
 6771SOL     OW21211   3.461   2.070   3.210
 6771SOL    HW121212   3.413   1.982   3.215
 6771SOL    HW221213   3.557   2.054   3.186
 6772SOL     OW21214   5.621   1.475   2.754
 6772SOL    HW121215   5.627   1.562   2.803
 6772SOL    HW221216   5.553   1.483   2.681
 6773SOL     OW21217   6.885   6.303   1.480
 6773SOL    HW121218   6.799   6.344   1.448
 6773SOL    HW221219   6.957   6.320   1.414
 6774SOL     OW21220   1.731   2.020   5.250
 6774SOL    HW121221   1.782   1.974   5.323
 6774SOL    HW221222   1.780   2.103   5.222
 6775SOL     OW21223   0.668   1.848   4.217
 6775SOL    HW121224   0.635   1.890   4.302
 6775SOL    HW221225   0.711   1.918   4.160
 6776SOL     OW21226   4.007   4.186   0.975
 6776SOL    HW121227   3.951   4.139   1.043
 6776SOL    HW221228   3.988   4.148   0.884
 6777SOL     OW21229   4.838   5.693   1.257
 6777SOL    HW121230   4.758   5.633   1.252
 6777SOL    HW221231   4.808   5.788   1.262
 6778SOL     OW21232   5.854   3.285   2.695
 6778SOL    HW121233   5.816   3.327   2.612
 6778SOL    HW221234   5.789   3.220   2.733
 6779SOL     OW21235   6.063   4.145   5.725
 6779SOL    HW121236   6.052   4.189   5.814
 6779SOL    HW221237   6.021   4.202   5.655
 6780SOL     OW21238   2.494   2.608   3.037
 6780SOL    HW121239   2.464   2.702   3.020
 6780SOL    HW221240   2.505   2.593   3.135
 6781SOL     OW21241   6.346   1.452   4.475
 6781SOL    HW121242   6.295   1.472   4.391
 6781SOL    HW221243   6.301   1.378   4.524
 6782SOL     OW21244   6.690   1.609   3.522
 6782SOL    HW121245   6.692   1.565   3.431
 6782SOL    HW221246   6.615   1.675   3.525
 6783SOL     OW21247   1.309   4.407   5.711
 6783SOL    HW121248   1.315   4.481   5.778
 6783SOL    HW221249   1.256   4.331   5.749
 6784SOL     OW21250   2.189   3.208   1.300
 6784SOL    HW121251   2.269   3.209   1.361
 6784SOL    HW221252   2.139   3.123   1.312
 6785SOL     OW21253   5.583   4.677   4.707
 6785SOL    HW121254   5.559   4.682   4.610
 6785SOL    HW221255   5.538   4.751   4.757
 6786SOL     OW21256   6.587   2.454   1.127
 6786SOL    HW121257   6.658   2.509   1.083
 6786SOL    HW221258   6.498   2.484   1.094
 6787SOL     OW21259   3.736   2.243   0.264
 6787SOL    HW121260   3.681   2.269   0.343
 6787SOL    HW221261   3.677   2.236   0.183
 6788SOL     OW21262   0.801   4.051   3.552
 6788SOL    HW121263   0.831   4.129   3.608
 6788SOL    HW221264   0.710   4.022   3.580
 6789SOL     OW21265   7.022   3.684   3.923
 6789SOL    HW121266   0.047   3.614   3.975
 6789SOL    HW221267   6.963   3.641   3.855
 6790SOL     OW21268   1.091   4.497   5.945
 6790SOL    HW121269   1.143   4.460   6.022
 6790SOL    HW221270   1.046   4.582   5.973
 6791SOL     OW21271   4.486   1.451   3.871
 6791SOL    HW121272   4.415   1.386   3.898
 6791SOL    HW221273   4.487   1.528   3.934
 6792SOL     OW21274   4.679   6.997   5.461
 6792SOL    HW121275   4.732   6.932   5.516
 6792SOL    HW221276   4.621   6.946   5.398
 6793SOL     OW21277   2.401   3.304   0.133
 6793SOL    HW121278   2.424   3.230   0.195
 6793SOL    HW221279   2.462   3.301   0.054
 6794SOL     OW21280   4.468   1.366   5.684
 6794SOL    HW121281   4.527   1.383   5.606
 6794SOL    HW221282   4.449   1.452   5.731
 6795SOL     OW21283   1.173   1.069   1.061
 6795SOL    HW121284   1.189   1.133   0.986
 6795SOL    HW221285   1.137   1.119   1.140
 6796SOL     OW21286   5.885   1.716   1.951
 6796SOL    HW121287   5.918   1.681   2.039
 6796SOL    HW221288   5.790   1.746   1.959
 6797SOL     OW21289   0.390   1.993   1.788
 6797SOL    HW121290   0.337   1.952   1.713
 6797SOL    HW221291   0.453   2.061   1.751
 6798SOL     OW21292   5.816   0.270   2.061
 6798SOL    HW121293   5.774   0.321   2.137
 6798SOL    HW221294   5.797   0.173   2.072
 6799SOL     OW21295   5.220   0.049   3.229
 6799SOL    HW121296   5.192   0.109   3.154
 6799SOL    HW221297   5.140   0.003   3.267
 6800SOL     OW21298   0.893   1.263   1.493
 6800SOL    HW121299   0.850   1.173   1.480
 6800SOL    HW221300   0.823   1.328   1.521
 6801SOL     OW21301   1.056   6.379   4.708
 6801SOL    HW121302   0.961   6.385   4.740
 6801SOL    HW221303   1.075   6.456   4.647
 6802SOL     OW21304   3.422   5.847   1.633
 6802SOL    HW121305   3.509   5.892   1.615
 6802SOL    HW221306   3.369   5.901   1.698
 6803SOL     OW21307   5.163   4.695   6.716
 6803SOL    HW121308   5.169   4.601   6.750
 6803SOL    HW221309   5.188   4.759   6.789
 6804SOL     OW21310   2.942   4.763   2.851
 6804SOL    HW121311   2.899   4.739   2.763
 6804SOL    HW221312   3.000   4.688   2.881
 6805SOL     OW21313   0.256   4.538   5.829
 6805SOL    HW121314   0.268   4.572   5.736
 6805SOL    HW221315   0.168   4.569   5.865
 6806SOL     OW21316   6.761   0.543   3.312
 6806SOL    HW121317   6.766   0.450   3.278
 6806SOL    HW221318   6.854   0.579   3.326
 6807SOL     OW21319   3.070   3.992   2.667
 6807SOL    HW121320   2.982   4.020   2.705
 6807SOL    HW221321   3.144   4.037   2.718
 6808SOL     OW21322   4.473   1.788   5.233
 6808SOL    HW121323   4.386   1.776   5.185
 6808SOL    HW221324   4.534   1.712   5.210
 6809SOL     OW21325   6.038   4.724   2.012
 6809SOL    HW121326   6.043   4.770   2.101
 6809SOL    HW221327   6.020   4.626   2.026
 6810SOL     OW21328   2.936   1.244   3.290
 6810SOL    HW121329   2.957   1.213   3.383
 6810SOL    HW221330   2.882   1.174   3.243
 6811SOL     OW21331   6.247   1.627   2.318
 6811SOL    HW121332   6.171   1.593   2.373
 6811SOL    HW221333   6.246   1.727   2.318
 6812SOL     OW21334   2.806   3.727   5.211
 6812SOL    HW121335   2.753   3.800   5.255
 6812SOL    HW221336   2.879   3.697   5.272
 6813SOL     OW21337   5.563   3.277   1.690
 6813SOL    HW121338   5.651   3.310   1.723
 6813SOL    HW221339   5.514   3.233   1.765
 6814SOL     OW21340   4.375   1.513   6.359
 6814SOL    HW121341   4.426   1.461   6.290
 6814SOL    HW221342   4.346   1.600   6.319
 6815SOL     OW21343   2.297   5.105   6.476
 6815SOL    HW121344   2.220   5.119   6.538
 6815SOL    HW221345   2.263   5.080   6.386
 6816SOL     OW21346   0.606   1.963   4.444
 6816SOL    HW121347   0.619   2.061   4.462
 6816SOL    HW221348   0.586   1.916   4.530
 6817SOL     OW21349   3.244   2.125   2.380
 6817SOL    HW121350   3.232   2.127   2.480
 6817SOL    HW221351   3.155   2.131   2.336
 6818SOL     OW21352   2.263   6.542   6.143
 6818SOL    HW121353   2.233   6.637   6.137
 6818SOL    HW221354   2.361   6.537   6.128
 6819SOL     OW21355   4.636   4.661   3.048
 6819SOL    HW121356   4.592   4.571   3.048
 6819SOL    HW221357   4.572   4.729   3.082
 6820SOL     OW21358   2.171   6.377   1.455
 6820SOL    HW121359   2.133   6.467   1.433
 6820SOL    HW221360   2.268   6.387   1.479
 6821SOL     OW21361   4.611   2.977   5.377
 6821SOL    HW121362   4.659   3.050   5.427
 6821SOL    HW221363   4.529   3.015   5.334
 6822SOL     OW21364   0.101   2.349   6.550
 6822SOL    HW121365   0.068   2.352   6.456
 6822SOL    HW221366   0.190   2.394   6.555
 6823SOL     OW21367   5.135   3.336   0.273
 6823SOL    HW121368   5.169   3.413   0.219
 6823SOL    HW221369   5.124   3.364   0.368
 6824SOL     OW21370   1.614   1.896   6.690
 6824SOL    HW121371   1.627   1.971   6.625
 6824SOL    HW221372   1.517   1.885   6.709
 6825SOL     OW21373   0.059   5.830   1.603
 6825SOL    HW121374   6.996   5.779   1.606
 6825SOL    HW221375   0.045   5.922   1.639
 6826SOL     OW21376   0.780   3.705   3.275
 6826SOL    HW121377   0.833   3.715   3.360
 6826SOL    HW221378   0.776   3.609   3.249
 6827SOL     OW21379   4.086   6.019   4.828
 6827SOL    HW121380   4.110   6.113   4.855
 6827SOL    HW221381   4.093   5.959   4.908
 6828SOL     OW21382   3.472   2.091   2.946
 6828SOL    HW121383   3.562   2.128   2.923
 6828SOL    HW221384   3.455   2.102   3.043
 6829SOL     OW21385   5.514   6.538   4.637
 6829SOL    HW121386   5.436   6.555   4.697
 6829SOL    HW221387   5.588   6.495   4.688
 6830SOL     OW21388   5.532   0.560   3.124
 6830SOL    HW121389   5.566   0.611   3.203
 6830SOL    HW221390   5.608   0.514   3.079
 6831SOL     OW21391   1.445   1.300   6.146
 6831SOL    HW121392   1.485   1.362   6.213
 6831SOL    HW221393   1.441   1.345   6.057
 6832SOL     OW21394   2.911   2.390   0.716
 6832SOL    HW121395   2.883   2.371   0.810
 6832SOL    HW221396   2.932   2.305   0.669
 6833SOL     OW21397   2.666   5.349   5.850
 6833SOL    HW121398   2.698   5.416   5.917
 6833SOL    HW221399   2.627   5.396   5.771
 6834SOL     OW21400   5.028   6.818   0.563
 6834SOL    HW121401   5.037   6.911   0.597
 6834SOL    HW221402   4.932   6.788   0.571
 6835SOL     OW21403   3.064   2.205   4.282
 6835SOL    HW121404   3.132   2.158   4.227
 6835SOL    HW221405   2.996   2.139   4.315
 6836SOL     OW21406   1.851   5.109   6.576
 6836SOL    HW121407   1.898   5.033   6.621
 6836SOL    HW221408   1.793   5.073   6.503
 6837SOL     OW21409   0.968   0.750   1.988
 6837SOL    HW121410   1.026   0.738   2.069
 6837SOL    HW221411   0.989   0.678   1.921
 6838SOL     OW21412   2.700   4.475   5.311
 6838SOL    HW121413   2.624   4.423   5.272
 6838SOL    HW221414   2.758   4.511   5.238
 6839SOL     OW21415   5.590   2.573   3.795
 6839SOL    HW121416   5.499   2.570   3.838
 6839SOL    HW221417   5.589   2.638   3.720
 6840SOL     OW21418   2.694   6.500   5.275
 6840SOL    HW121419   2.785   6.468   5.250
 6840SOL    HW221420   2.631   6.487   5.198
 6841SOL     OW21421   3.970   5.606   1.720
 6841SOL    HW121422   3.898   5.594   1.652
 6841SOL    HW221423   4.057   5.623   1.673
 6842SOL     OW21424   0.684   3.678   6.983
 6842SOL    HW121425   0.621   3.609   6.948
 6842SOL    HW221426   0.683   3.677   0.060
 6843SOL     OW21427   3.916   2.272   1.780
 6843SOL    HW121428   3.965   2.198   1.826
 6843SOL    HW221429   3.818   2.252   1.780
 6844SOL     OW21430   4.464   5.100   3.987
 6844SOL    HW121431   4.527   5.025   4.007
 6844SOL    HW221432   4.511   5.188   3.996
 6845SOL     OW21433   4.502   5.134   2.493
 6845SOL    HW121434   4.551   5.082   2.423
 6845SOL    HW221435   4.567   5.180   2.553
 6846SOL     OW21436   3.913   3.218   2.810
 6846SOL    HW121437   3.956   3.271   2.883
 6846SOL    HW221438   3.835   3.269   2.774
 6847SOL     OW21439   5.408   3.872   2.056
 6847SOL    HW121440   5.380   3.948   1.998
 6847SOL    HW221441   5.473   3.814   2.006
 6848SOL     OW21442   0.272   5.699   4.651
 6848SOL    HW121443   0.359   5.743   4.629
 6848SOL    HW221444   0.268   5.609   4.607
 6849SOL     OW21445   3.465   5.859   4.000
 6849SOL    HW121446   3.562   5.882   3.991
 6849SOL    HW221447   3.448   5.820   4.091
 6850SOL     OW21448   5.674   2.436   3.298
 6850SOL    HW121449   5.706   2.470   3.209
 6850SOL    HW221450   5.739   2.464   3.369
 6851SOL     OW21451   2.054   4.894   5.950
 6851SOL    HW121452   2.149   4.864   5.937
 6851SOL    HW221453   2.041   4.982   5.905
 6852SOL     OW21454   1.282   4.200   1.419
 6852SOL    HW121455   1.257   4.164   1.509
 6852SOL    HW221456   1.282   4.300   1.423
 6853SOL     OW21457   0.602   5.293   5.870
 6853SOL    HW121458   0.601   5.199   5.904
 6853SOL    HW221459   0.542   5.299   5.789
 6854SOL     OW21460   6.623   1.839   5.919
 6854SOL    HW121461   6.699   1.779   5.942
 6854SOL    HW221462   6.536   1.795   5.944
 6855SOL     OW21463   4.293   0.159   2.889
 6855SOL    HW121464   4.238   0.082   2.920
 6855SOL    HW221465   4.258   0.193   2.802
 6856SOL     OW21466   6.367   3.613   4.537
 6856SOL    HW121467   6.447   3.593   4.594
 6856SOL    HW221468   6.289   3.561   4.571
 6857SOL     OW21469   2.986   1.958   6.117
 6857SOL    HW121470   2.992   1.861   6.140
 6857SOL    HW221471   2.929   2.005   6.184
 6858SOL     OW21472   4.042   3.652   4.634
 6858SOL    HW121473   3.971   3.599   4.587
 6858SOL    HW221474   4.043   3.745   4.597
 6859SOL     OW21475   2.414   6.826   0.972
 6859SOL    HW121476   2.333   6.786   0.929
 6859SOL    HW221477   2.436   6.913   0.927
 6860SOL     OW21478   5.660   4.745   1.315
 6860SOL    HW121479   5.699   4.792   1.236
 6860SOL    HW221480   5.620   4.813   1.377
 6861SOL     OW21481   5.591   5.577   6.896
 6861SOL    HW121482   5.603   5.541   6.804
 6861SOL    HW221483   5.632   5.514   6.962
 6862SOL     OW21484   2.980   5.288   5.108
 6862SOL    HW121485   2.945   5.200   5.141
 6862SOL    HW221486   3.045   5.325   5.175
 6863SOL     OW21487   5.967   1.301   3.972
 6863SOL    HW121488   6.049   1.254   3.939
 6863SOL    HW221489   5.981   1.332   4.066
 6864SOL     OW21490   2.810   5.975   3.197
 6864SOL    HW121491   2.743   5.990   3.124
 6864SOL    HW221492   2.894   5.936   3.159
 6865SOL     OW21493   6.535   3.843   4.808
 6865SOL    HW121494   6.497   3.765   4.857
 6865SOL    HW221495   6.572   3.813   4.720
 6866SOL     OW21496   0.274   3.689   1.873
 6866SOL    HW121497   0.269   3.753   1.951
 6866SOL    HW221498   0.369   3.677   1.846
 6867SOL     OW21499   1.707   4.514   1.705
 6867SOL    HW121500   1.797   4.480   1.733
 6867SOL    HW221501   1.651   4.438   1.674
 6868SOL     OW21502   1.837   6.268   4.560
 6868SOL    HW121503   1.827   6.345   4.496
 6868SOL    HW221504   1.806   6.184   4.517
 6869SOL     OW21505   5.504   2.494   5.606
 6869SOL    HW121506   5.416   2.483   5.560
 6869SOL    HW221507   5.509   2.430   5.683
 6870SOL     OW21508   5.713   3.541   3.238
 6870SOL    HW121509   5.632   3.485   3.257
 6870SOL    HW221510   5.783   3.522   3.306
 6871SOL     OW21511   6.007   4.490   1.275
 6871SOL    HW121512   6.022   4.437   1.192
 6871SOL    HW221513   6.086   4.549   1.292
 6872SOL     OW21514   2.015   3.496   0.922
 6872SOL    HW121515   1.928   3.540   0.899
 6872SOL    HW221516   2.021   3.407   0.877
 6873SOL     OW21517   6.004   3.055   6.002
 6873SOL    HW121518   6.054   3.074   5.917
 6873SOL    HW221519   5.913   3.096   5.997
 6874SOL     OW21520   6.789   2.768   3.913
 6874SOL    HW121521   6.790   2.850   3.970
 6874SOL    HW221522   6.860   2.776   3.843
 6875SOL     OW21523   1.352   1.687   2.707
 6875SOL    HW121524   1.436   1.700   2.655
 6875SOL    HW221525   1.366   1.615   2.775
 6876SOL     OW21526   3.458   5.706   0.080
 6876SOL    HW121527   3.510   5.692   0.164
 6876SOL    HW221528   3.491   5.644   0.009
 6877SOL     OW21529   2.480   3.935   6.724
 6877SOL    HW121530   2.507   3.935   6.820
 6877SOL    HW221531   2.514   4.018   6.680
 6878SOL     OW21532   2.087   1.606   5.507
 6878SOL    HW121533   2.145   1.615   5.426
 6878SOL    HW221534   2.140   1.563   5.581
 6879SOL     OW21535   0.282   1.932   6.662
 6879SOL    HW121536   0.322   1.841   6.663
 6879SOL    HW221537   0.231   1.947   6.747
 6880SOL     OW21538   2.219   4.163   5.290
 6880SOL    HW121539   2.174   4.195   5.207
 6880SOL    HW221540   2.307   4.123   5.266
 6881SOL     OW21541   7.013   4.434   1.398
 6881SOL    HW121542   6.941   4.477   1.454
 6881SOL    HW221543   0.007   4.490   1.317
 6882SOL     OW21544   1.936   1.219   4.712
 6882SOL    HW121545   1.975   1.178   4.794
 6882SOL    HW221546   1.996   1.291   4.678
 6883SOL     OW21547   3.866   7.004   1.541
 6883SOL    HW121548   3.919   0.049   1.491
 6883SOL    HW221549   3.777   0.019   1.567
 6884SOL     OW21550   2.431   4.462   4.609
 6884SOL    HW121551   2.400   4.387   4.666
 6884SOL    HW221552   2.423   4.436   4.513
 6885SOL     OW21553   2.837   6.232   3.325
 6885SOL    HW121554   2.840   6.153   3.264
 6885SOL    HW221555   2.745   6.271   3.325
 6886SOL     OW21556   5.399   1.216   2.605
 6886SOL    HW121557   5.334   1.214   2.529
 6886SOL    HW221558   5.390   1.132   2.658
 6887SOL     OW21559   6.231   0.209   5.161
 6887SOL    HW121560   6.271   0.212   5.069
 6887SOL    HW221561   6.288   0.262   5.224
 6888SOL     OW21562   6.215   0.563   4.983
 6888SOL    HW121563   6.161   0.478   4.984
 6888SOL    HW221564   6.183   0.622   4.910
 6889SOL     OW21565   0.711   2.746   6.167
 6889SOL    HW121566   0.737   2.828   6.115
 6889SOL    HW221567   0.625   2.763   6.215
 6890SOL     OW21568   2.685   0.721   0.900
 6890SOL    HW121569   2.663   0.704   0.804
 6890SOL    HW221570   2.722   0.638   0.941
 6891SOL     OW21571   2.165   3.759   4.615
 6891SOL    HW121572   2.183   3.661   4.624
 6891SOL    HW221573   2.188   3.788   4.522
 6892SOL     OW21574   3.913   0.361   4.113
 6892SOL    HW121575   3.847   0.287   4.120
 6892SOL    HW221576   3.980   0.352   4.187
 6893SOL     OW21577   5.181   5.918   3.165
 6893SOL    HW121578   5.138   5.960   3.086
 6893SOL    HW221579   5.280   5.911   3.149
 6894SOL     OW21580   6.175   5.778   0.119
 6894SOL    HW121581   6.273   5.780   0.096
 6894SOL    HW221582   6.152   5.859   0.173
 6895SOL     OW21583   2.792   3.846   0.388
 6895SOL    HW121584   2.824   3.908   0.317
 6895SOL    HW221585   2.819   3.880   0.478
 6896SOL     OW21586   3.339   0.922   3.566
 6896SOL    HW121587   3.252   0.879   3.543
 6896SOL    HW221588   3.405   0.904   3.493
 6897SOL     OW21589   3.105   3.478   0.425
 6897SOL    HW121590   3.138   3.387   0.448
 6897SOL    HW221591   3.013   3.491   0.462
 6898SOL     OW21592   4.083   0.623   2.022
 6898SOL    HW121593   4.013   0.637   2.092
 6898SOL    HW221594   4.172   0.608   2.067
 6899SOL     OW21595   5.466   0.105   6.063
 6899SOL    HW121596   5.556   0.118   6.021
 6899SOL    HW221597   5.460   0.159   6.146
 6900SOL     OW21598   5.298   1.008   5.851
 6900SOL    HW121599   5.329   0.913   5.862
 6900SOL    HW221600   5.217   1.023   5.908
 6901SOL     OW21601   1.180   0.235   6.246
 6901SOL    HW121602   1.222   0.280   6.168
 6901SOL    HW221603   1.111   0.295   6.286
 6902SOL     OW21604   0.737   0.010   6.874
 6902SOL    HW121605   0.675   0.087   6.857
 6902SOL    HW221606   0.696   6.971   6.940
 6903SOL     OW21607   3.531   3.397   0.412
 6903SOL    HW121608   3.611   3.436   0.367
 6903SOL    HW221609   3.483   3.336   0.349
 6904SOL     OW21610   6.780   0.593   3.981
 6904SOL    HW121611   6.826   0.505   3.989
 6904SOL    HW221612   6.799   0.632   3.891
 6905SOL     OW21613   6.590   6.561   0.829
 6905SOL    HW121614   6.572   6.655   0.800
 6905SOL    HW221615   6.562   6.550   0.925
 6906SOL     OW21616   3.752   0.995   4.085
 6906SOL    HW121617   3.741   0.898   4.064
 6906SOL    HW221618   3.723   1.049   4.006
 6907SOL     OW21619   3.810   1.169   1.441
 6907SOL    HW121620   3.729   1.159   1.499
 6907SOL    HW221621   3.801   1.251   1.385
 6908SOL     OW21622   1.234   0.055   5.513
 6908SOL    HW121623   1.295   0.086   5.440
 6908SOL    HW221624   1.179   7.001   5.480
 6909SOL     OW21625   4.338   4.920   1.059
 6909SOL    HW121626   4.307   4.914   1.154
 6909SOL    HW221627   4.273   4.873   1.000
 6910SOL     OW21628   6.402   1.298   2.421
 6910SOL    HW121629   6.355   1.385   2.407
 6910SOL    HW221630   6.501   1.312   2.412
 6911SOL     OW21631   4.252   0.281   3.898
 6911SOL    HW121632   4.254   0.238   3.989
 6911SOL    HW221633   4.297   0.370   3.902
 6912SOL     OW21634   4.801   4.889   1.366
 6912SOL    HW121635   4.720   4.923   1.320
 6912SOL    HW221636   4.874   4.958   1.362
 6913SOL     OW21637   4.850   4.747   4.646
 6913SOL    HW121638   4.919   4.727   4.577
 6913SOL    HW221639   4.800   4.829   4.621
 6914SOL     OW21640   6.003   5.490   6.640
 6914SOL    HW121641   5.973   5.566   6.583
 6914SOL    HW221642   6.103   5.489   6.646
 6915SOL     OW21643   0.634   4.792   2.562
 6915SOL    HW121644   0.546   4.749   2.584
 6915SOL    HW221645   0.689   4.797   2.645
 6916SOL     OW21646   6.383   4.307   6.716
 6916SOL    HW121647   6.428   4.267   6.796
 6916SOL    HW221648   6.389   4.242   6.639
 6917SOL     OW21649   4.725   5.840   5.819
 6917SOL    HW121650   4.813   5.887   5.830
 6917SOL    HW221651   4.651   5.906   5.835
 6918SOL     OW21652   0.641   3.797   4.032
 6918SOL    HW121653   0.615   3.812   3.937
 6918SOL    HW221654   0.633   3.699   4.053
 6919SOL     OW21655   1.960   6.293   2.145
 6919SOL    HW121656   1.892   6.238   2.097
 6919SOL    HW221657   1.932   6.305   2.241
 6920SOL     OW21658   5.137   5.014   5.157
 6920SOL    HW121659   5.205   5.087   5.167
 6920SOL    HW221660   5.060   5.048   5.103
 6921SOL     OW21661   5.688   5.891   3.327
 6921SOL    HW121662   5.608   5.951   3.341
 6921SOL    HW221663   5.704   5.838   3.410
 6922SOL     OW21664   1.951   6.290   6.742
 6922SOL    HW121665   1.851   6.301   6.738
 6922SOL    HW221666   1.982   6.242   6.660
 6923SOL     OW21667   4.458   6.554   3.867
 6923SOL    HW121668   4.481   6.648   3.838
 6923SOL    HW221669   4.512   6.489   3.813
 6924SOL     OW21670   0.908   4.562   0.473
 6924SOL    HW121671   0.855   4.505   0.411
 6924SOL    HW221672   0.846   4.613   0.532
 6925SOL     OW21673   3.705   6.272   3.904
 6925SOL    HW121674   3.623   6.223   3.874
 6925SOL    HW221675   3.775   6.205   3.931
 6926SOL     OW21676   3.964   3.512   3.625
 6926SOL    HW121677   3.891   3.580   3.615
 6926SOL    HW221678   3.932   3.424   3.590
 6927SOL     OW21679   4.961   3.958   6.529
 6927SOL    HW121680   4.882   3.971   6.468
 6927SOL    HW221681   4.929   3.954   6.624
 6928SOL     OW21682   4.207   0.268   6.367
 6928SOL    HW121683   4.162   0.190   6.324
 6928SOL    HW221684   4.259   0.319   6.299
 6929SOL     OW21685   4.784   6.393   6.624
 6929SOL    HW121686   4.835   6.322   6.672
 6929SOL    HW221687   4.699   6.354   6.588
 6930SOL     OW21688   0.425   6.725   2.189
 6930SOL    HW121689   0.401   6.751   2.095
 6930SOL    HW221690   0.524   6.723   2.199
 6931SOL     OW21691   0.703   0.131   1.492
 6931SOL    HW121692   0.796   0.157   1.464
 6931SOL    HW221693   0.676   0.187   1.571
 6932SOL     OW21694   3.002   1.132   6.397
 6932SOL    HW121695   3.050   1.045   6.411
 6932SOL    HW221696   2.960   1.160   6.483
 6933SOL     OW21697   3.474   5.655   4.956
 6933SOL    HW121698   3.549   5.590   4.974
 6933SOL    HW221699   3.402   5.609   4.904
 6934SOL     OW21700   5.351   2.855   0.205
 6934SOL    HW121701   5.377   2.901   0.120
 6934SOL    HW221702   5.254   2.832   0.201
 6935SOL     OW21703   4.135   5.989   3.356
 6935SOL    HW121704   4.035   5.989   3.353
 6935SOL    HW221705   4.171   5.992   3.262
 6936SOL     OW21706   0.061   2.297   2.019
 6936SOL    HW121707   0.022   2.290   2.111
 6936SOL    HW221708   0.074   2.393   1.996
 6937SOL     OW21709   4.545   6.265   5.993
 6937SOL    HW121710   4.542   6.286   6.091
 6937SOL    HW221711   4.474   6.318   5.946
 6938SOL     OW21712   5.124   3.761   6.055
 6938SOL    HW121713   5.068   3.739   6.134
 6938SOL    HW221714   5.114   3.690   5.985
 6939SOL     OW21715   0.241   4.671   2.366
 6939SOL    HW121716   0.240   4.766   2.334
 6939SOL    HW221717   0.269   4.611   2.292
 6940SOL     OW21718   4.877   0.816   6.962
 6940SOL    HW121719   4.835   0.745   7.019
 6940SOL    HW221720   4.810   0.849   6.896
 6941SOL     OW21721   3.238   3.187   2.167
 6941SOL    HW121722   3.189   3.274   2.167
 6941SOL    HW221723   3.181   3.117   2.211
 6942SOL     OW21724   0.179   2.729   0.398
 6942SOL    HW121725   0.213   2.705   0.489
 6942SOL    HW221726   0.155   2.826   0.395
 6943SOL     OW21727   5.372   6.624   6.144
 6943SOL    HW121728   5.414   6.690   6.082
 6943SOL    HW221729   5.298   6.577   6.096
 6944SOL     OW21730   1.401   5.739   5.524
 6944SOL    HW121731   1.437   5.761   5.433
 6944SOL    HW221732   1.314   5.787   5.538
 6945SOL     OW21733   6.239   3.465   6.511
 6945SOL    HW121734   6.199   3.402   6.578
 6945SOL    HW221735   6.176   3.476   6.434
 6946SOL     OW21736   5.996   4.943   2.544
 6946SOL    HW121737   6.054   4.863   2.531
 6946SOL    HW221738   5.900   4.917   2.538
 6947SOL     OW21739   3.924   6.981   3.515
 6947SOL    HW121740   3.980   6.908   3.478
 6947SOL    HW221741   3.972   0.045   3.504
 6948SOL     OW21742   4.787   0.499   0.580
 6948SOL    HW121743   4.786   0.471   0.676
 6948SOL    HW221744   4.745   0.590   0.572
 6949SOL     OW21745   4.715   6.525   3.175
 6949SOL    HW121746   4.776   6.583   3.120
 6949SOL    HW221747   4.758   6.435   3.188
 6950SOL     OW21748   2.069   0.495   3.020
 6950SOL    HW121749   1.997   0.494   3.089
 6950SOL    HW221750   2.132   0.570   3.039
 6951SOL     OW21751   6.527   6.349   6.101
 6951SOL    HW121752   6.509   6.447   6.104
 6951SOL    HW221753   6.596   6.331   6.031
 6952SOL     OW21754   0.117   5.079   3.382
 6952SOL    HW121755   0.217   5.070   3.375
 6952SOL    HW221756   0.090   5.081   3.478
 6953SOL     OW21757   5.033   1.058   5.957
 6953SOL    HW121758   5.084   1.142   5.936
 6953SOL    HW221759   5.034   1.043   6.055
 6954SOL     OW21760   0.583   2.949   4.010
 6954SOL    HW121761   0.642   2.870   4.025
 6954SOL    HW221762   0.639   3.029   3.990
 6955SOL     OW21763   0.199   0.021   1.722
 6955SOL    HW121764   0.250   0.079   1.785
 6955SOL    HW221765   0.103   0.020   1.747
 6956SOL     OW21766   4.451   5.389   2.153
 6956SOL    HW121767   4.467   5.480   2.114
 6956SOL    HW221768   4.530   5.361   2.207
 6957SOL     OW21769   6.734   4.940   1.586
 6957SOL    HW121770   6.640   4.903   1.581
 6957SOL    HW221771   6.797   4.874   1.544
 6958SOL     OW21772   2.242   2.394   6.022
 6958SOL    HW121773   2.329   2.413   5.976
 6958SOL    HW221774   2.216   2.299   6.005
 6959SOL     OW21775   3.342   1.516   4.964
 6959SOL    HW121776   3.400   1.465   4.901
 6959SOL    HW221777   3.397   1.549   5.041
 6960SOL     OW21778   6.916   4.867   6.997
 6960SOL    HW121779   6.825   4.881   0.013
 6960SOL    HW221780   6.952   4.953   6.963
 6961SOL     OW21781   0.294   2.396   3.613
 6961SOL    HW121782   0.375   2.353   3.571
 6961SOL    HW221783   0.323   2.456   3.688
 6962SOL     OW21784   5.601   5.406   2.659
 6962SOL    HW121785   5.684   5.363   2.694
 6962SOL    HW221786   5.525   5.387   2.721
 6963SOL     OW21787   0.079   5.180   1.511
 6963SOL    HW121788   0.165   5.152   1.554
 6963SOL    HW221789   0.079   5.279   1.497
 6964SOL     OW21790   4.780   5.011   5.213
 6964SOL    HW121791   4.738   5.093   5.175
 6964SOL    HW221792   4.800   4.947   5.139
 6965SOL     OW21793   6.531   3.259   6.105
 6965SOL    HW121794   6.614   3.262   6.049
 6965SOL    HW221795   6.555   3.273   6.201
 6966SOL     OW21796   5.384   2.634   2.958
 6966SOL    HW121797   5.454   2.683   3.011
 6966SOL    HW221798   5.316   2.699   2.924
 6967SOL     OW21799   1.724   1.696   5.440
 6967SOL    HW121800   1.789   1.771   5.449
 6967SOL    HW221801   1.738   1.649   5.353
 6968SOL     OW21802   4.234   6.073   1.150
 6968SOL    HW121803   4.229   5.998   1.085
 6968SOL    HW221804   4.330   6.091   1.173
 6969SOL     OW21805   4.139   1.428   1.764
 6969SOL    HW121806   4.040   1.433   1.750
 6969SOL    HW221807   4.164   1.336   1.792
 6970SOL     OW21808   4.021   4.132   0.717
 6970SOL    HW121809   3.997   4.076   0.637
 6970SOL    HW221810   4.016   4.229   0.693
 6971SOL     OW21811   6.526   2.479   1.675
 6971SOL    HW121812   6.573   2.453   1.591
 6971SOL    HW221813   6.574   2.555   1.719
 6972SOL     OW21814   5.385   4.477   4.273
 6972SOL    HW121815   5.325   4.478   4.193
 6972SOL    HW221816   5.336   4.515   4.352
 6973SOL     OW21817   1.969   4.472   4.975
 6973SOL    HW121818   2.064   4.500   4.962
 6973SOL    HW221819   1.908   4.549   4.954
 6974SOL     OW21820   3.771   3.282   3.621
 6974SOL    HW121821   3.678   3.264   3.590
 6974SOL    HW221822   3.803   3.205   3.676
 6975SOL     OW21823   2.907   0.169   5.520
 6975SOL    HW121824   2.994   0.131   5.489
 6975SOL    HW221825   2.860   0.214   5.444
 6976SOL     OW21826   3.402   4.743   6.891
 6976SOL    HW121827   3.490   4.744   6.843
 6976SOL    HW221828   3.372   4.649   6.904
 6977SOL     OW21829   4.778   1.722   2.108
 6977SOL    HW121830   4.681   1.746   2.103
 6977SOL    HW221831   4.832   1.803   2.085
 6978SOL     OW21832   6.654   0.727   1.760
 6978SOL    HW121833   6.721   0.751   1.831
 6978SOL    HW221834   6.658   0.629   1.742
 6979SOL     OW21835   1.186   5.521   2.004
 6979SOL    HW121836   1.174   5.470   1.918
 6979SOL    HW221837   1.217   5.459   2.076
 6980SOL     OW21838   2.197   0.821   3.384
 6980SOL    HW121839   2.163   0.811   3.477
 6980SOL    HW221840   2.123   0.807   3.319
 6981SOL     OW21841   2.886   4.038   6.606
 6981SOL    HW121842   2.973   4.074   6.573
 6981SOL    HW221843   2.826   4.020   6.529
 6982SOL     OW21844   1.545   0.793   3.861
 6982SOL    HW121845   1.481   0.728   3.902
 6982SOL    HW221846   1.582   0.852   3.933
 6983SOL     OW21847   0.133   0.670   4.272
 6983SOL    HW121848   0.089   0.596   4.323
 6983SOL    HW221849   0.232   0.664   4.284
 6984SOL     OW21850   2.051   1.891   5.229
 6984SOL    HW121851   2.022   1.799   5.202
 6984SOL    HW221852   2.144   1.907   5.197
 6985SOL     OW21853   3.789   5.645   2.354
 6985SOL    HW121854   3.699   5.688   2.366
 6985SOL    HW221855   3.786   5.552   2.390
 6986SOL     OW21856   2.143   6.342   5.816
 6986SOL    HW121857   2.126   6.275   5.888
 6986SOL    HW221858   2.062   6.352   5.758
 6987SOL     OW21859   0.292   2.061   6.019
 6987SOL    HW121860   0.198   2.093   6.015
 6987SOL    HW221861   0.318   2.021   5.931
 6988SOL     OW21862   5.670   1.191   4.760
 6988SOL    HW121863   5.618   1.154   4.837
 6988SOL    HW221864   5.760   1.146   4.756
 6989SOL     OW21865   0.999   1.978   3.535
 6989SOL    HW121866   1.063   2.051   3.557
 6989SOL    HW221867   0.916   2.017   3.497
 6990SOL     OW21868   4.855   2.216   0.285
 6990SOL    HW121869   4.817   2.142   0.340
 6990SOL    HW221870   4.805   2.223   0.199
 6991SOL     OW21871   2.592   4.814   5.070
 6991SOL    HW121872   2.591   4.808   5.170
 6991SOL    HW221873   2.659   4.750   5.033
 6992SOL     OW21874   6.020   6.103   4.691
 6992SOL    HW121875   5.947   6.040   4.664
 6992SOL    HW221876   6.104   6.050   4.706
 6993SOL     OW21877   6.236   6.522   3.398
 6993SOL    HW121878   6.230   6.459   3.475
 6993SOL    HW221879   6.201   6.477   3.316
 6994SOL     OW21880   0.943   3.577   5.633
 6994SOL    HW121881   1.025   3.553   5.581
 6994SOL    HW221882   0.870   3.511   5.613
 6995SOL     OW21883   6.121   5.367   4.879
 6995SOL    HW121884   6.164   5.283   4.846
 6995SOL    HW221885   6.031   5.345   4.917
 6996SOL     OW21886   2.989   0.642   5.121
 6996SOL    HW121887   2.911   0.583   5.143
 6996SOL    HW221888   2.973   0.688   5.034
 6997SOL     OW21889   4.919   6.408   5.285
 6997SOL    HW121890   4.867   6.413   5.200
 6997SOL    HW221891   4.873   6.461   5.356
 6998SOL     OW21892   1.622   3.043   1.501
 6998SOL    HW121893   1.663   3.124   1.459
 6998SOL    HW221894   1.626   2.966   1.437
 6999SOL     OW21895   2.423   1.538   6.520
 6999SOL    HW121896   2.364   1.565   6.444
 6999SOL    HW221897   2.437   1.617   6.580
 7000SOL     OW21898   0.665   6.096   2.685
 7000SOL    HW121899   0.690   6.097   2.588
 7000SOL    HW221900   0.614   6.012   2.705
 7001SOL     OW21901   2.566   2.675   5.912
 7001SOL    HW121902   2.519   2.587   5.897
 7001SOL    HW221903   2.618   2.699   5.830
 7002SOL     OW21904   2.570   4.743   3.547
 7002SOL    HW121905   2.595   4.670   3.610
 7002SOL    HW221906   2.477   4.776   3.569
 7003SOL     OW21907   2.999   0.252   6.959
 7003SOL    HW121908   2.906   0.290   6.958
 7003SOL    HW221909   3.057   0.308   7.019
 7004SOL     OW21910   2.151   4.218   1.757
 7004SOL    HW121911   2.242   4.179   1.744
 7004SOL    HW221912   2.102   4.165   1.827
 7005SOL     OW21913   0.004   6.261   5.548
 7005SOL    HW121914   0.070   6.302   5.610
 7005SOL    HW221915   0.011   6.162   5.553
 7006SOL     OW21916   5.317   4.187   5.122
 7006SOL    HW121917   5.347   4.107   5.068
 7006SOL    HW221918   5.300   4.159   5.216
 7007SOL     OW21919   4.953   6.700   3.337
 7007SOL    HW121920   4.968   6.799   3.340
 7007SOL    HW221921   4.998   6.663   3.255
 7008SOL     OW21922   2.466   5.085   4.205
 7008SOL    HW121923   2.392   5.034   4.161
 7008SOL    HW221924   2.493   5.039   4.289
 7009SOL     OW21925   6.536   5.218   2.283
 7009SOL    HW121926   6.516   5.172   2.369
 7009SOL    HW221927   6.614   5.173   2.239
 7010SOL     OW21928   3.771   4.782   5.916
 7010SOL    HW121929   3.736   4.869   5.880
 7010SOL    HW221930   3.858   4.761   5.871
 7011SOL     OW21931   1.342   6.656   5.279
 7011SOL    HW121932   1.283   6.664   5.199
 7011SOL    HW221933   1.361   6.559   5.297
 7012SOL     OW21934   1.407   0.791   1.819
 7012SOL    HW121935   1.471   0.867   1.819
 7012SOL    HW221936   1.457   0.704   1.812
 7013SOL     OW21937   0.817   6.716   1.163
 7013SOL    HW121938   0.811   6.684   1.068
 7013SOL    HW221939   0.841   6.639   1.222
 7014SOL     OW21940   4.448   4.003   1.063
 7014SOL    HW121941   4.489   3.914   1.042
 7014SOL    HW221942   4.398   4.037   0.983
 7015SOL     OW21943   5.770   3.889   1.993
 7015SOL    HW121944   5.850   3.911   1.938
 7015SOL    HW221945   5.795   3.884   2.089
 7016SOL     OW21946   4.275   4.749   2.374
 7016SOL    HW121947   4.371   4.769   2.353
 7016SOL    HW221948   4.219   4.768   2.293
 7017SOL     OW21949   2.389   1.318   2.426
 7017SOL    HW121950   2.355   1.239   2.476
 7017SOL    HW221951   2.335   1.399   2.450
 7018SOL     OW21952   6.844   3.943   5.065
 7018SOL    HW121953   6.809   3.850   5.057
 7018SOL    HW221954   6.869   3.978   4.974
 7019SOL     OW21955   2.718   4.777   6.732
 7019SOL    HW121956   2.744   4.680   6.739
 7019SOL    HW221957   2.783   4.824   6.672
 7020SOL     OW21958   5.412   0.007   0.452
 7020SOL    HW121959   5.427   6.996   0.545
 7020SOL    HW221960   5.422   6.956   0.386
 7021SOL     OW21961   2.984   0.992   5.185
 7021SOL    HW121962   2.988   0.924   5.258
 7021SOL    HW221963   2.889   1.020   5.170
 7022SOL     OW21964   5.299   3.882   0.538
 7022SOL    HW121965   5.232   3.840   0.599
 7022SOL    HW221966   5.387   3.888   0.585
 7023SOL     OW21967   6.363   2.227   3.416
 7023SOL    HW121968   6.394   2.210   3.509
 7023SOL    HW221969   6.415   2.170   3.352
 7024SOL     OW21970   1.963   5.866   6.359
 7024SOL    HW121971   2.049   5.826   6.328
 7024SOL    HW221972   1.938   5.942   6.298
 7025SOL     OW21973   3.279   1.464   6.457
 7025SOL    HW121974   3.272   1.375   6.412
 7025SOL    HW221975   3.374   1.494   6.459
 7026SOL     OW21976   2.883   1.486   1.910
 7026SOL    HW121977   2.829   1.406   1.883
 7026SOL    HW221978   2.955   1.502   1.843
 7027SOL     OW21979   3.528   5.940   3.527
 7027SOL    HW121980   3.456   5.881   3.491
 7027SOL    HW221981   3.606   5.885   3.554
 7028SOL     OW21982   5.366   6.300   4.401
 7028SOL    HW121983   5.424   6.381   4.399
 7028SOL    HW221984   5.422   6.219   4.415
 7029SOL     OW21985   3.917   6.235   6.557
 7029SOL    HW121986   3.819   6.235   6.535
 7029SOL    HW221987   3.929   6.261   6.653
 7030SOL     OW21988   0.415   3.537   5.894
 7030SOL    HW121989   0.442   3.441   5.885
 7030SOL    HW221990   0.474   3.594   5.837
 7031SOL     OW21991   2.215   5.742   3.645
 7031SOL    HW121992   2.253   5.713   3.733
 7031SOL    HW221993   2.142   5.678   3.619
 7032SOL     OW21994   4.332   0.184   3.300
 7032SOL    HW121995   4.342   0.191   3.399
 7032SOL    HW221996   4.375   0.263   3.257
 7033SOL     OW21997   6.717   1.138   4.169
 7033SOL    HW121998   6.785   1.183   4.226
 7033SOL    HW221999   6.707   1.042   4.197
 7034SOL     OW22000   5.511   0.498   2.610
 7034SOL    HW122001   5.498   0.405   2.644
 7034SOL    HW222002   5.432   0.525   2.556
 7035SOL     OW22003   1.242   6.958   2.639
 7035SOL    HW122004   1.224   6.888   2.570
 7035SOL    HW222005   1.214   0.024   2.603
 7036SOL     OW22006   6.518   6.024   1.765
 7036SOL    HW122007   6.464   6.030   1.682
 7036SOL    HW222008   6.464   5.981   1.838
 7037SOL     OW22009   0.242   6.443   6.332
 7037SOL    HW122010   0.143   6.445   6.318
 7037SOL    HW222011   0.270   6.522   6.387
 7038SOL     OW22012   1.454   3.688   4.464
 7038SOL    HW122013   1.490   3.603   4.503
 7038SOL    HW222014   1.396   3.667   4.385
 7039SOL     OW22015   3.064   6.658   0.208
 7039SOL    HW122016   2.994   6.635   0.275
 7039SOL    HW222017   3.109   6.743   0.235
 7040SOL     OW22018   4.670   2.707   6.102
 7040SOL    HW122019   4.669   2.609   6.124
 7040SOL    HW222020   4.584   2.748   6.131
 7041SOL     OW22021   1.128   1.920   3.297
 7041SOL    HW122022   1.071   1.918   3.379
 7041SOL    HW222023   1.086   1.864   3.226
 7042SOL     OW22024   5.106   4.969   6.473
 7042SOL    HW122025   5.019   5.007   6.442
 7042SOL    HW222026   5.182   5.022   6.435
 7043SOL     OW22027   2.152   3.012   3.300
 7043SOL    HW122028   2.240   3.033   3.343
 7043SOL    HW222029   2.134   3.078   3.227
 7044SOL     OW22030   4.946   4.668   3.198
 7044SOL    HW122031   4.899   4.583   3.220
 7044SOL    HW222032   4.902   4.712   3.120
 7045SOL     OW22033   4.841   6.399   1.216
 7045SOL    HW122034   4.827   6.481   1.162
 7045SOL    HW222035   4.887   6.422   1.301
 7046SOL     OW22036   3.787   1.773   3.826
 7046SOL    HW122037   3.829   1.862   3.809
 7046SOL    HW222038   3.851   1.715   3.878
 7047SOL     OW22039   1.116   2.116   2.946
 7047SOL    HW122040   1.097   2.214   2.951
 7047SOL    HW222041   1.140   2.091   2.852
 7048SOL     OW22042   1.309   5.688   1.099
 7048SOL    HW122043   1.232   5.697   1.036
 7048SOL    HW222044   1.390   5.730   1.059
 7049SOL     OW22045   2.435   0.980   0.652
 7049SOL    HW122046   2.533   0.999   0.655
 7049SOL    HW222047   2.403   0.985   0.557
 7050SOL     OW22048   3.246   4.104   3.787
 7050SOL    HW122049   3.287   4.140   3.871
 7050SOL    HW222050   3.308   4.120   3.711
 7051SOL     OW22051   0.134   0.343   1.134
 7051SOL    HW122052   0.117   0.245   1.124
 7051SOL    HW222053   0.222   0.357   1.179
 7052SOL     OW22054   6.764   2.283   4.745
 7052SOL    HW122055   6.803   2.372   4.720
 7052SOL    HW222056   6.808   2.211   4.692
 7053SOL     OW22057   0.110   3.540   6.605
 7053SOL    HW122058   0.210   3.543   6.597
 7053SOL    HW222059   0.084   3.554   6.701
 7054SOL     OW22060   0.836   6.282   1.192
 7054SOL    HW122061   0.816   6.302   1.288
 7054SOL    HW222062   0.754   6.298   1.137
 7055SOL     OW22063   4.484   6.379   5.702
 7055SOL    HW122064   4.558   6.315   5.682
 7055SOL    HW222065   4.439   6.406   5.617
 7056SOL     OW22066   5.425   4.774   3.738
 7056SOL    HW122067   5.443   4.717   3.818
 7056SOL    HW222068   5.339   4.823   3.750
 7057SOL     OW22069   0.742   3.929   4.954
 7057SOL    HW122070   0.682   3.918   4.875
 7057SOL    HW222071   0.727   4.018   4.996
 7058SOL     OW22072   0.049   5.592   5.716
 7058SOL    HW122073   0.068   5.665   5.781
 7058SOL    HW222074   6.974   5.572   5.716
 7059SOL     OW22075   0.215   0.381   2.184
 7059SOL    HW122076   0.135   0.362   2.128
 7059SOL    HW222077   0.290   0.414   2.126
 7060SOL     OW22078   3.330   0.431   1.466
 7060SOL    HW122079   3.422   0.396   1.479
 7060SOL    HW222080   3.326   0.527   1.492
 7061SOL     OW22081   0.224   2.145   3.725
 7061SOL    HW122082   0.231   2.236   3.685
 7061SOL    HW222083   0.161   2.089   3.671
 7062SOL     OW22084   5.573   1.363   5.750
 7062SOL    HW122085   5.606   1.291   5.689
 7062SOL    HW222086   5.521   1.430   5.698
 7063SOL     OW22087   1.343   6.205   0.695
 7063SOL    HW122088   1.324   6.111   0.666
 7063SOL    HW222089   1.289   6.226   0.777
 7064SOL     OW22090   4.469   2.463   1.453
 7064SOL    HW122091   4.464   2.501   1.545
 7064SOL    HW222092   4.388   2.491   1.401
 7065SOL     OW22093   5.181   3.858   1.140
 7065SOL    HW122094   5.198   3.785   1.205
 7065SOL    HW222095   5.189   3.947   1.186
 7066SOL     OW22096   3.612   0.494   0.746
 7066SOL    HW122097   3.541   0.453   0.803
 7066SOL    HW222098   3.643   0.427   0.678
 7067SOL     OW22099   1.276   2.921   5.540
 7067SOL    HW122100   1.374   2.936   5.557
 7067SOL    HW222101   1.225   2.937   5.625
 7068SOL     OW22102   0.687   3.518   2.882
 7068SOL    HW122103   0.724   3.440   2.932
 7068SOL    HW222104   0.740   3.600   2.906
 7069SOL     OW22105   6.559   3.214   4.782
 7069SOL    HW122106   6.658   3.228   4.779
 7069SOL    HW222107   6.522   3.219   4.689
 7070SOL     OW22108   6.744   5.202   5.362
 7070SOL    HW122109   6.675   5.189   5.433
 7070SOL    HW222110   6.701   5.230   5.277
 7071SOL     OW22111   0.473   6.812   5.074
 7071SOL    HW122112   0.424   6.771   4.997
 7071SOL    HW222113   0.468   6.912   5.066
 7072SOL     OW22114   6.999   0.373   6.180
 7072SOL    HW122115   6.917   0.425   6.154
 7072SOL    HW222116   0.030   0.355   6.099
 7073SOL     OW22117   6.564   0.985   4.522
 7073SOL    HW122118   6.504   1.051   4.567
 7073SOL    HW222119   6.657   0.994   4.557
 7074SOL     OW22120   3.448   2.863   2.265
 7074SOL    HW122121   3.423   2.849   2.360
 7074SOL    HW222122   3.365   2.875   2.210
 7075SOL     OW22123   1.269   6.381   4.345
 7075SOL    HW122124   1.347   6.360   4.404
 7075SOL    HW222125   1.185   6.374   4.398
 7076SOL     OW22126   3.763   1.934   0.533
 7076SOL    HW122127   3.689   1.867   0.539
 7076SOL    HW222128   3.786   1.950   0.437
 7077SOL     OW22129   2.326   5.589   5.441
 7077SOL    HW122130   2.304   5.553   5.351
 7077SOL    HW222131   2.337   5.688   5.435
 7078SOL     OW22132   6.275   0.122   2.289
 7078SOL    HW122133   6.350   0.176   2.327
 7078SOL    HW222134   6.194   0.179   2.279
 7079SOL     OW22135   6.465   6.610   5.980
 7079SOL    HW122136   6.380   6.661   5.987
 7079SOL    HW222137   6.475   6.574   5.888
 7080SOL     OW22138   4.340   2.122   3.924
 7080SOL    HW122139   4.339   2.186   3.848
 7080SOL    HW222140   4.401   2.045   3.902
 7081SOL     OW22141   3.947   0.938   5.383
 7081SOL    HW122142   3.878   1.001   5.347
 7081SOL    HW222143   4.038   0.969   5.355
 7082SOL     OW22144   5.593   6.414   0.426
 7082SOL    HW122145   5.608   6.367   0.513
 7082SOL    HW222146   5.555   6.505   0.444
 7083SOL     OW22147   3.245   1.005   6.097
 7083SOL    HW122148   3.305   1.008   6.018
 7083SOL    HW222149   3.150   1.017   6.067
 7084SOL     OW22150   0.082   6.909   5.113
 7084SOL    HW122151   0.091   6.922   5.212
 7084SOL    HW222152   0.075   6.811   5.093
 7085SOL     OW22153   1.795   1.153   3.285
 7085SOL    HW122154   1.780   1.081   3.217
 7085SOL    HW222155   1.823   1.237   3.239
 7086SOL     OW22156   5.190   1.332   6.189
 7086SOL    HW122157   5.216   1.350   6.284
 7086SOL    HW222158   5.104   1.282   6.188
 7087SOL     OW22159   0.519   3.337   4.385
 7087SOL    HW122160   0.593   3.301   4.329
 7087SOL    HW222161   0.517   3.437   4.376
 7088SOL     OW22162   4.847   2.958   4.013
 7088SOL    HW122163   4.777   2.890   3.991
 7088SOL    HW222164   4.931   2.911   4.040
 7089SOL     OW22165   3.084   2.871   6.261
 7089SOL    HW122166   3.170   2.851   6.215
 7089SOL    HW222167   3.015   2.897   6.194
 7090SOL     OW22168   2.277   1.266   5.481
 7090SOL    HW122169   2.257   1.287   5.386
 7090SOL    HW222170   2.362   1.311   5.508
 7091SOL     OW22171   0.045   1.758   6.452
 7091SOL    HW122172   0.042   1.844   6.402
 7091SOL    HW222173   0.129   1.709   6.429
 7092SOL     OW22174   4.140   2.926   0.242
 7092SOL    HW122175   4.211   2.858   0.226
 7092SOL    HW222176   4.054   2.894   0.203
 7093SOL     OW22177   3.266   3.873   4.007
 7093SOL    HW122178   3.217   3.913   3.930
 7093SOL    HW222179   3.338   3.936   4.037
 7094SOL     OW22180   0.405   6.661   5.548
 7094SOL    HW122181   0.305   6.667   5.555
 7094SOL    HW222182   0.431   6.568   5.524
 7095SOL     OW22183   2.855   2.812   0.208
 7095SOL    HW122184   2.783   2.877   0.183
 7095SOL    HW222185   2.844   2.786   0.304
 7096SOL     OW22186   5.983   1.491   3.746
 7096SOL    HW122187   5.953   1.430   3.820
 7096SOL    HW222188   5.939   1.465   3.661
 7097SOL     OW22189   6.683   0.462   1.727
 7097SOL    HW122190   6.762   0.436   1.782
 7097SOL    HW222191   6.614   0.390   1.732
 7098SOL     OW22192   1.223   6.193   4.861
 7098SOL    HW122193   1.182   6.259   4.797
 7098SOL    HW222194   1.320   6.216   4.874
 7099SOL     OW22195   1.702   0.885   4.488
 7099SOL    HW122196   1.666   0.974   4.514
 7099SOL    HW222197   1.765   0.852   4.559
 7100SOL     OW22198   5.544   3.237   1.226
 7100SOL    HW122199   5.524   3.330   1.258
 7100SOL    HW222200   5.605   3.192   1.291
 7101SOL     OW22201   2.726   0.360   4.716
 7101SOL    HW122202   2.823   0.373   4.696
 7101SOL    HW222203   2.671   0.421   4.659
 7102SOL     OW22204   4.454   0.538   1.056
 7102SOL    HW122205   4.542   0.584   1.045
 7102SOL    HW222206   4.383   0.606   1.076
 7103SOL     OW22207   3.848   5.625   6.951
 7103SOL    HW122208   3.868   5.656   6.858
 7103SOL    HW222209   3.859   5.701   7.015
 7104SOL     OW22210   1.000   3.397   4.579
 7104SOL    HW122211   1.068   3.405   4.652
 7104SOL    HW222212   0.908   3.396   4.619
 7105SOL     OW22213   3.681   3.004   5.298
 7105SOL    HW122214   3.610   3.068   5.267
 7105SOL    HW222215   3.646   2.950   5.375
 7106SOL     OW22216   3.436   3.185   4.058
 7106SOL    HW122217   3.426   3.195   4.157
 7106SOL    HW222218   3.501   3.112   4.038
 7107SOL     OW22219   2.262   1.265   0.548
 7107SOL    HW122220   2.303   1.295   0.634
 7107SOL    HW222221   2.330   1.216   0.493
 7108SOL     OW22222   4.621   6.298   1.094
 7108SOL    HW122223   4.696   6.312   1.159
 7108SOL    HW222224   4.547   6.362   1.116
 7109SOL     OW22225   3.725   6.773   6.271
 7109SOL    HW122226   3.704   6.868   6.291
 7109SOL    HW222227   3.744   6.724   6.357
 7110SOL     OW22228   5.183   5.165   3.819
 7110SOL    HW122229   5.102   5.148   3.876
 7110SOL    HW222230   5.254   5.209   3.873
 7111SOL     OW22231   1.304   2.954   4.534
 7111SOL    HW122232   1.295   3.044   4.492
 7111SOL    HW222233   1.331   2.964   4.630
 7112SOL     OW22234   1.557   5.534   4.464
 7112SOL    HW122235   1.531   5.517   4.559
 7112SOL    HW222236   1.629   5.603   4.461
 7113SOL     OW22237   3.150   4.046   4.610
 7113SOL    HW122238   3.236   3.998   4.592
 7113SOL    HW222239   3.163   4.144   4.599
 7114SOL     OW22240   4.223   6.758   1.725
 7114SOL    HW122241   4.265   6.707   1.649
 7114SOL    HW222242   4.127   6.776   1.703
 7115SOL     OW22243   5.143   2.258   1.825
 7115SOL    HW122244   5.215   2.216   1.769
 7115SOL    HW222245   5.179   2.274   1.918
 7116SOL     OW22246   5.676   3.222   3.199
 7116SOL    HW122247   5.761   3.274   3.191
 7116SOL    HW222248   5.603   3.283   3.231
 7117SOL     OW22249   0.142   0.086   4.327
 7117SOL    HW122250   0.044   0.083   4.306
 7117SOL    HW222251   0.189   0.141   4.258
 7118SOL     OW22252   4.612   2.930   0.406
 7118SOL    HW122253   4.708   2.954   0.426
 7118SOL    HW222254   4.552   2.998   0.449
 7119SOL     OW22255   4.815   1.442   3.344
 7119SOL    HW122256   4.723   1.479   3.330
 7119SOL    HW222257   4.815   1.383   3.426
 7120SOL     OW22258   3.732   1.703   2.789
 7120SOL    HW122259   3.777   1.620   2.755
 7120SOL    HW222260   3.802   1.770   2.816
 7121SOL     OW22261   1.894   0.203   2.965
 7121SOL    HW122262   1.859   0.278   3.021
 7121SOL    HW222263   1.868   0.116   3.006
 7122SOL     OW22264   6.370   1.222   6.796
 7122SOL    HW122265   6.376   1.320   6.816
 7122SOL    HW222266   6.291   1.183   6.843
 7123SOL     OW22267   3.503   5.519   1.486
 7123SOL    HW122268   3.411   5.548   1.513
 7123SOL    HW222269   3.505   5.419   1.476
 7124SOL     OW22270   1.075   3.764   0.258
 7124SOL    HW122271   1.071   3.753   0.159
 7124SOL    HW222272   1.168   3.793   0.284
 7125SOL     OW22273   0.081   6.363   1.295
 7125SOL    HW122274   0.069   6.279   1.243
 7125SOL    HW222275   0.162   6.356   1.353
 7126SOL     OW22276   2.218   4.396   0.656
 7126SOL    HW122277   2.237   4.298   0.664
 7126SOL    HW222278   2.292   4.447   0.700
 7127SOL     OW22279   2.481   5.705   4.351
 7127SOL    HW122280   2.580   5.699   4.334
 7127SOL    HW222281   2.436   5.749   4.273
 7128SOL     OW22282   2.878   4.807   0.344
 7128SOL    HW122283   2.960   4.861   0.364
 7128SOL    HW222284   2.872   4.730   0.408
 7129SOL     OW22285   3.324   0.921   0.988
 7129SOL    HW122286   3.330   0.984   0.910
 7129SOL    HW222287   3.359   0.966   1.070
 7130SOL     OW22288   3.158   4.968   4.822
 7130SOL    HW122289   3.171   4.907   4.900
 7130SOL    HW222290   3.064   4.961   4.789
 7131SOL     OW22291   2.379   2.035   0.335
 7131SOL    HW122292   2.423   1.965   0.279
 7131SOL    HW222293   2.424   2.123   0.320
 7132SOL     OW22294   4.086   3.857   1.555
 7132SOL    HW122295   4.071   3.893   1.463
 7132SOL    HW222296   4.009   3.883   1.614
 7133SOL     OW22297   5.239   4.949   3.483
 7133SOL    HW122298   5.198   4.863   3.514
 7133SOL    HW222299   5.207   4.970   3.391
 7134SOL     OW22300   5.910   5.504   3.164
 7134SOL    HW122301   5.972   5.532   3.091
 7134SOL    HW222302   5.878   5.411   3.146
 7135SOL     OW22303   1.674   1.409   3.423
 7135SOL    HW122304   1.738   1.341   3.386
 7135SOL    HW222305   1.604   1.430   3.355
 7136SOL     OW22306   2.071   1.613   0.771
 7136SOL    HW122307   2.053   1.534   0.714
 7136SOL    HW222308   1.984   1.656   0.797
 7137SOL     OW22309   4.754   1.271   4.920
 7137SOL    HW122310   4.820   1.337   4.956
 7137SOL    HW222311   4.705   1.229   4.996
 7138SOL     OW22312   2.967   2.624   1.150
 7138SOL    HW122313   3.055   2.638   1.104
 7138SOL    HW222314   2.914   2.709   1.148
 7139SOL     OW22315   4.870   3.052   2.277
 7139SOL    HW122316   4.814   3.030   2.197
 7139SOL    HW222317   4.862   2.979   2.345
 7140SOL     OW22318   6.246   3.311   5.107
 7140SOL    HW122319   6.333   3.297   5.059
 7140SOL    HW222320   6.262   3.369   5.187
 7141SOL     OW22321   3.261   6.622   1.261
 7141SOL    HW122322   3.302   6.681   1.331
 7141SOL    HW222323   3.168   6.598   1.288
 7142SOL     OW22324   4.303   6.780   3.054
 7142SOL    HW122325   4.353   6.811   3.135
 7142SOL    HW222326   4.299   6.680   3.054
 7143SOL     OW22327   1.096   2.814   6.202
 7143SOL    HW122328   1.099   2.851   6.295
 7143SOL    HW222329   1.054   2.723   6.203
 7144SOL     OW22330   1.345   1.500   2.942
 7144SOL    HW122331   1.432   1.454   2.923
 7144SOL    HW222332   1.277   1.433   2.971
 7145SOL     OW22333   4.092   6.444   6.415
 7145SOL    HW122334   4.044   6.359   6.437
 7145SOL    HW222335   4.064   6.516   6.478
 7146SOL     OW22336   2.474   0.289   0.154
 7146SOL    HW122337   2.440   0.338   0.074
 7146SOL    HW222338   2.472   0.190   0.136
 7147SOL     OW22339   6.314   7.005   3.665
 7147SOL    HW122340   6.219   7.019   3.692
 7147SOL    HW222341   6.344   6.914   3.693
 7148SOL     OW22342   0.539   6.006   1.935
 7148SOL    HW122343   0.534   5.906   1.934
 7148SOL    HW222344   0.447   6.044   1.925
 7149SOL     OW22345   6.950   7.012   3.305
 7149SOL    HW122346   6.961   0.070   3.362
 7149SOL    HW222347   6.853   6.991   3.295
 7150SOL     OW22348   5.149   3.204   1.735
 7150SOL    HW122349   5.064   3.194   1.786
 7150SOL    HW222350   5.135   3.170   1.641
 7151SOL     OW22351   0.434   5.474   0.622
 7151SOL    HW122352   0.440   5.565   0.580
 7151SOL    HW222353   0.511   5.461   0.685
 7152SOL     OW22354   0.298   2.844   5.832
 7152SOL    HW122355   0.371   2.899   5.873
 7152SOL    HW222356   0.280   2.765   5.891
 7153SOL     OW22357   3.110   6.228   4.643
 7153SOL    HW122358   3.012   6.217   4.662
 7153SOL    HW222359   3.158   6.144   4.668
 7154SOL     OW22360   3.981   6.118   4.596
 7154SOL    HW122361   3.994   6.083   4.689
 7154SOL    HW222362   3.884   6.130   4.578
 7155SOL     OW22363   1.824   6.285   1.380
 7155SOL    HW122364   1.865   6.356   1.437
 7155SOL    HW222365   1.871   6.281   1.292
 7156SOL     OW22366   0.694   4.840   4.411
 7156SOL    HW122367   0.724   4.831   4.316
 7156SOL    HW222368   0.719   4.930   4.446
 7157SOL     OW22369   5.778   5.509   0.948
 7157SOL    HW122370   5.816   5.591   0.990
 7157SOL    HW222371   5.770   5.437   1.017
 7158SOL     OW22372   0.114   6.863   3.200
 7158SOL    HW122373   0.169   6.939   3.166
 7158SOL    HW222374   0.040   6.898   3.258
 7159SOL     OW22375   0.289   4.191   2.113
 7159SOL    HW122376   0.376   4.155   2.081
 7159SOL    HW222377   0.215   4.157   2.054
 7160SOL     OW22378   6.651   0.819   2.978
 7160SOL    HW122379   6.608   0.906   2.998
 7160SOL    HW222380   6.612   0.748   3.036
 7161SOL     OW22381   3.106   4.054   4.186
 7161SOL    HW122382   3.080   4.150   4.191
 7161SOL    HW222383   3.139   4.033   4.094
 7162SOL     OW22384   2.769   5.744   5.517
 7162SOL    HW122385   2.777   5.724   5.614
 7162SOL    HW222386   2.819   5.675   5.464
 7163SOL     OW22387   3.368   6.618   3.932
 7163SOL    HW122388   3.333   6.678   3.859
 7163SOL    HW222389   3.331   6.649   4.020
 7164SOL     OW22390   1.829   2.243   3.186
 7164SOL    HW122391   1.756   2.278   3.244
 7164SOL    HW222392   1.864   2.317   3.128
 7165SOL     OW22393   6.069   0.864   1.107
 7165SOL    HW122394   6.052   0.962   1.094
 7165SOL    HW222395   5.988   0.822   1.148
 7166SOL     OW22396   5.361   3.924   0.917
 7166SOL    HW122397   5.460   3.907   0.920
 7166SOL    HW222398   5.320   3.898   1.005
 7167SOL     OW22399   4.879   3.936   5.068
 7167SOL    HW122400   4.916   4.021   5.104
 7167SOL    HW222401   4.894   3.932   4.969
 7168SOL     OW22402   1.130   2.312   3.846
 7168SOL    HW122403   1.216   2.329   3.894
 7168SOL    HW222404   1.131   2.220   3.807
 7169SOL     OW22405   0.936   2.977   4.777
 7169SOL    HW122406   0.916   2.945   4.685
 7169SOL    HW222407   0.998   3.056   4.773
 7170SOL     OW22408   3.906   5.377   3.358
 7170SOL    HW122409   3.936   5.312   3.289
 7170SOL    HW222410   3.839   5.439   3.318
 7171SOL     OW22411   5.733   4.096   6.032
 7171SOL    HW122412   5.810   4.135   5.981
 7171SOL    HW222413   5.715   4.152   6.113
 7172SOL     OW22414   1.321   0.043   5.953
 7172SOL    HW122415   1.277   0.127   5.985
 7172SOL    HW222416   1.397   0.021   6.014
 7173SOL     OW22417   0.337   4.442   5.266
 7173SOL    HW122418   0.407   4.476   5.329
 7173SOL    HW222419   0.346   4.487   5.177
 7174SOL     OW22420   1.015   5.389   6.805
 7174SOL    HW122421   1.067   5.337   6.738
 7174SOL    HW222422   1.043   5.485   6.802
 7175SOL     OW22423   5.939   2.974   0.863
 7175SOL    HW122424   5.989   2.942   0.783
 7175SOL    HW222425   5.866   2.909   0.885
 7176SOL     OW22426   0.376   5.600   2.858
 7176SOL    HW122427   0.359   5.567   2.765
 7176SOL    HW222428   0.301   5.660   2.886
 7177SOL     OW22429   2.239   6.305   3.395
 7177SOL    HW122430   2.291   6.391   3.400
 7177SOL    HW222431   2.260   6.257   3.310
 7178SOL     OW22432   2.282   2.596   5.712
 7178SOL    HW122433   2.319   2.616   5.621
 7178SOL    HW222434   2.196   2.547   5.703
 7179SOL     OW22435   1.594   3.194   5.271
 7179SOL    HW122436   1.563   3.232   5.358
 7179SOL    HW222437   1.607   3.095   5.280
 7180SOL     OW22438   1.112   5.198   6.146
 7180SOL    HW122439   1.197   5.183   6.197
 7180SOL    HW222440   1.043   5.132   6.176
 7181SOL     OW22441   3.170   6.925   1.088
 7181SOL    HW122442   3.182   6.826   1.080
 7181SOL    HW222443   3.073   6.948   1.084
 7182SOL     OW22444   1.071   3.168   5.411
 7182SOL    HW122445   1.109   3.124   5.492
 7182SOL    HW222446   0.977   3.197   5.430
 7183SOL     OW22447   1.885   4.690   2.033
 7183SOL    HW122448   1.935   4.618   2.081
 7183SOL    HW222449   1.813   4.726   2.092
 7184SOL     OW22450   0.360   6.857   3.515
 7184SOL    HW122451   0.260   6.865   3.511
 7184SOL    HW222452   0.399   6.943   3.546
 7185SOL     OW22453   4.714   2.455   6.143
 7185SOL    HW122454   4.790   2.407   6.187
 7185SOL    HW222455   4.724   2.449   6.044
 7186SOL     OW22456   0.174   6.972   5.745
 7186SOL    HW122457   0.237   0.001   5.688
 7186SOL    HW222458   0.080   6.996   5.722
 7187SOL     OW22459   1.743   4.466   1.232
 7187SOL    HW122460   1.803   4.540   1.263
 7187SOL    HW222461   1.693   4.429   1.310
 7188SOL     OW22462   5.782   0.169   0.676
 7188SOL    HW122463   5.821   0.184   0.585
 7188SOL    HW222464   5.855   0.147   0.740
 7189SOL     OW22465   5.977   1.019   6.679
 7189SOL    HW122466   6.004   1.115   6.675
 7189SOL    HW222467   5.965   0.984   6.586
 7190SOL     OW22468   5.213   3.575   3.207
 7190SOL    HW122469   5.295   3.618   3.244
 7190SOL    HW222470   5.239   3.490   3.160
 7191SOL     OW22471   0.848   4.216   2.287
 7191SOL    HW122472   0.787   4.281   2.332
 7191SOL    HW222473   0.931   4.205   2.342
 7192SOL     OW22474   1.940   6.250   4.863
 7192SOL    HW122475   1.862   6.193   4.890
 7192SOL    HW222476   1.913   6.309   4.787
 7193SOL     OW22477   3.011   2.060   3.389
 7193SOL    HW122478   2.983   2.121   3.315
 7193SOL    HW222479   3.031   1.969   3.351
 7194SOL     OW22480   2.516   1.797   0.919
 7194SOL    HW122481   2.421   1.822   0.904
 7194SOL    HW222482   2.576   1.859   0.868
 7195SOL     OW22483   0.300   5.134   6.982
 7195SOL    HW122484   0.313   5.210   6.917
 7195SOL    HW222485   0.352   5.153   0.042
 7196SOL     OW22486   2.891   3.617   2.372
 7196SOL    HW122487   2.867   3.577   2.284
 7196SOL    HW222488   2.949   3.697   2.358
 7197SOL     OW22489   6.642   2.542   5.769
 7197SOL    HW122490   6.678   2.631   5.795
 7197SOL    HW222491   6.621   2.489   5.851
 7198SOL     OW22492   0.843   0.649   5.376
 7198SOL    HW122493   0.928   0.694   5.402
 7198SOL    HW222494   0.823   0.669   5.280
 7199SOL     OW22495   1.626   0.947   2.170
 7199SOL    HW122496   1.590   1.040   2.163
 7199SOL    HW222497   1.554   0.886   2.203
 7200SOL     OW22498   2.563   0.436   6.934
 7200SOL    HW122499   2.513   0.455   6.849
 7200SOL    HW222500   2.661   0.443   6.917
 7201SOL     OW22501   1.565   4.880   3.175
 7201SOL    HW122502   1.537   4.785   3.181
 7201SOL    HW222503   1.562   4.910   3.079
 7202SOL     OW22504   3.640   0.036   6.383
 7202SOL    HW122505   3.583   0.114   6.408
 7202SOL    HW222506   3.697   0.060   6.303
 7203SOL     OW22507   5.710   1.023   0.462
 7203SOL    HW122508   5.702   1.054   0.556
 7203SOL    HW222509   5.678   0.928   0.455
 7204SOL     OW22510   5.547   6.617   4.385
 7204SOL    HW122511   5.610   6.543   4.362
 7204SOL    HW222512   5.506   6.599   4.475
 7205SOL     OW22513   1.469   6.196   3.330
 7205SOL    HW122514   1.493   6.210   3.234
 7205SOL    HW222515   1.371   6.178   3.337
 7206SOL     OW22516   0.992   0.859   1.518
 7206SOL    HW122517   1.047   0.887   1.597
 7206SOL    HW222518   0.935   0.936   1.488
 7207SOL     OW22519   3.829   0.152   1.885
 7207SOL    HW122520   3.795   0.212   1.812
 7207SOL    HW222521   3.927   0.137   1.871
 7208SOL     OW22522   4.314   6.531   4.437
 7208SOL    HW122523   4.218   6.502   4.436
 7208SOL    HW222524   4.338   6.570   4.348
 7209SOL     OW22525   3.105   3.102   3.446
 7209SOL    HW122526   3.105   3.151   3.359
 7209SOL    HW222527   3.099   3.168   3.521
 7210SOL     OW22528   5.209   0.161   3.595
 7210SOL    HW122529   5.276   0.235   3.598
 7210SOL    HW222530   5.246   0.081   3.644
 7211SOL     OW22531   1.283   5.587   3.720
 7211SOL    HW122532   1.374   5.584   3.761
 7211SOL    HW222533   1.216   5.610   3.791
 7212SOL     OW22534   0.948   5.637   4.108
 7212SOL    HW122535   0.903   5.725   4.124
 7212SOL    HW222536   1.021   5.649   4.041
 7213SOL     OW22537   5.810   6.874   5.149
 7213SOL    HW122538   5.732   6.897   5.206
 7213SOL    HW222539   5.883   6.835   5.206
 7214SOL     OW22540   2.470   5.361   4.254
 7214SOL    HW122541   2.445   5.391   4.346
 7214SOL    HW222542   2.448   5.264   4.243
 7215SOL     OW22543   0.719   3.652   4.361
 7215SOL    HW122544   0.758   3.561   4.342
 7215SOL    HW222545   0.783   3.704   4.417
 7216SOL     OW22546   3.051   5.946   0.083
 7216SOL    HW122547   3.099   5.859   0.097
 7216SOL    HW222548   3.117   6.017   0.059
 7217SOL     OW22549   1.766   4.720   1.487
 7217SOL    HW122550   1.853   4.722   1.436
 7217SOL    HW222551   1.778   4.668   1.571
 7218SOL     OW22552   4.463   2.948   5.932
 7218SOL    HW122553   4.371   2.948   5.892
 7218SOL    HW222554   4.458   2.916   6.026
 7219SOL     OW22555   4.554   6.159   3.247
 7219SOL    HW122556   4.507   6.195   3.328
 7219SOL    HW222557   4.652   6.156   3.264
 7220SOL     OW22558   6.547   5.745   3.686
 7220SOL    HW122559   6.595   5.691   3.618
 7220SOL    HW222560   6.606   5.759   3.765
 7221SOL     OW22561   5.474   4.989   5.405
 7221SOL    HW122562   5.482   4.923   5.331
 7221SOL    HW222563   5.389   4.972   5.456
 7222SOL     OW22564   6.455   6.463   0.453
 7222SOL    HW122565   6.526   6.470   0.382
 7222SOL    HW222566   6.424   6.555   0.477
 7223SOL     OW22567   3.159   1.712   1.551
 7223SOL    HW122568   3.131   1.805   1.528
 7223SOL    HW222569   3.224   1.679   1.482
 7224SOL     OW22570   5.851   1.927   4.554
 7224SOL    HW122571   5.797   1.959   4.476
 7224SOL    HW222572   5.858   1.999   4.622
 7225SOL     OW22573   1.585   5.347   6.929
 7225SOL    HW122574   1.665   5.291   6.907
 7225SOL    HW222575   1.583   5.428   6.870
 7226SOL     OW22576   0.371   0.630   0.588
 7226SOL    HW122577   0.435   0.652   0.661
 7226SOL    HW222578   0.396   0.543   0.546
 7227SOL     OW22579   0.811   2.287   0.512
 7227SOL    HW122580   0.841   2.355   0.579
 7227SOL    HW222581   0.739   2.326   0.455
 7228SOL     OW22582   0.306   0.553   1.772
 7228SOL    HW122583   0.270   0.524   1.684
 7228SOL    HW222584   0.280   0.648   1.789
 7229SOL     OW22585   0.698   0.365   4.028
 7229SOL    HW122586   0.795   0.384   4.018
 7229SOL    HW222587   0.646   0.450   4.022
 7230SOL     OW22588   4.393   5.522   5.020
 7230SOL    HW122589   4.372   5.598   4.958
 7230SOL    HW222590   4.446   5.555   5.098
 7231SOL     OW22591   4.712   0.628   0.089
 7231SOL    HW122592   4.665   0.714   0.074
 7231SOL    HW222593   4.648   0.552   0.077
 7232SOL     OW22594   3.919   4.925   3.513
 7232SOL    HW122595   3.951   4.830   3.515
 7232SOL    HW222596   3.888   4.948   3.421
 7233SOL     OW22597   0.462   2.910   4.918
 7233SOL    HW122598   0.405   2.981   4.875
 7233SOL    HW222599   0.551   2.948   4.941
 7234SOL     OW22600   6.278   2.614   1.696
 7234SOL    HW122601   6.362   2.560   1.695
 7234SOL    HW222602   6.278   2.675   1.776
 7235SOL     OW22603   6.479   3.942   3.356
 7235SOL    HW122604   6.537   3.864   3.331
 7235SOL    HW222605   6.476   4.007   3.280
 7236SOL     OW22606   3.130   1.756   2.743
 7236SOL    HW122607   3.190   1.826   2.705
 7236SOL    HW222608   3.038   1.768   2.706
 7237SOL     OW22609   6.695   6.322   5.235
 7237SOL    HW122610   6.786   6.362   5.249
 7237SOL    HW222611   6.648   6.315   5.323
 7238SOL     OW22612   2.503   1.951   1.923
 7238SOL    HW122613   2.588   1.934   1.873
 7238SOL    HW222614   2.485   1.876   1.986
 7239SOL     OW22615   2.003   1.649   3.377
 7239SOL    HW122616   2.004   1.550   3.372
 7239SOL    HW222617   2.063   1.679   3.452
 7240SOL     OW22618   3.155   4.258   0.414
 7240SOL    HW122619   3.223   4.197   0.456
 7240SOL    HW222620   3.085   4.280   0.482
 7241SOL     OW22621   3.514   0.099   6.062
 7241SOL    HW122622   3.607   0.097   6.100
 7241SOL    HW222623   3.506   0.177   6.000
 7242SOL     OW22624   5.863   4.290   0.214
 7242SOL    HW122625   5.832   4.333   0.299
 7242SOL    HW222626   5.954   4.323   0.191
 7243SOL     OW22627   1.421   4.684   6.356
 7243SOL    HW122628   1.488   4.626   6.401
 7243SOL    HW222629   1.460   4.775   6.342
 7244SOL     OW22630   4.644   0.845   0.855
 7244SOL    HW122631   4.570   0.861   0.790
 7244SOL    HW222632   4.688   0.932   0.876
 7245SOL     OW22633   0.339   2.669   5.177
 7245SOL    HW122634   0.300   2.732   5.110
 7245SOL    HW222635   0.265   2.619   5.222
 7246SOL     OW22636   6.833   6.509   4.894
 7246SOL    HW122637   6.786   6.422   4.911
 7246SOL    HW222638   6.765   6.582   4.886
 7247SOL     OW22639   2.455   6.770   2.303
 7247SOL    HW122640   2.419   6.683   2.269
 7247SOL    HW222641   2.419   6.787   2.394
 7248SOL     OW22642   3.323   1.214   3.709
 7248SOL    HW122643   3.357   1.302   3.678
 7248SOL    HW222644   3.396   1.146   3.702
 7249SOL     OW22645   5.591   4.543   0.925
 7249SOL    HW122646   5.569   4.448   0.902
 7249SOL    HW222647   5.687   4.560   0.905
 7250SOL     OW22648   2.406   4.743   6.423
 7250SOL    HW122649   2.408   4.792   6.335
 7250SOL    HW222650   2.321   4.691   6.430
 7251SOL     OW22651   6.421   6.785   5.682
 7251SOL    HW122652   6.436   6.688   5.704
 7251SOL    HW222653   6.373   6.829   5.758
 7252SOL     OW22654   3.370   3.484   4.610
 7252SOL    HW122655   3.372   3.389   4.641
 7252SOL    HW222656   3.294   3.533   4.653
 7253SOL     OW22657   1.868   5.965   0.631
 7253SOL    HW122658   1.884   5.902   0.555
 7253SOL    HW222659   1.771   5.962   0.657
 7254SOL     OW22660   3.192   5.415   4.388
 7254SOL    HW122661   3.117   5.476   4.414
 7254SOL    HW222662   3.229   5.443   4.300
 7255SOL     OW22663   2.815   3.162   1.683
 7255SOL    HW122664   2.862   3.089   1.731
 7255SOL    HW222665   2.874   3.243   1.681
 7256SOL     OW22666   4.446   5.134   4.662
 7256SOL    HW122667   4.467   5.109   4.756
 7256SOL    HW222668   4.371   5.076   4.628
 7257SOL     OW22669   6.546   2.791   3.277
 7257SOL    HW122670   6.566   2.746   3.364
 7257SOL    HW222671   6.524   2.722   3.208
 7258SOL     OW22672   4.502   0.493   4.123
 7258SOL    HW122673   4.555   0.492   4.207
 7258SOL    HW222674   4.427   0.427   4.130
 7259SOL     OW22675   2.847   4.282   6.922
 7259SOL    HW122676   2.752   4.285   6.892
 7259SOL    HW222677   2.879   4.187   6.923
 7260SOL     OW22678   3.937   1.856   2.885
 7260SOL    HW122679   3.924   1.955   2.885
 7260SOL    HW222680   4.005   1.832   2.955
 7261SOL     OW22681   2.257   3.279   1.674
 7261SOL    HW122682   2.313   3.286   1.592
 7261SOL    HW222683   2.286   3.348   1.741
 7262SOL     OW22684   5.744   2.808   4.534
 7262SOL    HW122685   5.644   2.797   4.530
 7262SOL    HW222686   5.788   2.723   4.506
 7263SOL     OW22687   1.315   5.524   1.591
 7263SOL    HW122688   1.377   5.459   1.546
 7263SOL    HW222689   1.284   5.592   1.525
 7264SOL     OW22690   6.776   1.274   6.887
 7264SOL    HW122691   6.827   1.230   6.961
 7264SOL    HW222692   6.719   1.347   6.925
 7265SOL     OW22693   5.311   5.385   6.174
 7265SOL    HW122694   5.257   5.469   6.179
 7265SOL    HW222695   5.394   5.395   6.230
 7266SOL     OW22696   4.942   0.858   1.457
 7266SOL    HW122697   4.954   0.800   1.538
 7266SOL    HW222698   4.880   0.933   1.480
 7267SOL     OW22699   6.788   4.317   5.032
 7267SOL    HW122700   6.692   4.345   5.040
 7267SOL    HW222701   6.817   4.274   5.118
 7268SOL     OW22702   4.086   5.879   2.331
 7268SOL    HW122703   4.167   5.901   2.277
 7268SOL    HW222704   4.072   5.949   2.400
 7269SOL     OW22705   0.639   5.489   1.567
 7269SOL    HW122706   0.585   5.494   1.651
 7269SOL    HW222707   0.731   5.457   1.588
 7270SOL     OW22708   2.396   1.986   2.940
 7270SOL    HW122709   2.379   1.922   2.865
 7270SOL    HW222710   2.428   2.073   2.902
 7271SOL     OW22711   0.380   4.031   2.385
 7271SOL    HW122712   0.422   4.068   2.302
 7271SOL    HW222713   0.432   4.062   2.464
 7272SOL     OW22714   4.934   2.847   2.957
 7272SOL    HW122715   4.967   2.910   3.027
 7272SOL    HW222716   4.950   2.753   2.986
 7273SOL     OW22717   6.133   4.409   1.557
 7273SOL    HW122718   6.183   4.488   1.523
 7273SOL    HW222719   6.041   4.407   1.517
 7274SOL     OW22720   0.161   4.894   5.657
 7274SOL    HW122721   0.233   4.911   5.724
 7274SOL    HW222722   0.180   4.809   5.608
 7275SOL     OW22723   6.688   0.698   0.095
 7275SOL    HW122724   6.709   0.602   0.079
 7275SOL    HW222725   6.590   0.710   0.106
 7276SOL     OW22726   2.402   1.996   3.775
 7276SOL    HW122727   2.308   2.029   3.773
 7276SOL    HW222728   2.416   1.930   3.702
 7277SOL     OW22729   4.599   1.263   5.893
 7277SOL    HW122730   4.666   1.196   5.861
 7277SOL    HW222731   4.558   1.310   5.814
 7278SOL     OW22732   3.953   1.326   3.139
 7278SOL    HW122733   3.877   1.266   3.163
 7278SOL    HW222734   3.959   1.401   3.206
 7279SOL     OW22735   4.577   4.166   0.749
 7279SOL    HW122736   4.573   4.243   0.812
 7279SOL    HW222737   4.496   4.108   0.761
 7280SOL     OW22738   5.383   2.110   5.497
 7280SOL    HW122739   5.411   2.036   5.435
 7280SOL    HW222740   5.453   2.123   5.567
 7281SOL     OW22741   3.581   6.834   0.915
 7281SOL    HW122742   3.591   6.754   0.974
 7281SOL    HW222743   3.563   6.806   0.821
 7282SOL     OW22744   6.587   5.412   2.019
 7282SOL    HW122745   6.576   5.350   2.097
 7282SOL    HW222746   6.671   5.389   1.970
 7283SOL     OW22747   3.260   6.096   2.587
 7283SOL    HW122748   3.271   6.129   2.681
 7283SOL    HW222749   3.177   6.134   2.548
 7284SOL     OW22750   6.472   2.412   3.778
 7284SOL    HW122751   6.551   2.351   3.780
 7284SOL    HW222752   6.502   2.506   3.791
 7285SOL     OW22753   4.909   3.006   1.842
 7285SOL    HW122754   4.824   3.015   1.893
 7285SOL    HW222755   4.977   2.957   1.897
 7286SOL     OW22756   0.860   1.198   0.752
 7286SOL    HW122757   0.932   1.201   0.684
 7286SOL    HW222758   0.779   1.245   0.717
 7287SOL     OW22759   0.874   2.810   3.463
 7287SOL    HW122760   0.837   2.719   3.484
 7287SOL    HW222761   0.971   2.802   3.438
 7288SOL     OW22762   2.774   2.295   2.859
 7288SOL    HW122763   2.856   2.242   2.837
 7288SOL    HW222764   2.754   2.285   2.957
 7289SOL     OW22765   6.007   2.319   2.254
 7289SOL    HW122766   6.015   2.338   2.156
 7289SOL    HW222767   6.063   2.385   2.305
 7290SOL     OW22768   4.203   1.314   5.546
 7290SOL    HW122769   4.293   1.333   5.586
 7290SOL    HW222770   4.146   1.269   5.615
 7291SOL     OW22771   3.334   0.096   6.926
 7291SOL    HW122772   3.388   0.164   6.877
 7291SOL    HW222773   3.330   0.012   6.871
 7292SOL     OW22774   1.497   0.160   3.286
 7292SOL    HW122775   1.560   0.227   3.327
 7292SOL    HW222776   1.485   0.083   3.348
 7293SOL     OW22777   1.397   0.505   5.156
 7293SOL    HW122778   1.338   0.460   5.224
 7293SOL    HW222779   1.384   0.462   5.067
 7294SOL     OW22780   3.108   4.637   1.735
 7294SOL    HW122781   3.177   4.645   1.807
 7294SOL    HW222782   3.032   4.581   1.768
 7295SOL     OW22783   6.937   4.910   1.793
 7295SOL    HW122784   6.950   4.819   1.833
 7295SOL    HW222785   6.840   4.923   1.772
 7296SOL     OW22786   3.979   4.894   2.805
 7296SOL    HW122787   4.030   4.816   2.769
 7296SOL    HW222788   3.882   4.870   2.810
 7297SOL     OW22789   3.224   6.642   1.703
 7297SOL    HW122790   3.229   6.737   1.733
 7297SOL    HW222791   3.296   6.589   1.748
 7298SOL     OW22792   5.070   5.955   6.738
 7298SOL    HW122793   5.096   5.863   6.710
 7298SOL    HW222794   4.990   5.950   6.799
 7299SOL     OW22795   1.400   2.956   0.018
 7299SOL    HW122796   1.483   2.901   0.004
 7299SOL    HW222797   1.365   2.986   6.952
 7300SOL     OW22798   1.159   5.401   1.776
 7300SOL    HW122799   1.197   5.308   1.774
 7300SOL    HW222800   1.187   5.449   1.693
 7301SOL     OW22801   5.910   0.257   5.435
 7301SOL    HW122802   5.907   0.314   5.352
 7301SOL    HW222803   5.837   0.286   5.497
 7302SOL     OW22804   5.196   3.082   6.038
 7302SOL    HW122805   5.168   3.176   6.018
 7302SOL    HW222806   5.201   3.029   5.954
 7303SOL     OW22807   2.464   1.308   0.782
 7303SOL    HW122808   2.557   1.301   0.818
 7303SOL    HW222809   2.443   1.404   0.761
 7304SOL     OW22810   2.576   4.958   1.379
 7304SOL    HW122811   2.575   5.006   1.467
 7304SOL    HW222812   2.650   4.891   1.378
 7305SOL     OW22813   6.011   2.273   0.378
 7305SOL    HW122814   5.957   2.321   0.448
 7305SOL    HW222815   6.033   2.181   0.411
 7306SOL     OW22816   3.329   1.638   0.880
 7306SOL    HW122817   3.349   1.708   0.949
 7306SOL    HW222818   3.275   1.679   0.806
 7307SOL     OW22819   3.155   6.359   1.945
 7307SOL    HW122820   3.230   6.328   2.004
 7307SOL    HW222821   3.173   6.331   1.851
 7308SOL     OW22822   5.268   0.889   2.115
 7308SOL    HW122823   5.349   0.851   2.161
 7308SOL    HW222824   5.296   0.932   2.030
 7309SOL     OW22825   2.644   5.736   2.555
 7309SOL    HW122826   2.618   5.664   2.490
 7309SOL    HW222827   2.701   5.804   2.509
 7310SOL     OW22828   1.699   3.051   0.315
 7310SOL    HW122829   1.773   3.046   0.248
 7310SOL    HW222830   1.707   3.135   0.368
 7311SOL     OW22831   0.351   0.067   0.706
 7311SOL    HW122832   0.427   0.089   0.644
 7311SOL    HW222833   0.275   0.130   0.690
 7312SOL     OW22834   6.858   2.194   5.774
 7312SOL    HW122835   6.890   2.279   5.732
 7312SOL    HW222836   6.919   2.119   5.749
 7313SOL     OW22837   2.408   1.186   1.667
 7313SOL    HW122838   2.361   1.201   1.580
 7313SOL    HW222839   2.352   1.219   1.742
 7314SOL     OW22840   6.930   4.173   6.917
 7314SOL    HW122841   7.001   4.148   6.982
 7314SOL    HW222842   6.846   4.122   6.938
 7315SOL     OW22843   6.906   5.254   2.371
 7315SOL    HW122844   6.826   5.312   2.386
 7315SOL    HW222845   6.880   5.171   2.322
 7316SOL     OW22846   2.745   2.612   6.388
 7316SOL    HW122847   2.752   2.606   6.288
 7316SOL    HW222848   2.732   2.708   6.414
 7317SOL     OW22849   3.754   1.121   1.871
 7317SOL    HW122850   3.673   1.163   1.912
 7317SOL    HW222851   3.817   1.093   1.944
 7318SOL     OW22852   3.643   0.176   2.459
 7318SOL    HW122853   3.545   0.163   2.441
 7318SOL    HW222854   3.662   0.273   2.471
 7319SOL     OW22855   6.651   4.552   0.272
 7319SOL    HW122856   6.733   4.609   0.282
 7319SOL    HW222857   6.678   4.456   0.265
 7320SOL     OW22858   6.994   3.913   0.877
 7320SOL    HW122859   0.026   3.931   0.959
 7320SOL    HW222860   6.936   3.833   0.893
 7321SOL     OW22861   2.053   5.857   5.965
 7321SOL    HW122862   2.120   5.790   5.997
 7321SOL    HW222863   2.026   5.915   6.042
 7322SOL     OW22864   0.786   1.400   2.779
 7322SOL    HW122865   0.843   1.439   2.707
 7322SOL    HW222866   0.770   1.303   2.759
 7323SOL     OW22867   1.906   1.968   1.284
 7323SOL    HW122868   1.980   1.905   1.310
 7323SOL    HW222869   1.818   1.929   1.312
 7324SOL     OW22870   5.582   4.866   3.007
 7324SOL    HW122871   5.642   4.886   2.929
 7324SOL    HW222872   5.636   4.854   3.089
 7325SOL     OW22873   3.908   0.146   5.814
 7325SOL    HW122874   3.874   0.229   5.859
 7325SOL    HW222875   3.941   0.169   5.723
 7326SOL     OW22876   2.834   1.146   6.176
 7326SOL    HW122877   2.886   1.087   6.114
 7326SOL    HW222878   2.894   1.177   6.250
 7327SOL     OW22879   5.733   3.808   3.338
 7327SOL    HW122880   5.731   3.717   3.297
 7327SOL    HW222881   5.783   3.804   3.425
 7328SOL     OW22882   3.839   5.300   5.591
 7328SOL    HW122883   3.778   5.315   5.669
 7328SOL    HW222884   3.786   5.272   5.512
 7329SOL     OW22885   2.360   2.968   0.431
 7329SOL    HW122886   2.287   2.982   0.498
 7329SOL    HW222887   2.413   2.887   0.455
 7330SOL     OW22888   3.018   2.955   1.536
 7330SOL    HW122889   3.008   3.022   1.463
 7330SOL    HW222890   3.000   2.863   1.500
 7331SOL     OW22891   4.633   0.392   1.882
 7331SOL    HW122892   4.572   0.370   1.806
 7331SOL    HW222893   4.637   0.315   1.945
 7332SOL     OW22894   3.506   3.990   0.249
 7332SOL    HW122895   3.536   4.059   0.315
 7332SOL    HW222896   3.550   4.007   0.161
 7333SOL     OW22897   6.760   3.171   1.505
 7333SOL    HW122898   6.734   3.161   1.409
 7333SOL    HW222899   6.707   3.245   1.546
 7334SOL     OW22900   2.558   0.324   5.282
 7334SOL    HW122901   2.564   0.346   5.379
 7334SOL    HW222902   2.637   0.270   5.255
 7335SOL     OW22903   6.983   3.417   3.018
 7335SOL    HW122904   0.041   3.388   2.969
 7335SOL    HW222905   6.954   3.507   2.986
 7336SOL     OW22906   1.585   6.321   0.646
 7336SOL    HW122907   1.568   6.414   0.679
 7336SOL    HW222908   1.511   6.261   0.676
 7337SOL     OW22909   2.685   2.624   1.723
 7337SOL    HW122910   2.626   2.705   1.730
 7337SOL    HW222911   2.744   2.619   1.804
 7338SOL     OW22912   5.718   3.124   1.420
 7338SOL    HW122913   5.697   3.042   1.473
 7338SOL    HW222914   5.762   3.191   1.480
 7339SOL     OW22915   0.217   6.096   5.217
 7339SOL    HW122916   0.169   6.080   5.304
 7339SOL    HW222917   0.315   6.105   5.235
 7340SOL     OW22918   3.234   0.755   6.745
 7340SOL    HW122919   3.269   0.766   6.652
 7340SOL    HW222920   3.282   0.817   6.807
 7341SOL     OW22921   6.932   4.745   4.055
 7341SOL    HW122922   6.945   4.791   3.967
 7341SOL    HW222923   6.931   4.646   4.041
 7342SOL     OW22924   6.956   0.754   0.041
 7342SOL    HW122925   6.860   0.732   0.057
 7342SOL    HW222926   6.964   0.809   6.982
 7343SOL     OW22927   5.765   4.125   2.570
 7343SOL    HW122928   5.776   4.220   2.599
 7343SOL    HW222929   5.834   4.103   2.501
 7344SOL     OW22930   1.661   6.636   6.778
 7344SOL    HW122931   1.681   6.712   6.715
 7344SOL    HW222932   1.700   6.552   6.741
 7345SOL     OW22933   4.231   5.044   5.663
 7345SOL    HW122934   4.166   4.969   5.676
 7345SOL    HW222935   4.224   5.078   5.569
 7346SOL     OW22936   3.918   4.637   0.783
 7346SOL    HW122937   3.830   4.683   0.798
 7346SOL    HW222938   3.966   4.628   0.870
 7347SOL     OW22939   6.339   2.202   2.363
 7347SOL    HW122940   6.278   2.281   2.374
 7347SOL    HW222941   6.413   2.226   2.301
 7348SOL     OW22942   1.344   2.781   3.890
 7348SOL    HW122943   1.323   2.841   3.967
 7348SOL    HW222944   1.262   2.767   3.835
 7349SOL     OW22945   3.798   2.055   1.136
 7349SOL    HW122946   3.772   2.031   1.229
 7349SOL    HW222947   3.895   2.033   1.122
 7350SOL     OW22948   0.768   2.511   3.510
 7350SOL    HW122949   0.815   2.431   3.549
 7350SOL    HW222950   0.699   2.481   3.445
 7351SOL     OW22951   3.992   4.529   6.079
 7351SOL    HW122952   3.982   4.610   6.137
 7351SOL    HW222953   3.931   4.457   6.114
 7352SOL     OW22954   1.044   1.783   2.433
 7352SOL    HW122955   1.135   1.751   2.408
 7352SOL    HW222956   1.009   1.727   2.509
 7353SOL     OW22957   6.695   1.723   5.046
 7353SOL    HW122958   6.610   1.700   5.094
 7353SOL    HW222959   6.674   1.747   4.951
 7354SOL     OW22960   6.748   0.617   6.372
 7354SOL    HW122961   6.729   0.578   6.282
 7354SOL    HW222962   6.682   0.583   6.439
 7355SOL     OW22963   0.818   6.329   1.458
 7355SOL    HW122964   0.855   6.274   1.532
 7355SOL    HW222965   0.735   6.375   1.489
 7356SOL     OW22966   5.792   2.304   6.699
 7356SOL    HW122967   5.859   2.257   6.757
 7356SOL    HW222968   5.839   2.372   6.643
 7357SOL     OW22969   4.841   0.782   0.296
 7357SOL    HW122970   4.859   0.875   0.265
 7357SOL    HW222971   4.777   0.738   0.234
 7358SOL     OW22972   3.853   2.027   3.782
 7358SOL    HW122973   3.824   2.075   3.699
 7358SOL    HW222974   3.926   2.080   3.826
 7359SOL     OW22975   3.658   3.019   2.408
 7359SOL    HW122976   3.570   2.973   2.396
 7359SOL    HW222977   3.723   2.985   2.339
 7360SOL     OW22978   1.617   2.466   5.602
 7360SOL    HW122979   1.538   2.526   5.588
 7360SOL    HW222980   1.671   2.462   5.518
 7361SOL     OW22981   5.282   6.861   0.658
 7361SOL    HW122982   5.191   6.830   0.633
 7361SOL    HW222983   5.275   6.932   0.728
 7362SOL     OW22984   1.133   6.916   4.729
 7362SOL    HW122985   1.065   6.845   4.750
 7362SOL    HW222986   1.086   7.002   4.711
 7363SOL     OW22987   5.936   2.629   0.474
 7363SOL    HW122988   5.990   2.663   0.397
 7363SOL    HW222989   5.840   2.622   0.446
 7364SOL     OW22990   4.145   6.973   0.772
 7364SOL    HW122991   4.084   0.028   0.780
 7364SOL    HW222992   4.094   6.895   0.737
 7365SOL     OW22993   2.666   0.014   2.739
 7365SOL    HW122994   2.746   7.004   2.691
 7365SOL    HW222995   2.639   0.103   2.702
 7366SOL     OW22996   0.876   5.215   6.535
 7366SOL    HW122997   0.858   5.310   6.512
 7366SOL    HW222998   0.790   5.165   6.542
 7367SOL     OW22999   4.867   3.775   1.552
 7367SOL    HW123000   4.925   3.851   1.521
 7367SOL    HW223001   4.904   3.689   1.519
 7368SOL     OW23002   3.436   3.626   4.299
 7368SOL    HW123003   3.341   3.637   4.330
 7368SOL    HW223004   3.442   3.645   4.201
 7369SOL     OW23005   4.973   3.555   1.436
 7369SOL    HW123006   4.892   3.508   1.401
 7369SOL    HW223007   5.030   3.584   1.359
 7370SOL     OW23008   2.055   0.064   6.962
 7370SOL    HW123009   2.155   0.071   6.959
 7370SOL    HW223010   2.025   0.060   0.034
 7371SOL     OW23011   2.747   5.548   4.020
 7371SOL    HW123012   2.778   5.630   3.972
 7371SOL    HW223013   2.783   5.467   3.974
 7372SOL     OW23014   3.554   6.998   5.474
 7372SOL    HW123015   3.551   6.905   5.437
 7372SOL    HW223016   3.493   0.033   5.421
 7373SOL     OW23017   4.011   1.066   3.615
 7373SOL    HW123018   4.031   1.160   3.642
 7373SOL    HW223019   4.084   1.031   3.557
 7374SOL     OW23020   1.610   2.918   5.262
 7374SOL    HW123021   1.671   2.851   5.305
 7374SOL    HW223022   1.587   2.888   5.170
 7375SOL     OW23023   1.212   1.721   4.533
 7375SOL    HW123024   1.193   1.798   4.472
 7375SOL    HW223025   1.271   1.751   4.608
 7376SOL     OW23026   3.292   3.027   0.038
 7376SOL    HW123027   3.264   2.949   0.094
 7376SOL    HW223028   3.284   3.004   6.965
 7377SOL     OW23029   4.714   4.790   1.614
 7377SOL    HW123030   4.768   4.831   1.687
 7377SOL    HW223031   4.744   4.826   1.526
 7378SOL     OW23032   0.060   2.204   4.827
 7378SOL    HW123033   0.029   2.292   4.791
 7378SOL    HW223034   0.150   2.182   4.789
 7379SOL     OW23035   4.170   1.409   2.241
 7379SOL    HW123036   4.268   1.424   2.224
 7379SOL    HW223037   4.122   1.400   2.154
 7380SOL     OW23038   6.708   3.182   5.915
 7380SOL    HW123039   6.793   3.129   5.923
 7380SOL    HW223040   6.644   3.133   5.855
 7381SOL     OW23041   4.876   2.868   2.497
 7381SOL    HW123042   4.909   2.774   2.494
 7381SOL    HW223043   4.902   2.911   2.583
 7382SOL     OW23044   0.697   4.870   5.115
 7382SOL    HW123045   0.754   4.790   5.132
 7382SOL    HW223046   0.624   4.847   5.051
 7383SOL     OW23047   0.531   6.369   2.429
 7383SOL    HW123048   0.584   6.284   2.421
 7383SOL    HW223049   0.449   6.363   2.371
 7384SOL     OW23050   5.159   0.530   2.057
 7384SOL    HW123051   5.131   0.593   1.985
 7384SOL    HW223052   5.111   0.553   2.142
 7385SOL     OW23053   4.312   5.969   2.155
 7385SOL    HW123054   4.387   6.030   2.182
 7385SOL    HW223055   4.291   5.984   2.058
 7386SOL     OW23056   0.984   2.092   5.845
 7386SOL    HW123057   0.947   2.061   5.757
 7386SOL    HW223058   1.057   2.159   5.829
 7387SOL     OW23059   4.239   5.781   4.370
 7387SOL    HW123060   4.230   5.692   4.326
 7387SOL    HW223061   4.148   5.823   4.379
 7388SOL     OW23062   6.613   5.001   4.120
 7388SOL    HW123063   6.532   5.058   4.133
 7388SOL    HW223064   6.617   4.933   4.194
 7389SOL     OW23065   1.405   4.384   6.951
 7389SOL    HW123066   1.328   4.445   6.936
 7389SOL    HW223067   1.371   4.294   6.980
 7390SOL     OW23068   0.483   1.818   6.434
 7390SOL    HW123069   0.433   1.794   6.517
 7390SOL    HW223070   0.580   1.828   6.455
 7391SOL     OW23071   5.484   4.322   6.142
 7391SOL    HW123072   5.531   4.369   6.067
 7391SOL    HW223073   5.467   4.387   6.217
 7392SOL     OW23074   1.619   5.759   5.698
 7392SOL    HW123075   1.560   5.759   5.617
 7392SOL    HW223076   1.564   5.738   5.778
 7393SOL     OW23077   6.060   5.332   1.912
 7393SOL    HW123078   6.093   5.412   1.962
 7393SOL    HW223079   6.009   5.361   1.831
 7394SOL     OW23080   3.558   3.433   6.392
 7394SOL    HW123081   3.580   3.439   6.490
 7394SOL    HW223082   3.592   3.346   6.356
 7395SOL     OW23083   0.639   0.892   6.477
 7395SOL    HW123084   0.730   0.926   6.502
 7395SOL    HW223085   0.649   0.813   6.417
 7396SOL     OW23086   1.677   0.813   6.039
 7396SOL    HW123087   1.654   0.907   6.066
 7396SOL    HW223088   1.603   0.752   6.068
 7397SOL     OW23089   6.470   4.089   4.699
 7397SOL    HW123090   6.435   4.129   4.783
 7397SOL    HW223091   6.488   3.991   4.713
 7398SOL     OW23092   4.155   5.304   3.794
 7398SOL    HW123093   4.219   5.372   3.831
 7398SOL    HW223094   4.091   5.349   3.732
 7399SOL     OW23095   6.804   4.044   5.799
 7399SOL    HW123096   6.821   4.094   5.885
 7399SOL    HW223097   6.747   3.964   5.818
 7400SOL     OW23098   3.191   4.007   6.703
 7400SOL    HW123099   3.154   3.967   6.786
 7400SOL    HW223100   3.123   3.999   6.629
 7401SOL     OW23101   0.312   1.436   3.672
 7401SOL    HW123102   0.307   1.433   3.772
 7401SOL    HW223103   0.276   1.351   3.634
 7402SOL     OW23104   1.999   6.901   4.041
 7402SOL    HW123105   1.909   6.858   4.031
 7402SOL    HW223106   2.004   6.947   4.130
 7403SOL     OW23107   1.869   2.903   3.855
 7403SOL    HW123108   1.806   2.962   3.806
 7403SOL    HW223109   1.961   2.913   3.818
 7404SOL     OW23110   2.115   0.543   0.782
 7404SOL    HW123111   2.174   0.519   0.704
 7404SOL    HW223112   2.165   0.602   0.845
 7405SOL     OW23113   1.590   4.950   4.787
 7405SOL    HW123114   1.609   5.006   4.707
 7405SOL    HW223115   1.491   4.939   4.798
 7406SOL     OW23116   1.251   3.740   2.374
 7406SOL    HW123117   1.315   3.664   2.385
 7406SOL    HW223118   1.268   3.808   2.446
 7407SOL     OW23119   0.093   5.968   4.995
 7407SOL    HW123120   0.007   5.926   5.024
 7407SOL    HW223121   0.132   6.020   5.072
 7408SOL     OW23122   2.083   4.183   6.125
 7408SOL    HW123123   2.147   4.121   6.079
 7408SOL    HW223124   2.135   4.248   6.181
 7409SOL     OW23125   0.988   1.308   4.783
 7409SOL    HW123126   1.012   1.388   4.837
 7409SOL    HW223127   0.910   1.329   4.723
 7410SOL     OW23128   0.282   4.831   1.035
 7410SOL    HW123129   0.219   4.903   1.008
 7410SOL    HW223130   0.289   4.829   1.135
 7411SOL     OW23131   2.583   6.568   4.461
 7411SOL    HW123132   2.674   6.533   4.440
 7411SOL    HW223133   2.555   6.633   4.390
 7412SOL     OW23134   2.432   1.106   1.053
 7412SOL    HW123135   2.424   1.103   0.953
 7412SOL    HW223136   2.497   1.036   1.083
 7413SOL     OW23137   0.418   3.590   3.853
 7413SOL    HW123138   0.471   3.519   3.805
 7413SOL    HW223139   0.391   3.661   3.789
 7414SOL     OW23140   6.607   6.757   2.755
 7414SOL    HW123141   6.539   6.742   2.684
 7414SOL    HW223142   6.685   6.696   2.741
 7415SOL     OW23143   1.214   3.096   2.980
 7415SOL    HW123144   1.304   3.134   3.001
 7415SOL    HW223145   1.156   3.102   3.060
 7416SOL     OW23146   3.408   1.285   4.317
 7416SOL    HW123147   3.395   1.190   4.345
 7416SOL    HW223148   3.366   1.300   4.228
 7417SOL     OW23149   1.574   6.374   6.095
 7417SOL    HW123150   1.521   6.332   6.168
 7417SOL    HW223151   1.513   6.412   6.026
 7418SOL     OW23152   3.215   4.535   1.310
 7418SOL    HW123153   3.305   4.543   1.353
 7418SOL    HW223154   3.166   4.458   1.351
 7419SOL     OW23155   5.602   1.762   4.349
 7419SOL    HW123156   5.511   1.737   4.383
 7419SOL    HW223157   5.612   1.731   4.255
 7420SOL     OW23158   6.545   6.938   2.145
 7420SOL    HW123159   6.645   6.936   2.139
 7420SOL    HW223160   6.517   6.918   2.239
 7421SOL     OW23161   3.453   3.981   1.516
 7421SOL    HW123162   3.534   4.039   1.510
 7421SOL    HW223163   3.444   3.946   1.609
 7422SOL     OW23164   0.097   3.528   1.198
 7422SOL    HW123165   0.116   3.432   1.175
 7422SOL    HW223166   0.044   3.532   1.283
 7423SOL     OW23167   1.913   4.693   6.017
 7423SOL    HW123168   1.814   4.701   6.005
 7423SOL    HW223169   1.957   4.778   5.989
 7424SOL     OW23170   5.831   1.551   4.391
 7424SOL    HW123171   5.789   1.460   4.387
 7424SOL    HW223172   5.762   1.621   4.373
 7425SOL     OW23173   4.036   4.643   6.592
 7425SOL    HW123174   4.129   4.606   6.591
 7425SOL    HW223175   3.986   4.611   6.512
 7426SOL     OW23176   0.299   2.293   6.795
 7426SOL    HW123177   0.207   2.270   6.828
 7426SOL    HW223178   0.304   2.391   6.777
 7427SOL     OW23179   2.963   6.037   4.260
 7427SOL    HW123180   2.869   6.013   4.284
 7427SOL    HW223181   2.965   6.080   4.170
 7428SOL     OW23182   3.625   2.091   5.120
 7428SOL    HW123183   3.647   2.115   5.214
 7428SOL    HW223184   3.526   2.088   5.108
 7429SOL     OW23185   6.871   0.319   2.314
 7429SOL    HW123186   6.790   0.311   2.372
 7429SOL    HW223187   6.908   0.228   2.297
 7430SOL     OW23188   6.954   4.548   5.585
 7430SOL    HW123189   6.942   4.533   5.683
 7430SOL    HW223190   0.019   4.590   5.568
 7431SOL     OW23191   0.725   3.451   1.391
 7431SOL    HW123192   0.681   3.541   1.389
 7431SOL    HW223193   0.676   3.388   1.331
 7432SOL     OW23194   0.813   6.135   3.881
 7432SOL    HW123195   0.818   6.095   3.789
 7432SOL    HW223196   0.903   6.169   3.908
 7433SOL     OW23197   6.190   5.311   1.397
 7433SOL    HW123198   6.098   5.348   1.386
 7433SOL    HW223199   6.255   5.368   1.346
 7434SOL     OW23200   2.517   1.735   6.856
 7434SOL    HW123201   2.481   1.671   6.924
 7434SOL    HW223202   2.574   1.804   6.902
 7435SOL     OW23203   3.764   6.471   5.665
 7435SOL    HW123204   3.675   6.470   5.620
 7435SOL    HW223205   3.757   6.429   5.755
 7436SOL     OW23206   6.027   3.000   6.819
 7436SOL    HW123207   6.086   2.970   6.894
 7436SOL    HW223208   6.043   3.096   6.800
 7437SOL     OW23209   6.674   5.184   6.418
 7437SOL    HW123210   6.610   5.168   6.343
 7437SOL    HW223211   6.758   5.133   6.402
 7438SOL     OW23212   0.788   4.035   1.895
 7438SOL    HW123213   0.804   3.968   1.968
 7438SOL    HW223214   0.826   4.124   1.923
 7439SOL     OW23215   2.679   0.042   3.498
 7439SOL    HW123216   2.672   0.142   3.493
 7439SOL    HW223217   2.590   0.003   3.519
 7440SOL     OW23218   1.131   3.160   4.848
 7440SOL    HW123219   1.128   3.260   4.838
 7440SOL    HW223220   1.190   3.136   4.924
 7441SOL     OW23221   5.482   6.760   4.006
 7441SOL    HW123222   5.558   6.791   3.948
 7441SOL    HW223223   5.425   6.697   3.954
 7442SOL     OW23224   1.169   1.105   6.317
 7442SOL    HW123225   1.075   1.069   6.312
 7442SOL    HW223226   1.168   1.203   6.300
 7443SOL     OW23227   6.913   1.977   0.540
 7443SOL    HW123228   6.863   1.970   0.454
 7443SOL    HW223229   6.943   1.886   0.569
 7444SOL     OW23230   6.712   3.405   6.832
 7444SOL    HW123231   6.633   3.466   6.840
 7444SOL    HW223232   6.680   3.311   6.827
 7445SOL     OW23233   4.981   1.621   1.741
 7445SOL    HW123234   4.883   1.641   1.730
 7445SOL    HW223235   5.033   1.706   1.741
 7446SOL     OW23236   6.525   4.276   6.953
 7446SOL    HW123237   6.589   4.305   7.023
 7446SOL    HW223238   6.496   4.182   6.970
 7447SOL     OW23239   2.470   4.835   6.696
 7447SOL    HW123240   2.566   4.811   6.704
 7447SOL    HW223241   2.436   4.807   6.606
 7448SOL     OW23242   5.580   6.889   5.738
 7448SOL    HW123243   5.640   6.949   5.684
 7448SOL    HW223244   5.565   6.804   5.687
 7449SOL     OW23245   4.836   2.167   2.267
 7449SOL    HW123246   4.737   2.175   2.276
 7449SOL    HW223247   4.864   2.195   2.176
 7450SOL     OW23248   5.031   2.815   3.614
 7450SOL    HW123249   4.951   2.780   3.564
 7450SOL    HW223250   5.107   2.751   3.603
 7451SOL     OW23251   1.617   0.392   3.979
 7451SOL    HW123252   1.657   0.302   3.995
 7451SOL    HW223253   1.524   0.382   3.943
 7452SOL     OW23254   1.797   0.254   4.797
 7452SOL    HW123255   1.891   0.222   4.806
 7452SOL    HW223256   1.772   0.307   4.878
 7453SOL     OW23257   5.779   6.080   5.011
 7453SOL    HW123258   5.866   6.129   5.011
 7453SOL    HW223259   5.750   6.064   4.917
 7454SOL     OW23260   1.188   3.619   1.181
 7454SOL    HW123261   1.270   3.595   1.233
 7454SOL    HW223262   1.118   3.654   1.243
 7455SOL     OW23263   5.533   1.638   1.352
 7455SOL    HW123264   5.614   1.600   1.307
 7455SOL    HW223265   5.513   1.728   1.313
 7456SOL     OW23266   1.590   2.232   4.627
 7456SOL    HW123267   1.516   2.299   4.631
 7456SOL    HW223268   1.672   2.270   4.668
 7457SOL     OW23269   5.909   0.693   5.324
 7457SOL    HW123270   5.860   0.606   5.319
 7457SOL    HW223271   6.007   0.677   5.306
 7458SOL     OW23272   2.218   6.877   0.131
 7458SOL    HW123273   2.167   6.791   0.137
 7458SOL    HW223274   2.272   6.878   0.047
 7459SOL     OW23275   4.416   0.325   6.180
 7459SOL    HW123276   4.359   0.365   6.108
 7459SOL    HW223277   4.512   0.351   6.165
 7460SOL     OW23278   2.257   5.589   0.759
 7460SOL    HW123279   2.199   5.588   0.678
 7460SOL    HW223280   2.311   5.505   0.764
 7461SOL     OW23281   5.146   1.309   5.905
 7461SOL    HW123282   5.191   1.373   5.843
 7461SOL    HW223283   5.161   1.337   5.999
 7462SOL     OW23284   2.269   2.417   1.435
 7462SOL    HW123285   2.275   2.342   1.501
 7462SOL    HW223286   2.334   2.401   1.361
 7463SOL     OW23287   3.571   2.859   1.547
 7463SOL    HW123288   3.667   2.838   1.566
 7463SOL    HW223289   3.562   2.955   1.523
 7464SOL     OW23290   3.763   5.988   6.855
 7464SOL    HW123291   3.853   5.950   6.878
 7464SOL    HW223292   3.746   6.069   6.911
 7465SOL     OW23293   1.616   0.418   0.927
 7465SOL    HW123294   1.706   0.457   0.946
 7465SOL    HW223295   1.627   0.331   0.879
 7466SOL     OW23296   0.904   0.963   6.566
 7466SOL    HW123297   0.951   0.918   6.491
 7466SOL    HW223298   0.945   0.936   6.653
 7467SOL     OW23299   6.518   2.043   1.289
 7467SOL    HW123300   6.585   2.003   1.351
 7467SOL    HW223301   6.565   2.082   1.209
 7468SOL     OW23302   4.644   2.234   2.586
 7468SOL    HW123303   4.738   2.201   2.590
 7468SOL    HW223304   4.637   2.307   2.518
 7469SOL     OW23305   0.953   0.009   6.466
 7469SOL    HW123306   0.922   6.966   6.535
 7469SOL    HW223307   0.982   0.093   6.512
 7470SOL     OW23308   0.746   2.880   2.777
 7470SOL    HW123309   0.817   2.835   2.831
 7470SOL    HW223310   0.704   2.813   2.715
 7471SOL     OW23311   6.319   6.580   4.900
 7471SOL    HW123312   6.364   6.528   4.973
 7471SOL    HW223313   6.381   6.588   4.822
 7472SOL     OW23314   4.635   6.756   4.392
 7472SOL    HW123315   4.589   6.705   4.319
 7472SOL    HW223316   4.653   6.849   4.360
 7473SOL     OW23317   7.023   4.172   3.452
 7473SOL    HW123318   6.991   4.246   3.510
 7473SOL    HW223319   0.096   4.155   3.470
 7474SOL     OW23320   3.104   0.949   4.120
 7474SOL    HW123321   3.135   0.856   4.098
 7474SOL    HW223322   3.132   1.011   4.047
 7475SOL     OW23323   5.044   0.578   2.305
 7475SOL    HW123324   4.962   0.534   2.266
 7475SOL    HW223325   5.018   0.666   2.346
 7476SOL     OW23326   4.501   6.040   4.818
 7476SOL    HW123327   4.433   5.989   4.765
 7476SOL    HW223328   4.498   6.137   4.792
 7477SOL     OW23329   4.477   0.750   4.035
 7477SOL    HW123330   4.472   0.655   4.066
 7477SOL    HW223331   4.557   0.794   4.076
 7478SOL     OW23332   3.936   3.927   6.034
 7478SOL    HW123333   3.957   3.865   6.110
 7478SOL    HW223334   3.966   4.019   6.057
 7479SOL     OW23335   3.885   1.730   0.823
 7479SOL    HW123336   3.968   1.723   0.878
 7479SOL    HW223337   3.907   1.723   0.726
 7480SOL     OW23338   6.212   5.800   1.452
 7480SOL    HW123339   6.164   5.713   1.446
 7480SOL    HW223340   6.310   5.783   1.469
 7481SOL     OW23341   5.411   5.481   1.262
 7481SOL    HW123342   5.353   5.512   1.186
 7481SOL    HW223343   5.432   5.559   1.321
 7482SOL     OW23344   4.168   1.180   1.877
 7482SOL    HW123345   4.100   1.213   1.943
 7482SOL    HW223346   4.145   1.087   1.849
 7483SOL     OW23347   3.930   1.700   4.213
 7483SOL    HW123348   3.936   1.615   4.267
 7483SOL    HW223349   3.884   1.770   4.267
 7484SOL     OW23350   0.322   0.163   1.902
 7484SOL    HW123351   0.342   0.257   1.929
 7484SOL    HW223352   0.323   0.105   1.984
 7485SOL     OW23353   2.970   6.142   5.595
 7485SOL    HW123354   2.927   6.230   5.617
 7485SOL    HW223355   2.967   6.127   5.496
 7486SOL     OW23356   2.500   0.009   5.352
 7486SOL    HW123357   2.558   0.018   5.433
 7486SOL    HW223358   2.555   7.000   5.275
 7487SOL     OW23359   1.954   6.850   2.552
 7487SOL    HW123360   1.904   6.902   2.483
 7487SOL    HW223361   2.041   6.895   2.572
 7488SOL     OW23362   2.244   0.084   5.179
 7488SOL    HW123363   2.273   0.049   5.090
 7488SOL    HW223364   2.317   0.071   5.246
 7489SOL     OW23365   4.901   2.240   5.094
 7489SOL    HW123366   4.978   2.235   5.158
 7489SOL    HW223367   4.866   2.334   5.091
 7490SOL     OW23368   0.616   0.653   0.752
 7490SOL    HW123369   0.658   0.613   0.834
 7490SOL    HW223370   0.573   0.739   0.776
 7491SOL     OW23371   0.587   4.959   6.484
 7491SOL    HW123372   0.551   5.048   6.511
 7491SOL    HW223373   0.634   4.968   6.396
 7492SOL     OW23374   2.376   2.082   5.557
 7492SOL    HW123375   2.340   2.115   5.470
 7492SOL    HW223376   2.322   2.004   5.589
 7493SOL     OW23377   6.303   4.668   5.803
 7493SOL    HW123378   6.354   4.660   5.888
 7493SOL    HW223379   6.330   4.594   5.741
 7494SOL     OW23380   5.641   1.287   2.531
 7494SOL    HW123381   5.707   1.323   2.597
 7494SOL    HW223382   5.563   1.247   2.580
 7495SOL     OW23383   1.872   1.349   0.858
 7495SOL    HW123384   1.869   1.323   0.955
 7495SOL    HW223385   1.915   1.277   0.805
 7496SOL     OW23386   1.666   4.733   5.879
 7496SOL    HW123387   1.673   4.738   5.780
 7496SOL    HW223388   1.628   4.645   5.906
 7497SOL     OW23389   2.813   5.207   1.709
 7497SOL    HW123390   2.903   5.164   1.707
 7497SOL    HW223391   2.743   5.142   1.678
 7498SOL     OW23392   2.922   1.175   4.254
 7498SOL    HW123393   2.866   1.246   4.211
 7498SOL    HW223394   2.920   1.092   4.197
 7499SOL     OW23395   6.303   0.045   3.285
 7499SOL    HW123396   6.288   6.988   3.227
 7499SOL    HW223397   6.397   0.044   3.320
 7500SOL     OW23398   4.023   6.067   2.513
 7500SOL    HW123399   3.934   6.048   2.472
 7500SOL    HW223400   4.010   6.116   2.599
 7501SOL     OW23401   7.018   4.231   4.226
 7501SOL    HW123402   0.012   4.233   4.127
 7501SOL    HW223403   7.004   4.137   4.256
 7502SOL     OW23404   1.787   1.531   5.205
 7502SOL    HW123405   1.775   1.432   5.197
 7502SOL    HW223406   1.720   1.577   5.145
 7503SOL     OW23407   2.800   0.828   6.446
 7503SOL    HW123408   2.790   0.857   6.541
 7503SOL    HW223409   2.896   0.835   6.419
 7504SOL     OW23410   4.206   6.578   3.959
 7504SOL    HW123411   4.161   6.501   3.914
 7504SOL    HW223412   4.301   6.584   3.928
 7505SOL     OW23413   3.400   1.251   5.173
 7505SOL    HW123414   3.395   1.155   5.201
 7505SOL    HW223415   3.318   1.299   5.203
 7506SOL     OW23416   3.833   0.933   2.518
 7506SOL    HW123417   3.914   0.992   2.518
 7506SOL    HW223418   3.765   0.969   2.454
 7507SOL     OW23419   0.206   6.547   6.971
 7507SOL    HW123420   0.129   6.492   7.002
 7507SOL    HW223421   0.292   6.506   7.002
 7508SOL     OW23422   5.664   6.566   2.470
 7508SOL    HW123423   5.647   6.482   2.419
 7508SOL    HW223424   5.664   6.644   2.407
 7509SOL     OW23425   4.748   4.597   0.822
 7509SOL    HW123426   4.791   4.599   0.912
 7509SOL    HW223427   4.649   4.587   0.832
 7510SOL     OW23428   3.069   4.008   4.988
 7510SOL    HW123429   2.995   3.943   4.970
 7510SOL    HW223430   3.080   4.069   4.910
 7511SOL     OW23431   1.555   0.259   2.198
 7511SOL    HW123432   1.488   0.239   2.127
 7511SOL    HW223433   1.537   0.202   2.278
 7512SOL     OW23434   3.112   4.329   1.481
 7512SOL    HW123435   3.024   4.327   1.528
 7512SOL    HW223436   3.137   4.237   1.452
 7513SOL     OW23437   1.380   3.157   0.312
 7513SOL    HW123438   1.325   3.125   0.235
 7513SOL    HW223439   1.463   3.201   0.277
 7514SOL     OW23440   2.798   6.362   2.081
 7514SOL    HW123441   2.847   6.443   2.050
 7514SOL    HW223442   2.781   6.301   2.003
 7515SOL     OW23443   0.901   0.534   3.022
 7515SOL    HW123444   0.895   0.451   2.967
 7515SOL    HW223445   0.948   0.605   2.969
 7516SOL     OW23446   6.396   6.238   4.653
 7516SOL    HW123447   6.493   6.219   4.664
 7516SOL    HW223448   6.355   6.253   4.743
 7517SOL     OW23449   6.902   3.696   1.082
 7517SOL    HW123450   6.988   3.699   1.133
 7517SOL    HW223451   6.863   3.604   1.090
 7518SOL     OW23452   3.710   5.817   3.776
 7518SOL    HW123453   3.742   5.833   3.682
 7518SOL    HW223454   3.759   5.738   3.814
 7519SOL     OW23455   0.749   5.905   4.109
 7519SOL    HW123456   0.832   5.938   4.154
 7519SOL    HW223457   0.731   5.959   4.027
 7520SOL     OW23458   1.989   0.789   2.036
 7520SOL    HW123459   2.032   0.849   1.969
 7520SOL    HW223460   1.973   0.699   1.995
 7521SOL     OW23461   4.366   4.531   5.477
 7521SOL    HW123462   4.287   4.504   5.532
 7521SOL    HW223463   4.383   4.629   5.487
 7522SOL     OW23464   2.564   1.062   6.145
 7522SOL    HW123465   2.663   1.077   6.145
 7522SOL    HW223466   2.517   1.150   6.150
 7523SOL     OW23467   6.449   0.704   5.476
 7523SOL    HW123468   6.357   0.740   5.495
 7523SOL    HW223469   6.490   0.672   5.561
 7524SOL     OW23470   0.230   2.415   6.225
 7524SOL    HW123471   0.258   2.319   6.218
 7524SOL    HW223472   0.277   2.458   6.302
 7525SOL     OW23473   2.218   0.266   6.524
 7525SOL    HW123474   2.144   0.288   6.588
 7525SOL    HW223475   2.194   0.184   6.472
 7526SOL     OW23476   3.819   2.916   3.528
 7526SOL    HW123477   3.862   2.962   3.605
 7526SOL    HW223478   3.840   2.818   3.531
 7527SOL     OW23479   4.571   4.705   2.677
 7527SOL    HW123480   4.576   4.801   2.705
 7527SOL    HW223481   4.662   4.674   2.649
 7528SOL     OW23482   4.547   2.196   0.350
 7528SOL    HW123483   4.565   2.285   0.392
 7528SOL    HW223484   4.605   2.126   0.393
 7529SOL     OW23485   5.414   1.159   3.951
 7529SOL    HW123486   5.479   1.173   4.025
 7529SOL    HW223487   5.453   1.193   3.865
 7530SOL     OW23488   6.914   3.199   2.224
 7530SOL    HW123489   6.866   3.201   2.137
 7530SOL    HW223490   6.938   3.104   2.247
 7531SOL     OW23491   4.633   1.897   4.608
 7531SOL    HW123492   4.683   1.981   4.584
 7531SOL    HW223493   4.649   1.828   4.538
 7532SOL     OW23494   5.309   5.422   1.925
 7532SOL    HW123495   5.253   5.403   1.843
 7532SOL    HW223496   5.307   5.520   1.944
 7533SOL     OW23497   1.750   0.830   2.931
 7533SOL    HW123498   1.832   0.876   2.967
 7533SOL    HW223499   1.762   0.731   2.937
 7534SOL     OW23500   3.792   6.139   4.842
 7534SOL    HW123501   3.819   6.043   4.840
 7534SOL    HW223502   3.718   6.154   4.775
 7535SOL     OW23503   2.555   1.107   5.703
 7535SOL    HW123504   2.482   1.155   5.656
 7535SOL    HW223505   2.624   1.172   5.735
 7536SOL     OW23506   5.187   4.747   5.190
 7536SOL    HW123507   5.179   4.847   5.195
 7536SOL    HW223508   5.105   4.709   5.149
 7537SOL     OW23509   1.892   4.433   5.255
 7537SOL    HW123510   1.871   4.336   5.270
 7537SOL    HW223511   1.910   4.448   5.158
 7538SOL     OW23512   3.240   3.672   2.393
 7538SOL    HW123513   3.299   3.705   2.467
 7538SOL    HW223514   3.162   3.734   2.382
 7539SOL     OW23515   2.461   2.366   5.479
 7539SOL    HW123516   2.525   2.325   5.415
 7539SOL    HW223517   2.499   2.362   5.572
 7540SOL     OW23518   3.336   0.706   6.037
 7540SOL    HW123519   3.340   0.804   6.060
 7540SOL    HW223520   3.358   0.693   5.941
 7541SOL     OW23521   0.071   3.862   5.441
 7541SOL    HW123522   0.072   3.826   5.534
 7541SOL    HW223523   7.007   3.839   5.398
 7542SOL     OW23524   0.999   6.730   5.787
 7542SOL    HW123525   1.049   6.793   5.847
 7542SOL    HW223526   1.064   6.669   5.741
 7543SOL     OW23527   3.941   1.501   0.422
 7543SOL    HW123528   3.959   1.577   0.486
 7543SOL    HW223529   4.026   1.450   0.408
 7544SOL     OW23530   6.946   1.800   3.236
 7544SOL    HW123531   0.011   1.814   3.281
 7544SOL    HW223532   6.928   1.701   3.228
 7545SOL     OW23533   4.850   6.443   2.837
 7545SOL    HW123534   4.905   6.378   2.889
 7545SOL    HW223535   4.836   6.409   2.744
 7546SOL     OW23536   4.430   0.633   0.424
 7546SOL    HW123537   4.507   0.677   0.470
 7546SOL    HW223538   4.403   0.688   0.345
 7547SOL     OW23539   3.940   6.721   0.307
 7547SOL    HW123540   4.018   6.662   0.329
 7547SOL    HW223541   3.896   6.688   0.224
 7548SOL     OW23542   2.232   1.791   0.044
 7548SOL    HW123543   2.161   1.755   7.006
 7548SOL    HW223544   2.193   1.805   0.135
 7549SOL     OW23545   5.663   1.955   2.170
 7549SOL    HW123546   5.667   1.911   2.260
 7549SOL    HW223547   5.750   1.942   2.123
 7550SOL     OW23548   2.163   5.624   2.621
 7550SOL    HW123549   2.210   5.693   2.566
 7550SOL    HW223550   2.110   5.564   2.562
 7551SOL     OW23551   4.529   4.051   6.852
 7551SOL    HW123552   4.610   4.093   6.811
 7551SOL    HW223553   4.549   3.957   6.878
 7552SOL     OW23554   2.554   5.675   3.344
 7552SOL    HW123555   2.586   5.763   3.380
 7552SOL    HW223556   2.526   5.616   3.421
 7553SOL     OW23557   3.475   4.907   5.959
 7553SOL    HW123558   3.480   4.807   5.958
 7553SOL    HW223559   3.534   4.945   5.888
 7554SOL     OW23560   5.381   1.484   0.437
 7554SOL    HW123561   5.313   1.551   0.409
 7554SOL    HW223562   5.363   1.455   0.531
 7555SOL     OW23563   1.218   5.577   5.044
 7555SOL    HW123564   1.304   5.628   5.040
 7555SOL    HW223565   1.202   5.545   5.137
 7556SOL     OW23566   0.491   2.715   5.622
 7556SOL    HW123567   0.463   2.740   5.715
 7556SOL    HW223568   0.493   2.616   5.614
 7557SOL     OW23569   5.186   4.000   6.207
 7557SOL    HW123570   5.263   3.997   6.271
 7557SOL    HW223571   5.196   3.927   6.139
 7558SOL     OW23572   2.560   2.487   3.902
 7558SOL    HW123573   2.515   2.456   3.986
 7558SOL    HW223574   2.658   2.469   3.908
 7559SOL     OW23575   6.327   5.674   1.185
 7559SOL    HW123576   6.334   5.574   1.174
 7559SOL    HW223577   6.374   5.701   1.269
 7560SOL     OW23578   5.335   6.977   6.697
 7560SOL    HW123579   5.373   6.895   6.739
 7560SOL    HW223580   5.236   6.980   6.713
 7561SOL     OW23581   0.880   3.535   0.156
 7561SOL    HW123582   0.936   3.486   0.089
 7561SOL    HW223583   0.849   3.471   0.227
 7562SOL     OW23584   5.141   6.072   4.503
 7562SOL    HW123585   5.085   6.020   4.439
 7562SOL    HW223586   5.182   6.009   4.570
 7563SOL     OW23587   2.864   0.232   1.301
 7563SOL    HW123588   2.948   0.282   1.321
 7563SOL    HW223589   2.887   0.141   1.266
 7564SOL     OW23590   4.929   1.073   3.239
 7564SOL    HW123591   4.831   1.083   3.221
 7564SOL    HW223592   4.942   1.012   3.317
 7565SOL     OW23593   4.613   4.723   0.033
 7565SOL    HW123594   4.704   4.712   7.015
 7565SOL    HW223595   4.619   4.786   0.110
 7566SOL     OW23596   1.091   4.837   3.480
 7566SOL    HW123597   1.010   4.836   3.539
 7566SOL    HW223598   1.078   4.775   3.403
 7567SOL     OW23599   1.412   3.182   5.524
 7567SOL    HW123600   1.486   3.168   5.590
 7567SOL    HW223601   1.324   3.175   5.572
 7568SOL     OW23602   5.545   5.263   4.296
 7568SOL    HW123603   5.573   5.344   4.244
 7568SOL    HW223604   5.598   5.258   4.380
 7569SOL     OW23605   4.687   5.946   6.436
 7569SOL    HW123606   4.677   5.847   6.448
 7569SOL    HW223607   4.709   5.965   6.340
 7570SOL     OW23608   5.622   4.426   5.211
 7570SOL    HW123609   5.549   4.481   5.171
 7570SOL    HW223610   5.629   4.339   5.162
 7571SOL     OW23611   5.223   4.558   1.807
 7571SOL    HW123612   5.208   4.606   1.720
 7571SOL    HW223613   5.261   4.467   1.789
 7572SOL     OW23614   4.836   0.110   3.787
 7572SOL    HW123615   4.778   0.111   3.868
 7572SOL    HW223616   4.851   0.203   3.755
 7573SOL     OW23617   5.422   5.701   4.034
 7573SOL    HW123618   5.487   5.662   4.101
 7573SOL    HW223619   5.329   5.695   4.071
 7574SOL     OW23620   5.691   1.292   4.320
 7574SOL    HW123621   5.691   1.197   4.352
 7574SOL    HW223622   5.651   1.350   4.391
 7575SOL     OW23623   4.107   0.629   5.989
 7575SOL    HW123624   4.097   0.631   5.889
 7575SOL    HW223625   4.158   0.710   6.019
 7576SOL     OW23626   5.939   5.756   6.868
 7576SOL    HW123627   5.973   5.801   6.785
 7576SOL    HW223628   5.957   5.658   6.862
 7577SOL     OW23629   6.752   0.215   4.776
 7577SOL    HW123630   6.732   0.196   4.680
 7577SOL    HW223631   6.841   0.258   4.784
 7578SOL     OW23632   1.650   6.237   4.108
 7578SOL    HW123633   1.709   6.284   4.042
 7578SOL    HW223634   1.560   6.222   4.067
 7579SOL     OW23635   4.368   2.404   2.228
 7579SOL    HW123636   4.291   2.357   2.273
 7579SOL    HW223637   4.335   2.489   2.187
 7580SOL     OW23638   1.374   3.769   3.965
 7580SOL    HW123639   1.449   3.806   4.020
 7580SOL    HW223640   1.376   3.669   3.968
 7581SOL     OW23641   4.636   1.479   0.729
 7581SOL    HW123642   4.575   1.432   0.793
 7581SOL    HW223643   4.722   1.501   0.775
 7582SOL     OW23644   3.667   1.550   0.385
 7582SOL    HW123645   3.766   1.550   0.401
 7582SOL    HW223646   3.648   1.523   0.291
 7583SOL     OW23647   6.282   3.778   1.900
 7583SOL    HW123648   6.357   3.815   1.955
 7583SOL    HW223649   6.316   3.751   1.810
 7584SOL     OW23650   2.498   6.826   1.429
 7584SOL    HW123651   2.426   6.807   1.495
 7584SOL    HW223652   2.462   6.882   1.355
 7585SOL     OW23653   1.535   3.480   5.759
 7585SOL    HW123654   1.573   3.569   5.736
 7585SOL    HW223655   1.474   3.450   5.685
 7586SOL     OW23656   2.856   0.662   2.815
 7586SOL    HW123657   2.843   0.574   2.770
 7586SOL    HW223658   2.861   0.648   2.914
 7587SOL     OW23659   2.579   1.313   6.512
 7587SOL    HW123660   2.674   1.345   6.513
 7587SOL    HW223661   2.518   1.388   6.537
 7588SOL     OW23662   0.697   3.945   1.646
 7588SOL    HW123663   0.754   3.961   1.565
 7588SOL    HW223664   0.745   3.979   1.727
 7589SOL     OW23665   5.949   5.967   0.789
 7589SOL    HW123666   5.856   6.001   0.776
 7589SOL    HW223667   5.972   5.904   0.714
 7590SOL     OW23668   3.211   1.688   6.042
 7590SOL    HW123669   3.174   1.717   6.130
 7590SOL    HW223670   3.253   1.767   5.996
 7591SOL     OW23671   0.146   5.609   0.432
 7591SOL    HW123672   0.174   5.661   0.513
 7591SOL    HW223673   0.216   5.619   0.361
 7592SOL     OW23674   6.607   4.486   6.695
 7592SOL    HW123675   6.523   4.450   6.736
 7592SOL    HW223676   6.686   4.443   6.739
 7593SOL     OW23677   5.956   2.631   6.752
 7593SOL    HW123678   5.873   2.576   6.738
 7593SOL    HW223679   5.959   2.705   6.686
 7594SOL     OW23680   0.619   4.717   2.032
 7594SOL    HW123681   0.644   4.751   2.122
 7594SOL    HW223682   0.577   4.791   1.979
 7595SOL     OW23683   0.430   2.568   6.417
 7595SOL    HW123684   0.463   2.485   6.373
 7595SOL    HW223685   0.434   2.644   6.353
 7596SOL     OW23686   5.137   5.453   2.202
 7596SOL    HW123687   5.163   5.451   2.299
 7596SOL    HW223688   5.174   5.536   2.160
 7597SOL     OW23689   2.767   5.777   1.782
 7597SOL    HW123690   2.841   5.808   1.723
 7597SOL    HW223691   2.785   5.804   1.877
 7598SOL     OW23692   6.207   0.816   3.028
 7598SOL    HW123693   6.257   0.843   3.110
 7598SOL    HW223694   6.120   0.773   3.055
 7599SOL     OW23695   5.295   1.163   3.409
 7599SOL    HW123696   5.230   1.224   3.454
 7599SOL    HW223697   5.277   1.161   3.311
 7600SOL     OW23698   1.884   0.872   2.264
 7600SOL    HW123699   1.919   0.848   2.174
 7600SOL    HW223700   1.802   0.929   2.254
 7601SOL     OW23701   2.174   5.442   3.357
 7601SOL    HW123702   2.117   5.367   3.323
 7601SOL    HW223703   2.209   5.496   3.280
 7602SOL     OW23704   1.693   3.952   5.046
 7602SOL    HW123705   1.668   3.919   4.955
 7602SOL    HW223706   1.790   3.977   5.048
 7603SOL     OW23707   1.241   6.081   6.577
 7603SOL    HW123708   1.331   6.090   6.533
 7603SOL    HW223709   1.173   6.056   6.509
 7604SOL     OW23710   2.620   5.854   4.022
 7604SOL    HW123711   2.706   5.873   3.976
 7604SOL    HW223712   2.545   5.896   3.971
 7605SOL     OW23713   1.848   5.984   0.317
 7605SOL    HW123714   1.765   5.996   0.263
 7605SOL    HW223715   1.893   6.073   0.329
 7606SOL     OW23716   0.158   2.491   2.417
 7606SOL    HW123717   0.191   2.400   2.390
 7606SOL    HW223718   0.148   2.548   2.335
 7607SOL     OW23719   4.285   6.735   6.799
 7607SOL    HW123720   4.286   6.832   6.774
 7607SOL    HW223721   4.355   6.686   6.748
 7608SOL     OW23722   3.282   3.711   3.663
 7608SOL    HW123723   3.294   3.670   3.573
 7608SOL    HW223724   3.184   3.719   3.683
 7609SOL     OW23725   6.596   3.480   3.111
 7609SOL    HW123726   6.603   3.497   3.012
 7609SOL    HW223727   6.675   3.427   3.141
 7610SOL     OW23728   6.153   1.040   0.340
 7610SOL    HW123729   6.072   1.097   0.354
 7610SOL    HW223730   6.211   1.044   0.422
 7611SOL     OW23731   0.755   1.814   0.033
 7611SOL    HW123732   0.725   1.897   7.009
 7611SOL    HW223733   0.678   1.778   0.087
 7612SOL     OW23734   4.043   2.100   4.222
 7612SOL    HW123735   4.000   2.122   4.310
 7612SOL    HW223736   4.045   2.001   4.210
 7613SOL     OW23737   4.878   2.189   1.694
 7613SOL    HW123738   4.978   2.180   1.700
 7613SOL    HW223739   4.850   2.180   1.598
 7614SOL     OW23740   4.169   2.672   1.674
 7614SOL    HW123741   4.159   2.719   1.586
 7614SOL    HW223742   4.266   2.665   1.697
 7615SOL     OW23743   5.088   4.612   6.275
 7615SOL    HW123744   5.151   4.655   6.339
 7615SOL    HW223745   5.118   4.632   6.181
 7616SOL     OW23746   0.548   4.371   4.368
 7616SOL    HW123747   0.624   4.307   4.356
 7616SOL    HW223748   0.486   4.364   4.290
 7617SOL     OW23749   2.951   5.914   2.848
 7617SOL    HW123750   2.920   5.852   2.920
 7617SOL    HW223751   3.019   5.868   2.792
 7618SOL     OW23752   1.050   1.735   6.752
 7618SOL    HW123753   1.036   1.785   6.838
 7618SOL    HW223754   1.003   1.784   6.678
 7619SOL     OW23755   5.880   3.115   5.369
 7619SOL    HW123756   5.824   3.098   5.451
 7619SOL    HW223757   5.881   3.032   5.313
 7620SOL     OW23758   3.484   6.133   0.615
 7620SOL    HW123759   3.573   6.111   0.654
 7620SOL    HW223760   3.415   6.072   0.652
 7621SOL     OW23761   0.608   1.069   0.544
 7621SOL    HW123762   0.640   1.061   0.449
 7621SOL    HW223763   0.619   1.163   0.575
 7622SOL     OW23764   5.592   3.667   1.963
 7622SOL    HW123765   5.598   3.661   1.864
 7622SOL    HW223766   5.644   3.747   1.995
 7623SOL     OW23767   4.384   4.764   6.497
 7623SOL    HW123768   4.349   4.693   6.557
 7623SOL    HW223769   4.480   4.782   6.519
 7624SOL     OW23770   0.397   2.452   4.135
 7624SOL    HW123771   0.389   2.503   4.221
 7624SOL    HW223772   0.417   2.356   4.155
 7625SOL     OW23773   4.538   0.379   0.840
 7625SOL    HW123774   4.494   0.389   0.751
 7625SOL    HW223775   4.477   0.412   0.912
 7626SOL     OW23776   6.951   6.420   5.334
 7626SOL    HW123777   7.005   6.378   5.261
 7626SOL    HW223778   6.973   6.376   5.421
 7627SOL     OW23779   6.568   3.332   0.084
 7627SOL    HW123780   6.534   3.411   0.034
 7627SOL    HW223781   6.559   3.250   0.027
 7628SOL     OW23782   3.340   0.666   1.058
 7628SOL    HW123783   3.343   0.763   1.033
 7628SOL    HW223784   3.431   0.637   1.088
 7629SOL     OW23785   6.724   6.344   2.756
 7629SOL    HW123786   6.626   6.360   2.744
 7629SOL    HW223787   6.749   6.364   2.851
 7630SOL     OW23788   6.360   6.104   2.156
 7630SOL    HW123789   6.456   6.130   2.154
 7630SOL    HW223790   6.337   6.067   2.246
 7631SOL     OW23791   0.869   1.516   5.727
 7631SOL    HW123792   0.875   1.520   5.627
 7631SOL    HW223793   0.786   1.465   5.752
 7632SOL     OW23794   4.062   2.001   1.182
 7632SOL    HW123795   4.146   1.959   1.147
 7632SOL    HW223796   4.071   2.017   1.280
 7633SOL     OW23797   5.139   2.330   0.420
 7633SOL    HW123798   5.222   2.275   0.422
 7633SOL    HW223799   5.087   2.310   0.338
 7634SOL     OW23800   1.343   1.465   2.426
 7634SOL    HW123801   1.365   1.391   2.363
 7634SOL    HW223802   1.245   1.486   2.421
 7635SOL     OW23803   2.584   5.159   5.497
 7635SOL    HW123804   2.556   5.112   5.581
 7635SOL    HW223805   2.600   5.256   5.517
 7636SOL     OW23806   1.008   1.698   3.593
 7636SOL    HW123807   0.999   1.797   3.582
 7636SOL    HW223808   1.079   1.678   3.661
 7637SOL     OW23809   1.847   6.629   2.464
 7637SOL    HW123810   1.824   6.676   2.379
 7637SOL    HW223811   1.875   6.696   2.533
 7638SOL     OW23812   4.945   5.824   2.222
 7638SOL    HW123813   4.971   5.918   2.200
 7638SOL    HW223814   5.000   5.791   2.298
 7639SOL     OW23815   1.131   2.334   0.228
 7639SOL    HW123816   1.191   2.376   0.296
 7639SOL    HW223817   1.181   2.321   0.143
 7640SOL     OW23818   2.869   2.169   6.949
 7640SOL    HW123819   2.884   2.206   0.017
 7640SOL    HW223820   2.947   2.110   6.924
 7641SOL     OW23821   0.881   4.211   1.653
 7641SOL    HW123822   0.858   4.179   1.745
 7641SOL    HW223823   0.832   4.296   1.634
 7642SOL     OW23824   2.637   1.578   3.080
 7642SOL    HW123825   2.624   1.480   3.097
 7642SOL    HW223826   2.550   1.625   3.093
 7643SOL     OW23827   4.526   2.057   4.143
 7643SOL    HW123828   4.576   2.124   4.198
 7643SOL    HW223829   4.466   2.104   4.079
 7644SOL     OW23830   6.236   1.890   2.754
 7644SOL    HW123831   6.169   1.829   2.712
 7644SOL    HW223832   6.298   1.926   2.684
 7645SOL     OW23833   4.531   4.651   6.059
 7645SOL    HW123834   4.556   4.662   5.963
 7645SOL    HW223835   4.443   4.603   6.066
 7646SOL     OW23836   1.775   2.533   2.707
 7646SOL    HW123837   1.850   2.594   2.686
 7646SOL    HW223838   1.747   2.484   2.624
 7647SOL     OW23839   1.365   2.910   1.173
 7647SOL    HW123840   1.376   3.009   1.172
 7647SOL    HW223841   1.423   2.871   1.243
 7648SOL     OW23842   4.158   2.323   3.709
 7648SOL    HW123843   4.115   2.288   3.793
 7648SOL    HW223844   4.106   2.291   3.630
 7649SOL     OW23845   1.142   1.012   2.826
 7649SOL    HW123846   1.071   0.951   2.861
 7649SOL    HW223847   1.195   0.964   2.756
 7650SOL     OW23848   6.317   3.233   1.421
 7650SOL    HW123849   6.388   3.254   1.353
 7650SOL    HW223850   6.235   3.200   1.375
 7651SOL     OW23851   2.558   0.337   5.554
 7651SOL    HW123852   2.601   0.311   5.640
 7651SOL    HW223853   2.460   0.318   5.558
 7652SOL     OW23854   6.837   3.658   4.426
 7652SOL    HW123855   6.867   3.577   4.476
 7652SOL    HW223856   6.849   3.643   4.328
 7653SOL     OW23857   2.087   1.846   0.561
 7653SOL    HW123858   1.992   1.870   0.579
 7653SOL    HW223859   2.107   1.757   0.601
 7654SOL     OW23860   5.184   2.963   3.137
 7654SOL    HW123861   5.271   2.994   3.098
 7654SOL    HW223862   5.196   2.872   3.177
 7655SOL     OW23863   3.658   0.649   3.679
 7655SOL    HW123864   3.736   0.685   3.730
 7655SOL    HW223865   3.633   0.712   3.605
 7656SOL     OW23866   0.911   5.702   5.911
 7656SOL    HW123867   0.916   5.606   5.882
 7656SOL    HW223868   0.881   5.758   5.834
 7657SOL     OW23869   2.588   2.496   2.812
 7657SOL    HW123870   2.565   2.545   2.896
 7657SOL    HW223871   2.677   2.452   2.824
 7658SOL     OW23872   4.758   6.627   5.772
 7658SOL    HW123873   4.720   6.718   5.754
 7658SOL    HW223874   4.855   6.626   5.747
 7659SOL     OW23875   5.594   6.515   6.270
 7659SOL    HW123876   5.533   6.575   6.219
 7659SOL    HW223877   5.672   6.490   6.213
 7660SOL     OW23878   6.355   5.565   4.556
 7660SOL    HW123879   6.282   5.520   4.505
 7660SOL    HW223880   6.380   5.651   4.510
 7661SOL     OW23881   6.291   1.739   4.509
 7661SOL    HW123882   6.192   1.734   4.503
 7661SOL    HW223883   6.329   1.647   4.500
 7662SOL     OW23884   1.064   2.289   1.977
 7662SOL    HW123885   1.019   2.352   1.913
 7662SOL    HW223886   1.086   2.338   2.061
 7663SOL     OW23887   6.176   6.704   5.977
 7663SOL    HW123888   6.190   6.747   6.066
 7663SOL    HW223889   6.172   6.774   5.906
 7664SOL     OW23890   3.347   0.174   2.411
 7664SOL    HW123891   3.326   0.140   2.319
 7664SOL    HW223892   3.293   0.257   2.428
 7665SOL     OW23893   4.061   0.313   3.709
 7665SOL    HW123894   4.132   0.283   3.772
 7665SOL    HW223895   4.011   0.390   3.748
 7666SOL     OW23896   6.613   0.143   1.186
 7666SOL    HW123897   6.700   0.193   1.184
 7666SOL    HW223898   6.550   0.182   1.119
 7667SOL     OW23899   5.329   5.859   1.130
 7667SOL    HW123900   5.233   5.852   1.105
 7667SOL    HW223901   5.337   5.865   1.229
 7668SOL     OW23902   3.072   4.478   0.944
 7668SOL    HW123903   3.156   4.424   0.947
 7668SOL    HW223904   3.075   4.547   1.016
 7669SOL     OW23905   5.519   1.576   4.927
 7669SOL    HW123906   5.428   1.579   4.970
 7669SOL    HW223907   5.587   1.551   4.995
 7670SOL     OW23908   1.492   5.740   6.400
 7670SOL    HW123909   1.437   5.723   6.318
 7670SOL    HW223910   1.506   5.654   6.449
 7671SOL     OW23911   4.104   1.236   4.946
 7671SOL    HW123912   4.175   1.266   4.882
 7671SOL    HW223913   4.014   1.255   4.907
 7672SOL     OW23914   5.538   6.017   4.137
 7672SOL    HW123915   5.588   5.968   4.066
 7672SOL    HW223916   5.464   5.960   4.172
 7673SOL     OW23917   2.492   4.861   0.312
 7673SOL    HW123918   2.585   4.887   0.286
 7673SOL    HW223919   2.427   4.923   0.267
 7674SOL     OW23920   6.503   2.150   4.532
 7674SOL    HW123921   6.408   2.177   4.517
 7674SOL    HW223922   6.513   2.052   4.513
 7675SOL     OW23923   5.170   0.625   2.738
 7675SOL    HW123924   5.170   0.525   2.741
 7675SOL    HW223925   5.144   0.662   2.827
 7676SOL     OW23926   0.821   1.740   0.322
 7676SOL    HW123927   0.808   1.837   0.345
 7676SOL    HW223928   0.918   1.720   0.315
 7677SOL     OW23929   1.155   4.137   1.658
 7677SOL    HW123930   1.061   4.167   1.640
 7677SOL    HW223931   1.157   4.084   1.742
 7678SOL     OW23932   1.275   1.097   5.857
 7678SOL    HW123933   1.259   1.066   5.951
 7678SOL    HW223934   1.289   1.196   5.856
 7679SOL     OW23935   1.075   6.435   5.055
 7679SOL    HW123936   0.994   6.480   5.016
 7679SOL    HW223937   1.156   6.460   5.002
 7680SOL     OW23938   1.969   2.770   0.229
 7680SOL    HW123939   2.043   2.827   0.193
 7680SOL    HW223940   2.001   2.676   0.239
 7681SOL     OW23941   3.128   0.370   0.362
 7681SOL    HW123942   3.077   0.298   0.408
 7681SOL    HW223943   3.155   0.440   0.428
 7682SOL     OW23944   2.576   0.275   1.901
 7682SOL    HW123945   2.671   0.301   1.880
 7682SOL    HW223946   2.514   0.346   1.867
 7683SOL     OW23947   6.709   2.165   4.356
 7683SOL    HW123948   6.675   2.151   4.263
 7683SOL    HW223949   6.632   2.183   4.417
 7684SOL     OW23950   5.750   2.084   0.146
 7684SOL    HW123951   5.800   2.088   0.060
 7684SOL    HW223952   5.721   2.176   0.173
 7685SOL     OW23953   3.410   3.232   0.262
 7685SOL    HW123954   3.453   3.165   0.202
 7685SOL    HW223955   3.319   3.254   0.227
 7686SOL     OW23956   4.708   0.455   3.489
 7686SOL    HW123957   4.743   0.514   3.416
 7686SOL    HW223958   4.641   0.505   3.544
 7687SOL     OW23959   6.252   5.572   5.023
 7687SOL    HW123960   6.179   5.505   5.006
 7687SOL    HW223961   6.220   5.640   5.089
 7688SOL     OW23962   0.607   0.844   6.804
 7688SOL    HW123963   0.595   0.839   6.705
 7688SOL    HW223964   0.520   0.825   6.849
 7689SOL     OW23965   4.862   5.946   3.763
 7689SOL    HW123966   4.891   6.015   3.830
 7689SOL    HW223967   4.940   5.886   3.741
 7690SOL     OW23968   6.257   5.122   1.593
 7690SOL    HW123969   6.349   5.098   1.561
 7690SOL    HW223970   6.216   5.189   1.532
 7691SOL     OW23971   4.625   2.722   4.333
 7691SOL    HW123972   4.602   2.776   4.252
 7691SOL    HW223973   4.724   2.725   4.347
 7692SOL     OW23974   0.763   7.015   1.063
 7692SOL    HW123975   0.803   0.071   1.018
 7692SOL    HW223976   0.803   6.931   1.026
 7693SOL     OW23977   4.427   0.020   0.697
 7693SOL    HW123978   4.483   0.047   0.775
 7693SOL    HW223979   4.342   7.002   0.730
 7694SOL     OW23980   0.303   4.019   4.339
 7694SOL    HW123981   0.401   4.033   4.358
 7694SOL    HW223982   0.252   4.023   4.425
 7695SOL     OW23983   3.777   0.050   0.991
 7695SOL    HW123984   3.724   0.113   1.048
 7695SOL    HW223985   3.719   6.997   0.962
 7696SOL     OW23986   6.926   2.106   4.514
 7696SOL    HW123987   6.842   2.115   4.460
 7696SOL    HW223988   6.973   2.022   4.490
 7697SOL     OW23989   2.616   0.767   2.732
 7697SOL    HW123990   2.550   0.697   2.758
 7697SOL    HW223991   2.707   0.742   2.766
 7698SOL     OW23992   0.347   2.985   4.454
 7698SOL    HW123993   0.373   2.989   4.551
 7698SOL    HW223994   0.248   2.975   4.448
 7699SOL     OW23995   3.368   5.396   6.631
 7699SOL    HW123996   3.393   5.342   6.551
 7699SOL    HW223997   3.420   5.362   6.710
 7700SOL     OW23998   5.360   6.792   5.183
 7700SOL    HW123999   5.346   6.881   5.141
 7700SOL    HW224000   5.359   6.801   5.282
 7701SOL     OW24001   6.012   1.766   6.576
 7701SOL    HW124002   5.927   1.809   6.605
 7701SOL    HW224003   6.060   1.729   6.655
 7702SOL     OW24004   3.265   5.912   5.495
 7702SOL    HW124005   3.240   5.861   5.577
 7702SOL    HW224006   3.185   5.920   5.435
 7703SOL     OW24007   6.742   1.314   4.704
 7703SOL    HW124008   6.757   1.242   4.772
 7703SOL    HW224009   6.826   1.368   4.693
 7704SOL     OW24010   4.676   4.864   5.450
 7704SOL    HW124011   4.704   4.919   5.371
 7704SOL    HW224012   4.577   4.846   5.443
 7705SOL     OW24013   3.574   4.626   6.023
 7705SOL    HW124014   3.559   4.555   5.954
 7705SOL    HW224015   3.653   4.681   5.997
 7706SOL     OW24016   4.885   1.605   5.749
 7706SOL    HW124017   4.985   1.600   5.743
 7706SOL    HW224018   4.850   1.523   5.794
 7707SOL     OW24019   0.769   5.661   6.685
 7707SOL    HW124020   0.731   5.743   6.727
 7707SOL    HW224021   0.846   5.628   6.739
 7708SOL     OW24022   4.983   6.142   5.256
 7708SOL    HW124023   4.943   6.228   5.287
 7708SOL    HW224024   5.015   6.152   5.162
 7709SOL     OW24025   5.467   3.546   2.168
 7709SOL    HW124026   5.368   3.554   2.157
 7709SOL    HW224027   5.513   3.604   2.100
 7710SOL     OW24028   2.326   0.731   0.813
 7710SOL    HW124029   2.358   0.790   0.740
 7710SOL    HW224030   2.275   0.785   0.880
 7711SOL     OW24031   6.374   6.226   4.989
 7711SOL    HW124032   6.394   6.307   5.044
 7711SOL    HW224033   6.281   6.233   4.952
 7712SOL     OW24034   6.588   4.904   0.890
 7712SOL    HW124035   6.630   4.976   0.945
 7712SOL    HW224036   6.567   4.941   0.799
 7713SOL     OW24037   1.946   4.429   0.692
 7713SOL    HW124038   1.952   4.525   0.717
 7713SOL    HW224039   2.036   4.386   0.702
 7714SOL     OW24040   6.918   5.452   5.407
 7714SOL    HW124041   6.929   5.460   5.506
 7714SOL    HW224042   6.861   5.372   5.387
 7715SOL     OW24043   5.141   1.277   1.390
 7715SOL    HW124044   5.238   1.274   1.413
 7715SOL    HW224045   5.094   1.338   1.455
 7716SOL     OW24046   5.474   3.039   3.667
 7716SOL    HW124047   5.376   3.053   3.653
 7716SOL    HW224048   5.524   3.074   3.589
 7717SOL     OW24049   2.820   1.272   4.828
 7717SOL    HW124050   2.857   1.318   4.748
 7717SOL    HW224051   2.867   1.305   4.910
 7718SOL     OW24052   1.871   2.481   2.983
 7718SOL    HW124053   1.858   2.571   3.024
 7718SOL    HW224054   1.821   2.476   2.896
 7719SOL     OW24055   0.072   3.343   3.721
 7719SOL    HW124056   7.015   3.284   3.708
 7719SOL    HW224057   0.112   3.326   3.811
 7720SOL     OW24058   0.119   6.825   0.591
 7720SOL    HW124059   0.049   6.776   0.644
 7720SOL    HW224060   0.209   6.784   0.608
 7721SOL     OW24061   1.521   4.217   3.473
 7721SOL    HW124062   1.524   4.165   3.558
 7721SOL    HW224063   1.572   4.302   3.484
 7722SOL     OW24064   0.428   5.235   2.772
 7722SOL    HW124065   0.370   5.165   2.814
 7722SOL    HW224066   0.439   5.312   2.836
 7723SOL     OW24067   6.393   4.388   0.471
 7723SOL    HW124068   6.394   4.297   0.429
 7723SOL    HW224069   6.477   4.437   0.446
 7724SOL     OW24070   2.552   4.537   2.145
 7724SOL    HW124071   2.638   4.557   2.099
 7724SOL    HW224072   2.532   4.440   2.138
 7725SOL     OW24073   5.131   2.707   3.298
 7725SOL    HW124074   5.222   2.665   3.292
 7725SOL    HW224075   5.062   2.637   3.279
 7726SOL     OW24076   6.768   5.114   3.922
 7726SOL    HW124077   6.718   5.069   3.995
 7726SOL    HW224078   6.761   5.060   3.838
 7727SOL     OW24079   6.034   1.902   3.428
 7727SOL    HW124080   6.093   1.933   3.354
 7727SOL    HW224081   6.063   1.943   3.514
 7728SOL     OW24082   0.973   3.992   3.846
 7728SOL    HW124083   1.070   3.985   3.826
 7728SOL    HW224084   0.935   4.072   3.800
 7729SOL     OW24085   6.022   2.429   1.993
 7729SOL    HW124086   6.003   2.381   1.908
 7729SOL    HW224087   6.010   2.528   1.979
 7730SOL     OW24088   5.906   5.613   2.359
 7730SOL    HW124089   5.934   5.535   2.414
 7730SOL    HW224090   5.845   5.582   2.286
 7731SOL     OW24091   5.999   1.151   1.032
 7731SOL    HW124092   5.995   1.220   1.105
 7731SOL    HW224093   5.907   1.124   1.006
 7732SOL     OW24094   4.617   6.076   0.380
 7732SOL    HW124095   4.680   6.027   0.440
 7732SOL    HW224096   4.544   6.117   0.434
 7733SOL     OW24097   4.364   6.328   1.831
 7733SOL    HW124098   4.422   6.393   1.782
 7733SOL    HW224099   4.277   6.373   1.855
 7734SOL     OW24100   1.581   3.778   3.713
 7734SOL    HW124101   1.614   3.871   3.696
 7734SOL    HW224102   1.484   3.782   3.737
 7735SOL     OW24103   3.838   4.867   6.470
 7735SOL    HW124104   3.770   4.858   6.543
 7735SOL    HW224105   3.837   4.960   6.433
 7736SOL     OW24106   5.246   4.360   0.079
 7736SOL    HW124107   5.290   4.298   0.145
 7736SOL    HW224108   5.158   4.389   0.115
 7737SOL     OW24109   4.405   1.052   0.932
 7737SOL    HW124110   4.503   1.068   0.916
 7737SOL    HW224111   4.387   1.053   1.030
 7738SOL     OW24112   2.182   5.675   6.716
 7738SOL    HW124113   2.254   5.666   6.785
 7738SOL    HW224114   2.141   5.766   6.722
 7739SOL     OW24115   6.918   1.379   1.713
 7739SOL    HW124116   6.846   1.431   1.760
 7739SOL    HW224117   6.899   1.377   1.615
 7740SOL     OW24118   0.494   0.713   2.635
 7740SOL    HW124119   0.456   0.660   2.560
 7740SOL    HW224120   0.572   0.664   2.674
 7741SOL     OW24121   1.246   6.045   4.414
 7741SOL    HW124122   1.204   5.971   4.466
 7741SOL    HW224123   1.316   6.089   4.470
 7742SOL     OW24124   6.331   1.771   3.670
 7742SOL    HW124125   6.279   1.686   3.676
 7742SOL    HW224126   6.269   1.847   3.648
 7743SOL     OW24127   4.131   2.776   6.535
 7743SOL    HW124128   4.180   2.725   6.464
 7743SOL    HW224129   4.125   2.722   6.618
 7744SOL     OW24130   0.570   5.979   4.329
 7744SOL    HW124131   0.618   5.946   4.248
 7744SOL    HW224132   0.554   6.078   4.320
 7745SOL     OW24133   3.421   2.210   5.414
 7745SOL    HW124134   3.418   2.110   5.413
 7745SOL    HW224135   3.329   2.246   5.421
 7746SOL     OW24136   2.632   6.976   6.830
 7746SOL    HW124137   2.681   6.913   6.769
 7746SOL    HW224138   2.589   0.024   6.775
 7747SOL     OW24139   4.532   6.046   1.166
 7747SOL    HW124140   4.536   5.976   1.094
 7747SOL    HW224141   4.533   6.137   1.124
 7748SOL     OW24142   2.894   3.923   5.694
 7748SOL    HW124143   2.882   3.938   5.596
 7748SOL    HW224144   2.978   3.871   5.710
 7749SOL     OW24145   4.378   3.641   6.104
 7749SOL    HW124146   4.436   3.593   6.170
 7749SOL    HW224147   4.286   3.601   6.106
 7750SOL     OW24148   0.587   6.063   1.328
 7750SOL    HW124149   0.589   6.083   1.426
 7750SOL    HW224150   0.504   6.102   1.288
 7751SOL     OW24151   1.057   1.585   2.107
 7751SOL    HW124152   1.126   1.557   2.041
 7751SOL    HW224153   1.035   1.681   2.094
 7752SOL     OW24154   5.136   0.489   5.023
 7752SOL    HW124155   5.162   0.563   4.961
 7752SOL    HW224156   5.133   0.525   5.117
 7753SOL     OW24157   1.862   1.521   4.722
 7753SOL    HW124158   1.891   1.426   4.730
 7753SOL    HW224159   1.898   1.559   4.637
 7754SOL     OW24160   3.672   6.021   1.398
 7754SOL    HW124161   3.735   5.943   1.394
 7754SOL    HW224162   3.697   6.088   1.329
 7755SOL     OW24163   1.400   3.336   5.959
 7755SOL    HW124164   1.443   3.388   5.885
 7755SOL    HW224165   1.325   3.389   5.998
 7756SOL     OW24166   2.754   6.816   1.506
 7756SOL    HW124167   2.659   6.814   1.477
 7756SOL    HW224168   2.812   6.852   1.432
 7757SOL     OW24169   6.739   4.664   1.065
 7757SOL    HW124170   6.727   4.584   1.006
 7757SOL    HW224171   6.702   4.745   1.019
 7758SOL     OW24172   1.547   0.276   6.197
 7758SOL    HW124173   1.582   0.182   6.200
 7758SOL    HW224174   1.624   0.339   6.186
 7759SOL     OW24175   3.033   1.957   5.803
 7759SOL    HW124176   2.988   1.955   5.892
 7759SOL    HW224177   2.981   2.015   5.740
 7760SOL     OW24178   5.152   2.153   2.419
 7760SOL    HW124179   5.121   2.061   2.395
 7760SOL    HW224180   5.238   2.146   2.470
 7761SOL     OW24181   5.504   5.778   4.925
 7761SOL    HW124182   5.510   5.686   4.887
 7761SOL    HW224183   5.436   5.780   4.998
 7762SOL     OW24184   1.002   0.653   4.183
 7762SOL    HW124185   1.035   0.739   4.145
 7762SOL    HW224186   0.947   0.605   4.115
 7763SOL     OW24187   2.008   0.211   5.336
 7763SOL    HW124188   2.079   0.155   5.295
 7763SOL    HW224189   2.044   0.255   5.418
 7764SOL     OW24190   3.432   3.929   5.496
 7764SOL    HW124191   3.390   3.972   5.416
 7764SOL    HW224192   3.402   3.977   5.579
 7765SOL     OW24193   6.507   3.853   4.062
 7765SOL    HW124194   6.453   3.771   4.081
 7765SOL    HW224195   6.566   3.837   3.983
 7766SOL     OW24196   0.617   4.406   0.390
 7766SOL    HW124197   0.595   4.475   0.321
 7766SOL    HW224198   0.570   4.428   0.476
 7767SOL     OW24199   3.820   6.716   2.524
 7767SOL    HW124200   3.796   6.812   2.537
 7767SOL    HW224201   3.889   6.707   2.452
 7768SOL     OW24202   4.779   4.428   3.236
 7768SOL    HW124203   4.766   4.391   3.144
 7768SOL    HW224204   4.706   4.396   3.296
 7769SOL     OW24205   4.006   2.278   5.263
 7769SOL    HW124206   4.063   2.354   5.230
 7769SOL    HW224207   3.917   2.313   5.292
 7770SOL     OW24208   0.466   3.540   4.929
 7770SOL    HW124209   0.482   3.570   5.023
 7770SOL    HW224210   0.522   3.594   4.866
 7771SOL     OW24211   2.675   2.265   6.154
 7771SOL    HW124212   2.686   2.364   6.150
 7771SOL    HW224213   2.581   2.243   6.183
 7772SOL     OW24214   5.148   0.662   1.086
 7772SOL    HW124215   5.191   0.753   1.087
 7772SOL    HW224216   5.110   0.644   0.996
 7773SOL     OW24217   2.677   5.965   0.423
 7773SOL    HW124218   2.685   6.064   0.410
 7773SOL    HW224219   2.735   5.918   0.357
 7774SOL     OW24220   4.842   2.312   4.014
 7774SOL    HW124221   4.884   2.262   4.090
 7774SOL    HW224222   4.759   2.359   4.047
 7775SOL     OW24223   3.680   0.397   6.782
 7775SOL    HW124224   3.608   0.467   6.787
 7775SOL    HW224225   3.762   0.431   6.827
 7776SOL     OW24226   0.575   6.793   5.944
 7776SOL    HW124227   0.478   6.773   5.950
 7776SOL    HW224228   0.624   6.713   5.908
 7777SOL     OW24229   5.724   5.223   4.499
 7777SOL    HW124230   5.820   5.196   4.488
 7777SOL    HW224231   5.676   5.153   4.551
 7778SOL     OW24232   6.075   3.887   2.927
 7778SOL    HW124233   5.979   3.894   2.903
 7778SOL    HW224234   6.083   3.872   3.026
 7779SOL     OW24235   3.414   6.768   2.329
 7779SOL    HW124236   3.416   6.819   2.243
 7779SOL    HW224237   3.410   6.833   2.406
 7780SOL     OW24238   0.241   6.044   6.345
 7780SOL    HW124239   0.214   5.984   6.269
 7780SOL    HW224240   0.297   5.993   6.410
 7781SOL     OW24241   1.823   3.818   0.400
 7781SOL    HW124242   1.893   3.835   0.470
 7781SOL    HW224243   1.810   3.720   0.388
 7782SOL     OW24244   6.166   4.931   3.321
 7782SOL    HW124245   6.244   4.942   3.383
 7782SOL    HW224246   6.120   5.019   3.311
 7783SOL     OW24247   0.727   0.066   5.685
 7783SOL    HW124248   0.682   0.132   5.624
 7783SOL    HW224249   0.791   0.010   5.633
 7784SOL     OW24250   2.480   2.365   1.755
 7784SOL    HW124251   2.569   2.390   1.795
 7784SOL    HW224252   2.429   2.448   1.733
 7785SOL     OW24253   1.264   6.239   3.011
 7785SOL    HW124254   1.268   6.244   3.111
 7785SOL    HW224255   1.217   6.154   2.984
 7786SOL     OW24256   4.438   0.848   6.533
 7786SOL    HW124257   4.397   0.783   6.597
 7786SOL    HW224258   4.373   0.870   6.461
 7787SOL     OW24259   2.408   3.590   0.913
 7787SOL    HW124260   2.318   3.620   0.945
 7787SOL    HW224261   2.463   3.561   0.992
 7788SOL     OW24262   1.547   5.865   1.884
 7788SOL    HW124263   1.641   5.850   1.852
 7788SOL    HW224264   1.484   5.858   1.807
 7789SOL     OW24265   3.453   6.609   6.098
 7789SOL    HW124266   3.413   6.643   6.183
 7789SOL    HW224267   3.506   6.682   6.055
 7790SOL     OW24268   6.463   5.102   2.509
 7790SOL    HW124269   6.469   5.003   2.505
 7790SOL    HW224270   6.437   5.130   2.602
 7791SOL     OW24271   1.980   6.027   1.555
 7791SOL    HW124272   1.997   6.117   1.596
 7791SOL    HW224273   2.012   6.028   1.460
 7792SOL     OW24274   0.543   1.317   2.923
 7792SOL    HW124275   0.605   1.396   2.924
 7792SOL    HW224276   0.542   1.274   3.012
 7793SOL     OW24277   4.085   2.015   6.900
 7793SOL    HW124278   4.001   2.066   6.921
 7793SOL    HW224279   4.104   1.952   6.975
 7794SOL     OW24280   0.817   5.581   2.645
 7794SOL    HW124281   0.803   5.484   2.629
 7794SOL    HW224282   0.795   5.633   2.563
 7795SOL     OW24283   3.240   5.198   5.591
 7795SOL    HW124284   3.300   5.246   5.527
 7795SOL    HW224285   3.144   5.214   5.565
 7796SOL     OW24286   3.602   3.211   5.481
 7796SOL    HW124287   3.579   3.204   5.578
 7796SOL    HW224288   3.641   3.124   5.449
 7797SOL     OW24289   1.124   5.087   2.194
 7797SOL    HW124290   1.030   5.117   2.209
 7797SOL    HW224291   1.129   5.034   2.109
 7798SOL     OW24292   0.635   1.638   1.809
 7798SOL    HW124293   0.662   1.567   1.745
 7798SOL    HW224294   0.640   1.727   1.764
 7799SOL     OW24295   2.809   6.057   2.659
 7799SOL    HW124296   2.868   6.048   2.739
 7799SOL    HW224297   2.818   5.975   2.602
 7800SOL     OW24298   1.076   5.790   0.969
 7800SOL    HW124299   0.981   5.774   0.995
 7800SOL    HW224300   1.081   5.869   0.908
 7801SOL     OW24301   1.704   2.181   2.863
 7801SOL    HW124302   1.796   2.197   2.897
 7801SOL    HW224303   1.638   2.193   2.938
 7802SOL     OW24304   0.010   4.629   5.985
 7802SOL    HW124305   6.957   4.606   6.045
 7802SOL    HW224306   0.092   4.645   6.041
 7803SOL     OW24307   5.367   2.590   6.417
 7803SOL    HW124308   5.357   2.679   6.372
 7803SOL    HW224309   5.416   2.602   6.504
 7804SOL     OW24310   2.583   1.919   3.995
 7804SOL    HW124311   2.526   1.865   4.056
 7804SOL    HW224312   2.527   1.955   3.920
 7805SOL     OW24313   5.118   2.820   2.020
 7805SOL    HW124314   5.172   2.802   2.103
 7805SOL    HW224315   5.174   2.799   1.940
 7806SOL     OW24316   6.457   2.609   5.557
 7806SOL    HW124317   6.538   2.587   5.611
 7806SOL    HW224318   6.445   2.541   5.485
 7807SOL     OW24319   2.236   4.961   6.246
 7807SOL    HW124320   2.330   4.970   6.214
 7807SOL    HW224321   2.182   4.910   6.178
 7808SOL     OW24322   4.658   4.346   2.714
 7808SOL    HW124323   4.669   4.443   2.691
 7808SOL    HW224324   4.748   4.303   2.715
 7809SOL     OW24325   4.977   4.883   4.344
 7809SOL    HW124326   5.011   4.796   4.381
 7809SOL    HW224327   4.931   4.866   4.257
 7810SOL     OW24328   4.246   6.305   4.907
 7810SOL    HW124329   4.319   6.300   4.838
 7810SOL    HW224330   4.280   6.268   4.994
 7811SOL     OW24331   0.931   5.895   2.633
 7811SOL    HW124332   0.988   5.962   2.679
 7811SOL    HW224333   0.852   5.874   2.690
 7812SOL     OW24334   2.541   2.765   5.327
 7812SOL    HW124335   2.635   2.756   5.362
 7812SOL    HW224336   2.531   2.853   5.282
 7813SOL     OW24337   4.730   2.708   1.344
 7813SOL    HW124338   4.795   2.771   1.386
 7813SOL    HW224339   4.771   2.617   1.338
 7814SOL     OW24340   6.755   3.193   1.971
 7814SOL    HW124341   6.699   3.248   2.033
 7814SOL    HW224342   6.698   3.122   1.929
 7815SOL     OW24343   6.091   2.266   4.805
 7815SOL    HW124344   6.140   2.207   4.869
 7815SOL    HW224345   6.153   2.296   4.732
 7816SOL     OW24346   0.302   1.721   5.545
 7816SOL    HW124347   0.241   1.663   5.600
 7816SOL    HW224348   0.248   1.779   5.485
 7817SOL     OW24349   3.680   4.018   5.939
 7817SOL    HW124350   3.635   3.937   5.901
 7817SOL    HW224351   3.779   4.004   5.940
 7818SOL     OW24352   5.118   1.270   2.009
 7818SOL    HW124353   5.142   1.230   2.098
 7818SOL    HW224354   5.079   1.361   2.023
 7819SOL     OW24355   0.712   3.516   4.032
 7819SOL    HW124356   0.681   3.483   3.943
 7819SOL    HW224357   0.652   3.481   4.103
 7820SOL     OW24358   1.830   0.637   5.305
 7820SOL    HW124359   1.780   0.584   5.373
 7820SOL    HW224360   1.877   0.713   5.350
 7821SOL     OW24361   6.295   6.122   0.071
 7821SOL    HW124362   6.368   6.068   0.029
 7821SOL    HW224363   6.207   6.085   0.044
 7822SOL     OW24364   1.330   1.310   5.027
 7822SOL    HW124365   1.396   1.240   4.998
 7822SOL    HW224366   1.238   1.272   5.025
 7823SOL     OW24367   1.414   4.390   6.644
 7823SOL    HW124368   1.362   4.325   6.589
 7823SOL    HW224369   1.371   4.400   6.734
 7824SOL     OW24370   5.399   1.441   3.776
 7824SOL    HW124371   5.312   1.433   3.825
 7824SOL    HW224372   5.388   1.504   3.700
 7825SOL     OW24373   2.136   3.028   0.985
 7825SOL    HW124374   2.219   2.992   1.028
 7825SOL    HW224375   2.066   3.042   1.054
 7826SOL     OW24376   5.747   0.762   0.186
 7826SOL    HW124377   5.724   0.848   0.139
 7826SOL    HW224378   5.662   0.716   0.214
 7827SOL     OW24379   4.364   4.768   1.762
 7827SOL    HW124380   4.359   4.770   1.662
 7827SOL    HW224381   4.413   4.686   1.791
 7828SOL     OW24382   0.827   6.116   0.877
 7828SOL    HW124383   0.842   6.215   0.883
 7828SOL    HW224384   0.800   6.081   0.967
 7829SOL     OW24385   2.406   3.232   1.451
 7829SOL    HW124386   2.498   3.269   1.443
 7829SOL    HW224387   2.410   3.140   1.491
 7830SOL     OW24388   5.555   3.436   6.564
 7830SOL    HW124389   5.505   3.411   6.480
 7830SOL    HW224390   5.535   3.531   6.588
 7831SOL     OW24391   1.810   3.980   0.185
 7831SOL    HW124392   1.778   4.069   0.217
 7831SOL    HW224393   1.823   3.919   0.263
 7832SOL     OW24394   3.241   1.728   5.101
 7832SOL    HW124395   3.230   1.645   5.156
 7832SOL    HW224396   3.259   1.703   5.006
 7833SOL     OW24397   0.455   0.381   0.519
 7833SOL    HW124398   0.465   0.363   0.617
 7833SOL    HW224399   0.514   0.319   0.468
 7834SOL     OW24400   0.619   1.017   2.284
 7834SOL    HW124401   0.599   1.091   2.220
 7834SOL    HW224402   0.717   0.998   2.283
 7835SOL     OW24403   2.329   2.855   4.792
 7835SOL    HW124404   2.394   2.781   4.808
 7835SOL    HW224405   2.339   2.924   4.864
 7836SOL     OW24406   3.385   6.695   6.400
 7836SOL    HW124407   3.356   6.777   6.449
 7836SOL    HW224408   3.484   6.684   6.411
 7837SOL     OW24409   6.220   6.484   2.494
 7837SOL    HW124410   6.206   6.389   2.522
 7837SOL    HW224411   6.131   6.527   2.481
 7838SOL     OW24412   4.922   6.649   4.740
 7838SOL    HW124413   4.856   6.696   4.682
 7838SOL    HW224414   4.977   6.586   4.685
 7839SOL     OW24415   6.109   3.828   4.535
 7839SOL    HW124416   6.207   3.808   4.535
 7839SOL    HW224417   6.079   3.843   4.629
 7840SOL     OW24418   5.317   2.608   4.463
 7840SOL    HW124419   5.342   2.549   4.540
 7840SOL    HW224420   5.397   2.624   4.406
 7841SOL     OW24421   5.675   2.597   6.601
 7841SOL    HW124422   5.744   2.616   6.532
 7841SOL    HW224423   5.625   2.681   6.622
 7842SOL     OW24424   1.414   1.580   3.536
 7842SOL    HW124425   1.428   1.556   3.440
 7842SOL    HW224426   1.494   1.630   3.569
 7843SOL     OW24427   5.701   3.897   1.170
 7843SOL    HW124428   5.609   3.921   1.203
 7843SOL    HW224429   5.763   3.974   1.184
 7844SOL     OW24430   4.329   1.304   3.478
 7844SOL    HW124431   4.231   1.288   3.487
 7844SOL    HW224432   4.379   1.230   3.523
 7845SOL     OW24433   0.779   0.810   3.970
 7845SOL    HW124434   0.863   0.779   3.926
 7845SOL    HW224435   0.792   0.903   4.005
 7846SOL     OW24436   2.181   1.189   1.465
 7846SOL    HW124437   2.116   1.118   1.437
 7846SOL    HW224438   2.135   1.278   1.463
 7847SOL     OW24439   0.493   1.072   1.064
 7847SOL    HW124440   0.506   1.082   0.966
 7847SOL    HW224441   0.568   1.019   1.103
 7848SOL     OW24442   3.861   4.409   1.192
 7848SOL    HW124443   3.798   4.437   1.119
 7848SOL    HW224444   3.849   4.312   1.210
 7849SOL     OW24445   4.896   3.454   3.882
 7849SOL    HW124446   4.849   3.367   3.867
 7849SOL    HW224447   4.992   3.445   3.858
 7850SOL     OW24448   0.145   1.227   4.213
 7850SOL    HW124449   0.148   1.133   4.248
 7850SOL    HW224450   0.065   1.274   4.251
 7851SOL     OW24451   6.298   6.369   0.178
 7851SOL    HW124452   6.388   6.403   0.204
 7851SOL    HW224453   6.301   6.270   0.166
 7852SOL     OW24454   2.581   6.462   0.095
 7852SOL    HW124455   2.563   6.440   7.023
 7852SOL    HW224456   2.614   6.556   0.101
 7853SOL     OW24457   2.839   1.286   0.306
 7853SOL    HW124458   2.751   1.265   0.348
 7853SOL    HW224459   2.843   1.383   0.283
 7854SOL     OW24460   3.744   3.742   1.664
 7854SOL    HW124461   3.770   3.703   1.753
 7854SOL    HW224462   3.746   3.842   1.670
 7855SOL     OW24463   4.249   5.579   6.432
 7855SOL    HW124464   4.348   5.589   6.439
 7855SOL    HW224465   4.226   5.522   6.353
 7856SOL     OW24466   6.716   4.202   4.604
 7856SOL    HW124467   6.645   4.142   4.639
 7856SOL    HW224468   6.711   4.206   4.504
 7857SOL     OW24469   6.172   2.611   5.976
 7857SOL    HW124470   6.228   2.662   5.910
 7857SOL    HW224471   6.168   2.515   5.950
 7858SOL     OW24472   5.568   4.288   3.684
 7858SOL    HW124473   5.659   4.247   3.687
 7858SOL    HW224474   5.570   4.369   3.625
 7859SOL     OW24475   0.970   4.256   6.470
 7859SOL    HW124476   0.995   4.326   6.403
 7859SOL    HW224477   0.894   4.290   6.526
 7860SOL     OW24478   4.034   6.350   2.396
 7860SOL    HW124479   4.021   6.341   2.495
 7860SOL    HW224480   3.954   6.314   2.349
 7861SOL     OW24481   4.304   5.485   1.769
 7861SOL    HW124482   4.320   5.578   1.803
 7861SOL    HW224483   4.382   5.455   1.714
 7862SOL     OW24484   2.902   4.278   1.681
 7862SOL    HW124485   2.871   4.355   1.736
 7862SOL    HW224486   2.826   4.245   1.625
 7863SOL     OW24487   6.390   6.107   3.449
 7863SOL    HW124488   6.378   6.119   3.548
 7863SOL    HW224489   6.319   6.046   3.414
 7864SOL     OW24490   0.282   6.426   5.444
 7864SOL    HW124491   0.268   6.356   5.515
 7864SOL    HW224492   0.281   6.383   5.354
 7865SOL     OW24493   3.879   6.432   3.650
 7865SOL    HW124494   3.900   6.487   3.731
 7865SOL    HW224495   3.780   6.426   3.638
 7866SOL     OW24496   2.733   1.588   2.527
 7866SOL    HW124497   2.732   1.676   2.479
 7866SOL    HW224498   2.811   1.534   2.497
 7867SOL     OW24499   5.894   5.977   2.902
 7867SOL    HW124500   5.813   5.964   2.845
 7867SOL    HW224501   5.910   5.895   2.957
 7868SOL     OW24502   5.305   6.297   1.800
 7868SOL    HW124503   5.232   6.319   1.865
 7868SOL    HW224504   5.379   6.364   1.810
 7869SOL     OW24505   6.496   3.717   1.054
 7869SOL    HW124506   6.585   3.673   1.039
 7869SOL    HW224507   6.427   3.673   0.996
 7870SOL     OW24508   6.306   5.186   3.616
 7870SOL    HW124509   6.372   5.241   3.565
 7870SOL    HW224510   6.294   5.223   3.708
 7871SOL     OW24511   5.695   3.121   3.481
 7871SOL    HW124512   5.700   3.135   3.382
 7871SOL    HW224513   5.768   3.172   3.526
 7872SOL     OW24514   1.067   3.784   3.112
 7872SOL    HW124515   1.115   3.800   3.026
 7872SOL    HW224516   1.061   3.686   3.130
 7873SOL     OW24517   6.805   0.754   5.982
 7873SOL    HW124518   6.842   0.834   6.030
 7873SOL    HW224519   6.735   0.785   5.917
 7874SOL     OW24520   6.630   1.480   6.963
 7874SOL    HW124521   6.539   1.506   6.932
 7874SOL    HW224522   6.650   1.527   0.026
 7875SOL     OW24523   5.042   4.514   0.241
 7875SOL    HW124524   5.011   4.465   0.323
 7875SOL    HW224525   5.034   4.613   0.256
 7876SOL     OW24526   6.631   0.476   4.798
 7876SOL    HW124527   6.664   0.387   4.829
 7876SOL    HW224528   6.610   0.472   4.700
 7877SOL     OW24529   6.993   2.017   3.077
 7877SOL    HW124530   6.967   1.931   3.121
 7877SOL    HW224531   0.059   2.007   3.034
 7878SOL     OW24532   4.999   4.537   2.884
 7878SOL    HW124533   4.954   4.619   2.919
 7878SOL    HW224534   5.040   4.556   2.795
 7879SOL     OW24535   4.919   5.962   3.286
 7879SOL    HW124536   5.013   5.951   3.252
 7879SOL    HW224537   4.897   5.885   3.347
 7880SOL     OW24538   0.424   6.494   0.242
 7880SOL    HW124539   0.424   6.410   0.297
 7880SOL    HW224540   0.469   6.476   0.154
 7881SOL     OW24541   6.939   3.998   4.327
 7881SOL    HW124542   6.922   3.966   4.420
 7881SOL    HW224543   6.894   3.938   4.262
 7882SOL     OW24544   1.002   2.812   2.655
 7882SOL    HW124545   1.078   2.810   2.719
 7882SOL    HW224546   0.941   2.734   2.673
 7883SOL     OW24547   2.547   1.199   2.057
 7883SOL    HW124548   2.595   1.122   2.098
 7883SOL    HW224549   2.557   1.279   2.117
 7884SOL     OW24550   1.616   4.438   3.898
 7884SOL    HW124551   1.559   4.494   3.837
 7884SOL    HW224552   1.683   4.497   3.944
 7885SOL     OW24553   6.238   5.391   2.641
 7885SOL    HW124554   6.265   5.296   2.660
 7885SOL    HW224555   6.319   5.449   2.642
 7886SOL     OW24556   5.059   3.512   1.690
 7886SOL    HW124557   5.034   3.538   1.597
 7886SOL    HW224558   5.140   3.453   1.688
 7887SOL     OW24559   3.297   3.167   5.553
 7887SOL    HW124560   3.263   3.241   5.494
 7887SOL    HW224561   3.385   3.194   5.593
 7888SOL     OW24562   6.333   1.587   3.969
 7888SOL    HW124563   6.416   1.630   3.934
 7888SOL    HW224564   6.340   1.488   3.958
 7889SOL     OW24565   6.454   5.569   0.440
 7889SOL    HW124566   6.542   5.614   0.453
 7889SOL    HW224567   6.428   5.521   0.524
 7890SOL     OW24568   1.590   2.537   4.397
 7890SOL    HW124569   1.514   2.512   4.456
 7890SOL    HW224570   1.580   2.633   4.369
 7891SOL     OW24571   0.903   2.726   4.389
 7891SOL    HW124572   0.813   2.706   4.351
 7891SOL    HW224573   0.973   2.716   4.318
 7892SOL     OW24574   2.017   2.176   4.496
 7892SOL    HW124575   1.950   2.105   4.517
 7892SOL    HW224576   1.991   2.261   4.543
 7893SOL     OW24577   6.441   6.481   2.049
 7893SOL    HW124578   6.470   6.426   1.971
 7893SOL    HW224579   6.394   6.563   2.016
 7894SOL     OW24580   2.595   1.751   6.565
 7894SOL    HW124581   2.587   1.698   6.649
 7894SOL    HW224582   2.605   1.848   6.587
 7895SOL     OW24583   3.673   6.109   4.242
 7895SOL    HW124584   3.731   6.074   4.168
 7895SOL    HW224585   3.630   6.032   4.289
 7896SOL     OW24586   4.371   3.218   1.235
 7896SOL    HW124587   4.281   3.208   1.278
 7896SOL    HW224588   4.433   3.148   1.270
 7897SOL     OW24589   3.769   4.340   6.499
 7897SOL    HW124590   3.759   4.423   6.554
 7897SOL    HW224591   3.727   4.263   6.548
 7898SOL     OW24592   5.127   0.286   3.870
 7898SOL    HW124593   5.193   0.263   3.799
 7898SOL    HW224594   5.034   0.283   3.831
 7899SOL     OW24595   5.434   5.544   1.668
 7899SOL    HW124596   5.427   5.457   1.717
 7899SOL    HW224597   5.476   5.612   1.728
 7900SOL     OW24598   0.253   3.974   0.562
 7900SOL    HW124599   0.348   4.001   0.576
 7900SOL    HW224600   0.242   3.878   0.586
 7901SOL     OW24601   5.037   1.077   6.242
 7901SOL    HW124602   4.980   1.148   6.283
 7901SOL    HW224603   5.076   1.019   6.313
 7902SOL     OW24604   0.511   6.308   3.162
 7902SOL    HW124605   0.518   6.222   3.111
 7902SOL    HW224606   0.421   6.349   3.145
 7903SOL     OW24607   3.299   1.647   4.018
 7903SOL    HW124608   3.259   1.736   3.999
 7903SOL    HW224609   3.389   1.659   4.060
 7904SOL     OW24610   6.313   0.686   2.795
 7904SOL    HW124611   6.402   0.657   2.832
 7904SOL    HW224612   6.253   0.713   2.870
 7905SOL     OW24613   5.354   0.998   0.425
 7905SOL    HW124614   5.385   0.914   0.469
 7905SOL    HW224615   5.433   1.044   0.384
 7906SOL     OW24616   1.396   5.113   1.491
 7906SOL    HW124617   1.440   5.025   1.473
 7906SOL    HW224618   1.297   5.099   1.502
 7907SOL     OW24619   5.776   0.419   3.049
 7907SOL    HW124620   5.819   0.463   2.970
 7907SOL    HW224621   5.788   0.320   3.043
 7908SOL     OW24622   0.551   1.981   6.936
 7908SOL    HW124623   0.564   2.074   6.903
 7908SOL    HW224624   0.477   1.980   7.003
 7909SOL     OW24625   5.273   4.451   2.909
 7909SOL    HW124626   5.182   4.488   2.925
 7909SOL    HW224627   5.269   4.351   2.912
 7910SOL     OW24628   1.663   3.233   0.580
 7910SOL    HW124629   1.743   3.294   0.586
 7910SOL    HW224630   1.616   3.232   0.668
 7911SOL     OW24631   1.024   4.123   1.098
 7911SOL    HW124632   1.074   4.201   1.062
 7911SOL    HW224633   1.089   4.054   1.132
 7912SOL     OW24634   5.640   5.624   0.254
 7912SOL    HW124635   5.660   5.527   0.269
 7912SOL    HW224636   5.726   5.673   0.240
 7913SOL     OW24637   1.726   4.141   0.953
 7913SOL    HW124638   1.626   4.130   0.957
 7913SOL    HW224639   1.764   4.079   0.885
 7914SOL     OW24640   6.914   5.031   6.384
 7914SOL    HW124641   6.946   5.060   6.474
 7914SOL    HW224642   6.967   5.078   6.313
 7915SOL     OW24643   4.144   0.788   2.779
 7915SOL    HW124644   4.227   0.843   2.786
 7915SOL    HW224645   4.131   0.760   2.684
 7916SOL     OW24646   0.281   0.424   4.626
 7916SOL    HW124647   0.243   0.513   4.601
 7916SOL    HW224648   0.332   0.386   4.549
 7917SOL     OW24649   3.748   2.700   6.400
 7917SOL    HW124650   3.768   2.716   6.497
 7917SOL    HW224651   3.697   2.614   6.391
 7918SOL     OW24652   1.716   1.238   4.972
 7918SOL    HW124653   1.651   1.265   4.901
 7918SOL    HW224654   1.668   1.188   5.044
 7919SOL     OW24655   1.106   5.057   3.076
 7919SOL    HW124656   1.162   5.136   3.098
 7919SOL    HW224657   1.057   5.026   3.158
 7920SOL     OW24658   4.981   0.741   1.720
 7920SOL    HW124659   5.076   0.722   1.745
 7920SOL    HW224660   4.920   0.687   1.778
 7921SOL     OW24661   5.103   1.868   1.738
 7921SOL    HW124662   5.192   1.876   1.783
 7921SOL    HW224663   5.097   1.935   1.664
 7922SOL     OW24664   0.840   6.463   6.511
 7922SOL    HW124665   0.825   6.457   6.412
 7922SOL    HW224666   0.813   6.377   6.554
 7923SOL     OW24667   3.105   2.242   6.342
 7923SOL    HW124668   3.150   2.308   6.282
 7923SOL    HW224669   3.017   2.279   6.372
 7924SOL     OW24670   5.765   6.821   1.193
 7924SOL    HW124671   5.674   6.803   1.155
 7924SOL    HW224672   5.817   6.736   1.194
 7925SOL     OW24673   2.321   6.548   0.669
 7925SOL    HW124674   2.320   6.487   0.748
 7925SOL    HW224675   2.360   6.500   0.590
 7926SOL     OW24676   5.350   1.109   6.505
 7926SOL    HW124677   5.392   1.128   6.417
 7926SOL    HW224678   5.390   1.169   6.575
 7927SOL     OW24679   5.418   0.102   2.369
 7927SOL    HW124680   5.385   0.196   2.373
 7927SOL    HW224681   5.453   0.075   2.459
 7928SOL     OW24682   6.814   1.166   3.437
 7928SOL    HW124683   6.738   1.225   3.461
 7928SOL    HW224684   6.883   1.169   3.509
 7929SOL     OW24685   4.271   4.069   6.846
 7929SOL    HW124686   4.242   3.987   6.895
 7929SOL    HW224687   4.371   4.072   6.843
 7930SOL     OW24688   3.634   5.692   6.202
 7930SOL    HW124689   3.709   5.746   6.241
 7930SOL    HW224690   3.652   5.677   6.104
 7931SOL     OW24691   3.232   2.845   0.471
 7931SOL    HW124692   3.185   2.772   0.422
 7931SOL    HW224693   3.328   2.847   0.445
 7932SOL     OW24694   6.763   5.461   0.725
 7932SOL    HW124695   6.781   5.481   0.628
 7932SOL    HW224696   6.835   5.501   0.781
 7933SOL     OW24697   6.547   0.683   5.729
 7933SOL    HW124698   6.592   0.595   5.715
 7933SOL    HW224699   6.452   0.667   5.756
 7934SOL     OW24700   1.810   4.913   0.684
 7934SOL    HW124701   1.714   4.924   0.710
 7934SOL    HW224702   1.822   4.940   0.589
 7935SOL     OW24703   5.489   4.161   2.446
 7935SOL    HW124704   5.487   4.172   2.347
 7935SOL    HW224705   5.583   4.175   2.479
 7936SOL     OW24706   2.700   6.450   3.682
 7936SOL    HW124707   2.604   6.430   3.665
 7936SOL    HW224708   2.713   6.474   3.778
 7937SOL     OW24709   1.545   5.952   4.475
 7937SOL    HW124710   1.492   5.929   4.393
 7937SOL    HW224711   1.638   5.976   4.449
 7938SOL     OW24712   5.368   0.454   5.299
 7938SOL    HW124713   5.344   0.364   5.263
 7938SOL    HW224714   5.295   0.519   5.277
 7939SOL     OW24715   0.589   1.819   5.310
 7939SOL    HW124716   0.537   1.734   5.307
 7939SOL    HW224717   0.605   1.844   5.406
 7940SOL     OW24718   4.041   1.694   2.013
 7940SOL    HW124719   4.090   1.745   2.084
 7940SOL    HW224720   3.961   1.650   2.054
 7941SOL     OW24721   4.405   6.498   3.121
 7941SOL    HW124722   4.495   6.464   3.150
 7941SOL    HW224723   4.343   6.498   3.199
 7942SOL     OW24724   0.903   2.863   2.163
 7942SOL    HW124725   0.909   2.873   2.262
 7942SOL    HW224726   0.994   2.845   2.125
 7943SOL     OW24727   1.605   4.719   5.608
 7943SOL    HW124728   1.529   4.769   5.567
 7943SOL    HW224729   1.571   4.633   5.646
 7944SOL     OW24730   0.947   2.517   1.846
 7944SOL    HW124731   0.872   2.571   1.885
 7944SOL    HW224732   0.940   2.519   1.746
 7945SOL     OW24733   6.344   5.150   2.750
 7945SOL    HW124734   6.309   5.061   2.777
 7945SOL    HW224735   6.370   5.202   2.831
 7946SOL     OW24736   3.991   6.884   5.687
 7946SOL    HW124737   3.937   6.889   5.771
 7946SOL    HW224738   4.007   6.976   5.653
 7947SOL     OW24739   1.998   2.463   5.071
 7947SOL    HW124740   1.991   2.416   5.159
 7947SOL    HW224741   1.907   2.472   5.030
 7948SOL     OW24742   1.554   4.597   1.941
 7948SOL    HW124743   1.573   4.683   1.988
 7948SOL    HW224744   1.623   4.582   1.870
 7949SOL     OW24745   4.493   4.683   5.797
 7949SOL    HW124746   4.498   4.783   5.807
 7949SOL    HW224747   4.398   4.656   5.783
 7950SOL     OW24748   6.054   5.926   5.342
 7950SOL    HW124749   5.958   5.915   5.368
 7950SOL    HW224750   6.060   5.964   5.250
 7951SOL     OW24751   2.706   5.280   2.971
 7951SOL    HW124752   2.711   5.180   2.976
 7951SOL    HW224753   2.799   5.318   2.973
 7952SOL     OW24754   6.227   3.643   0.101
 7952SOL    HW124755   6.228   3.546   0.127
 7952SOL    HW224756   6.169   3.655   0.020
 7953SOL     OW24757   4.203   1.486   0.840
 7953SOL    HW124758   4.203   1.586   0.850
 7953SOL    HW224759   4.108   1.453   0.835
 7954SOL     OW24760   4.120   3.750   6.200
 7954SOL    HW124761   4.156   3.764   6.292
 7954SOL    HW224762   4.169   3.810   6.136
 7955SOL     OW24763   2.306   1.340   5.953
 7955SOL    HW124764   2.374   1.294   6.011
 7955SOL    HW224765   2.216   1.299   5.969
 7956SOL     OW24766   5.569   1.783   1.664
 7956SOL    HW124767   5.471   1.801   1.671
 7956SOL    HW224768   5.591   1.698   1.712
 7957SOL     OW24769   4.074   0.105   5.589
 7957SOL    HW124770   4.164   0.144   5.611
 7957SOL    HW224771   4.070   0.084   5.491
 7958SOL     OW24772   5.545   4.192   6.572
 7958SOL    HW124773   5.446   4.208   6.582
 7958SOL    HW224774   5.595   4.263   6.622
 7959SOL     OW24775   4.956   0.666   6.283
 7959SOL    HW124776   5.013   0.709   6.213
 7959SOL    HW224777   4.982   0.701   6.373
 7960SOL     OW24778   6.994   0.887   6.584
 7960SOL    HW124779   0.035   0.853   6.516
 7960SOL    HW224780   0.013   0.961   6.636
 7961SOL     OW24781   6.563   6.853   0.794
 7961SOL    HW124782   6.659   6.880   0.785
 7961SOL    HW224783   6.505   6.926   0.759
 7962SOL     OW24784   6.842   1.207   6.422
 7962SOL    HW124785   6.891   1.179   6.504
 7962SOL    HW224786   6.854   1.305   6.407
 7963SOL     OW24787   6.168   4.280   3.963
 7963SOL    HW124788   6.249   4.288   4.020
 7963SOL    HW224789   6.099   4.346   3.994
 7964SOL     OW24790   6.912   3.228   1.737
 7964SOL    HW124791   6.852   3.222   1.817
 7964SOL    HW224792   6.857   3.224   1.654
 7965SOL     OW24793   4.905   2.629   0.020
 7965SOL    HW124794   4.849   2.575   0.082
 7965SOL    HW224795   4.846   2.682   6.982
 7966SOL     OW24796   4.128   3.490   6.054
 7966SOL    HW124797   4.159   3.547   5.977
 7966SOL    HW224798   4.050   3.435   6.025
 7967SOL     OW24799   1.604   5.300   2.184
 7967SOL    HW124800   1.700   5.270   2.184
 7967SOL    HW224801   1.592   5.372   2.116
 7968SOL     OW24802   6.854   1.480   5.009
 7968SOL    HW124803   6.924   1.499   4.941
 7968SOL    HW224804   6.813   1.566   5.041
 7969SOL     OW24805   4.847   5.809   0.340
 7969SOL    HW124806   4.801   5.736   0.390
 7969SOL    HW224807   4.945   5.808   0.363
 7970SOL     OW24808   5.933   2.938   2.701
 7970SOL    HW124809   6.011   2.950   2.763
 7970SOL    HW224810   5.924   2.842   2.677
 7971SOL     OW24811   3.139   1.979   1.483
 7971SOL    HW124812   3.211   2.048   1.490
 7971SOL    HW224813   3.050   2.024   1.473
 7972SOL     OW24814   3.587   3.202   1.863
 7972SOL    HW124815   3.573   3.192   1.764
 7972SOL    HW224816   3.584   3.112   1.906
 7973SOL     OW24817   5.438   3.978   3.635
 7973SOL    HW124818   5.460   4.013   3.726
 7973SOL    HW224819   5.351   4.018   3.604
 7974SOL     OW24820   6.217   1.299   4.698
 7974SOL    HW124821   6.190   1.385   4.741
 7974SOL    HW224822   6.145   1.268   4.636
 7975SOL     OW24823   4.340   0.861   0.303
 7975SOL    HW124824   4.358   0.946   0.353
 7975SOL    HW224825   4.245   0.859   0.273
 7976SOL     OW24826   0.918   0.243   5.791
 7976SOL    HW124827   0.852   0.179   5.753
 7976SOL    HW224828   0.948   0.210   5.881
 7977SOL     OW24829   6.044   6.153   2.673
 7977SOL    HW124830   5.952   6.192   2.659
 7977SOL    HW224831   6.036   6.061   2.710
 7978SOL     OW24832   0.571   3.948   0.236
 7978SOL    HW124833   0.637   3.874   0.247
 7978SOL    HW224834   0.590   3.998   0.151
 7979SOL     OW24835   1.736   4.183   5.218
 7979SOL    HW124836   1.725   4.085   5.201
 7979SOL    HW224837   1.711   4.203   5.313
 7980SOL     OW24838   3.250   5.052   5.973
 7980SOL    HW124839   3.330   4.992   5.974
 7980SOL    HW224840   3.213   5.057   5.880
 7981SOL     OW24841   1.254   4.860   2.024
 7981SOL    HW124842   1.192   4.920   1.972
 7981SOL    HW224843   1.325   4.916   2.068
 7982SOL     OW24844   1.325   1.392   5.892
 7982SOL    HW124845   1.293   1.392   5.797
 7982SOL    HW224846   1.264   1.449   5.947
 7983SOL     OW24847   5.591   1.124   1.280
 7983SOL    HW124848   5.522   1.124   1.207
 7983SOL    HW224849   5.669   1.068   1.253
 7984SOL     OW24850   0.553   1.705   0.994
 7984SOL    HW124851   0.480   1.668   0.937
 7984SOL    HW224852   0.557   1.654   1.080
 7985SOL     OW24853   2.449   2.147   4.729
 7985SOL    HW124854   2.455   2.048   4.712
 7985SOL    HW224855   2.525   2.193   4.684
 7986SOL     OW24856   3.817   1.764   5.113
 7986SOL    HW124857   3.721   1.790   5.102
 7986SOL    HW224858   3.875   1.825   5.059
 7987SOL     OW24859   1.933   3.979   1.033
 7987SOL    HW124860   1.866   4.046   1.063
 7987SOL    HW224861   1.975   4.010   0.948
 7988SOL     OW24862   0.331   0.777   1.507
 7988SOL    HW124863   0.301   0.786   1.412
 7988SOL    HW224864   0.252   0.775   1.567
 7989SOL     OW24865   1.653   4.239   0.064
 7989SOL    HW124866   1.565   4.211   0.101
 7989SOL    HW224867   1.673   4.187   7.004
 7990SOL     OW24868   2.692   6.257   4.271
 7990SOL    HW124869   2.603   6.268   4.315
 7990SOL    HW224870   2.724   6.163   4.283
 7991SOL     OW24871   5.334   1.791   4.410
 7991SOL    HW124872   5.337   1.840   4.323
 7991SOL    HW224873   5.273   1.713   4.402
 7992SOL     OW24874   2.648   0.642   0.632
 7992SOL    HW124875   2.580   0.644   0.559
 7992SOL    HW224876   2.725   0.585   0.604
 7993SOL     OW24877   0.029   0.060   2.277
 7993SOL    HW124878   0.034   6.988   2.248
 7993SOL    HW224879   0.117   0.105   2.260
 7994SOL     OW24880   5.198   0.617   3.045
 7994SOL    HW124881   5.230   0.709   3.068
 7994SOL    HW224882   5.098   0.613   3.052
 7995SOL     OW24883   5.729   4.760   2.745
 7995SOL    HW124884   5.773   4.774   2.656
 7995SOL    HW224885   5.792   4.710   2.805
 7996SOL     OW24886   4.333   0.268   4.204
 7996SOL    HW124887   4.262   0.265   4.274
 7996SOL    HW224888   4.399   0.195   4.220
 7997SOL     OW24889   0.362   1.963   0.128
 7997SOL    HW124890   0.345   2.039   0.191
 7997SOL    HW224891   0.362   1.877   0.179
 7998SOL     OW24892   3.103   6.945   0.296
 7998SOL    HW124893   3.067   7.022   0.349
 7998SOL    HW224894   3.132   6.978   0.206
 7999SOL     OW24895   1.231   1.580   6.097
 7999SOL    HW124896   1.171   1.603   6.020
 7999SOL    HW224897   1.230   1.654   6.163
 8000SOL     OW24898   6.150   0.119   6.503
 8000SOL    HW124899   6.246   0.124   6.530
 8000SOL    HW224900   6.110   0.035   6.541
 8001SOL     OW24901   4.457   6.717   1.329
 8001SOL    HW124902   4.426   6.792   1.270
 8001SOL    HW224903   4.557   6.715   1.330
 8002SOL     OW24904   0.616   1.369   5.122
 8002SOL    HW124905   0.627   1.406   5.030
 8002SOL    HW224906   0.633   1.442   5.189
 8003SOL     OW24907   1.820   6.788   2.226
 8003SOL    HW124908   1.781   6.703   2.190
 8003SOL    HW224909   1.765   6.866   2.193
 8004SOL     OW24910   2.264   2.800   3.607
 8004SOL    HW124911   2.316   2.746   3.673
 8004SOL    HW224912   2.276   2.762   3.516
 8005SOL     OW24913   2.840   0.089   3.804
 8005SOL    HW124914   2.761   0.150   3.799
 8005SOL    HW224915   2.919   0.133   3.760
 8006SOL     OW24916   3.484   5.589   5.294
 8006SOL    HW124917   3.412   5.628   5.236
 8006SOL    HW224918   3.499   5.493   5.270
 8007SOL     OW24919   5.528   2.187   6.302
 8007SOL    HW124920   5.484   2.097   6.302
 8007SOL    HW224921   5.588   2.194   6.382
 8008SOL     OW24922   3.252   6.558   0.495
 8008SOL    HW124923   3.229   6.496   0.420
 8008SOL    HW224924   3.235   6.513   0.583
 8009SOL     OW24925   4.828   0.781   1.223
 8009SOL    HW124926   4.866   0.799   1.313
 8009SOL    HW224927   4.755   0.846   1.204
 8010SOL     OW24928   3.012   2.648   5.314
 8010SOL    HW124929   3.100   2.600   5.304
 8010SOL    HW224930   3.022   2.742   5.281
 8011SOL     OW24931   3.440   2.160   1.823
 8011SOL    HW124932   3.528   2.206   1.834
 8011SOL    HW224933   3.389   2.164   1.909
 8012SOL     OW24934   0.918   2.580   6.144
 8012SOL    HW124935   0.884   2.487   6.154
 8012SOL    HW224936   0.845   2.645   6.165
 8013SOL     OW24937   0.924   2.517   3.286
 8013SOL    HW124938   0.893   2.530   3.380
 8013SOL    HW224939   1.002   2.454   3.285
 8014SOL     OW24940   1.838   0.336   3.784
 8014SOL    HW124941   1.770   0.409   3.791
 8014SOL    HW224942   1.804   0.254   3.829
 8015SOL     OW24943   2.048   0.181   5.840
 8015SOL    HW124944   2.137   0.140   5.858
 8015SOL    HW224945   1.976   0.118   5.868
 8016SOL     OW24946   3.905   1.627   4.805
 8016SOL    HW124947   3.992   1.593   4.839
 8016SOL    HW224948   3.878   1.708   4.856
 8017SOL     OW24949   6.706   6.912   0.393
 8017SOL    HW124950   6.670   7.005   0.386
 8017SOL    HW224951   6.791   6.913   0.446
 8018SOL     OW24952   3.863   2.637   6.913
 8018SOL    HW124953   3.795   2.639   6.840
 8018SOL    HW224954   3.819   2.614   6.999
 8019SOL     OW24955   2.461   3.677   0.667
 8019SOL    HW124956   2.451   3.660   0.765
 8019SOL    HW224957   2.373   3.704   0.628
 8020SOL     OW24958   6.017   0.049   6.274
 8020SOL    HW124959   5.930   0.092   6.297
 8020SOL    HW224960   6.080   0.058   6.351
 8021SOL     OW24961   1.853   2.774   1.385
 8021SOL    HW124962   1.936   2.729   1.419
 8021SOL    HW224963   1.804   2.712   1.324
 8022SOL     OW24964   6.189   0.191   1.704
 8022SOL    HW124965   6.224   0.101   1.677
 8022SOL    HW224966   6.093   0.183   1.731
 8023SOL     OW24967   5.795   5.467   2.908
 8023SOL    HW124968   5.760   5.535   2.845
 8023SOL    HW224969   5.829   5.388   2.856
 8024SOL     OW24970   1.448   5.822   6.062
 8024SOL    HW124971   1.528   5.762   6.067
 8024SOL    HW224972   1.366   5.767   6.050
 8025SOL     OW24973   1.716   4.916   1.137
 8025SOL    HW124974   1.652   4.969   1.193
 8025SOL    HW224975   1.795   4.891   1.193
 8026SOL     OW24976   6.944   4.643   0.668
 8026SOL    HW124977   6.949   4.730   0.717
 8026SOL    HW224978   0.002   4.588   0.687
 8027SOL     OW24979   3.408   6.653   5.175
 8027SOL    HW124980   3.390   6.726   5.110
 8027SOL    HW224981   3.340   6.581   5.164
 8028SOL     OW24982   2.307   5.867   4.194
 8028SOL    HW124983   2.272   5.813   4.117
 8028SOL    HW224984   2.312   5.964   4.166
 8029SOL     OW24985   4.903   2.258   2.034
 8029SOL    HW124986   4.956   2.278   1.952
 8029SOL    HW224987   4.806   2.277   2.017
 8030SOL     OW24988   6.308   5.403   0.659
 8030SOL    HW124989   6.317   5.423   0.757
 8030SOL    HW224990   6.213   5.415   0.631
 8031SOL     OW24991   6.188   6.841   3.148
 8031SOL    HW124992   6.141   6.770   3.202
 8031SOL    HW224993   6.229   6.800   3.067
 8032SOL     OW24994   5.179   3.723   1.834
 8032SOL    HW124995   5.171   3.745   1.931
 8032SOL    HW224996   5.125   3.642   1.813
 8033SOL     OW24997   4.494   3.484   0.265
 8033SOL    HW124998   4.578   3.454   0.310
 8033SOL    HW224999   4.438   3.536   0.330
 8034SOL     OW25000   5.951   0.406   5.221
 8034SOL    HW125001   5.979   0.369   5.133
 8034SOL    HW225002   6.025   0.463   5.258
 8035SOL     OW25003   4.639   0.854   2.572
 8035SOL    HW125004   4.698   0.931   2.599
 8035SOL    HW225005   4.567   0.842   2.641
 8036SOL     OW25006   6.875   2.774   3.470
 8036SOL    HW125007   6.827   2.862   3.479
 8036SOL    HW225008   6.811   2.704   3.441
 8037SOL     OW25009   1.147   3.165   0.007
 8037SOL    HW125010   1.196   3.252   0.009
 8037SOL    HW225011   1.167   3.117   6.945
 8038SOL     OW25012   5.728   6.167   2.104
 8038SOL    HW125013   5.778   6.253   2.095
 8038SOL    HW225014   5.792   6.091   2.099
 8039SOL     OW25015   0.478   2.410   5.270
 8039SOL    HW125016   0.448   2.489   5.215
 8039SOL    HW225017   0.543   2.441   5.340
 8040SOL     OW25018   2.078   5.931   6.720
 8040SOL    HW125019   2.056   5.983   6.637
 8040SOL    HW225020   2.145   5.982   6.774
 8041SOL     OW25021   3.204   1.268   2.685
 8041SOL    HW125022   3.173   1.363   2.672
 8041SOL    HW225023   3.212   1.249   2.783
 8042SOL     OW25024   4.417   4.211   5.536
 8042SOL    HW125025   4.410   4.111   5.530
 8042SOL    HW225026   4.439   4.238   5.630
 8043SOL     OW25027   3.852   5.353   0.762
 8043SOL    HW125028   3.844   5.374   0.859
 8043SOL    HW225029   3.790   5.278   0.738
 8044SOL     OW25030   3.595   3.319   0.989
 8044SOL    HW125031   3.551   3.401   1.027
 8044SOL    HW225032   3.531   3.272   0.928
 8045SOL     OW25033   6.933   1.619   2.602
 8045SOL    HW125034   6.992   1.623   2.522
 8045SOL    HW225035   6.924   1.524   2.633
 8046SOL     OW25036   0.622   5.027   2.184
 8046SOL    HW125037   0.528   5.010   2.154
 8046SOL    HW225038   0.649   4.956   2.249
 8047SOL     OW25039   3.748   6.662   6.548
 8047SOL    HW125040   3.704   6.581   6.509
 8047SOL    HW225041   3.841   6.639   6.577
 8048SOL     OW25042   3.543   2.888   6.769
 8048SOL    HW125043   3.470   2.874   6.703
 8048SOL    HW225044   3.552   2.986   6.788
 8049SOL     OW25045   1.425   6.347   0.142
 8049SOL    HW125046   1.429   6.443   0.114
 8049SOL    HW225047   1.424   6.342   0.242
 8050SOL     OW25048   1.788   4.142   4.572
 8050SOL    HW125049   1.712   4.164   4.633
 8050SOL    HW225050   1.758   4.073   4.506
 8051SOL     OW25051   4.911   5.619   4.225
 8051SOL    HW125052   4.814   5.610   4.246
 8051SOL    HW225053   4.923   5.633   4.127
 8052SOL     OW25054   2.552   2.119   2.238
 8052SOL    HW125055   2.643   2.109   2.278
 8052SOL    HW225056   2.553   2.087   2.144
 8053SOL     OW25057   2.934   3.023   5.502
 8053SOL    HW125058   3.028   2.990   5.504
 8053SOL    HW225059   2.907   3.056   5.592
 8054SOL     OW25060   5.921   3.914   5.179
 8054SOL    HW125061   5.991   3.941   5.113
 8054SOL    HW225062   5.901   3.990   5.240
 8055SOL     OW25063   0.268   0.866   5.854
 8055SOL    HW125064   0.299   0.773   5.833
 8055SOL    HW225065   0.292   0.927   5.779
 8056SOL     OW25066   3.047   6.646   3.297
 8056SOL    HW125067   3.060   6.564   3.242
 8056SOL    HW225068   2.983   6.627   3.371
 8057SOL     OW25069   2.815   1.931   2.132
 8057SOL    HW125070   2.787   2.006   2.073
 8057SOL    HW225071   2.865   1.863   2.079
 8058SOL     OW25072   2.836   6.771   2.877
 8058SOL    HW125073   2.835   6.692   2.938
 8058SOL    HW225074   2.748   6.779   2.830
 8059SOL     OW25075   3.402   0.970   5.273
 8059SOL    HW125076   3.337   0.915   5.221
 8059SOL    HW225077   3.393   0.948   5.370
 8060SOL     OW25078   0.029   0.954   5.913
 8060SOL    HW125079   0.027   0.955   6.013
 8060SOL    HW225080   0.114   0.911   5.881
 8061SOL     OW25081   0.239   0.914   2.998
 8061SOL    HW125082   0.289   0.948   2.918
 8061SOL    HW225083   0.261   0.971   3.077
 8062SOL     OW25084   4.100   5.415   5.013
 8062SOL    HW125085   4.066   5.455   5.098
 8062SOL    HW225086   4.199   5.422   5.009
 8063SOL     OW25087   3.138   0.995   2.670
 8063SOL    HW125088   3.193   1.078   2.677
 8063SOL    HW225089   3.075   0.990   2.747
 8064SOL     OW25090   6.657   3.065   7.009
 8064SOL    HW125091   6.748   3.104   7.021
 8064SOL    HW225092   6.654   2.974   0.027
 8065SOL     OW25093   3.859   0.024   4.717
 8065SOL    HW125094   3.926   0.045   4.646
 8065SOL    HW225095   3.846   6.949   4.722
 8066SOL     OW25096   6.404   0.473   4.340
 8066SOL    HW125097   6.358   0.518   4.417
 8066SOL    HW225098   6.403   0.534   4.261
 8067SOL     OW25099   5.360   2.570   3.923
 8067SOL    HW125100   5.369   2.660   3.967
 8067SOL    HW225101   5.290   2.517   3.971
 8068SOL     OW25102   0.661   4.833   0.728
 8068SOL    HW125103   0.716   4.753   0.704
 8068SOL    HW225104   0.577   4.803   0.774
 8069SOL     OW25105   2.662   4.963   1.665
 8069SOL    HW125106   2.583   4.904   1.671
 8069SOL    HW225107   2.741   4.918   1.706
 8070SOL     OW25108   3.937   3.733   0.739
 8070SOL    HW125109   3.886   3.650   0.757
 8070SOL    HW225110   3.972   3.732   0.645
 8071SOL     OW25111   4.027   6.818   5.069
 8071SOL    HW125112   4.008   6.771   5.155
 8071SOL    HW225113   4.103   6.774   5.022
 8072SOL     OW25114   3.362   2.585   0.732
 8072SOL    HW125115   3.322   2.581   0.824
 8072SOL    HW225116   3.319   2.514   0.675
 8073SOL     OW25117   2.662   0.015   5.571
 8073SOL    HW125118   2.746   0.069   5.575
 8073SOL    HW225119   2.684   6.941   5.573
 8074SOL     OW25120   2.025   1.183   1.116
 8074SOL    HW125121   1.973   1.251   1.168
 8074SOL    HW225122   2.113   1.223   1.088
 8075SOL     OW25123   0.493   6.790   0.938
 8075SOL    HW125124   0.466   6.886   0.944
 8075SOL    HW225125   0.546   6.776   0.854
 8076SOL     OW25126   0.386   6.845   6.241
 8076SOL    HW125127   0.337   6.839   6.154
 8076SOL    HW225128   0.451   6.770   6.249
 8077SOL     OW25129   3.833   6.021   2.294
 8077SOL    HW125130   3.734   6.003   2.296
 8077SOL    HW225131   3.882   5.936   2.274
 8078SOL     OW25132   0.820   1.645   0.887
 8078SOL    HW125133   0.813   1.682   0.794
 8078SOL    HW225134   0.742   1.675   0.941
 8079SOL     OW25135   6.704   1.523   3.942
 8079SOL    HW125136   6.792   1.571   3.942
 8079SOL    HW225137   6.636   1.578   3.894
 8080SOL     OW25138   1.608   2.960   1.963
 8080SOL    HW125139   1.572   2.887   2.021
 8080SOL    HW225140   1.688   3.001   2.007
 8081SOL     OW25141   6.171   5.098   5.580
 8081SOL    HW125142   6.256   5.116   5.531
 8081SOL    HW225143   6.094   5.103   5.516
 8082SOL     OW25144   3.418   0.644   2.320
 8082SOL    HW125145   3.412   0.688   2.410
 8082SOL    HW225146   3.326   0.622   2.288
 8083SOL     OW25147   5.294   2.861   4.341
 8083SOL    HW125148   5.317   2.770   4.375
 8083SOL    HW225149   5.371   2.923   4.354
 8084SOL     OW25150   3.059   1.036   5.572
 8084SOL    HW125151   3.078   1.107   5.505
 8084SOL    HW225152   3.027   0.954   5.526
 8085SOL     OW25153   6.708   6.384   3.047
 8085SOL    HW125154   6.731   6.352   3.139
 8085SOL    HW225155   6.614   6.418   3.046
 8086SOL     OW25156   0.055   0.983   1.280
 8086SOL    HW125157   0.057   1.011   1.184
 8086SOL    HW225158   0.091   1.057   1.338
 8087SOL     OW25159   1.788   0.415   6.110
 8087SOL    HW125160   1.881   0.412   6.072
 8087SOL    HW225161   1.788   0.471   6.192
 8088SOL     OW25162   5.798   7.000   6.546
 8088SOL    HW125163   5.847   6.932   6.599
 8088SOL    HW225164   5.700   6.996   6.567
 8089SOL     OW25165   5.849   2.760   6.464
 8089SOL    HW125166   5.799   2.827   6.409
 8089SOL    HW225167   5.943   2.754   6.433
 8090SOL     OW25168   4.173   1.333   5.897
 8090SOL    HW125169   4.199   1.414   5.951
 8090SOL    HW225170   4.081   1.347   5.859
 8091SOL     OW25171   1.226   4.259   4.657
 8091SOL    HW125172   1.246   4.224   4.566
 8091SOL    HW225173   1.251   4.356   4.661
 8092SOL     OW25174   5.106   2.230   5.782
 8092SOL    HW125175   5.161   2.272   5.709
 8092SOL    HW225176   5.043   2.299   5.818
 8093SOL     OW25177   3.472   5.463   3.623
 8093SOL    HW125178   3.552   5.424   3.669
 8093SOL    HW225179   3.450   5.552   3.663
 8094SOL     OW25180   0.819   3.225   5.520
 8094SOL    HW125181   0.782   3.271   5.601
 8094SOL    HW225182   0.774   3.136   5.508
 8095SOL     OW25183   0.473   5.424   4.646
 8095SOL    HW125184   0.481   5.426   4.546
 8095SOL    HW225185   0.458   5.330   4.677
 8096SOL     OW25186   1.706   0.559   2.832
 8096SOL    HW125187   1.804   0.539   2.834
 8096SOL    HW225188   1.656   0.478   2.801
 8097SOL     OW25189   4.068   0.321   4.345
 8097SOL    HW125190   4.032   0.240   4.391
 8097SOL    HW225191   4.108   0.383   4.412
 8098SOL     OW25192   2.073   6.346   3.596
 8098SOL    HW125193   1.992   6.390   3.556
 8098SOL    HW225194   2.140   6.327   3.524
 8099SOL     OW25195   4.540   6.382   4.456
 8099SOL    HW125196   4.469   6.448   4.432
 8099SOL    HW225197   4.552   6.317   4.381
 8100SOL     OW25198   6.719   1.783   6.656
 8100SOL    HW125199   6.720   1.803   6.558
 8100SOL    HW225200   6.699   1.686   6.670
 8101SOL     OW25201   1.813   5.348   0.451
 8101SOL    HW125202   1.893   5.363   0.509
 8101SOL    HW225203   1.798   5.250   0.438
 8102SOL     OW25204   0.772   3.798   3.778
 8102SOL    HW125205   0.826   3.866   3.828
 8102SOL    HW225206   0.834   3.732   3.736
 8103SOL     OW25207   3.702   0.344   2.149
 8103SOL    HW125208   3.701   0.385   2.240
 8103SOL    HW225209   3.797   0.328   2.121
 8104SOL     OW25210   1.854   7.004   5.272
 8104SOL    HW125211   1.900   0.046   5.334
 8104SOL    HW225212   1.757   0.004   5.266
 8105SOL     OW25213   0.106   2.556   2.662
 8105SOL    HW125214   0.052   2.640   2.654
 8105SOL    HW225215   0.132   2.525   2.571
 8106SOL     OW25216   2.596   6.390   3.345
 8106SOL    HW125217   2.603   6.489   3.356
 8106SOL    HW225218   2.544   6.368   3.262
 8107SOL     OW25219   1.229   6.098   4.149
 8107SOL    HW125220   1.240   6.091   4.248
 8107SOL    HW225221   1.270   6.018   4.105
 8108SOL     OW25222   6.363   1.720   0.235
 8108SOL    HW125223   6.319   1.802   0.198
 8108SOL    HW225224   6.462   1.723   0.215
 8109SOL     OW25225   0.339   3.785   6.809
 8109SOL    HW125226   0.336   3.731   6.893
 8109SOL    HW225227   0.252   3.834   6.798
 8110SOL     OW25228   4.141   4.656   1.968
 8110SOL    HW125229   4.240   4.644   1.971
 8110SOL    HW225230   4.109   4.649   1.874
 8111SOL     OW25231   4.869   1.067   4.169
 8111SOL    HW125232   4.900   1.120   4.248
 8111SOL    HW225233   4.888   1.119   4.085
 8112SOL     OW25234   1.658   2.931   4.063
 8112SOL    HW125235   1.725   2.863   4.093
 8112SOL    HW225236   1.697   2.984   3.988
 8113SOL     OW25237   6.591   3.837   0.744
 8113SOL    HW125238   6.575   3.834   0.843
 8113SOL    HW225239   6.518   3.889   0.700
 8114SOL     OW25240   1.509   3.428   2.111
 8114SOL    HW125241   1.511   3.528   2.114
 8114SOL    HW225242   1.595   3.391   2.146
 8115SOL     OW25243   2.829   6.483   5.739
 8115SOL    HW125244   2.849   6.564   5.794
 8115SOL    HW225245   2.864   6.497   5.646
 8116SOL     OW25246   4.196   4.988   0.268
 8116SOL    HW125247   4.209   4.913   0.332
 8116SOL    HW225248   4.098   4.998   0.247
 8117SOL     OW25249   2.390   0.112   3.330
 8117SOL    HW125250   2.467   0.088   3.271
 8117SOL    HW225251   2.340   0.188   3.289
 8118SOL     OW25252   5.634   4.168   6.301
 8118SOL    HW125253   5.624   4.181   6.400
 8118SOL    HW225254   5.565   4.223   6.254
 8119SOL     OW25255   5.153   6.495   6.023
 8119SOL    HW125256   5.063   6.454   6.036
 8119SOL    HW225257   5.223   6.427   6.042
 8120SOL     OW25258   3.158   4.810   0.564
 8120SOL    HW125259   3.115   4.872   0.498
 8120SOL    HW225260   3.226   4.860   0.617
 8121SOL     OW25261   0.740   4.853   1.446
 8121SOL    HW125262   0.707   4.909   1.370
 8121SOL    HW225263   0.680   4.774   1.458
 8122SOL     OW25264   0.466   4.366   3.127
 8122SOL    HW125265   0.561   4.381   3.100
 8122SOL    HW225266   0.460   4.288   3.189
 8123SOL     OW25267   6.591   1.998   0.023
 8123SOL    HW125268   6.494   1.976   0.035
 8123SOL    HW225269   6.618   1.981   6.952
 8124SOL     OW25270   5.138   6.169   3.618
 8124SOL    HW125271   5.043   6.177   3.589
 8124SOL    HW225272   5.179   6.088   3.575
 8125SOL     OW25273   1.295   1.020   2.570
 8125SOL    HW125274   1.322   1.098   2.626
 8125SOL    HW225275   1.291   1.047   2.474
 8126SOL     OW25276   5.249   4.642   3.185
 8126SOL    HW125277   5.162   4.687   3.207
 8126SOL    HW225278   5.290   4.685   3.106
 8127SOL     OW25279   2.735   3.233   6.350
 8127SOL    HW125280   2.783   3.313   6.312
 8127SOL    HW225281   2.670   3.199   6.283
 8128SOL     OW25282   3.144   2.104   1.939
 8128SOL    HW125283   3.205   2.101   2.018
 8128SOL    HW225284   3.068   2.166   1.957
 8129SOL     OW25285   3.699   1.641   6.602
 8129SOL    HW125286   3.620   1.606   6.654
 8129SOL    HW225287   3.672   1.654   6.506
 8130SOL     OW25288   1.082   6.267   6.690
 8130SOL    HW125289   1.157   6.208   6.660
 8130SOL    HW225290   1.119   6.341   6.747
 8131SOL     OW25291   2.954   1.746   1.990
 8131SOL    HW125292   2.925   1.663   1.941
 8131SOL    HW225293   3.017   1.798   1.932
 8132SOL     OW25294   5.586   6.163   4.743
 8132SOL    HW125295   5.605   6.065   4.730
 8132SOL    HW225296   5.492   6.174   4.774
 8133SOL     OW25297   3.723   5.395   2.419
 8133SOL    HW125298   3.642   5.403   2.361
 8133SOL    HW225299   3.733   5.301   2.450
 8134SOL     OW25300   6.911   1.526   6.374
 8134SOL    HW125301   6.938   1.617   6.405
 8134SOL    HW225302   6.989   1.480   6.331
 8135SOL     OW25303   1.569   1.292   1.719
 8135SOL    HW125304   1.512   1.222   1.676
 8135SOL    HW225305   1.638   1.323   1.654
 8136SOL     OW25306   5.723   5.494   2.171
 8136SOL    HW125307   5.748   5.554   2.095
 8136SOL    HW225308   5.627   5.469   2.163
 8137SOL     OW25309   3.167   1.455   5.654
 8137SOL    HW125310   3.125   1.432   5.567
 8137SOL    HW225311   3.177   1.554   5.662
 8138SOL     OW25312   5.472   1.050   1.631
 8138SOL    HW125313   5.562   1.092   1.615
 8138SOL    HW225314   5.460   0.973   1.569
 8139SOL     OW25315   0.267   1.061   1.853
 8139SOL    HW125316   0.200   1.098   1.917
 8139SOL    HW225317   0.310   1.135   1.801
 8140SOL     OW25318   5.315   1.067   5.162
 8140SOL    HW125319   5.340   1.008   5.238
 8140SOL    HW225320   5.270   1.013   5.091
 8141SOL     OW25321   4.730   5.030   5.923
 8141SOL    HW125322   4.659   4.973   5.881
 8141SOL    HW225323   4.739   5.115   5.872
 8142SOL     OW25324   6.510   5.307   7.001
 8142SOL    HW125325   6.462   5.253   6.933
 8142SOL    HW225326   6.443   5.347   0.041
 8143SOL     OW25327   6.331   5.206   0.396
 8143SOL    HW125328   6.347   5.216   0.298
 8143SOL    HW225329   6.332   5.296   0.439
 8144SOL     OW25330   5.693   6.785   6.791
 8144SOL    HW125331   5.616   6.804   6.851
 8144SOL    HW225332   5.661   6.737   6.709
 8145SOL     OW25333   5.771   5.663   1.975
 8145SOL    HW125334   5.723   5.647   1.889
 8145SOL    HW225335   5.857   5.711   1.957
 8146SOL     OW25336   3.592   1.326   4.799
 8146SOL    HW125337   3.544   1.244   4.768
 8146SOL    HW225338   3.572   1.402   4.738
 8147SOL     OW25339   5.881   2.305   3.016
 8147SOL    HW125340   5.964   2.269   3.058
 8147SOL    HW225341   5.855   2.391   3.060
 8148SOL     OW25342   5.472   3.890   2.519
 8148SOL    HW125343   5.515   3.891   2.610
 8148SOL    HW225344   5.468   3.983   2.483
 8149SOL     OW25345   2.745   5.542   2.062
 8149SOL    HW125346   2.814   5.484   2.019
 8149SOL    HW225347   2.654   5.500   2.050
 8150SOL     OW25348   0.064   5.114   0.439
 8150SOL    HW125349   0.151   5.067   0.458
 8150SOL    HW225350   0.019   5.071   0.361
 8151SOL     OW25351   0.340   2.488   2.998
 8151SOL    HW125352   0.405   2.437   2.942
 8151SOL    HW225353   0.349   2.461   3.094
 8152SOL     OW25354   0.897   1.894   2.719
 8152SOL    HW125355   0.970   1.961   2.707
 8152SOL    HW225356   0.858   1.871   2.630
 8153SOL     OW25357   3.365   0.144   3.333
 8153SOL    HW125358   3.447   0.200   3.323
 8153SOL    HW225359   3.290   0.200   3.369
 8154SOL     OW25360   2.028   5.923   3.724
 8154SOL    HW125361   2.054   5.878   3.809
 8154SOL    HW225362   2.077   5.881   3.647
 8155SOL     OW25363   2.859   3.547   1.709
 8155SOL    HW125364   2.875   3.620   1.776
 8155SOL    HW225365   2.762   3.522   1.709
 8156SOL     OW25366   5.839   0.446   5.820
 8156SOL    HW125367   5.846   0.451   5.920
 8156SOL    HW225368   5.795   0.529   5.786
 8157SOL     OW25369   5.593   5.813   6.147
 8157SOL    HW125370   5.531   5.744   6.110
 8157SOL    HW225371   5.639   5.861   6.071
 8158SOL     OW25372   0.852   5.716   0.533
 8158SOL    HW125373   0.800   5.800   0.544
 8158SOL    HW225374   0.948   5.738   0.516
 8159SOL     OW25375   2.230   5.414   2.063
 8159SOL    HW125376   2.180   5.331   2.040
 8159SOL    HW225377   2.302   5.430   1.996
 8160SOL     OW25378   4.504   1.366   1.471
 8160SOL    HW125379   4.419   1.417   1.482
 8160SOL    HW225380   4.550   1.358   1.560
 8161SOL     OW25381   5.178   0.525   1.300
 8161SOL    HW125382   5.158   0.583   1.221
 8161SOL    HW225383   5.181   0.430   1.271
 8162SOL     OW25384   6.470   6.459   6.480
 8162SOL    HW125385   6.569   6.459   6.463
 8162SOL    HW225386   6.453   6.463   6.578
 8163SOL     OW25387   2.587   4.413   5.744
 8163SOL    HW125388   2.530   4.334   5.722
 8163SOL    HW225389   2.676   4.404   5.699
 8164SOL     OW25390   5.791   3.194   0.771
 8164SOL    HW125391   5.832   3.103   0.776
 8164SOL    HW225392   5.847   3.260   0.822
 8165SOL     OW25393   1.589   4.617   0.658
 8165SOL    HW125394   1.637   4.542   0.612
 8165SOL    HW225395   1.628   4.632   0.748
 8166SOL     OW25396   2.258   1.317   1.865
 8166SOL    HW125397   2.168   1.340   1.829
 8166SOL    HW225398   2.313   1.400   1.874
 8167SOL     OW25399   5.558   1.438   4.123
 8167SOL    HW125400   5.610   1.383   4.189
 8167SOL    HW225401   5.616   1.455   4.043
 8168SOL     OW25402   3.206   2.165   2.662
 8168SOL    HW125403   3.267   2.241   2.686
 8168SOL    HW225404   3.250   2.078   2.687
 8169SOL     OW25405   4.659   3.120   1.085
 8169SOL    HW125406   4.621   3.128   1.177
 8169SOL    HW225407   4.707   3.205   1.061
 8170SOL     OW25408   1.737   5.597   3.248
 8170SOL    HW125409   1.679   5.524   3.283
 8170SOL    HW225410   1.776   5.648   3.324
 8171SOL     OW25411   0.736   2.104   6.554
 8171SOL    HW125412   0.751   2.056   6.468
 8171SOL    HW225413   0.638   2.105   6.575
 8172SOL     OW25414   0.110   0.857   0.992
 8172SOL    HW125415   0.139   0.806   1.073
 8172SOL    HW225416   0.133   0.805   0.910
 8173SOL     OW25417   3.060   1.984   6.878
 8173SOL    HW125418   3.156   1.977   6.851
 8173SOL    HW225419   3.021   1.893   6.887
 8174SOL     OW25420   5.361   1.943   1.087
 8174SOL    HW125421   5.448   1.956   1.136
 8174SOL    HW225422   5.289   1.922   1.152
 8175SOL     OW25423   6.869   2.446   6.915
 8175SOL    HW125424   6.943   2.495   6.869
 8175SOL    HW225425   6.794   2.431   6.850
 8176SOL     OW25426   2.793   5.830   2.045
 8176SOL    HW125427   2.774   5.735   2.069
 8176SOL    HW225428   2.729   5.890   2.093
 8177SOL     OW25429   1.176   6.071   3.512
 8177SOL    HW125430   1.159   6.057   3.609
 8177SOL    HW225431   1.208   5.985   3.471
 8178SOL     OW25432   1.439   0.240   5.739
 8178SOL    HW125433   1.398   0.158   5.779
 8178SOL    HW225434   1.530   0.217   5.703
 8179SOL     OW25435   3.714   3.358   0.197
 8179SOL    HW125436   3.684   3.335   0.104
 8179SOL    HW225437   3.761   3.446   0.197
 8180SOL     OW25438   6.675   0.015   4.054
 8180SOL    HW125439   6.651   6.966   4.120
 8180SOL    HW225440   6.740   7.002   3.988
 8181SOL     OW25441   2.479   2.240   2.840
 8181SOL    HW125442   2.384   2.265   2.824
 8181SOL    HW225443   2.538   2.318   2.821
 8182SOL     OW25444   3.259   1.989   6.294
 8182SOL    HW125445   3.213   2.077   6.305
 8182SOL    HW225446   3.296   1.981   6.202
 8183SOL     OW25447   0.786   3.089   5.259
 8183SOL    HW125448   0.802   3.148   5.179
 8183SOL    HW225449   0.690   3.094   5.285
 8184SOL     OW25450   6.235   1.196   5.818
 8184SOL    HW125451   6.209   1.253   5.740
 8184SOL    HW225452   6.248   1.254   5.898
 8185SOL     OW25453   2.857   0.481   0.551
 8185SOL    HW125454   2.946   0.525   0.553
 8185SOL    HW225455   2.852   0.411   0.622
 8186SOL     OW25456   3.225   6.253   5.687
 8186SOL    HW125457   3.135   6.212   5.671
 8186SOL    HW225458   3.254   6.234   5.781
 8187SOL     OW25459   1.382   1.721   5.214
 8187SOL    HW125460   1.380   1.699   5.312
 8187SOL    HW225461   1.325   1.800   5.196
 8188SOL     OW25462   5.102   1.966   2.764
 8188SOL    HW125463   5.092   2.004   2.673
 8188SOL    HW225464   5.053   2.023   2.830
 8189SOL     OW25465   4.992   4.183   2.396
 8189SOL    HW125466   4.930   4.126   2.341
 8189SOL    HW225467   4.952   4.273   2.409
 8190SOL     OW25468   5.554   4.195   4.147
 8190SOL    HW125469   5.654   4.199   4.136
 8190SOL    HW225470   5.527   4.258   4.220
 8191SOL     OW25471   1.708   5.207   3.490
 8191SOL    HW125472   1.734   5.116   3.458
 8191SOL    HW225473   1.705   5.208   3.590
 8192SOL     OW25474   2.564   5.537   0.860
 8192SOL    HW125475   2.599   5.444   0.867
 8192SOL    HW225476   2.530   5.553   0.767
 8193SOL     OW25477   6.039   6.270   4.944
 8193SOL    HW125478   6.012   6.270   4.848
 8193SOL    HW225479   6.048   6.364   4.977
 8194SOL     OW25480   6.448   2.241   0.244
 8194SOL    HW125481   6.418   2.294   0.323
 8194SOL    HW225482   6.430   2.291   0.160
 8195SOL     OW25483   0.258   0.344   0.876
 8195SOL    HW125484   0.195   0.362   0.952
 8195SOL    HW225485   0.206   0.312   0.797
 8196SOL     OW25486   4.043   6.525   5.733
 8196SOL    HW125487   3.943   6.525   5.730
 8196SOL    HW225488   4.079   6.541   5.642
 8197SOL     OW25489   6.256   1.098   6.421
 8197SOL    HW125490   6.281   1.065   6.330
 8197SOL    HW225491   6.338   1.117   6.474
 8198SOL     OW25492   2.634   6.668   2.610
 8198SOL    HW125493   2.553   6.723   2.587
 8198SOL    HW225494   2.701   6.674   2.536
 8199SOL     OW25495   0.522   3.512   0.374
 8199SOL    HW125496   0.444   3.565   0.344
 8199SOL    HW225497   0.533   3.432   0.316
 8200SOL     OW25498   4.472   4.848   1.500
 8200SOL    HW125499   4.486   4.791   1.419
 8200SOL    HW225500   4.552   4.841   1.560
 8201SOL     OW25501   4.913   1.087   4.589
 8201SOL    HW125502   4.971   1.067   4.510
 8201SOL    HW225503   4.899   1.003   4.642
 8202SOL     OW25504   1.785   5.225   3.825
 8202SOL    HW125505   1.698   5.193   3.787
 8202SOL    HW225506   1.796   5.322   3.807
 8203SOL     OW25507   4.787   3.372   1.071
 8203SOL    HW125508   4.867   3.406   1.021
 8203SOL    HW225509   4.735   3.450   1.105
 8204SOL     OW25510   3.434   6.441   1.808
 8204SOL    HW125511   3.409   6.462   1.903
 8204SOL    HW225512   3.516   6.384   1.807
 8205SOL     OW25513   5.512   5.251   1.662
 8205SOL    HW125514   5.596   5.244   1.716
 8205SOL    HW225515   5.456   5.170   1.677
 8206SOL     OW25516   3.478   2.632   6.229
 8206SOL    HW125517   3.406   2.576   6.269
 8206SOL    HW225518   3.471   2.726   6.263
 8207SOL     OW25519   2.873   4.797   5.603
 8207SOL    HW125520   2.968   4.827   5.618
 8207SOL    HW225521   2.840   4.837   5.518
 8208SOL     OW25522   2.202   5.778   1.880
 8208SOL    HW125523   2.229   5.874   1.890
 8208SOL    HW225524   2.284   5.721   1.871
 8209SOL     OW25525   1.631   1.287   5.513
 8209SOL    HW125526   1.638   1.235   5.599
 8209SOL    HW225527   1.540   1.273   5.473
 8210SOL     OW25528   2.354   0.919   0.386
 8210SOL    HW125529   2.416   0.863   0.330
 8210SOL    HW225530   2.260   0.902   0.358
 8211SOL     OW25531   3.607   4.134   4.501
 8211SOL    HW125532   3.602   4.190   4.584
 8211SOL    HW225533   3.524   4.081   4.491
 8212SOL     OW25534   2.396   0.018   0.792
 8212SOL    HW125535   2.328   0.060   0.851
 8212SOL    HW225536   2.354   6.967   0.739
 8213SOL     OW25537   4.311   4.864   2.868
 8213SOL    HW125538   4.401   4.907   2.864
 8213SOL    HW225539   4.267   4.870   2.779
 8214SOL     OW25540   2.631   6.119   3.813
 8214SOL    HW125541   2.577   6.049   3.859
 8214SOL    HW225542   2.609   6.119   3.715
 8215SOL     OW25543   4.049   6.607   6.902
 8215SOL    HW125544   4.147   6.619   6.915
 8215SOL    HW225545   4.001   6.692   6.926
 8216SOL     OW25546   4.976   6.227   2.945
 8216SOL    HW125547   5.073   6.235   2.967
 8216SOL    HW225548   4.963   6.158   2.874
 8217SOL     OW25549   2.314   4.254   3.070
 8217SOL    HW125550   2.391   4.227   3.128
 8217SOL    HW225551   2.349   4.285   2.981
 8218SOL     OW25552   2.002   0.529   4.803
 8218SOL    HW125553   2.023   0.626   4.786
 8218SOL    HW225554   1.975   0.485   4.717
 8219SOL     OW25555   3.370   4.012   2.051
 8219SOL    HW125556   3.289   4.008   1.992
 8219SOL    HW225557   3.342   4.033   2.144
 8220SOL     OW25558   3.336   4.061   5.253
 8220SOL    HW125559   3.245   4.094   5.280
 8220SOL    HW225560   3.398   4.138   5.243
 8221SOL     OW25561   5.996   3.762   3.167
 8221SOL    HW125562   5.901   3.754   3.135
 8221SOL    HW225563   6.051   3.688   3.129
 8222SOL     OW25564   6.593   2.785   1.244
 8222SOL    HW125565   6.573   2.813   1.150
 8222SOL    HW225566   6.574   2.687   1.255
 8223SOL     OW25567   0.232   5.925   5.686
 8223SOL    HW125568   0.174   5.906   5.765
 8223SOL    HW225569   0.248   5.840   5.636
 8224SOL     OW25570   4.776   1.966   0.803
 8224SOL    HW125571   4.746   1.891   0.744
 8224SOL    HW225572   4.855   2.012   0.762
 8225SOL     OW25573   4.140   0.703   7.006
 8225SOL    HW125574   4.112   0.758   0.061
 8225SOL    HW225575   4.183   0.618   0.015
 8226SOL     OW25576   3.659   0.669   6.994
 8226SOL    HW125577   3.677   0.691   0.066
 8226SOL    HW225578   3.743   0.640   6.949
 8227SOL     OW25579   5.288   1.574   3.153
 8227SOL    HW125580   5.203   1.550   3.199
 8227SOL    HW225581   5.349   1.494   3.152
 8228SOL     OW25582   0.813   1.221   5.237
 8228SOL    HW125583   0.758   1.298   5.204
 8228SOL    HW225584   0.759   1.167   5.301
 8229SOL     OW25585   3.882   4.942   1.376
 8229SOL    HW125586   3.937   4.893   1.308
 8229SOL    HW225587   3.944   4.993   1.436
 8230SOL     OW25588   4.217   0.535   5.733
 8230SOL    HW125589   4.303   0.504   5.775
 8230SOL    HW225590   4.237   0.573   5.643
 8231SOL     OW25591   3.327   1.077   1.694
 8231SOL    HW125592   3.262   1.030   1.635
 8231SOL    HW225593   3.282   1.157   1.736
 8232SOL     OW25594   4.315   0.914   2.110
 8232SOL    HW125595   4.227   0.930   2.153
 8232SOL    HW225596   4.374   0.994   2.124
 8233SOL     OW25597   0.711   1.016   5.405
 8233SOL    HW125598   0.704   1.098   5.462
 8233SOL    HW225599   0.629   0.961   5.416
 8234SOL     OW25600   2.541   3.787   0.172
 8234SOL    HW125601   2.572   3.867   0.225
 8234SOL    HW225602   2.584   3.705   0.208
 8235SOL     OW25603   0.007   5.075   6.657
 8235SOL    HW125604   0.023   4.977   6.670
 8235SOL    HW225605   0.010   5.121   6.746
 8236SOL     OW25606   0.368   6.278   5.929
 8236SOL    HW125607   0.422   6.210   5.879
 8236SOL    HW225608   0.396   6.278   6.025
 8237SOL     OW25609   4.714   5.453   6.145
 8237SOL    HW125610   4.688   5.530   6.087
 8237SOL    HW225611   4.812   5.434   6.134
 8238SOL     OW25612   2.801   5.197   0.706
 8238SOL    HW125613   2.867   5.203   0.781
 8238SOL    HW225614   2.849   5.179   0.620
 8239SOL     OW25615   0.941   1.490   5.015
 8239SOL    HW125616   0.947   1.569   5.076
 8239SOL    HW225617   0.995   1.414   5.053
 8240SOL     OW25618   4.111   3.335   4.447
 8240SOL    HW125619   4.156   3.371   4.528
 8240SOL    HW225620   4.064   3.250   4.471
 8241SOL     OW25621   1.095   3.316   6.615
 8241SOL    HW125622   1.161   3.368   6.670
 8241SOL    HW225623   1.131   3.225   6.596
 8242SOL     OW25624   1.226   3.723   4.689
 8242SOL    HW125625   1.162   3.771   4.750
 8242SOL    HW225626   1.218   3.625   4.704
 8243SOL     OW25627   0.710   4.490   5.809
 8243SOL    HW125628   0.697   4.418   5.878
 8243SOL    HW225629   0.763   4.453   5.733
 8244SOL     OW25630   0.810   0.456   3.662
 8244SOL    HW125631   0.745   0.383   3.680
 8244SOL    HW225632   0.864   0.433   3.581
 8245SOL     OW25633   5.057   1.264   4.254
 8245SOL    HW125634   5.143   1.239   4.297
 8245SOL    HW225635   5.066   1.255   4.154
 8246SOL     OW25636   1.091   4.023   6.419
 8246SOL    HW125637   1.051   3.962   6.488
 8246SOL    HW225638   1.051   4.114   6.427
 8247SOL     OW25639   3.150   4.901   3.575
 8247SOL    HW125640   3.066   4.861   3.539
 8247SOL    HW225641   3.182   4.848   3.654
 8248SOL     OW25642   0.442   5.883   2.676
 8248SOL    HW125643   0.523   5.848   2.722
 8248SOL    HW225644   0.416   5.822   2.602
 8249SOL     OW25645   1.777   1.841   5.798
 8249SOL    HW125646   1.821   1.830   5.709
 8249SOL    HW225647   1.763   1.938   5.817
 8250SOL     OW25648   2.077   1.874   6.752
 8250SOL    HW125649   2.174   1.898   6.745
 8250SOL    HW225650   2.069   1.779   6.782
 8251SOL     OW25651   0.222   2.875   5.042
 8251SOL    HW125652   0.193   2.960   5.086
 8251SOL    HW225653   0.306   2.890   4.990
 8252SOL     OW25654   2.340   2.452   6.380
 8252SOL    HW125655   2.246   2.460   6.348
 8252SOL    HW225656   2.389   2.537   6.363
 8253SOL     OW25657   3.582   5.525   6.914
 8253SOL    HW125658   3.570   5.438   6.866
 8253SOL    HW225659   3.679   5.540   6.932
 8254SOL     OW25660   5.608   5.264   0.558
 8254SOL    HW125661   5.620   5.326   0.636
 8254SOL    HW225662   5.510   5.245   0.546
 8255SOL     OW25663   0.418   0.257   5.932
 8255SOL    HW125664   0.424   0.158   5.919
 8255SOL    HW225665   0.490   0.302   5.879
 8256SOL     OW25666   1.276   6.378   2.599
 8256SOL    HW125667   1.254   6.380   2.697
 8256SOL    HW225668   1.204   6.426   2.548
 8257SOL     OW25669   5.187   4.221   4.253
 8257SOL    HW125670   5.250   4.204   4.177
 8257SOL    HW225671   5.133   4.139   4.271
 8258SOL     OW25672   6.058   3.055   1.540
 8258SOL    HW125673   6.089   3.093   1.453
 8258SOL    HW225674   6.041   2.957   1.530
 8259SOL     OW25675   4.541   2.444   4.334
 8259SOL    HW125676   4.567   2.535   4.365
 8259SOL    HW225677   4.488   2.397   4.405
 8260SOL     OW25678   2.529   6.777   0.546
 8260SOL    HW125679   2.447   6.810   0.592
 8260SOL    HW225680   2.503   6.718   0.470
 8261SOL     OW25681   5.521   6.686   3.028
 8261SOL    HW125682   5.452   6.757   3.015
 8261SOL    HW225683   5.612   6.726   3.015
 8262SOL     OW25684   0.469   4.436   0.607
 8262SOL    HW125685   0.389   4.444   0.666
 8262SOL    HW225686   0.521   4.354   0.632
 8263SOL     OW25687   6.913   2.300   0.102
 8263SOL    HW125688   6.831   2.294   0.159
 8263SOL    HW225689   6.898   2.365   0.027
 8264SOL     OW25690   1.884   0.128   2.297
 8264SOL    HW125691   1.840   0.102   2.382
 8264SOL    HW225692   1.905   0.225   2.298
 8265SOL     OW25693   4.787   0.448   0.898
 8265SOL    HW125694   4.692   0.425   0.875
 8265SOL    HW225695   4.789   0.536   0.945
 8266SOL     OW25696   2.441   6.928   3.543
 8266SOL    HW125697   2.391   6.979   3.473
 8266SOL    HW225698   2.377   6.889   3.609
 8267SOL     OW25699   1.065   4.330   2.642
 8267SOL    HW125700   1.146   4.383   2.667
 8267SOL    HW225701   0.982   4.378   2.671
 8268SOL     OW25702   3.346   3.769   6.801
 8268SOL    HW125703   3.360   3.844   6.737
 8268SOL    HW225704   3.289   3.800   6.877
 8269SOL     OW25705   4.157   2.294   2.922
 8269SOL    HW125706   4.231   2.361   2.922
 8269SOL    HW225707   4.157   2.245   2.834
 8270SOL     OW25708   3.854   6.681   5.539
 8270SOL    HW125709   3.915   6.742   5.591
 8270SOL    HW225710   3.820   6.609   5.600
 8271SOL     OW25711   5.187   6.301   4.631
 8271SOL    HW125712   5.132   6.368   4.580
 8271SOL    HW225713   5.232   6.239   4.566
 8272SOL     OW25714   0.678   0.334   2.100
 8272SOL    HW125715   0.761   0.373   2.060
 8272SOL    HW225716   0.671   0.362   2.196
 8273SOL     OW25717   2.881   6.202   0.033
 8273SOL    HW125718   2.828   6.237   0.110
 8273SOL    HW225719   2.880   6.102   0.034
 8274SOL     OW25720   4.978   5.364   7.005
 8274SOL    HW125721   4.883   5.376   6.975
 8274SOL    HW225722   5.032   5.443   6.978
 8275SOL     OW25723   6.661   0.292   4.075
 8275SOL    HW125724   6.672   0.200   4.039
 8275SOL    HW225725   6.588   0.339   4.024
 8276SOL     OW25726   6.602   2.721   6.530
 8276SOL    HW125727   6.623   2.728   6.433
 8276SOL    HW225728   6.659   2.650   6.572
 8277SOL     OW25729   1.342   6.122   5.924
 8277SOL    HW125730   1.343   6.157   6.018
 8277SOL    HW225731   1.275   6.174   5.870
 8278SOL     OW25732   3.472   2.021   6.466
 8278SOL    HW125733   3.447   2.104   6.516
 8278SOL    HW225734   3.398   1.997   6.403
 8279SOL     OW25735   4.355   6.327   6.393
 8279SOL    HW125736   4.297   6.384   6.335
 8279SOL    HW225737   4.444   6.314   6.349
 8280SOL     OW25738   5.186   2.568   0.821
 8280SOL    HW125739   5.159   2.485   0.772
 8280SOL    HW225740   5.104   2.619   0.847
 8281SOL     OW25741   1.538   4.994   0.349
 8281SOL    HW125742   1.538   4.894   0.342
 8281SOL    HW225743   1.472   5.032   0.284
 8282SOL     OW25744   3.017   2.937   1.067
 8282SOL    HW125745   3.018   3.037   1.073
 8282SOL    HW225746   3.110   2.905   1.049
 8283SOL     OW25747   0.455   4.922   4.000
 8283SOL    HW125748   0.388   4.986   4.037
 8283SOL    HW225749   0.408   4.854   3.943
 8284SOL     OW25750   2.367   2.306   2.321
 8284SOL    HW125751   2.444   2.250   2.291
 8284SOL    HW225752   2.282   2.268   2.284
 8285SOL     OW25753   3.259   4.331   5.739
 8285SOL    HW125754   3.226   4.323   5.833
 8285SOL    HW225755   3.182   4.349   5.678
 8286SOL     OW25756   5.037   0.905   4.401
 8286SOL    HW125757   5.054   0.825   4.458
 8286SOL    HW225758   5.059   0.884   4.306
 8287SOL     OW25759   1.194   0.429   3.580
 8287SOL    HW125760   1.277   0.449   3.529
 8287SOL    HW225761   1.196   0.477   3.668
 8288SOL     OW25762   1.784   1.786   2.399
 8288SOL    HW125763   1.756   1.874   2.438
 8288SOL    HW225764   1.871   1.796   2.351
 8289SOL     OW25765   6.449   1.965   5.600
 8289SOL    HW125766   6.380   2.005   5.540
 8289SOL    HW225767   6.516   2.036   5.625
 8290SOL     OW25768   3.719   2.528   1.720
 8290SOL    HW125769   3.691   2.447   1.771
 8290SOL    HW225770   3.693   2.610   1.771
 8291SOL     OW25771   5.982   6.790   6.281
 8291SOL    HW125772   5.944   6.879   6.256
 8291SOL    HW225773   5.950   6.721   6.216
 8292SOL     OW25774   0.555   4.507   5.405
 8292SOL    HW125775   0.604   4.581   5.450
 8292SOL    HW225776   0.622   4.449   5.357
 8293SOL     OW25777   2.645   5.227   2.082
 8293SOL    HW125778   2.650   5.188   2.174
 8293SOL    HW225779   2.737   5.251   2.052
 8294SOL     OW25780   6.671   3.594   6.340
 8294SOL    HW125781   6.629   3.505   6.355
 8294SOL    HW225782   6.768   3.583   6.319
 8295SOL     OW25783   5.277   4.158   2.869
 8295SOL    HW125784   5.190   4.141   2.915
 8295SOL    HW225785   5.262   4.165   2.771
 8296SOL     OW25786   3.212   5.404   0.712
 8296SOL    HW125787   3.146   5.431   0.642
 8296SOL    HW225788   3.295   5.460   0.703
 8297SOL     OW25789   6.544   4.338   2.911
 8297SOL    HW125790   6.450   4.364   2.889
 8297SOL    HW225791   6.602   4.419   2.908
 8298SOL     OW25792   0.445   0.901   0.139
 8298SOL    HW125793   0.398   0.863   0.219
 8298SOL    HW225794   0.527   0.847   0.121
 8299SOL     OW25795   0.522   3.714   1.739
 8299SOL    HW125796   0.544   3.798   1.691
 8299SOL    HW225797   0.563   3.716   1.830
 8300SOL     OW25798   6.127   4.953   3.675
 8300SOL    HW125799   6.135   5.052   3.659
 8300SOL    HW225800   6.156   4.932   3.768
 8301SOL     OW25801   3.638   6.539   0.562
 8301SOL    HW125802   3.548   6.495   0.564
 8301SOL    HW225803   3.637   6.619   0.622
 8302SOL     OW25804   3.596   6.361   4.432
 8302SOL    HW125805   3.523   6.315   4.381
 8302SOL    HW225806   3.632   6.437   4.379
 8303SOL     OW25807   6.273   6.869   2.230
 8303SOL    HW125808   6.232   6.878   2.139
 8303SOL    HW225809   6.304   6.958   2.262
 8304SOL     OW25810   5.998   3.712   3.745
 8304SOL    HW125811   6.050   3.716   3.830
 8304SOL    HW225812   5.906   3.750   3.760
 8305SOL     OW25813   4.644   5.293   4.040
 8305SOL    HW125814   4.715   5.272   4.107
 8305SOL    HW225815   4.686   5.309   3.950
 8306SOL     OW25816   6.294   1.048   2.308
 8306SOL    HW125817   6.314   1.144   2.328
 8306SOL    HW225818   6.378   0.994   2.318
 8307SOL     OW25819   1.919   4.818   1.799
 8307SOL    HW125820   1.824   4.836   1.774
 8307SOL    HW225821   1.922   4.772   1.887
 8308SOL     OW25822   0.741   4.992   0.036
 8308SOL    HW125823   0.840   5.001   0.028
 8308SOL    HW225824   0.717   4.974   0.132
 8309SOL     OW25825   6.928   4.227   4.804
 8309SOL    HW125826   6.853   4.216   4.739
 8309SOL    HW225827   6.892   4.264   4.890
 8310SOL     OW25828   0.687   6.781   0.682
 8310SOL    HW125829   0.706   6.878   0.695
 8310SOL    HW225830   0.765   6.738   0.636
 8311SOL     OW25831   5.833   6.551   3.970
 8311SOL    HW125832   5.791   6.613   3.904
 8311SOL    HW225833   5.806   6.457   3.950
 8312SOL     OW25834   4.854   0.435   6.737
 8312SOL    HW125835   4.770   0.462   6.689
 8312SOL    HW225836   4.895   0.516   6.779
 8313SOL     OW25837   4.418   0.632   4.694
 8313SOL    HW125838   4.395   0.693   4.770
 8313SOL    HW225839   4.339   0.577   4.669
 8314SOL     OW25840   5.510   6.339   5.593
 8314SOL    HW125841   5.581   6.321   5.661
 8314SOL    HW225842   5.442   6.265   5.594
 8315SOL     OW25843   3.434   2.902   4.671
 8315SOL    HW125844   3.352   2.915   4.727
 8315SOL    HW225845   3.515   2.922   4.726
 8316SOL     OW25846   1.000   2.598   0.400
 8316SOL    HW125847   1.083   2.555   0.364
 8316SOL    HW225848   0.920   2.559   0.355
 8317SOL     OW25849   1.880   1.891   4.342
 8317SOL    HW125850   1.882   1.939   4.429
 8317SOL    HW225851   1.934   1.941   4.274
 8318SOL     OW25852   3.546   0.283   6.443
 8318SOL    HW125853   3.630   0.335   6.463
 8318SOL    HW225854   3.466   0.341   6.459
 8319SOL     OW25855   1.894   6.983   5.944
 8319SOL    HW125856   1.877   6.965   6.041
 8319SOL    HW225857   1.846   6.915   5.889
 8320SOL     OW25858   3.684   3.843   4.731
 8320SOL    HW125859   3.698   3.846   4.830
 8320SOL    HW225860   3.727   3.922   4.688
 8321SOL     OW25861   0.080   0.143   0.285
 8321SOL    HW125862   0.014   0.150   0.210
 8321SOL    HW225863   0.068   0.056   0.332
 8322SOL     OW25864   6.688   0.971   0.204
 8322SOL    HW125865   6.709   0.879   0.170
 8322SOL    HW225866   6.590   0.987   0.198
 8323SOL     OW25867   4.554   4.583   1.042
 8323SOL    HW125868   4.560   4.483   1.041
 8323SOL    HW225869   4.492   4.613   0.970
 8324SOL     OW25870   6.575   6.767   6.681
 8324SOL    HW125871   6.618   6.808   6.600
 8324SOL    HW225872   6.620   6.800   6.763
 8325SOL     OW25873   1.550   5.555   5.104
 8325SOL    HW125874   1.526   5.613   5.027
 8325SOL    HW225875   1.508   5.465   5.093
 8326SOL     OW25876   2.659   3.628   0.480
 8326SOL    HW125877   2.702   3.718   0.466
 8326SOL    HW225878   2.587   3.636   0.548
 8327SOL     OW25879   0.550   0.685   5.129
 8327SOL    HW125880   0.548   0.672   5.030
 8327SOL    HW225881   0.486   0.758   5.155
 8328SOL     OW25882   0.777   6.562   5.754
 8328SOL    HW125883   0.730   6.618   5.686
 8328SOL    HW225884   0.860   6.610   5.785
 8329SOL     OW25885   0.709   3.028   4.917
 8329SOL    HW125886   0.731   3.122   4.945
 8329SOL    HW225887   0.783   2.991   4.862
 8330SOL     OW25888   3.805   0.693   6.675
 8330SOL    HW125889   3.816   0.747   6.591
 8330SOL    HW225890   3.894   0.683   6.719
 8331SOL     OW25891   1.858   2.271   0.225
 8331SOL    HW125892   1.799   2.208   0.276
 8331SOL    HW225893   1.865   2.240   0.130
 8332SOL     OW25894   5.372   4.791   1.822
 8332SOL    HW125895   5.325   4.703   1.828
 8332SOL    HW225896   5.347   4.847   1.901
 8333SOL     OW25897   2.331   4.647   1.235
 8333SOL    HW125898   2.314   4.741   1.266
 8333SOL    HW225899   2.343   4.647   1.136
 8334SOL     OW25900   2.914   2.506   6.564
 8334SOL    HW125901   2.844   2.535   6.499
 8334SOL    HW225902   2.873   2.491   6.654
 8335SOL     OW25903   5.145   3.123   6.311
 8335SOL    HW125904   5.082   3.049   6.334
 8335SOL    HW225905   5.162   3.123   6.213
 8336SOL     OW25906   1.044   3.507   3.121
 8336SOL    HW125907   0.990   3.471   3.196
 8336SOL    HW225908   1.016   3.465   3.035
 8337SOL     OW25909   1.056   1.025   4.355
 8337SOL    HW125910   0.974   1.082   4.348
 8337SOL    HW225911   1.135   1.083   4.377
 8338SOL     OW25912   3.794   4.847   2.228
 8338SOL    HW125913   3.720   4.844   2.296
 8338SOL    HW225914   3.758   4.824   2.138
 8339SOL     OW25915   6.900   0.535   0.823
 8339SOL    HW125916   6.816   0.576   0.787
 8339SOL    HW225917   6.971   0.538   0.753
 8340SOL     OW25918   4.990   2.379   1.157
 8340SOL    HW125919   4.915   2.375   1.091
 8340SOL    HW225920   5.040   2.465   1.146
 8341SOL     OW25921   3.719   0.354   0.092
 8341SOL    HW125922   3.808   0.385   0.126
 8341SOL    HW225923   3.676   0.428   0.040
 8342SOL     OW25924   3.949   6.347   6.791
 8342SOL    HW125925   3.976   6.440   6.813
 8342SOL    HW225926   3.930   6.297   6.876
 8343SOL     OW25927   0.022   4.265   3.933
 8343SOL    HW125928   0.069   4.191   3.885
 8343SOL    HW225929   6.953   4.275   3.897
 8344SOL     OW25930   0.970   5.407   4.423
 8344SOL    HW125931   0.966   5.355   4.338
 8344SOL    HW225932   0.894   5.380   4.482
 8345SOL     OW25933   5.037   0.825   2.529
 8345SOL    HW125934   5.117   0.848   2.473
 8345SOL    HW225935   5.068   0.785   2.615
 8346SOL     OW25936   4.080   3.520   5.621
 8346SOL    HW125937   4.038   3.484   5.705
 8346SOL    HW225938   4.016   3.507   5.545
 8347SOL     OW25939   2.334   0.093   5.905
 8347SOL    HW125940   2.315   0.152   5.983
 8347SOL    HW225941   2.390   0.143   5.838
 8348SOL     OW25942   3.764   6.672   1.769
 8348SOL    HW125943   3.797   6.583   1.801
 8348SOL    HW225944   3.702   6.711   1.836
 8349SOL     OW25945   0.968   6.675   2.216
 8349SOL    HW125946   0.997   6.611   2.287
 8349SOL    HW225947   1.034   6.749   2.209
 8350SOL     OW25948   2.723   0.067   6.311
 8350SOL    HW125949   2.655   0.027   6.249
 8350SOL    HW225950   2.786   0.125   6.258
 8351SOL     OW25951   6.754   4.269   4.310
 8351SOL    HW125952   6.850   4.264   4.281
 8351SOL    HW225953   6.701   4.203   4.258
 8352SOL     OW25954   2.515   5.750   1.921
 8352SOL    HW125955   2.521   5.829   1.983
 8352SOL    HW225956   2.597   5.746   1.864
 8353SOL     OW25957   1.124   3.689   2.140
 8353SOL    HW125958   1.186   3.710   2.064
 8353SOL    HW225959   1.173   3.703   2.226
 8354SOL     OW25960   3.610   6.689   4.046
 8354SOL    HW125961   3.526   6.651   4.007
 8354SOL    HW225962   3.681   6.618   4.045
 8355SOL     OW25963   1.407   6.775   5.661
 8355SOL    HW125964   1.379   6.841   5.731
 8355SOL    HW225965   1.444   6.824   5.582
 8356SOL     OW25966   1.898   5.486   1.419
 8356SOL    HW125967   1.908   5.458   1.324
 8356SOL    HW225968   1.962   5.435   1.476
 8357SOL     OW25969   4.064   5.574   5.839
 8357SOL    HW125970   4.109   5.538   5.757
 8357SOL    HW225971   4.025   5.664   5.818
 8358SOL     OW25972   1.291   2.271   5.274
 8358SOL    HW125973   1.215   2.336   5.274
 8358SOL    HW225974   1.275   2.203   5.346
 8359SOL     OW25975   3.111   0.925   4.949
 8359SOL    HW125976   3.082   0.970   5.034
 8359SOL    HW225977   3.210   0.929   4.941
 8360SOL     OW25978   4.982   6.110   0.299
 8360SOL    HW125979   4.955   6.197   0.256
 8360SOL    HW225980   5.080   6.112   0.319
 8361SOL     OW25981   2.394   6.789   6.964
 8361SOL    HW125982   2.386   6.712   6.900
 8361SOL    HW225983   2.483   6.832   6.953
 8362SOL     OW25984   6.569   3.080   0.617
 8362SOL    HW125985   6.485   3.026   0.616
 8362SOL    HW225986   6.556   3.161   0.675
 8363SOL     OW25987   3.897   2.098   0.726
 8363SOL    HW125988   3.876   2.063   0.635
 8363SOL    HW225989   3.841   2.051   0.794
 8364SOL     OW25990   0.408   2.715   3.857
 8364SOL    HW125991   0.447   2.630   3.822
 8364SOL    HW225992   0.464   2.748   3.933
 8365SOL     OW25993   2.277   2.688   1.955
 8365SOL    HW125994   2.300   2.685   1.858
 8365SOL    HW225995   2.322   2.613   2.003
 8366SOL     OW25996   4.487   5.587   0.957
 8366SOL    HW125997   4.400   5.540   0.974
 8366SOL    HW225998   4.539   5.538   0.888
 8367SOL     OW25999   4.033   5.180   5.140
 8367SOL    HW126000   4.122   5.153   5.176
 8367SOL    HW226001   4.045   5.246   5.066
 8368SOL     OW26002   0.962   6.124   0.106
 8368SOL    HW126003   1.035   6.173   0.059
 8368SOL    HW226004   0.995   6.035   0.137
 8369SOL     OW26005   1.080   1.629   0.433
 8369SOL    HW126006   1.139   1.569   0.379
 8369SOL    HW226007   1.075   1.596   0.527
 8370SOL     OW26008   2.662   1.964   6.960
 8370SOL    HW126009   2.742   1.920   7.000
 8370SOL    HW226010   2.692   2.043   6.907
 8371SOL     OW26011   1.606   3.195   5.728
 8371SOL    HW126012   1.617   3.292   5.748
 8371SOL    HW226013   1.690   3.160   5.684
 8372SOL     OW26014   2.158   6.659   2.406
 8372SOL    HW126015   2.068   6.650   2.450
 8372SOL    HW226016   2.217   6.718   2.461
 8373SOL     OW26017   0.658   1.293   4.201
 8373SOL    HW126018   0.677   1.377   4.150
 8373SOL    HW226019   0.572   1.253   4.169
 8374SOL     OW26020   1.292   1.133   4.495
 8374SOL    HW126021   1.337   1.054   4.453
 8374SOL    HW226022   1.266   1.198   4.424
 8375SOL     OW26023   4.399   0.941   5.767
 8375SOL    HW126024   4.367   1.017   5.824
 8375SOL    HW226025   4.490   0.913   5.798
 8376SOL     OW26026   1.649   0.928   3.223
 8376SOL    HW126027   1.602   0.920   3.311
 8376SOL    HW226028   1.601   0.995   3.166
 8377SOL     OW26029   5.568   5.480   6.627
 8377SOL    HW126030   5.513   5.413   6.578
 8377SOL    HW226031   5.658   5.488   6.585
 8378SOL     OW26032   5.322   5.614   3.477
 8378SOL    HW126033   5.333   5.535   3.417
 8378SOL    HW226034   5.411   5.659   3.489
 8379SOL     OW26035   5.550   1.770   2.010
 8379SOL    HW126036   5.567   1.695   2.073
 8379SOL    HW226037   5.606   1.849   2.035
 8380SOL     OW26038   0.151   5.550   6.490
 8380SOL    HW126039   0.105   5.587   6.409
 8380SOL    HW226040   0.236   5.601   6.506
 8381SOL     OW26041   0.044   2.138   2.504
 8381SOL    HW126042   0.082   2.050   2.533
 8381SOL    HW226043   0.041   2.200   2.583
 8382SOL     OW26044   2.694   0.167   7.000
 8382SOL    HW126045   2.638   0.247   6.977
 8382SOL    HW226046   2.668   0.090   6.941
 8383SOL     OW26047   2.679   0.030   4.464
 8383SOL    HW126048   2.616   0.022   4.387
 8383SOL    HW226049   2.755   0.091   4.439
 8384SOL     OW26050   6.881   2.112   1.213
 8384SOL    HW126051   6.813   2.180   1.186
 8384SOL    HW226052   6.838   2.022   1.219
 8385SOL     OW26053   4.699   3.272   0.644
 8385SOL    HW126054   4.706   3.172   0.633
 8385SOL    HW226055   4.612   3.294   0.689
 8386SOL     OW26056   2.000   6.617   1.560
 8386SOL    HW126057   1.942   6.550   1.606
 8386SOL    HW226058   1.946   6.671   1.496
 8387SOL     OW26059   2.374   1.557   0.719
 8387SOL    HW126060   2.436   1.593   0.649
 8387SOL    HW226061   2.340   1.633   0.775
 8388SOL     OW26062   2.421   6.755   0.270
 8388SOL    HW126063   2.482   6.714   0.202
 8388SOL    HW226064   2.345   6.802   0.224
 8389SOL     OW26065   1.250   3.213   4.452
 8389SOL    HW126066   1.340   3.254   4.438
 8389SOL    HW226067   1.188   3.280   4.492
 8390SOL     OW26068   2.698   0.720   5.824
 8390SOL    HW126069   2.690   0.776   5.907
 8390SOL    HW226070   2.617   0.662   5.815
 8391SOL     OW26071   5.288   5.687   2.032
 8391SOL    HW126072   5.212   5.741   1.995
 8391SOL    HW226073   5.362   5.749   2.061
 8392SOL     OW26074   6.151   5.666   4.679
 8392SOL    HW126075   6.225   5.633   4.621
 8392SOL    HW226076   6.140   5.607   4.758
 8393SOL     OW26077   6.440   6.675   3.497
 8393SOL    HW126078   6.357   6.626   3.473
 8393SOL    HW226079   6.426   6.725   3.582
 8394SOL     OW26080   0.858   1.604   2.954
 8394SOL    HW126081   0.822   1.530   2.896
 8394SOL    HW226082   0.937   1.645   2.909
 8395SOL     OW26083   0.711   6.149   4.682
 8395SOL    HW126084   0.630   6.142   4.739
 8395SOL    HW226085   0.769   6.068   4.697
 8396SOL     OW26086   4.663   4.261   2.460
 8396SOL    HW126087   4.621   4.318   2.389
 8396SOL    HW226088   4.632   4.292   2.550
 8397SOL     OW26089   1.982   6.693   2.822
 8397SOL    HW126090   1.888   6.665   2.840
 8397SOL    HW226091   1.984   6.749   2.739
 8398SOL     OW26092   4.007   1.547   0.162
 8398SOL    HW126093   3.997   1.537   0.261
 8398SOL    HW226094   4.092   1.595   0.141
 8399SOL     OW26095   5.673   5.957   1.003
 8399SOL    HW126096   5.626   6.036   1.041
 8399SOL    HW226097   5.643   5.874   1.051
 8400SOL     OW26098   0.385   0.539   2.902
 8400SOL    HW126099   0.477   0.571   2.878
 8400SOL    HW226100   0.337   0.511   2.820
 8401SOL     OW26101   4.420   3.223   6.077
 8401SOL    HW126102   4.334   3.236   6.127
 8401SOL    HW226103   4.401   3.185   5.986
 8402SOL     OW26104   3.762   2.161   6.006
 8402SOL    HW126105   3.738   2.164   5.909
 8402SOL    HW226106   3.853   2.121   6.017
 8403SOL     OW26107   1.249   1.732   3.789
 8403SOL    HW126108   1.340   1.706   3.755
 8403SOL    HW226109   1.258   1.781   3.875
 8404SOL     OW26110   5.325   6.175   5.710
 8404SOL    HW126111   5.359   6.087   5.675
 8404SOL    HW226112   5.253   6.159   5.777
 8405SOL     OW26113   1.390   1.791   6.810
 8405SOL    HW126114   1.310   1.777   6.752
 8405SOL    HW226115   1.456   1.718   6.795
 8406SOL     OW26116   4.250   1.775   0.776
 8406SOL    HW126117   4.238   1.806   0.681
 8406SOL    HW226118   4.319   1.832   0.821
 8407SOL     OW26119   5.743   4.528   4.240
 8407SOL    HW126120   5.762   4.565   4.149
 8407SOL    HW226121   5.645   4.530   4.258
 8408SOL     OW26122   4.982   6.979   3.935
 8408SOL    HW126123   5.025   6.900   3.891
 8408SOL    HW226124   4.931   0.008   3.868
 8409SOL     OW26125   0.516   1.888   3.949
 8409SOL    HW126126   0.584   1.904   3.877
 8409SOL    HW226127   0.550   1.818   4.012
 8410SOL     OW26128   5.398   0.217   1.891
 8410SOL    HW126129   5.423   0.142   1.952
 8410SOL    HW226130   5.480   0.255   1.849
 8411SOL     OW26131   1.363   5.005   3.984
 8411SOL    HW126132   1.356   5.069   4.060
 8411SOL    HW226133   1.274   4.997   3.939
 8412SOL     OW26134   4.517   2.374   1.198
 8412SOL    HW126135   4.561   2.393   1.286
 8412SOL    HW226136   4.536   2.448   1.134
 8413SOL     OW26137   4.142   5.136   0.828
 8413SOL    HW126138   4.142   5.036   0.827
 8413SOL    HW226139   4.064   5.170   0.775
 8414SOL     OW26140   3.705   6.962   2.574
 8414SOL    HW126141   3.670   0.019   2.525
 8414SOL    HW226142   3.695   6.976   2.672
 8415SOL     OW26143   6.713   4.961   3.695
 8415SOL    HW126144   6.738   4.935   3.602
 8415SOL    HW226145   6.640   4.901   3.728
 8416SOL     OW26146   5.272   4.319   2.546
 8416SOL    HW126147   5.224   4.235   2.571
 8416SOL    HW226148   5.364   4.296   2.512
 8417SOL     OW26149   2.651   6.222   5.530
 8417SOL    HW126150   2.593   6.303   5.534
 8417SOL    HW226151   2.671   6.191   5.623
 8418SOL     OW26152   5.854   5.797   2.535
 8418SOL    HW126153   5.858   5.891   2.502
 8418SOL    HW226154   5.857   5.734   2.458
 8419SOL     OW26155   5.095   0.360   1.811
 8419SOL    HW126156   5.128   0.400   1.725
 8419SOL    HW226157   5.166   0.301   1.849
 8420SOL     OW26158   4.547   0.397   0.029
 8420SOL    HW126159   4.526   0.464   6.981
 8420SOL    HW226160   4.568   0.309   7.010
 8421SOL     OW26161   1.998   0.330   1.621
 8421SOL    HW126162   2.060   0.393   1.574
 8421SOL    HW226163   2.049   0.276   1.688
 8422SOL     OW26164   5.538   6.095   0.564
 8422SOL    HW126165   5.610   6.150   0.607
 8422SOL    HW226166   5.451   6.111   0.609
 8423SOL     OW26167   3.762   4.944   6.927
 8423SOL    HW126168   3.822   4.916   7.002
 8423SOL    HW226169   3.722   5.033   6.949
 8424SOL     OW26170   3.499   2.102   2.522
 8424SOL    HW126171   3.469   2.044   2.598
 8424SOL    HW226172   3.419   2.148   2.483
 8425SOL     OW26173   6.707   5.398   1.243
 8425SOL    HW126174   6.781   5.454   1.279
 8425SOL    HW226175   6.733   5.302   1.247
 8426SOL     OW26176   3.908   3.076   3.734
 8426SOL    HW126177   3.919   3.065   3.833
 8426SOL    HW226178   3.981   3.136   3.699
 8427SOL     OW26179   1.924   4.233   5.889
 8427SOL    HW126180   1.990   4.215   5.962
 8427SOL    HW226181   1.942   4.324   5.850
 8428SOL     OW26182   6.988   4.424   1.745
 8428SOL    HW126183   0.053   4.397   1.705
 8428SOL    HW226184   6.952   4.349   1.800
 8429SOL     OW26185   2.921   4.899   4.320
 8429SOL    HW126186   2.855   4.904   4.245
 8429SOL    HW226187   2.881   4.850   4.397
 8430SOL     OW26188   4.637   5.470   2.443
 8430SOL    HW126189   4.619   5.567   2.423
 8430SOL    HW226190   4.573   5.439   2.514
 8431SOL     OW26191   3.083   5.052   1.384
 8431SOL    HW126192   2.996   5.095   1.361
 8431SOL    HW226193   3.067   4.962   1.423
 8432SOL     OW26194   4.557   5.227   6.083
 8432SOL    HW126195   4.609   5.313   6.079
 8432SOL    HW226196   4.619   5.152   6.107
 8433SOL     OW26197   1.055   2.766   6.894
 8433SOL    HW126198   1.039   2.863   6.876
 8433SOL    HW226199   1.108   2.726   6.819
 8434SOL     OW26200   3.900   6.661   5.250
 8434SOL    HW126201   3.833   6.706   5.191
 8434SOL    HW226202   3.901   6.705   5.340
 8435SOL     OW26203   4.644   2.028   1.450
 8435SOL    HW126204   4.730   1.997   1.409
 8435SOL    HW226205   4.589   2.075   1.381
 8436SOL     OW26206   3.541   5.463   3.055
 8436SOL    HW126207   3.603   5.428   2.985
 8436SOL    HW226208   3.446   5.453   3.025
 8437SOL     OW26209   0.584   0.832   1.533
 8437SOL    HW126210   0.491   0.796   1.524
 8437SOL    HW226211   0.648   0.756   1.542
 8438SOL     OW26212   3.021   5.000   2.706
 8438SOL    HW126213   3.001   4.939   2.629
 8438SOL    HW226214   3.002   4.953   2.792
 8439SOL     OW26215   6.337   5.342   1.836
 8439SOL    HW126216   6.383   5.381   1.916
 8439SOL    HW226217   6.238   5.353   1.845
 8440SOL     OW26218   7.016   0.960   2.081
 8440SOL    HW126219   6.943   0.895   2.060
 8440SOL    HW226220   0.056   0.920   2.147
 8441SOL     OW26221   5.727   6.382   6.725
 8441SOL    HW126222   5.650   6.423   6.774
 8441SOL    HW226223   5.777   6.322   6.788
 8442SOL     OW26224   3.470   3.551   0.005
 8442SOL    HW126225   3.519   3.557   0.092
 8442SOL    HW226226   3.389   3.609   0.009
 8443SOL     OW26227   0.978   0.602   3.268
 8443SOL    HW126228   0.927   0.579   3.186
 8443SOL    HW226229   0.979   0.523   3.331
 8444SOL     OW26230   3.614   6.370   3.613
 8444SOL    HW126231   3.524   6.392   3.575
 8444SOL    HW226232   3.611   6.279   3.655
 8445SOL     OW26233   3.432   4.909   2.661
 8445SOL    HW126234   3.383   4.884   2.745
 8445SOL    HW226235   3.378   4.975   2.609
 8446SOL     OW26236   5.152   5.992   2.916
 8446SOL    HW126237   5.206   6.075   2.903
 8446SOL    HW226238   5.181   5.922   2.851
 8447SOL     OW26239   5.375   2.320   2.363
 8447SOL    HW126240   5.278   2.306   2.343
 8447SOL    HW226241   5.385   2.397   2.426
 8448SOL     OW26242   0.281   3.953   6.242
 8448SOL    HW126243   0.304   3.918   6.152
 8448SOL    HW226244   0.186   3.928   6.264
 8449SOL     OW26245   0.412   3.267   4.883
 8449SOL    HW126246   0.386   3.363   4.880
 8449SOL    HW226247   0.496   3.253   4.830
 8450SOL     OW26248   1.699   6.279   2.661
 8450SOL    HW126249   1.606   6.303   2.691
 8450SOL    HW226250   1.698   6.187   2.621
 8451SOL     OW26251   3.793   2.607   0.675
 8451SOL    HW126252   3.874   2.661   0.651
 8451SOL    HW226253   3.777   2.613   0.773
 8452SOL     OW26254   6.808   0.078   1.579
 8452SOL    HW126255   6.748   0.149   1.541
 8452SOL    HW226256   6.811   0.000   1.516
 8453SOL     OW26257   0.226   4.688   6.126
 8453SOL    HW126258   0.234   4.785   6.150
 8453SOL    HW226259   0.313   4.642   6.145
 8454SOL     OW26260   1.602   6.457   2.382
 8454SOL    HW126261   1.637   6.470   2.475
 8454SOL    HW226262   1.571   6.545   2.345
 8455SOL     OW26263   5.004   1.642   1.188
 8455SOL    HW126264   5.088   1.638   1.241
 8455SOL    HW226265   4.927   1.610   1.244
 8456SOL     OW26266   5.875   5.675   3.802
 8456SOL    HW126267   5.968   5.689   3.836
 8456SOL    HW226268   5.814   5.742   3.844
 8457SOL     OW26269   6.728   6.927   5.595
 8457SOL    HW126270   6.708   6.858   5.525
 8457SOL    HW226271   6.643   6.972   5.623
 8458SOL     OW26272   2.018   1.189   6.770
 8458SOL    HW126273   2.004   1.240   6.685
 8458SOL    HW226274   2.097   1.128   6.760
 8459SOL     OW26275   3.670   6.732   2.084
 8459SOL    HW126276   3.655   6.676   2.165
 8459SOL    HW226277   3.669   6.829   2.109
 8460SOL     OW26278   4.199   3.050   6.866
 8460SOL    HW126279   4.169   3.086   6.954
 8460SOL    HW226280   4.154   2.962   6.849
 8461SOL     OW26281   0.591   3.685   1.462
 8461SOL    HW126282   0.514   3.721   1.410
 8461SOL    HW226283   0.568   3.684   1.559
 8462SOL     OW26284   3.981   3.274   0.379
 8462SOL    HW126285   3.918   3.319   0.441
 8462SOL    HW226286   3.943   3.272   0.286
 8463SOL     OW26287   6.853   2.562   0.504
 8463SOL    HW126288   6.881   2.475   0.462
 8463SOL    HW226289   6.773   2.546   0.562
 8464SOL     OW26290   7.018   3.737   5.730
 8464SOL    HW126291   6.923   3.727   5.701
 8464SOL    HW226292   7.021   3.765   5.826
 8465SOL     OW26293   2.793   2.418   1.216
 8465SOL    HW126294   2.872   2.478   1.206
 8465SOL    HW226295   2.746   2.439   1.301
 8466SOL     OW26296   6.152   0.540   5.315
 8466SOL    HW126297   6.175   0.625   5.268
 8466SOL    HW226298   6.219   0.523   5.387
 8467SOL     OW26299   3.856   0.444   0.903
 8467SOL    HW126300   3.784   0.459   0.835
 8467SOL    HW226301   3.938   0.495   0.877
 8468SOL     OW26302   6.019   3.645   6.624
 8468SOL    HW126303   6.072   3.647   6.540
 8468SOL    HW226304   5.953   3.570   6.620
 8469SOL     OW26305   3.537   2.901   5.901
 8469SOL    HW126306   3.524   2.802   5.912
 8469SOL    HW226307   3.617   2.918   5.845
 8470SOL     OW26308   0.971   5.047   0.392
 8470SOL    HW126309   0.881   5.038   0.435
 8470SOL    HW226310   0.997   4.960   0.350
 8471SOL     OW26311   3.830   0.233   5.152
 8471SOL    HW126312   3.739   0.244   5.112
 8471SOL    HW226313   3.881   0.318   5.141
 8472SOL     OW26314   6.035   1.926   5.636
 8472SOL    HW126315   5.951   1.897   5.589
 8472SOL    HW226316   6.114   1.896   5.583
 8473SOL     OW26317   4.207   4.559   0.335
 8473SOL    HW126318   4.137   4.488   0.342
 8473SOL    HW226319   4.277   4.529   0.269
 8474SOL     OW26320   3.203   3.991   2.997
 8474SOL    HW126321   3.175   4.046   3.076
 8474SOL    HW226322   3.128   3.930   2.971
 8475SOL     OW26323   0.396   3.206   1.386
 8475SOL    HW126324   0.378   3.107   1.386
 8475SOL    HW226325   0.398   3.239   1.480
 8476SOL     OW26326   6.846   0.948   0.979
 8476SOL    HW126327   6.810   1.019   1.039
 8476SOL    HW226328   6.942   0.932   1.001
 8477SOL     OW26329   5.526   5.826   2.085
 8477SOL    HW126330   5.518   5.926   2.090
 8477SOL    HW226331   5.622   5.801   2.088
 8478SOL     OW26332   1.000   1.211   5.775
 8478SOL    HW126333   0.929   1.263   5.822
 8478SOL    HW226334   1.070   1.273   5.740
 8479SOL     OW26335   1.458   2.378   1.517
 8479SOL    HW126336   1.401   2.379   1.435
 8479SOL    HW226337   1.411   2.324   1.588
 8480SOL     OW26338   4.872   2.722   6.538
 8480SOL    HW126339   4.940   2.663   6.581
 8480SOL    HW226340   4.810   2.757   6.607
 8481SOL     OW26341   3.980   2.231   4.752
 8481SOL    HW126342   3.949   2.230   4.847
 8481SOL    HW226343   4.074   2.198   4.747
 8482SOL     OW26344   4.683   0.741   0.533
 8482SOL    HW126345   4.613   0.798   0.575
 8482SOL    HW226346   4.745   0.798   0.479
 8483SOL     OW26347   2.825   5.911   3.676
 8483SOL    HW126348   2.767   5.867   3.608
 8483SOL    HW226349   2.824   6.010   3.662
 8484SOL     OW26350   6.850   5.869   5.091
 8484SOL    HW126351   6.768   5.822   5.121
 8484SOL    HW226352   6.878   5.935   5.161
 8485SOL     OW26353   4.244   2.493   0.070
 8485SOL    HW126354   4.171   2.465   0.008
 8485SOL    HW226355   4.261   2.419   0.137
 8486SOL     OW26356   1.993   1.250   2.617
 8486SOL    HW126357   1.974   1.195   2.535
 8486SOL    HW226358   2.091   1.253   2.632
 8487SOL     OW26359   5.132   1.613   6.191
 8487SOL    HW126360   5.152   1.528   6.143
 8487SOL    HW226361   5.112   1.685   6.125
 8488SOL     OW26362   5.419   5.390   3.331
 8488SOL    HW126363   5.375   5.345   3.409
 8488SOL    HW226364   5.518   5.378   3.337
 8489SOL     OW26365   6.470   0.288   1.730
 8489SOL    HW126366   6.509   0.244   1.649
 8489SOL    HW226367   6.377   0.254   1.745
 8490SOL     OW26368   3.529   6.726   5.395
 8490SOL    HW126369   3.626   6.707   5.409
 8490SOL    HW226370   3.501   6.692   5.306
 8491SOL     OW26371   2.104   5.814   2.841
 8491SOL    HW126372   2.010   5.843   2.860
 8491SOL    HW226373   2.104   5.750   2.763
 8492SOL     OW26374   5.855   4.639   3.788
 8492SOL    HW126375   5.855   4.734   3.757
 8492SOL    HW226376   5.834   4.579   3.710
 8493SOL     OW26377   2.583   1.343   0.139
 8493SOL    HW126378   2.597   1.419   0.204
 8493SOL    HW226379   2.526   1.273   0.182
 8494SOL     OW26380   5.205   5.227   2.074
 8494SOL    HW126381   5.202   5.312   2.022
 8494SOL    HW226382   5.151   5.238   2.158
 8495SOL     OW26383   6.908   5.746   0.543
 8495SOL    HW126384   6.990   5.713   0.495
 8495SOL    HW226385   6.899   5.698   0.630
 8496SOL     OW26386   5.210   1.196   2.403
 8496SOL    HW126387   5.192   1.294   2.400
 8496SOL    HW226388   5.158   1.150   2.331
 8497SOL     OW26389   0.689   0.225   3.759
 8497SOL    HW126390   0.675   0.240   3.857
 8497SOL    HW226391   0.735   0.137   3.745
 8498SOL     OW26392   5.763   0.037   3.281
 8498SOL    HW126393   5.799   6.971   3.308
 8498SOL    HW226394   5.663   0.032   3.274
 8499SOL     OW26395   0.612   5.230   0.573
 8499SOL    HW126396   0.523   5.241   0.529
 8499SOL    HW226397   0.650   5.320   0.594
 8500SOL     OW26398   1.542   6.695   6.004
 8500SOL    HW126399   1.452   6.655   5.987
 8500SOL    HW226400   1.599   6.628   6.051
 8501SOL     OW26401   0.520   2.242   6.950
 8501SOL    HW126402   0.441   2.247   6.889
 8501SOL    HW226403   0.517   2.318   7.015
 8502SOL     OW26404   0.632   2.523   0.669
 8502SOL    HW126405   0.695   2.597   0.648
 8502SOL    HW226406   0.558   2.521   0.602
 8503SOL     OW26407   6.649   5.685   5.167
 8503SOL    HW126408   6.573   5.643   5.118
 8503SOL    HW226409   6.636   5.675   5.265
 8504SOL     OW26410   1.980   5.539   2.162
 8504SOL    HW126411   2.056   5.480   2.135
 8504SOL    HW226412   2.002   5.634   2.139
 8505SOL     OW26413   5.216   3.770   2.500
 8505SOL    HW126414   5.309   3.803   2.487
 8505SOL    HW226415   5.213   3.707   2.578
 8506SOL     OW26416   1.478   1.143   6.819
 8506SOL    HW126417   1.571   1.119   6.850
 8506SOL    HW226418   1.425   1.059   6.807
 8507SOL     OW26419   4.782   0.382   4.656
 8507SOL    HW126420   4.781   0.336   4.745
 8507SOL    HW226421   4.703   0.443   4.650
 8508SOL     OW26422   4.113   1.873   5.880
 8508SOL    HW126423   4.108   1.887   5.979
 8508SOL    HW226424   4.085   1.780   5.857
 8509SOL     OW26425   5.332   6.545   3.838
 8509SOL    HW126426   5.319   6.445   3.836
 8509SOL    HW226427   5.297   6.580   3.925
 8510SOL     OW26428   5.188   3.042   3.624
 8510SOL    HW126429   5.165   3.082   3.713
 8510SOL    HW226430   5.136   2.957   3.612
 8511SOL     OW26431   6.562   3.296   2.113
 8511SOL    HW126432   6.497   3.338   2.050
 8511SOL    HW226433   6.573   3.354   2.194
 8512SOL     OW26434   2.174   0.247   2.941
 8512SOL    HW126435   2.154   0.345   2.937
 8512SOL    HW226436   2.088   0.196   2.940
 8513SOL     OW26437   6.815   6.311   0.216
 8513SOL    HW126438   6.894   6.323   0.155
 8513SOL    HW226439   6.784   6.216   0.212
 8514SOL     OW26440   3.335   6.615   3.175
 8514SOL    HW126441   3.292   6.552   3.111
 8514SOL    HW226442   3.274   6.630   3.253
 8515SOL     OW26443   5.321   2.366   1.315
 8515SOL    HW126444   5.333   2.428   1.237
 8515SOL    HW226445   5.225   2.363   1.341
 8516SOL     OW26446   6.600   1.430   2.829
 8516SOL    HW126447   6.533   1.368   2.788
 8516SOL    HW226448   6.621   1.400   2.922
 8517SOL     OW26449   0.741   2.476   6.794
 8517SOL    HW126450   0.766   2.389   6.837
 8517SOL    HW226451   0.722   2.461   6.697
 8518SOL     OW26452   4.427   5.014   0.547
 8518SOL    HW126453   4.373   4.941   0.505
 8518SOL    HW226454   4.497   5.044   0.483
 8519SOL     OW26455   1.982   5.843   2.357
 8519SOL    HW126456   2.058   5.844   2.292
 8519SOL    HW226457   1.898   5.867   2.310
 8520SOL     OW26458   3.860   1.032   0.684
 8520SOL    HW126459   3.864   1.132   0.675
 8520SOL    HW226460   3.947   0.993   0.652
 8521SOL     OW26461   1.088   6.093   6.138
 8521SOL    HW126462   1.039   6.106   6.052
 8521SOL    HW226463   1.038   6.139   6.212
 8522SOL     OW26464   1.409   6.265   2.394
 8522SOL    HW126465   1.488   6.325   2.380
 8522SOL    HW226466   1.352   6.302   2.468
 8523SOL     OW26467   2.078   6.885   5.562
 8523SOL    HW126468   2.054   6.821   5.489
 8523SOL    HW226469   2.115   6.969   5.522
 8524SOL     OW26470   1.247   3.427   4.748
 8524SOL    HW126471   1.248   3.427   4.848
 8524SOL    HW226472   1.341   3.425   4.714
 8525SOL     OW26473   6.149   3.541   3.031
 8525SOL    HW126474   6.164   3.509   2.937
 8525SOL    HW226475   6.220   3.504   3.091
 8526SOL     OW26476   2.590   3.015   1.566
 8526SOL    HW126477   2.669   3.067   1.599
 8526SOL    HW226478   2.619   2.954   1.492
 8527SOL     OW26479   3.952   0.886   4.359
 8527SOL    HW126480   3.916   0.979   4.363
 8527SOL    HW226481   3.886   0.827   4.314
 8528SOL     OW26482   4.857   3.725   6.698
 8528SOL    HW126483   4.950   3.689   6.692
 8528SOL    HW226484   4.860   3.817   6.737
 8529SOL     OW26485   1.692   5.673   0.221
 8529SOL    HW126486   1.686   5.618   0.304
 8529SOL    HW226487   1.751   5.752   0.238
 8530SOL     OW26488   1.883   4.820   5.612
 8530SOL    HW126489   1.849   4.877   5.687
 8530SOL    HW226490   1.810   4.758   5.582
 8531SOL     OW26491   5.433   3.841   3.068
 8531SOL    HW126492   5.335   3.853   3.084
 8531SOL    HW226493   5.448   3.758   3.013
 8532SOL     OW26494   3.891   4.968   5.070
 8532SOL    HW126495   3.815   4.988   5.009
 8532SOL    HW226496   3.929   5.054   5.105
 8533SOL     OW26497   2.315   1.076   4.999
 8533SOL    HW126498   2.309   1.092   5.098
 8533SOL    HW226499   2.224   1.062   4.962
 8534SOL     OW26500   0.636   4.030   2.796
 8534SOL    HW126501   0.680   3.941   2.784
 8534SOL    HW226502   0.705   4.102   2.789
 8535SOL     OW26503   0.910   2.330   4.470
 8535SOL    HW126504   0.829   2.297   4.519
 8535SOL    HW226505   0.950   2.406   4.521
 8536SOL     OW26506   6.412   2.577   5.141
 8536SOL    HW126507   6.363   2.560   5.055
 8536SOL    HW226508   6.476   2.503   5.159
 8537SOL     OW26509   5.929   0.745   0.721
 8537SOL    HW126510   6.015   0.770   0.765
 8537SOL    HW226511   5.947   0.725   0.624
 8538SOL     OW26512   7.012   0.314   4.785
 8538SOL    HW126513   0.009   0.264   4.869
 8538SOL    HW226514   0.041   0.274   4.709
 8539SOL     OW26515   6.699   2.262   2.435
 8539SOL    HW126516   6.765   2.336   2.421
 8539SOL    HW226517   6.693   2.207   2.353
 8540SOL     OW26518   2.630   1.209   0.489
 8540SOL    HW126519   2.656   1.287   0.545
 8540SOL    HW226520   2.654   1.124   0.536
 8541SOL     OW26521   2.993   1.350   5.045
 8541SOL    HW126522   3.033   1.291   5.115
 8541SOL    HW226523   3.052   1.351   4.965
 8542SOL     OW26524   2.961   4.430   6.548
 8542SOL    HW126525   2.891   4.444   6.618
 8542SOL    HW226526   3.025   4.507   6.549
 8543SOL     OW26527   2.820   1.813   5.635
 8543SOL    HW126528   2.766   1.894   5.657
 8543SOL    HW226529   2.875   1.786   5.715
 8544SOL     OW26530   4.893   3.858   5.377
 8544SOL    HW126531   4.925   3.919   5.305
 8544SOL    HW226532   4.906   3.902   5.466
 8545SOL     OW26533   3.782   6.753   4.736
 8545SOL    HW126534   3.685   6.736   4.715
 8545SOL    HW226535   3.821   6.672   4.781
 8546SOL     OW26536   6.134   0.359   1.517
 8546SOL    HW126537   6.137   0.456   1.544
 8546SOL    HW226538   6.166   0.303   1.593
 8547SOL     OW26539   6.783   0.280   5.666
 8547SOL    HW126540   6.738   0.192   5.679
 8547SOL    HW226541   6.855   0.291   5.736
 8548SOL     OW26542   0.461   2.791   6.256
 8548SOL    HW126543   0.447   2.890   6.249
 8548SOL    HW226544   0.384   2.743   6.213
 8549SOL     OW26545   1.527   1.065   3.741
 8549SOL    HW126546   1.550   0.972   3.770
 8549SOL    HW226547   1.574   1.131   3.799
 8550SOL     OW26548   0.424   4.496   6.876
 8550SOL    HW126549   0.345   4.547   6.912
 8550SOL    HW226550   0.401   4.398   6.874
 8551SOL     OW26551   1.604   2.368   6.634
 8551SOL    HW126552   1.653   2.303   6.575
 8551SOL    HW226553   1.664   2.398   6.708
 8552SOL     OW26554   3.172   0.852   2.373
 8552SOL    HW126555   3.264   0.853   2.412
 8552SOL    HW226556   3.107   0.885   2.441
 8553SOL     OW26557   4.205   3.016   0.686
 8553SOL    HW126558   4.131   3.080   0.664
 8553SOL    HW226559   4.168   2.923   0.689
 8554SOL     OW26560   1.064   6.839   1.049
 8554SOL    HW126561   0.998   6.824   1.123
 8554SOL    HW226562   1.065   6.760   0.988
 8555SOL     OW26563   4.471   1.863   3.857
 8555SOL    HW126564   4.489   1.799   3.931
 8555SOL    HW226565   4.525   1.838   3.777
 8556SOL     OW26566   2.028   6.402   6.156
 8556SOL    HW126567   1.981   6.404   6.068
 8556SOL    HW226568   2.116   6.449   6.147
 8557SOL     OW26569   6.439   1.059   0.101
 8557SOL    HW126570   6.379   1.139   0.099
 8557SOL    HW226571   6.427   1.007   0.016
 8558SOL     OW26572   2.696   5.121   3.252
 8558SOL    HW126573   2.655   5.211   3.237
 8558SOL    HW226574   2.735   5.087   3.166
 8559SOL     OW26575   0.837   5.617   1.852
 8559SOL    HW126576   0.863   5.531   1.807
 8559SOL    HW226577   0.886   5.626   1.938
 8560SOL     OW26578   2.064   4.936   1.193
 8560SOL    HW126579   2.009   5.012   1.228
 8560SOL    HW226580   2.152   4.934   1.241
 8561SOL     OW26581   3.498   0.567   2.999
 8561SOL    HW126582   3.437   0.606   2.930
 8561SOL    HW226583   3.466   0.476   3.024
 8562SOL     OW26584   3.722   1.216   0.063
 8562SOL    HW126585   3.731   1.215   6.987
 8562SOL    HW226586   3.683   1.302   0.093
 8563SOL     OW26587   1.541   5.685   2.327
 8563SOL    HW126588   1.614   5.700   2.394
 8563SOL    HW226589   1.581   5.660   2.239
 8564SOL     OW26590   3.638   6.480   0.301
 8564SOL    HW126591   3.652   6.540   0.380
 8564SOL    HW226592   3.661   6.529   0.217
 8565SOL     OW26593   3.812   5.541   1.487
 8565SOL    HW126594   3.820   5.454   1.439
 8565SOL    HW226595   3.719   5.549   1.524
 8566SOL     OW26596   2.437   0.942   2.619
 8566SOL    HW126597   2.423   0.915   2.523
 8566SOL    HW226598   2.509   0.885   2.659
 8567SOL     OW26599   1.324   1.866   1.232
 8567SOL    HW126600   1.304   1.825   1.143
 8567SOL    HW226601   1.353   1.961   1.220
 8568SOL     OW26602   6.986   1.360   0.210
 8568SOL    HW126603   6.946   1.349   0.301
 8568SOL    HW226604   6.969   1.277   0.156
 8569SOL     OW26605   5.623   2.875   6.065
 8569SOL    HW126606   5.579   2.792   6.033
 8569SOL    HW226607   5.693   2.903   5.999
 8570SOL     OW26608   1.398   2.036   4.884
 8570SOL    HW126609   1.374   2.130   4.908
 8570SOL    HW226610   1.484   2.011   4.928
 8571SOL     OW26611   1.617   1.194   4.271
 8571SOL    HW126612   1.670   1.169   4.352
 8571SOL    HW226613   1.537   1.248   4.298
 8572SOL     OW26614   3.319   4.020   5.764
 8572SOL    HW126615   3.307   4.109   5.808
 8572SOL    HW226616   3.244   3.959   5.792
 8573SOL     OW26617   3.161   5.917   0.526
 8573SOL    HW126618   3.147   5.888   0.621
 8573SOL    HW226619   3.073   5.920   0.479
 8574SOL     OW26620   0.092   6.674   6.108
 8574SOL    HW126621   0.102   6.717   6.198
 8574SOL    HW226622   0.027   6.598   6.114
 8575SOL     OW26623   3.661   0.454   2.403
 8575SOL    HW126624   3.564   0.479   2.399
 8575SOL    HW226625   3.713   0.529   2.443
 8576SOL     OW26626   0.876   3.765   4.544
 8576SOL    HW126627   0.866   3.864   4.552
 8576SOL    HW226628   0.969   3.744   4.513
 8577SOL     OW26629   2.106   0.887   5.912
 8577SOL    HW126630   2.049   0.867   5.992
 8577SOL    HW226631   2.186   0.941   5.940
 8578SOL     OW26632   6.565   6.271   5.527
 8578SOL    HW126633   6.605   6.360   5.550
 8578SOL    HW226634   6.486   6.254   5.586
 8579SOL     OW26635   2.554   6.294   2.498
 8579SOL    HW126636   2.552   6.215   2.560
 8579SOL    HW226637   2.462   6.314   2.467
 8580SOL     OW26638   0.936   6.163   1.640
 8580SOL    HW126639   0.952   6.094   1.569
 8580SOL    HW226640   0.850   6.143   1.686
 8581SOL     OW26641   3.689   4.997   1.154
 8581SOL    HW126642   3.647   5.087   1.168
 8581SOL    HW226643   3.761   4.983   1.223
 8582SOL     OW26644   4.135   4.389   5.592
 8582SOL    HW126645   4.099   4.404   5.684
 8582SOL    HW226646   4.156   4.292   5.580
 8583SOL     OW26647   4.219   0.821   3.203
 8583SOL    HW126648   4.299   0.774   3.167
 8583SOL    HW226649   4.153   0.837   3.130
 8584SOL     OW26650   6.431   1.349   4.986
 8584SOL    HW126651   6.457   1.407   4.908
 8584SOL    HW226652   6.493   1.270   4.991
 8585SOL     OW26653   5.912   1.845   0.984
 8585SOL    HW126654   5.908   1.945   0.984
 8585SOL    HW226655   5.911   1.811   1.078
 8586SOL     OW26656   5.850   6.385   1.571
 8586SOL    HW126657   5.940   6.390   1.529
 8586SOL    HW226658   5.859   6.354   1.666
 8587SOL     OW26659   0.723   1.690   5.112
 8587SOL    HW126660   0.677   1.746   5.182
 8587SOL    HW226661   0.821   1.687   5.131
 8588SOL     OW26662   3.613   1.462   0.126
 8588SOL    HW126663   3.690   1.506   0.081
 8588SOL    HW226664   3.538   1.450   0.061
 8589SOL     OW26665   6.903   3.148   5.175
 8589SOL    HW126666   6.827   3.092   5.208
 8589SOL    HW226667   6.973   3.154   5.246
 8590SOL     OW26668   6.772   0.804   2.711
 8590SOL    HW126669   6.795   0.706   2.711
 8590SOL    HW226670   6.749   0.833   2.804
 8591SOL     OW26671   6.319   5.006   0.565
 8591SOL    HW126672   6.339   5.079   0.500
 8591SOL    HW226673   6.324   4.917   0.518
 8592SOL     OW26674   0.485   2.535   6.877
 8592SOL    HW126675   0.582   2.513   6.867
 8592SOL    HW226676   0.472   2.595   6.956
 8593SOL     OW26677   3.314   0.751   6.480
 8593SOL    HW126678   3.406   0.768   6.445
 8593SOL    HW226679   3.302   0.652   6.494
 8594SOL     OW26680   6.096   2.724   6.270
 8594SOL    HW126681   6.053   2.815   6.271
 8594SOL    HW226682   6.051   2.667   6.201
 8595SOL     OW26683   5.441   0.180   2.993
 8595SOL    HW126684   5.385   0.253   2.954
 8595SOL    HW226685   5.514   0.219   3.049
 8596SOL     OW26686   1.172   3.241   3.378
 8596SOL    HW126687   1.084   3.289   3.380
 8596SOL    HW226688   1.247   3.307   3.387
 8597SOL     OW26689   6.282   2.586   0.808
 8597SOL    HW126690   6.276   2.486   0.813
 8597SOL    HW226691   6.329   2.621   0.889
 8598SOL     OW26692   5.724   0.822   4.918
 8598SOL    HW126693   5.679   0.738   4.948
 8598SOL    HW226694   5.714   0.892   4.989
 8599SOL     OW26695   1.527   2.968   3.441
 8599SOL    HW126696   1.469   2.959   3.522
 8599SOL    HW226697   1.556   3.063   3.431
 8600SOL     OW26698   4.816   3.677   1.123
 8600SOL    HW126699   4.855   3.767   1.104
 8600SOL    HW226700   4.799   3.668   1.221
 8601SOL     OW26701   0.547   1.545   3.522
 8601SOL    HW126702   0.469   1.496   3.560
 8601SOL    HW226703   0.537   1.553   3.423
 8602SOL     OW26704   2.579   6.721   3.445
 8602SOL    HW126705   2.522   6.795   3.481
 8602SOL    HW226706   2.652   6.760   3.389
 8603SOL     OW26707   6.007   1.271   0.067
 8603SOL    HW126708   6.006   1.347   0.132
 8603SOL    HW226709   6.005   1.306   6.997
 8604SOL     OW26710   0.483   3.318   6.379
 8604SOL    HW126711   0.484   3.383   6.303
 8604SOL    HW226712   0.422   3.351   6.450
 8605SOL     OW26713   0.245   4.666   4.439
 8605SOL    HW126714   0.156   4.671   4.484
 8605SOL    HW226715   0.239   4.608   4.358
 8606SOL     OW26716   2.749   2.004   6.299
 8606SOL    HW126717   2.697   1.992   6.383
 8606SOL    HW226718   2.723   2.090   6.255
 8607SOL     OW26719   2.237   4.834   0.726
 8607SOL    HW126720   2.324   4.854   0.680
 8607SOL    HW226721   2.211   4.912   0.783
 8608SOL     OW26722   2.668   4.730   2.668
 8608SOL    HW126723   2.651   4.698   2.575
 8608SOL    HW226724   2.648   4.828   2.672
 8609SOL     OW26725   4.901   1.166   3.922
 8609SOL    HW126726   4.991   1.203   3.941
 8609SOL    HW226727   4.905   1.106   3.842
 8610SOL     OW26728   6.996   6.438   2.932
 8610SOL    HW126729   6.906   6.453   2.972
 8610SOL    HW226730   7.021   6.517   2.876
 8611SOL     OW26731   3.193   1.147   3.951
 8611SOL    HW126732   3.218   1.223   4.011
 8611SOL    HW226733   3.232   1.161   3.860
 8612SOL     OW26734   2.950   3.477   2.788
 8612SOL    HW126735   2.903   3.411   2.729
 8612SOL    HW226736   2.946   3.567   2.745
 8613SOL     OW26737   2.936   2.712   1.432
 8613SOL    HW126738   2.892   2.655   1.502
 8613SOL    HW226739   2.951   2.657   1.350
 8614SOL     OW26740   1.164   2.711   2.145
 8614SOL    HW126741   1.236   2.778   2.161
 8614SOL    HW226742   1.166   2.681   2.050
 8615SOL     OW26743   5.092   2.056   4.729
 8615SOL    HW126744   5.070   1.965   4.762
 8615SOL    HW226745   5.106   2.118   4.806
 8616SOL     OW26746   3.299   5.085   2.537
 8616SOL    HW126747   3.240   5.137   2.600
 8616SOL    HW226748   3.261   5.090   2.445
 8617SOL     OW26749   5.740   0.080   3.870
 8617SOL    HW126750   5.640   0.085   3.870
 8617SOL    HW226751   5.776   0.124   3.787
 8618SOL     OW26752   6.468   3.865   1.265
 8618SOL    HW126753   6.463   3.814   1.180
 8618SOL    HW226754   6.550   3.922   1.266
 8619SOL     OW26755   4.644   5.018   2.299
 8619SOL    HW126756   4.609   4.927   2.321
 8619SOL    HW226757   4.675   5.019   2.204
 8620SOL     OW26758   2.100   0.211   4.546
 8620SOL    HW126759   2.183   0.256   4.578
 8620SOL    HW226760   2.037   0.279   4.508
 8621SOL     OW26761   4.867   2.754   2.088
 8621SOL    HW126762   4.959   2.754   2.050
 8621SOL    HW226763   4.835   2.849   2.097
 8622SOL     OW26764   6.268   5.228   2.148
 8622SOL    HW126765   6.358   5.212   2.188
 8622SOL    HW226766   6.224   5.306   2.192
 8623SOL     OW26767   6.854   3.401   4.544
 8623SOL    HW126768   6.834   3.326   4.607
 8623SOL    HW226769   6.945   3.389   4.504
 8624SOL     OW26770   3.388   3.557   6.170
 8624SOL    HW126771   3.383   3.495   6.249
 8624SOL    HW226772   3.299   3.561   6.125
 8625SOL     OW26773   3.788   1.075   5.159
 8625SOL    HW126774   3.773   1.114   5.250
 8625SOL    HW226775   3.770   1.145   5.089
 8626SOL     OW26776   4.188   2.621   0.439
 8626SOL    HW126777   4.211   2.696   0.377
 8626SOL    HW226778   4.271   2.578   0.473
 8627SOL     OW26779   1.643   1.637   2.198
 8627SOL    HW126780   1.674   1.673   2.110
 8627SOL    HW226781   1.687   1.689   2.272
 8628SOL     OW26782   6.872   6.749   0.225
 8628SOL    HW126783   6.783   6.772   0.265
 8628SOL    HW226784   6.858   6.690   0.145
 8629SOL     OW26785   0.936   0.098   4.627
 8629SOL    HW126786   0.844   0.076   4.595
 8629SOL    HW226787   0.965   0.186   4.589
 8630SOL     OW26788   4.884   3.351   3.350
 8630SOL    HW126789   4.840   3.265   3.324
 8630SOL    HW226790   4.977   3.332   3.384
 8631SOL     OW26791   2.342   5.693   6.947
 8631SOL    HW126792   2.436   5.725   6.938
 8631SOL    HW226793   2.340   5.613   7.009
 8632SOL     OW26794   4.076   4.541   5.360
 8632SOL    HW126795   4.103   4.484   5.438
 8632SOL    HW226796   4.121   4.507   5.277
 8633SOL     OW26797   5.428   3.753   5.956
 8633SOL    HW126798   5.475   3.712   5.877
 8633SOL    HW226799   5.342   3.794   5.926
 8634SOL     OW26800   4.876   5.081   0.460
 8634SOL    HW126801   4.936   5.104   0.537
 8634SOL    HW226802   4.913   5.003   0.411
 8635SOL     OW26803   6.185   2.935   0.012
 8635SOL    HW126804   6.145   2.846   0.030
 8635SOL    HW226805   6.202   2.983   0.098
 8636SOL     OW26806   4.249   5.825   0.450
 8636SOL    HW126807   4.195   5.834   0.366
 8636SOL    HW226808   4.280   5.915   0.480
 8637SOL     OW26809   2.016   1.288   6.521
 8637SOL    HW126810   2.074   1.336   6.455
 8637SOL    HW226811   1.948   1.233   6.472
 8638SOL     OW26812   4.345   2.822   5.420
 8638SOL    HW126813   4.340   2.723   5.425
 8638SOL    HW226814   4.433   2.850   5.383
 8639SOL     OW26815   5.071   3.271   6.989
 8639SOL    HW126816   5.123   3.264   0.051
 8639SOL    HW226817   5.035   3.364   6.980
 8640SOL     OW26818   3.686   3.138   1.523
 8640SOL    HW126819   3.786   3.140   1.519
 8640SOL    HW226820   3.649   3.223   1.484
 8641SOL     OW26821   4.285   5.550   3.478
 8641SOL    HW126822   4.331   5.607   3.410
 8641SOL    HW226823   4.262   5.462   3.437
 8642SOL     OW26824   0.568   6.307   3.919
 8642SOL    HW126825   0.579   6.355   3.832
 8642SOL    HW226826   0.640   6.239   3.928
 8643SOL     OW26827   2.742   6.907   0.423
 8643SOL    HW126828   2.657   6.880   0.469
 8643SOL    HW226829   2.790   6.825   0.391
 8644SOL     OW26830   6.018   2.221   6.211
 8644SOL    HW126831   5.968   2.308   6.206
 8644SOL    HW226832   5.986   2.168   6.290
 8645SOL     OW26833   5.323   4.495   1.360
 8645SOL    HW126834   5.229   4.514   1.330
 8645SOL    HW226835   5.382   4.486   1.280
 8646SOL     OW26836   0.048   2.190   6.079
 8646SOL    HW126837   0.026   2.262   6.146
 8646SOL    HW226838   6.992   2.175   6.019
 8647SOL     OW26839   3.180   5.463   1.267
 8647SOL    HW126840   3.219   5.398   1.332
 8647SOL    HW226841   3.112   5.520   1.314
 8648SOL     OW26842   5.616   6.693   0.828
 8648SOL    HW126843   5.561   6.646   0.759
 8648SOL    HW226844   5.630   6.788   0.801
 8649SOL     OW26845   4.529   6.548   6.770
 8649SOL    HW126846   4.473   6.470   6.797
 8649SOL    HW226847   4.516   6.567   6.673
 8650SOL     OW26848   1.690   0.169   4.274
 8650SOL    HW126849   1.718   0.074   4.287
 8650SOL    HW226850   1.593   0.178   4.294
 8651SOL     OW26851   2.732   1.312   0.842
 8651SOL    HW126852   2.736   1.299   0.941
 8651SOL    HW226853   2.737   1.410   0.822
 8652SOL     OW26854   0.698   5.000   4.118
 8652SOL    HW126855   0.774   4.997   4.054
 8652SOL    HW226856   0.617   4.960   4.075
 8653SOL     OW26857   6.357   1.676   5.963
 8653SOL    HW126858   6.319   1.752   5.910
 8653SOL    HW226859   6.283   1.617   5.995
 8654SOL     OW26860   0.960   4.885   1.596
 8654SOL    HW126861   0.881   4.876   1.536
 8654SOL    HW226862   0.948   4.962   1.658
 8655SOL     OW26863   6.351   1.401   5.354
 8655SOL    HW126864   6.443   1.364   5.340
 8655SOL    HW226865   6.354   1.472   5.424
 8656SOL     OW26866   5.444   0.029   2.104
 8656SOL    HW126867   5.392   6.968   2.094
 8656SOL    HW226868   5.439   0.060   2.199
 8657SOL     OW26869   5.830   6.377   0.298
 8657SOL    HW126870   5.840   6.405   0.202
 8657SOL    HW226871   5.737   6.397   0.329
 8658SOL     OW26872   5.903   5.761   1.047
 8658SOL    HW126873   5.855   5.838   1.005
 8658SOL    HW226874   5.871   5.749   1.141
 8659SOL     OW26875   4.559   2.572   2.689
 8659SOL    HW126876   4.508   2.601   2.608
 8659SOL    HW226877   4.589   2.653   2.740
 8660SOL     OW26878   0.291   2.798   1.580
 8660SOL    HW126879   0.309   2.873   1.644
 8660SOL    HW226880   0.313   2.711   1.623
 8661SOL     OW26881   6.364   3.393   3.175
 8661SOL    HW126882   6.451   3.437   3.153
 8661SOL    HW226883   6.359   3.376   3.274
 8662SOL     OW26884   3.554   6.030   2.262
 8662SOL    HW126885   3.581   6.057   2.169
 8662SOL    HW226886   3.503   6.105   2.304
 8663SOL     OW26887   2.892   5.699   3.028
 8663SOL    HW126888   2.937   5.727   3.113
 8663SOL    HW226889   2.926   5.610   3.000
 8664SOL     OW26890   1.833   5.457   2.822
 8664SOL    HW126891   1.799   5.429   2.911
 8664SOL    HW226892   1.926   5.495   2.832
 8665SOL     OW26893   6.560   5.080   5.713
 8665SOL    HW126894   6.554   5.122   5.623
 8665SOL    HW226895   6.531   4.984   5.708
 8666SOL     OW26896   5.661   0.080   4.139
 8666SOL    HW126897   5.712   0.083   4.053
 8666SOL    HW226898   5.680   7.017   4.186
 8667SOL     OW26899   5.137   1.151   4.784
 8667SOL    HW126900   5.145   1.236   4.835
 8667SOL    HW226901   5.066   1.160   4.714
 8668SOL     OW26902   5.095   3.188   4.758
 8668SOL    HW126903   5.096   3.188   4.858
 8668SOL    HW226904   5.002   3.174   4.725
 8669SOL     OW26905   7.008   6.443   6.327
 8669SOL    HW126906   7.012   6.369   6.259
 8669SOL    HW226907   6.918   6.486   6.324
 8670SOL     OW26908   5.494   4.781   5.750
 8670SOL    HW126909   5.449   4.726   5.680
 8670SOL    HW226910   5.426   4.812   5.816
 8671SOL     OW26911   0.496   1.832   2.183
 8671SOL    HW126912   0.523   1.928   2.181
 8671SOL    HW226913   0.420   1.817   2.120
 8672SOL     OW26914   0.234   0.684   3.519
 8672SOL    HW126915   0.246   0.585   3.510
 8672SOL    HW226916   0.139   0.708   3.497
 8673SOL     OW26917   6.643   1.768   0.166
 8673SOL    HW126918   6.634   1.849   0.108
 8673SOL    HW226919   6.715   1.783   0.234
 8674SOL     OW26920   7.000   4.248   3.187
 8674SOL    HW126921   6.989   4.340   3.152
 8674SOL    HW226922   6.970   4.245   3.283
 8675SOL     OW26923   3.876   1.307   5.770
 8675SOL    HW126924   3.927   1.226   5.744
 8675SOL    HW226925   3.804   1.324   5.703
 8676SOL     OW26926   5.843   0.968   1.312
 8676SOL    HW126927   5.824   0.954   1.409
 8676SOL    HW226928   5.926   1.023   1.302
 8677SOL     OW26929   1.808   5.799   5.265
 8677SOL    HW126930   1.879   5.869   5.259
 8677SOL    HW226931   1.822   5.745   5.348
 8678SOL     OW26932   1.077   6.562   0.229
 8678SOL    HW126933   1.166   6.578   0.273
 8678SOL    HW226934   1.045   6.647   0.188
 8679SOL     OW26935   2.224   0.971   4.134
 8679SOL    HW126936   2.192   1.014   4.218
 8679SOL    HW226937   2.319   0.999   4.116
 8680SOL     OW26938   6.271   2.572   6.394
 8680SOL    HW126939   6.214   2.650   6.367
 8680SOL    HW226940   6.268   2.562   6.493
 8681SOL     OW26941   4.756   5.950   1.288
 8681SOL    HW126942   4.830   6.017   1.280
 8681SOL    HW226943   4.682   5.974   1.226
 8682SOL     OW26944   6.584   0.434   1.000
 8682SOL    HW126945   6.590   0.526   0.960
 8682SOL    HW226946   6.493   0.422   1.041
 8683SOL     OW26947   1.560   3.177   4.876
 8683SOL    HW126948   1.571   3.251   4.942
 8683SOL    HW226949   1.531   3.214   4.788
 8684SOL     OW26950   0.462   3.610   4.324
 8684SOL    HW126951   0.556   3.639   4.345
 8684SOL    HW226952   0.436   3.643   4.233
 8685SOL     OW26953   5.128   2.449   6.414
 8685SOL    HW126954   5.207   2.510   6.420
 8685SOL    HW226955   5.150   2.372   6.354
 8686SOL     OW26956   6.471   6.511   3.152
 8686SOL    HW126957   6.396   6.530   3.088
 8686SOL    HW226958   6.518   6.596   3.175
 8687SOL     OW26959   6.194   4.289   3.193
 8687SOL    HW126960   6.205   4.250   3.285
 8687SOL    HW226961   6.105   4.334   3.187
 8688SOL     OW26962   1.887   3.816   6.561
 8688SOL    HW126963   1.947   3.796   6.638
 8688SOL    HW226964   1.851   3.731   6.523
 8689SOL     OW26965   4.890   2.990   0.457
 8689SOL    HW126966   4.951   3.043   0.516
 8689SOL    HW226967   4.918   3.001   0.362
 8690SOL     OW26968   0.781   2.267   3.003
 8690SOL    HW126969   0.836   2.321   2.939
 8690SOL    HW226970   0.839   2.198   3.046
 8691SOL     OW26971   3.460   1.770   4.835
 8691SOL    HW126972   3.426   1.864   4.826
 8691SOL    HW226973   3.528   1.753   4.764
 8692SOL     OW26974   4.066   2.092   5.733
 8692SOL    HW126975   4.086   2.001   5.770
 8692SOL    HW226976   3.978   2.090   5.686
 8693SOL     OW26977   6.492   1.433   6.482
 8693SOL    HW126978   6.518   1.470   6.571
 8693SOL    HW226979   6.401   1.466   6.457
 8694SOL     OW26980   6.039   2.612   4.726
 8694SOL    HW126981   6.005   2.650   4.813
 8694SOL    HW226982   6.082   2.523   4.743
 8695SOL     OW26983   3.949   3.389   6.429
 8695SOL    HW126984   3.939   3.470   6.372
 8695SOL    HW226985   3.980   3.416   6.520
 8696SOL     OW26986   2.214   5.795   5.134
 8696SOL    HW126987   2.160   5.860   5.186
 8696SOL    HW226988   2.163   5.765   5.053
 8697SOL     OW26989   1.699   4.469   5.697
 8697SOL    HW126990   1.790   4.479   5.736
 8697SOL    HW226991   1.655   4.388   5.737
 8698SOL     OW26992   5.081   5.810   6.037
 8698SOL    HW126993   5.149   5.864   6.086
 8698SOL    HW226994   5.008   5.783   6.099
 8699SOL     OW26995   2.557   2.889   6.157
 8699SOL    HW126996   2.506   2.877   6.072
 8699SOL    HW226997   2.515   2.961   6.212
 8700SOL     OW26998   0.897   0.213   5.159
 8700SOL    HW126999   0.976   0.259   5.118
 8700SOL    HW227000   0.865   0.266   5.238
 8701SOL     OW27001   1.629   1.478   6.833
 8701SOL    HW127002   1.699   1.409   6.854
 8701SOL    HW227003   1.599   1.521   6.918
 8702SOL     OW27004   5.129   5.317   1.431
 8702SOL    HW127005   5.053   5.337   1.369
 8702SOL    HW227006   5.213   5.360   1.396
 8703SOL     OW27007   2.759   4.492   6.708
 8703SOL    HW127008   2.738   4.418   6.771
 8703SOL    HW227009   2.679   4.511   6.651
 8704SOL     OW27010   6.995   2.597   4.336
 8704SOL    HW127011   7.009   2.578   4.239
 8704SOL    HW227012   6.928   2.534   4.374
 8705SOL     OW27013   4.607   2.544   6.502
 8705SOL    HW127014   4.650   2.629   6.471
 8705SOL    HW227015   4.678   2.478   6.525
 8706SOL     OW27016   5.938   2.962   0.242
 8706SOL    HW127017   5.883   2.949   0.160
 8706SOL    HW227018   5.925   3.055   0.277
 8707SOL     OW27019   1.447   1.984   4.214
 8707SOL    HW127020   1.517   1.957   4.149
 8707SOL    HW227021   1.483   2.056   4.274
 8708SOL     OW27022   4.958   2.246   4.251
 8708SOL    HW127023   5.012   2.326   4.278
 8708SOL    HW227024   5.000   2.163   4.288
 8709SOL     OW27025   6.859   0.194   0.158
 8709SOL    HW127026   6.900   0.109   0.124
 8709SOL    HW227027   6.782   0.173   0.218
 8710SOL     OW27028   1.897   1.974   3.910
 8710SOL    HW127029   1.885   2.002   3.814
 8710SOL    HW227030   1.994   1.959   3.928
 8711SOL     OW27031   0.882   1.408   1.786
 8711SOL    HW127032   0.798   1.406   1.732
 8711SOL    HW227033   0.870   1.354   1.869
 8712SOL     OW27034   2.720   1.923   5.245
 8712SOL    HW127035   2.724   1.858   5.321
 8712SOL    HW227036   2.679   1.880   5.165
 8713SOL     OW27037   1.095   3.955   1.899
 8713SOL    HW127038   1.013   3.924   1.946
 8713SOL    HW227039   1.156   3.877   1.882
 8714SOL     OW27040   0.144   6.412   0.326
 8714SOL    HW127041   0.227   6.468   0.322
 8714SOL    HW227042   0.079   6.453   0.390
 8715SOL     OW27043   2.480   1.855   0.129
 8715SOL    HW127044   2.539   1.912   0.072
 8715SOL    HW227045   2.386   1.860   0.095
 8716SOL     OW27046   0.099   6.087   1.681
 8716SOL    HW127047   0.109   6.184   1.661
 8716SOL    HW227048   0.187   6.041   1.666
 8717SOL     OW27049   2.389   3.766   6.222
 8717SOL    HW127050   2.458   3.717   6.275
 8717SOL    HW227051   2.303   3.769   6.274
 8718SOL     OW27052   1.357   3.145   6.360
 8718SOL    HW127053   1.397   3.134   6.269
 8718SOL    HW227054   1.390   3.072   6.420
 8719SOL     OW27055   3.860   0.974   0.107
 8719SOL    HW127056   3.807   1.057   0.087
 8719SOL    HW227057   3.798   0.903   0.140
 8720SOL     OW27058   6.674   4.821   5.118
 8720SOL    HW127059   6.721   4.868   5.043
 8720SOL    HW227060   6.735   4.752   5.157
 8721SOL     OW27061   6.579   6.144   6.562
 8721SOL    HW127062   6.574   6.178   6.468
 8721SOL    HW227063   6.630   6.209   6.619
 8722SOL     OW27064   3.119   0.512   0.588
 8722SOL    HW127065   3.150   0.430   0.637
 8722SOL    HW227066   3.105   0.586   0.652
 8723SOL     OW27067   5.897   7.013   2.282
 8723SOL    HW127068   5.841   7.018   2.198
 8723SOL    HW227069   5.844   6.969   2.354
 8724SOL     OW27070   4.685   0.238   4.450
 8724SOL    HW127071   4.589   0.223   4.476
 8724SOL    HW227072   4.728   0.301   4.515
 8725SOL     OW27073   0.625   6.583   5.055
 8725SOL    HW127074   0.585   6.674   5.063
 8725SOL    HW227075   0.677   6.563   5.138
 8726SOL     OW27076   6.909   1.683   0.299
 8726SOL    HW127077   6.979   1.729   0.243
 8726SOL    HW227078   6.905   1.587   0.273
 8727SOL     OW27079   6.313   6.751   6.580
 8727SOL    HW127080   6.410   6.752   6.605
 8727SOL    HW227081   6.271   6.838   6.606
 8728SOL     OW27082   5.457   1.117   2.890
 8728SOL    HW127083   5.530   1.173   2.929
 8728SOL    HW227084   5.483   1.020   2.894
 8729SOL     OW27085   3.232   5.019   5.324
 8729SOL    HW127086   3.283   4.944   5.366
 8729SOL    HW227087   3.147   5.034   5.374
 8730SOL     OW27088   5.309   4.124   3.330
 8730SOL    HW127089   5.280   4.202   3.274
 8730SOL    HW227090   5.402   4.098   3.304
 8731SOL     OW27091   0.153   2.270   2.969
 8731SOL    HW127092   0.239   2.311   2.999
 8731SOL    HW227093   0.077   2.314   3.016
 8732SOL     OW27094   5.391   4.873   1.197
 8732SOL    HW127095   5.464   4.848   1.133
 8732SOL    HW227096   5.430   4.880   1.289
 8733SOL     OW27097   0.594   5.602   0.991
 8733SOL    HW127098   0.615   5.534   0.921
 8733SOL    HW227099   0.673   5.662   1.004
 8734SOL     OW27100   6.820   3.772   2.219
 8734SOL    HW127101   6.880   3.781   2.139
 8734SOL    HW227102   6.799   3.863   2.255
 8735SOL     OW27103   1.528   3.432   5.102
 8735SOL    HW127104   1.577   3.362   5.154
 8735SOL    HW227105   1.486   3.497   5.166
 8736SOL     OW27106   0.496   5.668   2.196
 8736SOL    HW127107   0.523   5.660   2.100
 8736SOL    HW227108   0.404   5.632   2.208
 8737SOL     OW27109   2.252   5.725   6.426
 8737SOL    HW127110   2.227   5.654   6.360
 8737SOL    HW227111   2.225   5.698   6.518
 8738SOL     OW27112   1.158   3.762   3.624
 8738SOL    HW127113   1.195   3.832   3.685
 8738SOL    HW227114   1.232   3.704   3.591
 8739SOL     OW27115   5.695   3.766   5.308
 8739SOL    HW127116   5.774   3.826   5.294
 8739SOL    HW227117   5.718   3.695   5.374
 8740SOL     OW27118   3.739   1.991   3.146
 8740SOL    HW127119   3.788   2.038   3.072
 8740SOL    HW227120   3.805   1.960   3.215
 8741SOL     OW27121   2.184   6.985   2.639
 8741SOL    HW127122   2.196   6.975   2.738
 8741SOL    HW227123   2.179   0.059   2.616
 8742SOL     OW27124   3.784   0.663   2.535
 8742SOL    HW127125   3.749   0.643   2.626
 8742SOL    HW227126   3.804   0.761   2.528
 8743SOL     OW27127   1.577   0.985   1.837
 8743SOL    HW127128   1.568   1.026   1.927
 8743SOL    HW227129   1.643   1.036   1.783
 8744SOL     OW27130   4.462   3.072   6.893
 8744SOL    HW127131   4.487   3.058   6.989
 8744SOL    HW227132   4.362   3.070   6.885
 8745SOL     OW27133   6.706   2.364   6.673
 8745SOL    HW127134   6.755   2.286   6.711
 8745SOL    HW227135   6.772   2.434   6.644
 8746SOL     OW27136   4.851   4.755   4.137
 8746SOL    HW127137   4.816   4.712   4.220
 8746SOL    HW227138   4.779   4.809   4.094
 8747SOL     OW27139   6.549   1.030   2.019
 8747SOL    HW127140   6.542   1.121   2.059
 8747SOL    HW227141   6.582   0.966   2.088
 8748SOL     OW27142   0.971   1.657   3.960
 8748SOL    HW127143   0.962   1.659   3.861
 8748SOL    HW227144   1.055   1.705   3.988
 8749SOL     OW27145   1.984   1.042   5.225
 8749SOL    HW127146   1.938   0.981   5.289
 8749SOL    HW227147   2.079   1.056   5.254
 8750SOL     OW27148   4.086   2.885   6.111
 8750SOL    HW127149   4.121   2.793   6.125
 8750SOL    HW227150   3.999   2.896   6.160
 8751SOL     OW27151   6.841   6.907   0.865
 8751SOL    HW127152   6.825   6.884   0.961
 8751SOL    HW227153   6.903   6.985   0.859
 8752SOL     OW27154   5.092   2.730   0.218
 8752SOL    HW127155   5.063   2.708   0.311
 8752SOL    HW227156   5.039   2.675   0.153
 8753SOL     OW27157   1.812   3.389   0.110
 8753SOL    HW127158   1.909   3.378   0.091
 8753SOL    HW227159   1.758   3.355   0.033
 8754SOL     OW27160   2.694   5.274   6.300
 8754SOL    HW127161   2.765   5.328   6.345
 8754SOL    HW227162   2.670   5.196   6.359
 8755SOL     OW27163   0.973   1.454   1.026
 8755SOL    HW127164   0.919   1.529   0.986
 8755SOL    HW227165   0.919   1.370   1.025
 8756SOL     OW27166   2.308   2.754   4.029
 8756SOL    HW127167   2.363   2.838   4.035
 8756SOL    HW227168   2.322   2.712   3.940
 8757SOL     OW27169   5.311   6.079   5.409
 8757SOL    HW127170   5.295   6.082   5.310
 8757SOL    HW227171   5.250   6.144   5.454
 8758SOL     OW27172   4.112   0.150   3.173
 8758SOL    HW127173   4.198   0.167   3.222
 8758SOL    HW227174   4.123   0.070   3.114
 8759SOL     OW27175   6.372   1.487   6.838
 8759SOL    HW127176   6.329   1.544   6.768
 8759SOL    HW227177   6.316   1.486   6.920
 8760SOL     OW27178   2.151   1.856   3.964
 8760SOL    HW127179   2.210   1.863   3.884
 8760SOL    HW227180   2.198   1.803   4.035
 8761SOL     OW27181   5.233   1.529   2.118
 8761SOL    HW127182   5.140   1.527   2.081
 8761SOL    HW227183   5.296   1.561   2.047
 8762SOL     OW27184   1.811   6.018   3.838
 8762SOL    HW127185   1.817   6.116   3.859
 8762SOL    HW227186   1.904   5.980   3.831
 8763SOL     OW27187   6.986   0.789   5.254
 8763SOL    HW127188   6.998   0.880   5.215
 8763SOL    HW227189   6.915   0.792   5.325
 8764SOL     OW27190   4.272   5.761   5.963
 8764SOL    HW127191   4.259   5.682   5.904
 8764SOL    HW227192   4.196   5.825   5.950
 8765SOL     OW27193   5.899   1.058   5.442
 8765SOL    HW127194   5.907   0.988   5.513
 8765SOL    HW227195   5.987   1.068   5.395
 8766SOL     OW27196   4.693   4.240   5.695
 8766SOL    HW127197   4.597   4.252   5.722
 8766SOL    HW227198   4.752   4.287   5.760
 8767SOL     OW27199   3.165   0.300   3.432
 8767SOL    HW127200   3.153   0.360   3.511
 8767SOL    HW227201   3.111   0.216   3.445
 8768SOL     OW27202   0.470   2.140   6.633
 8768SOL    HW127203   0.410   2.060   6.629
 8768SOL    HW227204   0.428   2.209   6.693
 8769SOL     OW27205   6.175   1.133   1.653
 8769SOL    HW127206   6.085   1.093   1.670
 8769SOL    HW227207   6.245   1.084   1.705
 8770SOL     OW27208   5.559   4.200   2.183
 8770SOL    HW127209   5.527   4.156   2.099
 8770SOL    HW227210   5.566   4.299   2.168
 8771SOL     OW27211   0.372   3.607   6.606
 8771SOL    HW127212   0.345   3.685   6.662
 8771SOL    HW227213   0.376   3.635   6.510
 8772SOL     OW27214   5.450   0.846   4.811
 8772SOL    HW127215   5.543   0.853   4.848
 8772SOL    HW227216   5.453   0.811   4.717
 8773SOL     OW27217   6.295   2.570   4.216
 8773SOL    HW127218   6.311   2.655   4.266
 8773SOL    HW227219   6.288   2.589   4.119
 8774SOL     OW27220   0.857   6.639   6.927
 8774SOL    HW127221   0.768   6.644   6.880
 8774SOL    HW227222   0.853   6.694   7.010
 8775SOL     OW27223   5.700   1.779   4.732
 8775SOL    HW127224   5.732   1.850   4.670
 8775SOL    HW227225   5.772   1.758   4.799
 8776SOL     OW27226   4.296   3.218   0.963
 8776SOL    HW127227   4.342   3.192   1.047
 8776SOL    HW227228   4.201   3.186   0.966
 8777SOL     OW27229   0.955   3.101   2.749
 8777SOL    HW127230   0.893   3.022   2.753
 8777SOL    HW227231   1.044   3.071   2.715
 8778SOL     OW27232   4.259   3.934   6.034
 8778SOL    HW127233   4.358   3.924   6.027
 8778SOL    HW227234   4.223   3.970   5.948
 8779SOL     OW27235   3.069   5.261   2.626
 8779SOL    HW127236   3.038   5.176   2.668
 8779SOL    HW227237   3.050   5.338   2.688
 8780SOL     OW27238   0.227   5.595   2.246
 8780SOL    HW127239   0.153   5.659   2.227
 8780SOL    HW227240   0.191   5.517   2.297
 8781SOL     OW27241   4.483   0.232   2.649
 8781SOL    HW127242   4.483   0.294   2.571
 8781SOL    HW227243   4.391   0.198   2.664
 8782SOL     OW27244   5.693   0.993   1.821
 8782SOL    HW127245   5.610   1.035   1.784
 8782SOL    HW227246   5.710   1.029   1.913
 8783SOL     OW27247   5.446   3.429   4.731
 8783SOL    HW127248   5.363   3.432   4.788
 8783SOL    HW227249   5.461   3.336   4.700
 8784SOL     OW27250   6.313   6.413   0.722
 8784SOL    HW127251   6.354   6.448   0.638
 8784SOL    HW227252   6.262   6.329   0.701
 8785SOL     OW27253   0.621   5.314   6.273
 8785SOL    HW127254   0.681   5.376   6.323
 8785SOL    HW227255   0.572   5.365   6.202
 8786SOL     OW27256   4.172   2.247   2.363
 8786SOL    HW127257   4.229   2.164   2.368
 8786SOL    HW227258   4.091   2.228   2.308
 8787SOL     OW27259   3.648   0.879   1.287
 8787SOL    HW127260   3.665   0.886   1.385
 8787SOL    HW227261   3.653   0.782   1.259
 8788SOL     OW27262   0.428   0.554   5.503
 8788SOL    HW127263   0.488   0.485   5.463
 8788SOL    HW227264   0.338   0.549   5.459
 8789SOL     OW27265   0.238   3.775   5.228
 8789SOL    HW127266   0.182   3.806   5.305
 8789SOL    HW227267   0.181   3.769   5.146
 8790SOL     OW27268   6.276   2.402   0.462
 8790SOL    HW127269   6.211   2.370   0.393
 8790SOL    HW227270   6.254   2.361   0.551
 8791SOL     OW27271   4.695   6.193   5.072
 8791SOL    HW127272   4.753   6.114   5.055
 8791SOL    HW227273   4.743   6.276   5.042
 8792SOL     OW27274   4.175   5.556   1.533
 8792SOL    HW127275   4.217   5.647   1.539
 8792SOL    HW227276   4.170   5.515   1.624
 8793SOL     OW27277   1.150   5.042   4.289
 8793SOL    HW127278   1.158   5.136   4.255
 8793SOL    HW227279   1.197   5.035   4.376
 8794SOL     OW27280   6.092   1.099   3.341
 8794SOL    HW127281   6.129   1.090   3.433
 8794SOL    HW227282   6.140   1.172   3.292
 8795SOL     OW27283   1.210   5.033   5.506
 8795SOL    HW127284   1.297   5.083   5.513
 8795SOL    HW227285   1.227   4.935   5.520
 8796SOL     OW27286   6.063   3.792   3.426
 8796SOL    HW127287   6.034   3.786   3.331
 8796SOL    HW227288   5.993   3.837   3.480
 8797SOL     OW27289   0.050   6.554   3.863
 8797SOL    HW127290   7.003   6.623   3.845
 8797SOL    HW227291   0.111   6.585   3.936
 8798SOL     OW27292   4.712   6.657   5.060
 8798SOL    HW127293   4.640   6.675   5.126
 8798SOL    HW227294   4.791   6.714   5.079
 8799SOL     OW27295   2.216   4.816   1.845
 8799SOL    HW127296   2.234   4.763   1.929
 8799SOL    HW227297   2.118   4.832   1.836
 8800SOL     OW27298   6.922   6.587   5.662
 8800SOL    HW127299   7.003   6.605   5.605
 8800SOL    HW227300   6.928   6.639   5.746
 8801SOL     OW27301   5.986   2.044   5.168
 8801SOL    HW127302   6.006   2.138   5.143
 8801SOL    HW227303   5.934   2.042   5.254
 8802SOL     OW27304   1.306   5.576   5.791
 8802SOL    HW127305   1.402   5.549   5.779
 8802SOL    HW227306   1.287   5.587   5.888
 8803SOL     OW27307   6.400   0.815   6.961
 8803SOL    HW127308   6.320   0.837   6.905
 8803SOL    HW227309   6.480   0.803   6.902
 8804SOL     OW27310   1.795   5.955   1.034
 8804SOL    HW127311   1.845   5.938   1.119
 8804SOL    HW227312   1.809   6.049   1.005
 8805SOL     OW27313   4.400   5.857   3.568
 8805SOL    HW127314   4.349   5.817   3.645
 8805SOL    HW227315   4.379   5.954   3.561
 8806SOL     OW27316   2.459   6.357   0.523
 8806SOL    HW127317   2.402   6.300   0.582
 8806SOL    HW227318   2.438   6.339   0.427
 8807SOL     OW27319   4.736   2.022   0.445
 8807SOL    HW127320   4.832   1.994   0.452
 8807SOL    HW227321   4.678   1.955   0.491
 8808SOL     OW27322   1.918   2.547   0.770
 8808SOL    HW127323   1.992   2.488   0.802
 8808SOL    HW227324   1.942   2.582   0.679
 8809SOL     OW27325   2.153   3.988   3.535
 8809SOL    HW127326   2.174   4.044   3.455
 8809SOL    HW227327   2.084   4.033   3.591
 8810SOL     OW27328   6.195   1.773   5.451
 8810SOL    HW127329   6.115   1.713   5.456
 8810SOL    HW227330   6.206   1.805   5.356
 8811SOL     OW27331   4.629   0.008   2.572
 8811SOL    HW127332   4.652   6.976   2.651
 8811SOL    HW227333   4.574   0.087   2.601
 8812SOL     OW27334   3.482   0.592   6.721
 8812SOL    HW127335   3.435   0.674   6.754
 8812SOL    HW227336   3.575   0.615   6.693
 8813SOL     OW27337   2.380   4.366   2.838
 8813SOL    HW127338   2.347   4.308   2.764
 8813SOL    HW227339   2.412   4.453   2.801
 8814SOL     OW27340   5.637   6.692   0.217
 8814SOL    HW127341   5.671   6.784   0.202
 8814SOL    HW227342   5.671   6.657   0.305
 8815SOL     OW27343   5.281   0.715   0.665
 8815SOL    HW127344   5.247   0.699   0.572
 8815SOL    HW227345   5.233   0.655   0.729
 8816SOL     OW27346   0.124   6.195   6.529
 8816SOL    HW127347   0.077   6.274   6.490
 8816SOL    HW227348   0.182   6.153   6.459
 8817SOL     OW27349   0.736   3.468   4.664
 8817SOL    HW127350   0.679   3.386   4.665
 8817SOL    HW227351   0.690   3.540   4.613
 8818SOL     OW27352   1.728   6.686   3.819
 8818SOL    HW127353   1.724   6.587   3.810
 8818SOL    HW227354   1.702   6.729   3.733
 8819SOL     OW27355   5.675   4.334   5.769
 8819SOL    HW127356   5.576   4.321   5.770
 8819SOL    HW227357   5.720   4.248   5.742
 8820SOL     OW27358   3.914   0.891   4.759
 8820SOL    HW127359   3.960   0.942   4.833
 8820SOL    HW227360   3.875   0.956   4.694
 8821SOL     OW27361   0.937   5.324   0.720
 8821SOL    HW127362   1.005   5.397   0.726
 8821SOL    HW227363   0.872   5.344   0.648
 8822SOL     OW27364   6.292   6.710   4.196
 8822SOL    HW127365   6.250   6.800   4.183
 8822SOL    HW227366   6.297   6.662   4.109
 8823SOL     OW27367   2.821   1.215   2.349
 8823SOL    HW127368   2.873   1.297   2.326
 8823SOL    HW227369   2.764   1.232   2.429
 8824SOL     OW27370   1.400   0.554   0.837
 8824SOL    HW127371   1.480   0.505   0.871
 8824SOL    HW227372   1.429   0.629   0.778
 8825SOL     OW27373   0.329   0.473   1.327
 8825SOL    HW127374   0.264   0.472   1.403
 8825SOL    HW227375   0.422   0.470   1.362
 8826SOL     OW27376   1.023   3.367   1.046
 8826SOL    HW127377   1.072   3.390   0.962
 8826SOL    HW227378   0.935   3.414   1.046
 8827SOL     OW27379   4.072   0.309   2.385
 8827SOL    HW127380   4.056   0.218   2.346
 8827SOL    HW227381   4.168   0.319   2.410
 8828SOL     OW27382   4.043   4.133   6.171
 8828SOL    HW127383   4.026   4.170   6.263
 8828SOL    HW227384   4.140   4.116   6.160
 8829SOL     OW27385   0.315   1.505   2.280
 8829SOL    HW127386   0.371   1.517   2.198
 8829SOL    HW227387   0.365   1.449   2.346
 8830SOL     OW27388   2.499   1.444   2.194
 8830SOL    HW127389   2.470   1.419   2.286
 8830SOL    HW227390   2.581   1.501   2.199
 8831SOL     OW27391   0.410   2.721   2.520
 8831SOL    HW127392   0.367   2.804   2.554
 8831SOL    HW227393   0.367   2.641   2.562
 8832SOL     OW27394   6.091   6.905   3.856
 8832SOL    HW127395   6.064   6.999   3.836
 8832SOL    HW227396   6.068   6.883   3.951
 8833SOL     OW27397   4.001   2.793   0.943
 8833SOL    HW127398   4.051   2.802   0.857
 8833SOL    HW227399   3.909   2.758   0.926
 8834SOL     OW27400   6.030   3.629   5.510
 8834SOL    HW127401   5.996   3.631   5.416
 8834SOL    HW227402   6.028   3.722   5.548
 8835SOL     OW27403   5.659   0.631   6.185
 8835SOL    HW127404   5.638   0.615   6.282
 8835SOL    HW227405   5.633   0.724   6.160
 8836SOL     OW27406   5.674   2.637   0.328
 8836SOL    HW127407   5.673   2.654   0.230
 8836SOL    HW227408   5.623   2.709   0.375
 8837SOL     OW27409   0.045   6.669   1.920
 8837SOL    HW127410   6.980   6.694   1.879
 8837SOL    HW227411   0.118   6.683   1.853
 8838SOL     OW27412   0.742   4.323   3.033
 8838SOL    HW127413   0.750   4.237   3.083
 8838SOL    HW227414   0.817   4.383   3.059
 8839SOL     OW27415   5.367   5.523   2.571
 8839SOL    HW127416   5.384   5.557   2.479
 8839SOL    HW227417   5.450   5.481   2.608
 8840SOL     OW27418   6.446   0.395   2.165
 8840SOL    HW127419   6.394   0.430   2.087
 8840SOL    HW227420   6.498   0.314   2.137
 8841SOL     OW27421   4.090   1.132   2.247
 8841SOL    HW127422   4.023   1.102   2.179
 8841SOL    HW227423   4.103   1.231   2.239
 8842SOL     OW27424   3.383   4.158   4.026
 8842SOL    HW127425   3.381   4.257   4.013
 8842SOL    HW227426   3.471   4.131   4.065
 8843SOL     OW27427   1.932   3.067   4.954
 8843SOL    HW127428   1.906   3.088   5.049
 8843SOL    HW227429   2.026   3.097   4.938
 8844SOL     OW27430   6.246   1.974   5.175
 8844SOL    HW127431   6.280   2.003   5.085
 8844SOL    HW227432   6.147   1.962   5.170
 8845SOL     OW27433   2.197   5.554   1.351
 8845SOL    HW127434   2.157   5.462   1.359
 8845SOL    HW227435   2.286   5.548   1.307
 8846SOL     OW27436   5.226   4.455   4.050
 8846SOL    HW127437   5.142   4.508   4.041
 8846SOL    HW227438   5.232   4.388   3.976
 8847SOL     OW27439   1.363   1.990   2.562
 8847SOL    HW127440   1.417   1.983   2.646
 8847SOL    HW227441   1.357   1.899   2.520
 8848SOL     OW27442   3.275   2.012   1.223
 8848SOL    HW127443   3.221   1.962   1.291
 8848SOL    HW227444   3.217   2.079   1.178
 8849SOL     OW27445   2.450   5.553   4.056
 8849SOL    HW127446   2.462   5.488   4.131
 8849SOL    HW227447   2.539   5.595   4.034
 8850SOL     OW27448   2.857   1.707   0.160
 8850SOL    HW127449   2.876   1.804   0.178
 8850SOL    HW227450   2.927   1.650   0.204
 8851SOL     OW27451   0.624   4.461   2.827
 8851SOL    HW127452   0.550   4.525   2.847
 8851SOL    HW227453   0.632   4.395   2.902
 8852SOL     OW27454   5.214   2.693   6.081
 8852SOL    HW127455   5.250   2.740   6.162
 8852SOL    HW227456   5.115   2.703   6.078
 8853SOL     OW27457   3.632   1.348   5.076
 8853SOL    HW127458   3.555   1.310   5.127
 8853SOL    HW227459   3.605   1.363   4.981
 8854SOL     OW27460   1.909   0.426   5.798
 8854SOL    HW127461   1.948   0.339   5.829
 8854SOL    HW227462   1.974   0.500   5.820
 8855SOL     OW27463   6.000   6.037   6.489
 8855SOL    HW127464   5.996   6.131   6.523
 8855SOL    HW227465   5.946   6.029   6.405
 8856SOL     OW27466   6.585   0.409   4.537
 8856SOL    HW127467   6.515   0.428   4.468
 8856SOL    HW227468   6.641   0.332   4.506
 8857SOL     OW27469   6.213   2.008   3.211
 8857SOL    HW127470   6.305   2.022   3.248
 8857SOL    HW227471   6.213   1.931   3.148
 8858SOL     OW27472   1.236   3.873   5.825
 8858SOL    HW127473   1.183   3.932   5.765
 8858SOL    HW227474   1.333   3.883   5.804
 8859SOL     OW27475   0.870   6.921   4.944
 8859SOL    HW127476   0.816   6.899   5.026
 8859SOL    HW227477   0.824   6.992   4.892
 8860SOL     OW27478   1.232   2.849   2.407
 8860SOL    HW127479   1.133   2.838   2.403
 8860SOL    HW227480   1.266   2.880   2.318
 8861SOL     OW27481   3.338   3.356   6.899
 8861SOL    HW127482   3.287   3.389   6.819
 8861SOL    HW227483   3.375   3.435   6.949
 8862SOL     OW27484   6.053   1.541   4.680
 8862SOL    HW127485   5.968   1.487   4.685
 8862SOL    HW227486   6.051   1.599   4.598
 8863SOL     OW27487   2.036   5.539   4.562
 8863SOL    HW127488   2.077   5.588   4.485
 8863SOL    HW227489   2.015   5.445   4.536
 8864SOL     OW27490   2.046   3.158   6.328
 8864SOL    HW127491   2.120   3.195   6.273
 8864SOL    HW227492   1.981   3.111   6.269
 8865SOL     OW27493   3.257   1.382   4.557
 8865SOL    HW127494   3.211   1.391   4.468
 8865SOL    HW227495   3.309   1.297   4.559
 8866SOL     OW27496   4.182   6.449   3.314
 8866SOL    HW127497   4.115   6.382   3.284
 8866SOL    HW227498   4.182   6.454   3.414
 8867SOL     OW27499   5.980   2.407   2.594
 8867SOL    HW127500   6.080   2.400   2.585
 8867SOL    HW227501   5.937   2.327   2.551
 8868SOL     OW27502   5.125   3.420   0.514
 8868SOL    HW127503   5.215   3.430   0.556
 8868SOL    HW227504   5.054   3.443   0.581
 8869SOL     OW27505   4.755   4.070   3.108
 8869SOL    HW127506   4.724   4.142   3.046
 8869SOL    HW227507   4.716   4.086   3.199
 8870SOL     OW27508   3.655   0.640   1.150
 8870SOL    HW127509   3.704   0.553   1.158
 8870SOL    HW227510   3.707   0.701   1.090
 8871SOL     OW27511   2.556   1.439   3.794
 8871SOL    HW127512   2.491   1.381   3.843
 8871SOL    HW227513   2.637   1.454   3.851
 8872SOL     OW27514   2.025   4.495   4.278
 8872SOL    HW127515   1.949   4.431   4.263
 8872SOL    HW227516   2.074   4.470   4.361
 8873SOL     OW27517   7.013   5.652   2.903
 8873SOL    HW127518   0.061   5.720   2.891
 8873SOL    HW227519   7.000   5.602   2.817
 8874SOL     OW27520   1.877   0.150   1.060
 8874SOL    HW127521   1.880   0.176   0.963
 8874SOL    HW227522   1.961   0.180   1.105
 8875SOL     OW27523   1.215   2.710   4.653
 8875SOL    HW127524   1.201   2.739   4.748
 8875SOL    HW227525   1.221   2.790   4.594
 8876SOL     OW27526   6.960   0.502   4.417
 8876SOL    HW127527   6.923   0.583   4.464
 8876SOL    HW227528   6.913   0.420   4.450
 8877SOL     OW27529   2.903   0.694   4.210
 8877SOL    HW127530   2.947   0.625   4.151
 8877SOL    HW227531   2.930   0.678   4.305
 8878SOL     OW27532   0.120   5.172   0.822
 8878SOL    HW127533   0.200   5.145   0.769
 8878SOL    HW227534   0.106   5.108   0.898
 8879SOL     OW27535   4.917   5.480   0.639
 8879SOL    HW127536   5.013   5.480   0.667
 8879SOL    HW227537   4.869   5.555   0.684
 8880SOL     OW27538   0.038   5.769   4.774
 8880SOL    HW127539   0.128   5.772   4.731
 8880SOL    HW227540   0.042   5.718   4.859
 8881SOL     OW27541   6.437   0.928   3.314
 8881SOL    HW127542   6.535   0.909   3.314
 8881SOL    HW227543   6.387   0.846   3.342
 8882SOL     OW27544   5.290   0.722   6.820
 8882SOL    HW127545   5.282   0.804   6.763
 8882SOL    HW227546   5.381   0.681   6.807
 8883SOL     OW27547   0.291   1.225   5.995
 8883SOL    HW127548   0.228   1.232   5.917
 8883SOL    HW227549   0.368   1.166   5.971
 8884SOL     OW27550   6.143   6.499   6.581
 8884SOL    HW127551   6.076   6.572   6.576
 8884SOL    HW227552   6.234   6.536   6.563
 8885SOL     OW27553   6.647   3.714   1.447
 8885SOL    HW127554   6.639   3.618   1.420
 8885SOL    HW227555   6.574   3.767   1.402
 8886SOL     OW27556   2.568   5.745   5.313
 8886SOL    HW127557   2.643   5.770   5.375
 8886SOL    HW227558   2.493   5.811   5.323
 8887SOL     OW27559   2.919   1.150   0.778
 8887SOL    HW127560   2.845   1.204   0.819
 8887SOL    HW227561   2.903   1.053   0.796
 8888SOL     OW27562   1.153   1.919   0.887
 8888SOL    HW127563   1.055   1.935   0.882
 8888SOL    HW227564   1.171   1.823   0.908
 8889SOL     OW27565   5.596   6.784   4.981
 8889SOL    HW127566   5.658   6.848   5.027
 8889SOL    HW227567   5.503   6.798   5.014
 8890SOL     OW27568   6.221   5.921   4.669
 8890SOL    HW127569   6.292   5.934   4.739
 8890SOL    HW227570   6.181   5.830   4.680
 8891SOL     OW27571   5.921   3.055   6.578
 8891SOL    HW127572   5.932   3.007   6.665
 8891SOL    HW227573   5.950   2.995   6.503
 8892SOL     OW27574   3.096   6.899   3.182
 8892SOL    HW127575   3.067   6.809   3.214
 8892SOL    HW227576   3.023   6.942   3.130
 8893SOL     OW27577   0.525   1.246   1.784
 8893SOL    HW127578   0.582   1.194   1.847
 8893SOL    HW227579   0.483   1.183   1.718
 8894SOL     OW27580   3.829   3.242   6.034
 8894SOL    HW127581   3.738   3.202   6.050
 8894SOL    HW227582   3.828   3.338   6.060
 8895SOL     OW27583   0.389   0.423   1.980
 8895SOL    HW127584   0.377   0.487   1.905
 8895SOL    HW227585   0.487   0.411   1.998
 8896SOL     OW27586   0.888   3.518   5.310
 8896SOL    HW127587   0.839   3.569   5.381
 8896SOL    HW227588   0.852   3.543   5.220
 8897SOL     OW27589   1.638   1.715   1.915
 8897SOL    HW127590   1.730   1.728   1.877
 8897SOL    HW227591   1.586   1.654   1.855
 8898SOL     OW27592   6.256   3.048   4.575
 8898SOL    HW127593   6.188   3.017   4.642
 8898SOL    HW227594   6.235   3.141   4.546
 8899SOL     OW27595   2.443   4.181   6.581
 8899SOL    HW127596   2.474   4.219   6.494
 8899SOL    HW227597   2.345   4.160   6.575
 8900SOL     OW27598   5.470   3.353   3.335
 8900SOL    HW127599   5.453   3.351   3.433
 8900SOL    HW227600   5.385   3.333   3.286
 8901SOL     OW27601   1.939   0.989   3.040
 8901SOL    HW127602   2.004   1.049   3.086
 8901SOL    HW227603   1.901   1.037   2.960
 8902SOL     OW27604   2.938   5.935   6.293
 8902SOL    HW127605   3.020   5.879   6.300
 8902SOL    HW227606   2.941   5.987   6.208
 8903SOL     OW27607   2.274   1.567   3.848
 8903SOL    HW127608   2.338   1.551   3.923
 8903SOL    HW227609   2.326   1.587   3.764
 8904SOL     OW27610   7.021   5.097   3.648
 8904SOL    HW127611   6.947   5.040   3.683
 8904SOL    HW227612   0.006   5.180   3.704
 8905SOL     OW27613   2.252   3.339   5.280
 8905SOL    HW127614   2.281   3.402   5.352
 8905SOL    HW227615   2.156   3.358   5.257
 8906SOL     OW27616   6.724   0.104   6.685
 8906SOL    HW127617   6.813   0.098   6.639
 8906SOL    HW227618   6.723   0.186   6.743
 8907SOL     OW27619   3.404   2.477   5.373
 8907SOL    HW127620   3.453   2.389   5.370
 8907SOL    HW227621   3.314   2.466   5.331
 8908SOL     OW27622   1.668   2.866   0.573
 8908SOL    HW127623   1.643   2.944   0.514
 8908SOL    HW227624   1.661   2.782   0.520
 8909SOL     OW27625   2.760   0.431   4.993
 8909SOL    HW127626   2.712   0.496   5.051
 8909SOL    HW227627   2.711   0.420   4.907
 8910SOL     OW27628   2.314   3.102   5.789
 8910SOL    HW127629   2.384   3.161   5.749
 8910SOL    HW227630   2.357   3.028   5.840
 8911SOL     OW27631   3.640   2.137   4.406
 8911SOL    HW127632   3.540   2.137   4.410
 8911SOL    HW227633   3.677   2.139   4.499
 8912SOL     OW27634   4.011   1.305   6.430
 8912SOL    HW127635   4.047   1.334   6.519
 8912SOL    HW227636   4.080   1.320   6.360
 8913SOL     OW27637   5.316   4.021   1.830
 8913SOL    HW127638   5.294   3.963   1.752
 8913SOL    HW227639   5.415   4.033   1.836
 8914SOL     OW27640   4.441   1.446   5.306
 8914SOL    HW127641   4.439   1.539   5.343
 8914SOL    HW227642   4.500   1.389   5.363
 8915SOL     OW27643   1.418   2.597   4.103
 8915SOL    HW127644   1.510   2.567   4.128
 8915SOL    HW227645   1.423   2.653   4.020
 8916SOL     OW27646   0.296   3.809   1.572
 8916SOL    HW127647   0.326   3.739   1.636
 8916SOL    HW227648   0.333   3.790   1.481
 8917SOL     OW27649   5.820   5.072   6.705
 8917SOL    HW127650   5.840   5.100   6.612
 8917SOL    HW227651   5.877   5.123   6.769
 8918SOL     OW27652   6.499   6.322   6.989
 8918SOL    HW127653   6.527   6.402   0.020
 8918SOL    HW227654   6.404   6.299   7.010
 8919SOL     OW27655   4.121   3.470   0.743
 8919SOL    HW127656   4.054   3.396   0.748
 8919SOL    HW227657   4.167   3.479   0.831
 8920SOL     OW27658   6.506   5.897   6.239
 8920SOL    HW127659   6.595   5.885   6.195
 8920SOL    HW227660   6.485   5.995   6.246
 8921SOL     OW27661   1.561   1.356   2.889
 8921SOL    HW127662   1.647   1.385   2.849
 8921SOL    HW227663   1.578   1.288   2.961
 8922SOL     OW27664   2.349   5.269   0.875
 8922SOL    HW127665   2.303   5.212   0.944
 8922SOL    HW227666   2.448   5.254   0.881
 8923SOL     OW27667   2.096   3.755   6.726
 8923SOL    HW127668   2.095   3.753   6.826
 8923SOL    HW227669   2.174   3.701   6.693
 8924SOL     OW27670   2.669   5.445   5.548
 8924SOL    HW127671   2.728   5.430   5.468
 8924SOL    HW227672   2.682   5.537   5.583
 8925SOL     OW27673   0.745   0.639   2.101
 8925SOL    HW127674   0.799   0.586   2.167
 8925SOL    HW227675   0.805   0.704   2.054
 8926SOL     OW27676   5.990   2.277   1.766
 8926SOL    HW127677   6.057   2.216   1.808
 8926SOL    HW227678   5.912   2.224   1.734
 8927SOL     OW27679   2.788   2.214   5.078
 8927SOL    HW127680   2.829   2.284   5.136
 8927SOL    HW227681   2.858   2.148   5.050
 8928SOL     OW27682   0.405   1.032   5.657
 8928SOL    HW127683   0.384   1.113   5.603
 8928SOL    HW227684   0.450   0.964   5.599
 8929SOL     OW27685   0.238   3.307   3.938
 8929SOL    HW127686   0.262   3.212   3.957
 8929SOL    HW227687   0.303   3.345   3.873
 8930SOL     OW27688   1.680   5.045   5.332
 8930SOL    HW127689   1.702   5.092   5.246
 8930SOL    HW227690   1.735   4.962   5.340
 8931SOL     OW27691   4.541   2.577   1.025
 8931SOL    HW127692   4.549   2.610   0.931
 8931SOL    HW227693   4.490   2.644   1.079
 8932SOL     OW27694   5.127   6.895   6.272
 8932SOL    HW127695   5.165   6.876   6.182
 8932SOL    HW227696   5.186   6.960   6.320
 8933SOL     OW27697   1.232   1.026   5.017
 8933SOL    HW127698   1.225   1.019   4.918
 8933SOL    HW227699   1.264   0.939   5.055
 8934SOL     OW27700   3.435   5.296   2.692
 8934SOL    HW127701   3.460   5.201   2.672
 8934SOL    HW227702   3.518   5.350   2.705
 8935SOL     OW27703   4.972   3.500   2.512
 8935SOL    HW127704   4.922   3.456   2.437
 8935SOL    HW227705   4.954   3.598   2.510
 8936SOL     OW27706   0.825   3.544   1.013
 8936SOL    HW127707   0.867   3.604   0.945
 8936SOL    HW227708   0.732   3.520   0.984
 8937SOL     OW27709   0.559   0.588   3.918
 8937SOL    HW127710   0.616   0.564   3.839
 8937SOL    HW227711   0.584   0.679   3.951
 8938SOL     OW27712   5.678   0.575   0.430
 8938SOL    HW127713   5.667   0.543   0.336
 8938SOL    HW227714   5.658   0.500   0.493
 8939SOL     OW27715   6.434   2.995   4.831
 8939SOL    HW127716   6.475   3.085   4.815
 8939SOL    HW227717   6.460   2.933   4.757
 8940SOL     OW27718   6.446   2.767   0.364
 8940SOL    HW127719   6.395   2.751   0.448
 8940SOL    HW227720   6.543   2.778   0.386
 8941SOL     OW27721   4.934   1.922   1.979
 8941SOL    HW127722   4.900   2.012   1.952
 8941SOL    HW227723   4.994   1.887   1.907
 8942SOL     OW27724   6.544   4.749   4.284
 8942SOL    HW127725   6.509   4.670   4.335
 8942SOL    HW227726   6.641   4.762   4.306
 8943SOL     OW27727   4.460   3.852   0.222
 8943SOL    HW127728   4.422   3.795   0.149
 8943SOL    HW227729   4.435   3.813   0.311
 8944SOL     OW27730   4.496   4.933   4.383
 8944SOL    HW127731   4.425   5.002   4.377
 8944SOL    HW227732   4.458   4.849   4.421
 8945SOL     OW27733   6.287   3.455   5.347
 8945SOL    HW127734   6.370   3.399   5.350
 8945SOL    HW227735   6.207   3.398   5.364
 8946SOL     OW27736   4.805   0.353   4.191
 8946SOL    HW127737   4.798   0.291   4.269
 8946SOL    HW227738   4.792   0.448   4.222
 8947SOL     OW27739   1.147   4.598   6.783
 8947SOL    HW127740   1.162   4.576   6.879
 8947SOL    HW227741   1.195   4.683   6.760
 8948SOL     OW27742   6.260   6.180   4.218
 8948SOL    HW127743   6.283   6.123   4.296
 8948SOL    HW227744   6.343   6.207   4.170
 8949SOL     OW27745   4.087   6.132   0.273
 8949SOL    HW127746   4.183   6.137   0.246
 8949SOL    HW227747   4.081   6.128   0.373
 8950SOL     OW27748   4.858   3.965   1.086
 8950SOL    HW127749   4.933   4.027   1.111
 8950SOL    HW227750   4.776   3.988   1.138
 8951SOL     OW27751   2.487   1.063   4.137
 8951SOL    HW127752   2.525   1.108   4.056
 8951SOL    HW227753   2.556   1.005   4.179
 8952SOL     OW27754   2.279   4.723   3.263
 8952SOL    HW127755   2.256   4.628   3.244
 8952SOL    HW227756   2.322   4.763   3.182
 8953SOL     OW27757   2.370   4.952   1.663
 8953SOL    HW127758   2.325   4.894   1.730
 8953SOL    HW227759   2.408   5.033   1.709
 8954SOL     OW27760   0.985   5.682   4.384
 8954SOL    HW127761   0.969   5.585   4.405
 8954SOL    HW227762   0.991   5.695   4.285
 8955SOL     OW27763   6.260   3.090   2.679
 8955SOL    HW127764   6.336   3.103   2.615
 8955SOL    HW227765   6.297   3.065   2.769
 8956SOL     OW27766   0.380   6.643   6.516
 8956SOL    HW127767   0.466   6.694   6.514
 8956SOL    HW227768   0.347   6.637   6.610
 8957SOL     OW27769   1.678   5.601   2.108
 8957SOL    HW127770   1.669   5.602   2.008
 8957SOL    HW227771   1.770   5.568   2.132
 8958SOL     OW27772   1.408   3.462   5.512
 8958SOL    HW127773   1.392   3.501   5.421
 8958SOL    HW227774   1.384   3.365   5.511
 8959SOL     OW27775   0.945   3.466   2.155
 8959SOL    HW127776   0.997   3.551   2.151
 8959SOL    HW227777   1.007   3.388   2.147
 8960SOL     OW27778   6.669   3.823   3.864
 8960SOL    HW127779   6.677   3.895   3.796
 8960SOL    HW227780   6.693   3.735   3.823
 8961SOL     OW27781   3.042   0.000   4.292
 8961SOL    HW127782   2.963   0.034   4.239
 8961SOL    HW227783   3.126   0.020   4.242
 8962SOL     OW27784   1.323   5.972   1.256
 8962SOL    HW127785   1.383   5.915   1.312
 8962SOL    HW227786   1.232   5.974   1.296
 8963SOL     OW27787   3.536   5.535   4.371
 8963SOL    HW127788   3.477   5.527   4.451
 8963SOL    HW227789   3.480   5.555   4.291
 8964SOL     OW27790   5.863   4.015   3.183
 8964SOL    HW127791   5.836   3.939   3.242
 8964SOL    HW227792   5.832   3.996   3.090
 8965SOL     OW27793   4.129   4.851   0.882
 8965SOL    HW127794   4.092   4.848   0.789
 8965SOL    HW227795   4.136   4.758   0.918
 8966SOL     OW27796   5.978   5.330   5.975
 8966SOL    HW127797   6.041   5.298   5.905
 8966SOL    HW227798   5.968   5.429   5.968
 8967SOL     OW27799   3.567   0.843   2.828
 8967SOL    HW127800   3.564   0.830   2.927
 8967SOL    HW227801   3.613   0.765   2.786
 8968SOL     OW27802   2.316   4.644   1.596
 8968SOL    HW127803   2.377   4.653   1.517
 8968SOL    HW227804   2.335   4.717   1.662
 8969SOL     OW27805   0.141   6.580   3.225
 8969SOL    HW127806   0.145   6.666   3.174
 8969SOL    HW227807   0.046   6.555   3.242
 8970SOL     OW27808   1.031   1.658   5.890
 8970SOL    HW127809   0.985   1.632   5.805
 8970SOL    HW227810   1.086   1.740   5.874
 8971SOL     OW27811   4.307   6.455   0.820
 8971SOL    HW127812   4.336   6.472   0.914
 8971SOL    HW227813   4.276   6.541   0.779
 8972SOL     OW27814   5.717   5.385   0.343
 8972SOL    HW127815   5.662   5.369   0.426
 8972SOL    HW227816   5.768   5.302   0.322
 8973SOL     OW27817   0.739   2.668   1.992
 8973SOL    HW127818   0.705   2.594   2.050
 8973SOL    HW227819   0.764   2.746   2.050
 8974SOL     OW27820   2.243   4.115   4.488
 8974SOL    HW127821   2.232   4.018   4.467
 8974SOL    HW227822   2.177   4.142   4.558
 8975SOL     OW27823   0.396   0.357   6.667
 8975SOL    HW127824   0.396   0.456   6.676
 8975SOL    HW227825   0.461   0.330   6.595
 8976SOL     OW27826   6.126   6.426   1.440
 8976SOL    HW127827   6.163   6.394   1.353
 8976SOL    HW227828   6.172   6.510   1.468
 8977SOL     OW27829   0.057   5.117   6.164
 8977SOL    HW127830   0.154   5.095   6.174
 8977SOL    HW227831   0.021   5.075   6.081
 8978SOL     OW27832   6.098   6.029   5.083
 8978SOL    HW127833   6.192   5.995   5.078
 8978SOL    HW227834   6.088   6.110   5.024
 8979SOL     OW27835   1.039   5.426   6.054
 8979SOL    HW127836   0.969   5.414   5.983
 8979SOL    HW227837   1.078   5.336   6.077
 8980SOL     OW27838   4.317   1.640   5.589
 8980SOL    HW127839   4.276   1.722   5.549
 8980SOL    HW227840   4.406   1.623   5.548
 8981SOL     OW27841   4.376   1.989   6.108
 8981SOL    HW127842   4.418   2.013   6.195
 8981SOL    HW227843   4.289   2.038   6.098
 8982SOL     OW27844   6.624   1.149   1.776
 8982SOL    HW127845   6.603   1.244   1.800
 8982SOL    HW227846   6.611   1.090   1.856
 8983SOL     OW27847   1.100   5.026   1.906
 8983SOL    HW127848   1.193   5.035   1.869
 8983SOL    HW227849   1.037   5.080   1.850
 8984SOL     OW27850   6.017   0.557   4.370
 8984SOL    HW127851   5.941   0.497   4.396
 8984SOL    HW227852   6.103   0.522   4.408
 8985SOL     OW27853   4.700   1.768   0.617
 8985SOL    HW127854   4.770   1.700   0.641
 8985SOL    HW227855   4.620   1.722   0.580
 8986SOL     OW27856   6.234   4.397   1.825
 8986SOL    HW127857   6.195   4.400   1.733
 8986SOL    HW227858   6.332   4.378   1.818
 8987SOL     OW27859   2.458   0.174   1.249
 8987SOL    HW127860   2.435   0.255   1.196
 8987SOL    HW227861   2.454   0.196   1.347
 8988SOL     OW27862   2.175   5.775   0.938
 8988SOL    HW127863   2.150   5.775   1.035
 8988SOL    HW227864   2.228   5.693   0.917
 8989SOL     OW27865   5.156   2.557   2.671
 8989SOL    HW127866   5.164   2.651   2.705
 8989SOL    HW227867   5.128   2.497   2.746
 8990SOL     OW27868   3.317   6.040   0.831
 8990SOL    HW127869   3.304   6.133   0.866
 8990SOL    HW227870   3.276   5.975   0.896
 8991SOL     OW27871   2.147   2.383   0.810
 8991SOL    HW127872   2.154   2.424   0.901
 8991SOL    HW227873   2.232   2.334   0.789
 8992SOL     OW27874   0.723   2.803   0.262
 8992SOL    HW127875   0.803   2.843   0.306
 8992SOL    HW227876   0.644   2.863   0.277
 8993SOL     OW27877   5.173   1.840   3.678
 8993SOL    HW127878   5.199   1.881   3.766
 8993SOL    HW227879   5.184   1.908   3.606
 8994SOL     OW27880   1.515   5.642   3.867
 8994SOL    HW127881   1.547   5.610   3.956
 8994SOL    HW227882   1.527   5.741   3.861
 8995SOL     OW27883   1.339   2.834   5.129
 8995SOL    HW127884   1.292   2.780   5.198
 8995SOL    HW227885   1.338   2.931   5.155
 8996SOL     OW27886   0.457   4.057   1.348
 8996SOL    HW127887   0.445   4.110   1.432
 8996SOL    HW227888   0.528   4.100   1.292
 8997SOL     OW27889   4.693   1.588   6.270
 8997SOL    HW127890   4.709   1.631   6.182
 8997SOL    HW227891   4.600   1.551   6.272
 8998SOL     OW27892   1.165   2.787   5.351
 8998SOL    HW127893   1.095   2.836   5.299
 8998SOL    HW227894   1.206   2.849   5.418
 8999SOL     OW27895   4.658   1.721   6.502
 8999SOL    HW127896   4.654   1.661   6.422
 8999SOL    HW227897   4.565   1.738   6.535
 9000SOL     OW27898   3.052   3.548   6.876
 9000SOL    HW127899   3.119   3.589   6.939
 9000SOL    HW227900   3.100   3.507   6.798
 9001SOL     OW27901   1.817   4.578   2.992
 9001SOL    HW127902   1.906   4.583   2.948
 9001SOL    HW227903   1.807   4.653   3.057
 9002SOL     OW27904   6.361   4.901   5.669
 9002SOL    HW127905   6.286   4.963   5.648
 9002SOL    HW227906   6.324   4.812   5.696
 9003SOL     OW27907   6.283   2.712   0.587
 9003SOL    HW127908   6.269   2.666   0.675
 9003SOL    HW227909   6.243   2.658   0.514
 9004SOL     OW27910   5.211   6.538   1.330
 9004SOL    HW127911   5.230   6.443   1.353
 9004SOL    HW227912   5.263   6.598   1.391
 9005SOL     OW27913   4.737   2.123   3.816
 9005SOL    HW127914   4.772   2.194   3.876
 9005SOL    HW227915   4.764   2.033   3.850
 9006SOL     OW27916   1.543   5.101   1.250
 9006SOL    HW127917   1.511   5.171   1.187
 9006SOL    HW227918   1.487   5.102   1.333
 9007SOL     OW27919   2.912   5.426   3.815
 9007SOL    HW127920   2.820   5.398   3.791
 9007SOL    HW227921   2.974   5.408   3.738
 9008SOL     OW27922   0.126   4.104   1.915
 9008SOL    HW127923   0.175   4.029   1.959
 9008SOL    HW227924   0.099   4.076   1.823
 9009SOL     OW27925   2.368   6.936   1.206
 9009SOL    HW127926   2.394   0.009   1.204
 9009SOL    HW227927   2.390   6.893   1.118
 9010SOL     OW27928   0.800   6.898   4.433
 9010SOL    HW127929   0.752   6.912   4.346
 9010SOL    HW227930   0.766   6.814   4.476
 9011SOL     OW27931   3.732   1.951   0.869
 9011SOL    HW127932   3.787   1.869   0.853
 9011SOL    HW227933   3.744   1.981   0.963
 9012SOL     OW27934   0.971   4.822   1.127
 9012SOL    HW127935   0.913   4.876   1.066
 9012SOL    HW227936   1.047   4.783   1.076
 9013SOL     OW27937   6.419   5.825   4.447
 9013SOL    HW127938   6.495   5.805   4.509
 9013SOL    HW227939   6.386   5.918   4.464
 9014SOL     OW27940   1.169   1.035   0.195
 9014SOL    HW127941   1.205   0.955   0.242
 9014SOL    HW227942   1.244   1.098   0.174
 9015SOL     OW27943   0.355   1.184   6.285
 9015SOL    HW127944   0.446   1.146   6.269
 9015SOL    HW227945   0.348   1.272   6.239
 9016SOL     OW27946   6.747   6.268   5.946
 9016SOL    HW127947   6.679   6.201   5.918
 9016SOL    HW227948   6.827   6.263   5.886
 9017SOL     OW27949   5.712   1.777   4.088
 9017SOL    HW127950   5.783   1.751   4.023
 9017SOL    HW227951   5.642   1.831   4.041
 9018SOL     OW27952   3.675   0.742   4.789
 9018SOL    HW127953   3.694   0.839   4.800
 9018SOL    HW227954   3.755   0.696   4.751
 9019SOL     OW27955   3.138   6.180   6.969
 9019SOL    HW127956   3.048   6.221   6.985
 9019SOL    HW227957   3.196   6.197   0.025
 9020SOL     OW27958   1.969   4.358   2.713
 9020SOL    HW127959   1.876   4.392   2.727
 9020SOL    HW227960   2.025   4.432   2.676
 9021SOL     OW27961   6.746   6.017   4.220
 9021SOL    HW127962   6.740   6.071   4.304
 9021SOL    HW227963   6.834   5.970   4.216
 9022SOL     OW27964   2.731   0.379   0.243
 9022SOL    HW127965   2.636   0.379   0.212
 9022SOL    HW227966   2.761   0.285   0.258
 9023SOL     OW27967   3.331   3.379   3.901
 9023SOL    HW127968   3.358   3.305   3.961
 9023SOL    HW227969   3.402   3.393   3.831
 9024SOL     OW27970   1.709   6.100   6.116
 9024SOL    HW127971   1.671   6.064   6.202
 9024SOL    HW227972   1.697   6.032   6.044
 9025SOL     OW27973   6.554   5.147   1.847
 9025SOL    HW127974   6.632   5.180   1.793
 9025SOL    HW227975   6.485   5.219   1.853
 9026SOL     OW27976   3.965   3.119   4.517
 9026SOL    HW127977   3.906   3.067   4.455
 9026SOL    HW227978   3.947   3.091   4.611
 9027SOL     OW27979   2.639   2.227   3.104
 9027SOL    HW127980   2.553   2.229   3.054
 9027SOL    HW227981   2.620   2.238   3.202
 9028SOL     OW27982   2.364   4.306   5.989
 9028SOL    HW127983   2.332   4.212   5.984
 9028SOL    HW227984   2.461   4.308   6.013
 9029SOL     OW27985   4.179   5.296   4.135
 9029SOL    HW127986   4.126   5.252   4.062
 9029SOL    HW227987   4.210   5.227   4.200
 9030SOL     OW27988   2.079   0.932   2.645
 9030SOL    HW127989   2.162   0.878   2.628
 9030SOL    HW227990   2.067   0.945   2.743
 9031SOL     OW27991   2.632   6.014   5.861
 9031SOL    HW127992   2.550   6.001   5.806
 9031SOL    HW227993   2.649   6.112   5.873
 9032SOL     OW27994   2.653   2.453   1.479
 9032SOL    HW127995   2.719   2.437   1.552
 9032SOL    HW227996   2.588   2.524   1.507
 9033SOL     OW27997   2.031   3.559   4.312
 9033SOL    HW127998   2.076   3.488   4.257
 9033SOL    HW227999   2.060   3.550   4.407
 9034SOL     OW28000   2.944   6.315   5.252
 9034SOL    HW128001   2.874   6.253   5.289
 9034SOL    HW228002   3.018   6.262   5.212
 9035SOL     OW28003   6.912   6.991   4.674
 9035SOL    HW128004   6.891   0.039   4.742
 9035SOL    HW228005   7.006   6.960   4.686
 9036SOL     OW28006   1.728   2.457   5.314
 9036SOL    HW128007   1.742   2.553   5.291
 9036SOL    HW228008   1.663   2.416   5.250
 9037SOL     OW28009   2.135   3.786   5.967
 9037SOL    HW128010   2.226   3.745   5.967
 9037SOL    HW228011   2.077   3.737   6.033
 9038SOL     OW28012   5.095   0.666   5.707
 9038SOL    HW128013   5.162   0.593   5.722
 9038SOL    HW228014   5.004   0.626   5.702
 9039SOL     OW28015   1.900   4.801   5.330
 9039SOL    HW128016   1.919   4.812   5.427
 9039SOL    HW228017   1.842   4.721   5.315
 9040SOL     OW28018   3.125   1.228   2.404
 9040SOL    HW128019   3.070   1.156   2.447
 9040SOL    HW228020   3.222   1.210   2.421
 9041SOL     OW28021   0.511   2.702   1.858
 9041SOL    HW128022   0.608   2.714   1.878
 9041SOL    HW228023   0.458   2.772   1.906
 9042SOL     OW28024   2.632   5.817   2.828
 9042SOL    HW128025   2.618   5.745   2.896
 9042SOL    HW228026   2.642   5.775   2.737
 9043SOL     OW28027   1.335   2.295   6.070
 9043SOL    HW128028   1.349   2.240   6.152
 9043SOL    HW228029   1.423   2.313   6.026
 9044SOL     OW28030   5.983   0.450   0.896
 9044SOL    HW128031   6.053   0.522   0.890
 9044SOL    HW228032   5.893   0.491   0.882
 9045SOL     OW28033   3.510   0.535   3.323
 9045SOL    HW128034   3.498   0.449   3.372
 9045SOL    HW228035   3.421   0.577   3.306
 9046SOL     OW28036   3.462   4.271   5.525
 9046SOL    HW128037   3.415   4.285   5.612
 9046SOL    HW228038   3.418   4.326   5.454
 9047SOL     OW28039   1.564   4.153   4.760
 9047SOL    HW128040   1.603   4.224   4.819
 9047SOL    HW228041   1.507   4.092   4.815
 9048SOL     OW28042   1.704   3.859   5.545
 9048SOL    HW128043   1.762   3.935   5.576
 9048SOL    HW228044   1.735   3.828   5.455
 9049SOL     OW28045   5.218   6.231   6.392
 9049SOL    HW128046   5.289   6.279   6.444
 9049SOL    HW228047   5.145   6.202   6.455
 9050SOL     OW28048   0.639   5.250   7.002
 9050SOL    HW128049   0.711   5.301   0.027
 9050SOL    HW228050   0.647   5.153   7.023
 9051SOL     OW28051   4.955   6.333   0.618
 9051SOL    HW128052   4.877   6.391   0.644
 9051SOL    HW228053   5.040   6.377   0.645
 9052SOL     OW28054   2.744   4.726   4.481
 9052SOL    HW128055   2.699   4.649   4.433
 9052SOL    HW228056   2.742   4.709   4.579
 9053SOL     OW28057   2.089   2.676   3.857
 9053SOL    HW128058   2.127   2.688   3.765
 9053SOL    HW228059   1.991   2.660   3.850
 9054SOL     OW28060   1.764   0.726   1.400
 9054SOL    HW128061   1.813   0.701   1.484
 9054SOL    HW228062   1.830   0.751   1.329
 9055SOL     OW28063   0.872   2.865   3.996
 9055SOL    HW128064   0.931   2.830   4.069
 9055SOL    HW228065   0.864   2.796   3.924
 9056SOL     OW28066   5.692   0.120   1.682
 9056SOL    HW128067   5.610   0.065   1.665
 9056SOL    HW228068   5.666   0.214   1.704
 9057SOL     OW28069   5.884   5.439   6.864
 9057SOL    HW128070   5.943   5.375   6.913
 9057SOL    HW228071   5.918   5.451   6.771
 9058SOL     OW28072   1.907   2.431   4.631
 9058SOL    HW128073   1.882   2.374   4.709
 9058SOL    HW228074   1.945   2.517   4.664
 9059SOL     OW28075   6.096   1.144   3.611
 9059SOL    HW128076   5.998   1.148   3.632
 9059SOL    HW228077   6.138   1.231   3.636
 9060SOL     OW28078   6.526   3.812   2.010
 9060SOL    HW128079   6.574   3.733   1.974
 9060SOL    HW228080   6.477   3.787   2.094
 9061SOL     OW28081   4.364   5.653   3.101
 9061SOL    HW128082   4.415   5.702   3.031
 9061SOL    HW228083   4.411   5.661   3.189
 9062SOL     OW28084   1.595   4.827   2.097
 9062SOL    HW128085   1.582   4.914   2.049
 9062SOL    HW228086   1.625   4.846   2.190
 9063SOL     OW28087   3.033   1.712   2.462
 9063SOL    HW128088   3.112   1.760   2.424
 9063SOL    HW228089   3.043   1.614   2.447
 9064SOL     OW28090   6.776   4.653   3.707
 9064SOL    HW128091   6.786   4.704   3.622
 9064SOL    HW228092   6.689   4.676   3.750
 9065SOL     OW28093   2.761   6.111   5.318
 9065SOL    HW128094   2.687   6.123   5.253
 9065SOL    HW228095   2.730   6.140   5.409
 9066SOL     OW28096   6.719   6.441   6.349
 9066SOL    HW128097   6.747   6.353   6.311
 9066SOL    HW228098   6.670   6.493   6.280
 9067SOL     OW28099   6.673   6.202   4.710
 9067SOL    HW128100   6.721   6.275   4.661
 9067SOL    HW228101   6.691   6.210   4.808
 9068SOL     OW28102   4.664   0.412   5.178
 9068SOL    HW128103   4.613   0.352   5.240
 9068SOL    HW228104   4.601   0.473   5.131
 9069SOL     OW28105   4.627   2.658   2.156
 9069SOL    HW128106   4.625   2.649   2.256
 9069SOL    HW228107   4.719   2.686   2.128
 9070SOL     OW28108   1.583   1.974   6.118
 9070SOL    HW128109   1.678   2.003   6.116
 9070SOL    HW228110   1.540   1.991   6.029
 9071SOL     OW28111   4.343   1.128   5.953
 9071SOL    HW128112   4.416   1.163   6.012
 9071SOL    HW228113   4.285   1.204   5.923
 9072SOL     OW28114   5.229   6.872   2.161
 9072SOL    HW128115   5.162   6.943   2.139
 9072SOL    HW228116   5.212   6.838   2.253
 9073SOL     OW28117   4.433   0.154   0.435
 9073SOL    HW128118   4.435   0.128   0.532
 9073SOL    HW228119   4.431   0.072   0.379
 9074SOL     OW28120   1.634   0.463   1.205
 9074SOL    HW128121   1.623   0.425   1.113
 9074SOL    HW228122   1.573   0.542   1.216
 9075SOL     OW28123   0.036   0.814   2.400
 9075SOL    HW128124   0.135   0.826   2.396
 9075SOL    HW228125   0.014   0.716   2.399
 9076SOL     OW28126   4.870   1.482   3.692
 9076SOL    HW128127   4.816   1.530   3.761
 9076SOL    HW228128   4.899   1.547   3.621
 9077SOL     OW28129   4.958   1.555   6.387
 9077SOL    HW128130   5.013   1.587   6.310
 9077SOL    HW228131   4.861   1.555   6.361
 9078SOL     OW28132   5.351   5.040   6.386
 9078SOL    HW128133   5.413   4.980   6.436
 9078SOL    HW228134   5.363   5.025   6.287
 9079SOL     OW28135   1.730   0.710   4.867
 9079SOL    HW128136   1.754   0.638   4.802
 9079SOL    HW228137   1.685   0.670   4.946
 9080SOL     OW28138   6.031   3.291   0.159
 9080SOL    HW128139   5.950   3.259   0.208
 9080SOL    HW228140   6.096   3.328   0.225
 9081SOL     OW28141   4.116   1.648   1.344
 9081SOL    HW128142   4.149   1.740   1.324
 9081SOL    HW228143   4.069   1.611   1.264
 9082SOL     OW28144   2.221   6.745   5.299
 9082SOL    HW128145   2.194   6.692   5.379
 9082SOL    HW228146   2.271   6.826   5.328
 9083SOL     OW28147   4.672   4.478   6.382
 9083SOL    HW128148   4.742   4.484   6.311
 9083SOL    HW228149   4.582   4.466   6.340
 9084SOL     OW28150   0.623   2.374   5.642
 9084SOL    HW128151   0.713   2.373   5.684
 9084SOL    HW228152   0.554   2.343   5.708
 9085SOL     OW28153   2.919   5.352   0.982
 9085SOL    HW128154   2.842   5.399   1.024
 9085SOL    HW228155   2.974   5.418   0.930
 9086SOL     OW28156   6.088   4.291   1.069
 9086SOL    HW128157   6.024   4.313   0.995
 9086SOL    HW228158   6.043   4.228   1.132
 9087SOL     OW28159   5.946   3.330   3.130
 9087SOL    HW128160   5.987   3.421   3.130
 9087SOL    HW228161   5.987   3.276   3.055
 9088SOL     OW28162   5.875   6.775   2.064
 9088SOL    HW128163   5.938   6.809   1.994
 9088SOL    HW228164   5.926   6.745   2.144
 9089SOL     OW28165   4.248   5.513   4.297
 9089SOL    HW128166   4.205   5.458   4.226
 9089SOL    HW228167   4.233   5.470   4.386
 9090SOL     OW28168   5.031   6.056   4.978
 9090SOL    HW128169   4.997   6.113   4.903
 9090SOL    HW228170   5.019   5.959   4.954
 9091SOL     OW28171   3.229   2.421   0.530
 9091SOL    HW128172   3.176   2.336   0.523
 9091SOL    HW228173   3.176   2.496   0.491
 9092SOL     OW28174   1.483   0.615   6.102
 9092SOL    HW128175   1.515   0.565   6.022
 9092SOL    HW228176   1.483   0.553   6.181
 9093SOL     OW28177   1.566   6.326   6.891
 9093SOL    HW128178   1.555   6.228   6.878
 9093SOL    HW228179   1.594   6.345   6.985
 9094SOL     OW28180   0.549   5.955   2.208
 9094SOL    HW128181   0.534   5.857   2.191
 9094SOL    HW228182   0.548   6.004   2.121
 9095SOL     OW28183   5.420   3.906   6.367
 9095SOL    HW128184   5.479   3.895   6.286
 9095SOL    HW228185   5.449   3.843   6.438
 9096SOL     OW28186   5.509   3.474   2.674
 9096SOL    HW128187   5.421   3.457   2.629
 9096SOL    HW228188   5.583   3.470   2.607
 9097SOL     OW28189   0.708   3.711   0.290
 9097SOL    HW128190   0.792   3.666   0.260
 9097SOL    HW228191   0.649   3.644   0.336
 9098SOL     OW28192   3.805   3.175   1.074
 9098SOL    HW128193   3.727   3.236   1.061
 9098SOL    HW228194   3.774   3.089   1.115
 9099SOL     OW28195   3.195   3.502   0.758
 9099SOL    HW128196   3.287   3.493   0.721
 9099SOL    HW228197   3.128   3.475   0.689
 9100SOL     OW28198   0.817   2.360   2.170
 9100SOL    HW128199   0.849   2.293   2.237
 9100SOL    HW228200   0.772   2.313   2.094
 9101SOL     OW28201   2.026   2.983   2.562
 9101SOL    HW128202   2.047   2.967   2.658
 9101SOL    HW228203   1.951   2.922   2.534
 9102SOL     OW28204   3.430   6.225   2.069
 9102SOL    HW128205   3.475   6.312   2.089
 9102SOL    HW228206   3.413   6.177   2.154
 9103SOL     OW28207   7.017   3.689   0.464
 9103SOL    HW128208   6.934   3.635   0.475
 9103SOL    HW228209   0.037   3.667   0.377
 9104SOL     OW28210   4.115   6.194   2.090
 9104SOL    HW128211   4.195   6.213   2.147
 9104SOL    HW228212   4.144   6.145   2.008
 9105SOL     OW28213   1.745   0.594   6.836
 9105SOL    HW128214   1.782   0.619   6.926
 9105SOL    HW228215   1.686   0.667   6.803
 9106SOL     OW28216   5.604   3.607   0.223
 9106SOL    HW128217   5.624   3.622   0.319
 9106SOL    HW228218   5.508   3.582   0.212
 9107SOL     OW28219   3.918   6.996   6.398
 9107SOL    HW128220   3.989   6.970   6.464
 9107SOL    HW228221   3.954   6.985   6.305
 9108SOL     OW28222   4.720   4.571   5.661
 9108SOL    HW128223   4.651   4.625   5.710
 9108SOL    HW228224   4.685   4.548   5.570
 9109SOL     OW28225   1.313   2.616   2.991
 9109SOL    HW128226   1.365   2.630   3.076
 9109SOL    HW228227   1.376   2.613   2.913
 9110SOL     OW28228   2.334   4.392   4.103
 9110SOL    HW128229   2.323   4.490   4.115
 9110SOL    HW228230   2.264   4.358   4.039
 9111SOL     OW28231   4.263   3.283   0.451
 9111SOL    HW128232   4.287   3.279   0.354
 9111SOL    HW228233   4.166   3.264   0.463
 9112SOL     OW28234   0.160   4.306   4.656
 9112SOL    HW128235   0.210   4.330   4.739
 9112SOL    HW228236   0.062   4.300   4.677
 9113SOL     OW28237   4.295   6.732   0.735
 9113SOL    HW128238   4.302   6.765   0.641
 9113SOL    HW228239   4.258   6.804   0.794
 9114SOL     OW28240   1.431   5.073   2.070
 9114SOL    HW128241   1.492   5.127   2.129
 9114SOL    HW228242   1.414   5.124   1.985
 9115SOL     OW28243   0.992   5.905   5.444
 9115SOL    HW128244   0.904   5.880   5.405
 9115SOL    HW228245   1.046   5.955   5.376
 9116SOL     OW28246   6.633   1.985   0.454
 9116SOL    HW128247   6.653   2.026   0.365
 9116SOL    HW228248   6.635   2.055   0.525
 9117SOL     OW28249   5.661   2.671   0.041
 9117SOL    HW128250   5.696   2.586   0.002
 9117SOL    HW228251   5.723   2.746   0.019
 9118SOL     OW28252   5.982   5.760   0.592
 9118SOL    HW128253   5.928   5.687   0.633
 9118SOL    HW228254   6.042   5.721   0.521
 9119SOL     OW28255   5.647   1.288   2.956
 9119SOL    HW128256   5.631   1.359   2.887
 9119SOL    HW228257   5.745   1.269   2.962
 9120SOL     OW28258   5.306   3.167   5.583
 9120SOL    HW128259   5.237   3.116   5.635
 9120SOL    HW228260   5.274   3.179   5.489
 9121SOL     OW28261   1.109   3.011   6.612
 9121SOL    HW128262   1.070   2.952   6.542
 9121SOL    HW228263   1.043   3.024   6.686
 9122SOL     OW28264   1.851   3.085   1.754
 9122SOL    HW128265   1.915   3.013   1.728
 9122SOL    HW228266   1.893   3.174   1.738
 9123SOL     OW28267   3.764   0.556   4.216
 9123SOL    HW128268   3.777   0.558   4.315
 9123SOL    HW228269   3.807   0.473   4.179
 9124SOL     OW28270   5.963   6.788   5.378
 9124SOL    HW128271   6.053   6.760   5.409
 9124SOL    HW228272   5.902   6.708   5.374
 9125SOL     OW28273   4.955   3.634   2.873
 9125SOL    HW128274   4.900   3.716   2.889
 9125SOL    HW228275   5.031   3.657   2.811
 9126SOL     OW28276   5.520   2.405   2.077
 9126SOL    HW128277   5.594   2.343   2.052
 9126SOL    HW228278   5.474   2.372   2.159
 9127SOL     OW28279   5.996   0.961   6.424
 9127SOL    HW128280   6.079   1.016   6.434
 9127SOL    HW228281   6.003   0.905   6.342
 9128SOL     OW28282   3.865   2.165   5.016
 9128SOL    HW128283   3.930   2.202   5.082
 9128SOL    HW228284   3.777   2.151   5.060
 9129SOL     OW28285   1.345   2.488   1.046
 9129SOL    HW128286   1.428   2.542   1.033
 9129SOL    HW228287   1.347   2.445   1.137
 9130SOL     OW28288   6.976   3.381   0.424
 9130SOL    HW128289   6.943   3.293   0.391
 9130SOL    HW228290   0.051   3.387   0.409
 9131SOL     OW28291   0.274   3.729   5.997
 9131SOL    HW128292   0.353   3.789   5.984
 9131SOL    HW228293   0.293   3.640   5.957
 9132SOL     OW28294   0.426   4.857   4.449
 9132SOL    HW128295   0.523   4.837   4.430
 9132SOL    HW228296   0.373   4.773   4.442
 9133SOL     OW28297   2.948   5.593   1.368
 9133SOL    HW128298   2.912   5.508   1.407
 9133SOL    HW228299   2.947   5.665   1.438
 9134SOL     OW28300   3.453   6.268   0.379
 9134SOL    HW128301   3.482   6.215   0.459
 9134SOL    HW228302   3.515   6.346   0.368
 9135SOL     OW28303   6.645   6.089   2.159
 9135SOL    HW128304   6.713   6.104   2.088
 9135SOL    HW228305   6.673   6.136   2.243
 9136SOL     OW28306   5.196   4.911   5.766
 9136SOL    HW128307   5.245   4.955   5.691
 9136SOL    HW228308   5.126   4.973   5.801
 9137SOL     OW28309   5.125   1.913   1.281
 9137SOL    HW128310   5.028   1.935   1.275
 9137SOL    HW228311   5.137   1.820   1.314
 9138SOL     OW28312   6.167   5.193   5.832
 9138SOL    HW128313   6.176   5.150   5.742
 9138SOL    HW228314   6.258   5.216   5.866
 9139SOL     OW28315   2.232   1.747   4.812
 9139SOL    HW128316   2.271   1.658   4.833
 9139SOL    HW228317   2.198   1.748   4.718
 9140SOL     OW28318   6.088   3.254   2.538
 9140SOL    HW128319   6.144   3.198   2.599
 9140SOL    HW228320   5.997   3.265   2.578
 9141SOL     OW28321   5.647   0.350   6.638
 9141SOL    HW128322   5.602   0.262   6.657
 9141SOL    HW228323   5.740   0.348   6.673
 9142SOL     OW28324   0.521   2.396   0.141
 9142SOL    HW128325   0.596   2.432   0.197
 9142SOL    HW228326   0.438   2.449   0.159
 9143SOL     OW28327   5.242   3.383   1.386
 9143SOL    HW128328   5.172   3.323   1.347
 9143SOL    HW228329   5.301   3.329   1.446
 9144SOL     OW28330   2.243   5.345   5.272
 9144SOL    HW128331   2.199   5.258   5.293
 9144SOL    HW228332   2.267   5.348   5.175
 9145SOL     OW28333   6.706   5.520   6.932
 9145SOL    HW128334   6.746   5.497   6.843
 9145SOL    HW228335   6.631   5.457   6.952
 9146SOL     OW28336   5.531   2.456   2.775
 9146SOL    HW128337   5.630   2.458   2.791
 9146SOL    HW228338   5.484   2.494   2.854
 9147SOL     OW28339   5.796   0.585   3.953
 9147SOL    HW128340   5.825   0.532   4.033
 9147SOL    HW228341   5.845   0.552   3.872
 9148SOL     OW28342   4.636   6.819   0.603
 9148SOL    HW128343   4.554   6.872   0.627
 9148SOL    HW228344   4.621   6.723   0.628
 9149SOL     OW28345   5.108   3.281   3.479
 9149SOL    HW128346   5.138   3.191   3.509
 9149SOL    HW228347   5.101   3.342   3.559
 9150SOL     OW28348   3.311   5.424   2.918
 9150SOL    HW128349   3.216   5.452   2.901
 9150SOL    HW228350   3.342   5.365   2.843
 9151SOL     OW28351   1.474   4.336   4.184
 9151SOL    HW128352   1.501   4.312   4.091
 9151SOL    HW228353   1.502   4.430   4.204
 9152SOL     OW28354   2.389   4.796   4.887
 9152SOL    HW128355   2.454   4.816   4.959
 9152SOL    HW228356   2.333   4.717   4.913
 9153SOL     OW28357   1.104   2.851   1.150
 9153SOL    HW128358   1.196   2.842   1.186
 9153SOL    HW228359   1.056   2.924   1.199
 9154SOL     OW28360   4.470   5.154   6.396
 9154SOL    HW128361   4.372   5.142   6.381
 9154SOL    HW228362   4.507   5.074   6.443
 9155SOL     OW28363   0.868   3.057   1.446
 9155SOL    HW128364   0.926   3.064   1.365
 9155SOL    HW228365   0.901   3.121   1.516
 9156SOL     OW28366   1.710   2.776   0.300
 9156SOL    HW128367   1.708   2.876   0.297
 9156SOL    HW228368   1.803   2.743   0.286
 9157SOL     OW28369   5.969   4.207   6.558
 9157SOL    HW128370   6.060   4.247   6.559
 9157SOL    HW228371   5.953   4.163   6.469
 9158SOL     OW28372   5.723   3.639   4.401
 9158SOL    HW128373   5.674   3.698   4.466
 9158SOL    HW228374   5.662   3.566   4.370
 9159SOL     OW28375   1.464   0.225   2.810
 9159SOL    HW128376   1.475   0.289   2.885
 9159SOL    HW228377   1.447   0.275   2.725
 9160SOL     OW28378   6.398   0.184   4.884
 9160SOL    HW128379   6.409   0.182   4.784
 9160SOL    HW228380   6.488   0.182   4.927
 9161SOL     OW28381   4.683   4.210   4.956
 9161SOL    HW128382   4.623   4.251   4.887
 9161SOL    HW228383   4.709   4.118   4.927
 9162SOL     OW28384   4.695   0.695   4.312
 9162SOL    HW128385   4.697   0.686   4.411
 9162SOL    HW228386   4.664   0.787   4.287
 9163SOL     OW28387   2.211   3.264   4.465
 9163SOL    HW128388   2.177   3.260   4.371
 9163SOL    HW228389   2.249   3.175   4.491
 9164SOL     OW28390   2.453   0.865   6.754
 9164SOL    HW128391   2.469   0.926   6.677
 9164SOL    HW228392   2.540   0.839   6.795
 9165SOL     OW28393   5.879   2.093   4.771
 9165SOL    HW128394   5.948   2.166   4.776
 9165SOL    HW228395   5.897   2.026   4.843
 9166SOL     OW28396   4.301   6.188   0.781
 9166SOL    HW128397   4.307   6.283   0.813
 9166SOL    HW228398   4.209   6.153   0.798
 9167SOL     OW28399   2.242   2.865   6.595
 9167SOL    HW128400   2.337   2.889   6.611
 9167SOL    HW228401   2.186   2.897   6.672
 9168SOL     OW28402   0.775   0.435   6.510
 9168SOL    HW128403   0.713   0.371   6.465
 9168SOL    HW228404   0.743   0.453   6.603
 9169SOL     OW28405   6.254   1.547   5.100
 9169SOL    HW128406   6.284   1.464   5.053
 9169SOL    HW228407   6.224   1.524   5.193
 9170SOL     OW28408   1.197   5.189   0.043
 9170SOL    HW128409   1.219   5.279   0.007
 9170SOL    HW228410   1.279   5.132   0.043
 9171SOL     OW28411   3.924   5.094   0.482
 9171SOL    HW128412   3.838   5.124   0.523
 9171SOL    HW228413   3.934   5.139   0.393
 9172SOL     OW28414   3.443   0.331   4.270
 9172SOL    HW128415   3.537   0.298   4.279
 9172SOL    HW228416   3.435   0.423   4.308
 9173SOL     OW28417   6.421   3.616   4.898
 9173SOL    HW128418   6.351   3.555   4.860
 9173SOL    HW228419   6.509   3.568   4.901
 9174SOL     OW28420   5.985   3.988   1.787
 9174SOL    HW128421   6.011   3.964   1.881
 9174SOL    HW228422   6.040   4.064   1.756
 9175SOL     OW28423   0.278   6.840   4.443
 9175SOL    HW128424   0.251   6.936   4.433
 9175SOL    HW228425   0.352   6.819   4.380
 9176SOL     OW28426   3.134   1.215   5.224
 9176SOL    HW128427   3.161   1.217   5.320
 9176SOL    HW228428   3.103   1.123   5.199
 9177SOL     OW28429   0.460   5.136   4.916
 9177SOL    HW128430   0.433   5.226   4.952
 9177SOL    HW228431   0.423   5.124   4.824
 9178SOL     OW28432   2.138   5.619   0.522
 9178SOL    HW128433   2.228   5.634   0.482
 9178SOL    HW228434   2.072   5.682   0.480
 9179SOL     OW28435   2.844   5.466   4.426
 9179SOL    HW128436   2.863   5.369   4.413
 9179SOL    HW228437   2.827   5.485   4.523
 9180SOL     OW28438   6.201   2.555   2.973
 9180SOL    HW128439   6.101   2.557   2.978
 9180SOL    HW228440   6.229   2.525   2.882
 9181SOL     OW28441   4.243   2.146   4.696
 9181SOL    HW128442   4.321   2.086   4.714
 9181SOL    HW228443   4.257   2.196   4.611
 9182SOL     OW28444   2.311   6.910   2.127
 9182SOL    HW128445   2.226   6.914   2.180
 9182SOL    HW228446   2.383   6.868   2.183
 9183SOL     OW28447   5.068   5.904   0.605
 9183SOL    HW128448   5.088   5.860   0.518
 9183SOL    HW228449   4.996   5.972   0.592
 9184SOL     OW28450   5.043   1.512   0.880
 9184SOL    HW128451   4.978   1.548   0.947
 9184SOL    HW228452   5.035   1.563   0.795
 9185SOL     OW28453   4.452   6.699   4.623
 9185SOL    HW128454   4.396   6.629   4.580
 9185SOL    HW228455   4.536   6.713   4.569
 9186SOL     OW28456   5.911   6.717   4.440
 9186SOL    HW128457   5.924   6.739   4.344
 9186SOL    HW228458   5.840   6.647   4.449
 9187SOL     OW28459   2.783   1.917   0.746
 9187SOL    HW128460   2.793   1.908   0.647
 9187SOL    HW228461   2.845   1.854   0.792
 9188SOL     OW28462   1.531   6.515   1.852
 9188SOL    HW128463   1.536   6.489   1.755
 9188SOL    HW228464   1.540   6.614   1.860
 9189SOL     OW28465   4.701   6.167   1.618
 9189SOL    HW128466   4.721   6.142   1.713
 9189SOL    HW228467   4.786   6.179   1.568
 9190SOL     OW28468   2.508   4.562   6.576
 9190SOL    HW128469   2.414   4.548   6.609
 9190SOL    HW228470   2.512   4.646   6.522
 9191SOL     OW28471   6.491   2.365   5.392
 9191SOL    HW128472   6.587   2.371   5.419
 9191SOL    HW228473   6.466   2.269   5.380
 9192SOL     OW28474   0.847   3.375   6.554
 9192SOL    HW128475   0.832   3.474   6.558
 9192SOL    HW228476   0.939   3.354   6.589
 9193SOL     OW28477   4.860   4.422   0.039
 9193SOL    HW128478   4.922   4.477   0.095
 9193SOL    HW228479   4.881   4.325   0.052
 9194SOL     OW28480   2.645   0.265   3.716
 9194SOL    HW128481   2.651   0.294   3.620
 9194SOL    HW228482   2.553   0.233   3.735
 9195SOL     OW28483   1.609   1.532   3.819
 9195SOL    HW128484   1.604   1.602   3.748
 9195SOL    HW228485   1.638   1.446   3.778
 9196SOL     OW28486   4.877   6.669   2.986
 9196SOL    HW128487   4.972   6.675   3.017
 9196SOL    HW228488   4.867   6.591   2.925
 9197SOL     OW28489   1.657   4.928   1.765
 9197SOL    HW128490   1.664   5.028   1.759
 9197SOL    HW228491   1.561   4.901   1.764
 9198SOL     OW28492   6.519   5.056   6.618
 9198SOL    HW128493   6.446   5.124   6.621
 9198SOL    HW228494   6.561   5.057   6.527
 9199SOL     OW28495   1.045   4.270   5.787
 9199SOL    HW128496   1.023   4.362   5.820
 9199SOL    HW228497   1.061   4.209   5.866
 9200SOL     OW28498   2.461   0.019   0.189
 9200SOL    HW128499   2.505   6.953   0.177
 9200SOL    HW228500   2.407   0.018   0.273
 9201SOL     OW28501   0.341   2.629   0.884
 9201SOL    HW128502   0.279   2.661   0.956
 9201SOL    HW228503   0.433   2.616   0.922
 9202SOL     OW28504   1.234   6.995   2.314
 9202SOL    HW128505   1.225   6.897   2.335
 9202SOL    HW228506   1.148   0.005   2.276
 9203SOL     OW28507   0.832   4.161   6.745
 9203SOL    HW128508   0.802   4.097   6.815
 9203SOL    HW228509   0.928   4.184   6.759
 9204SOL     OW28510   4.939   2.798   6.087
 9204SOL    HW128511   4.859   2.751   6.049
 9204SOL    HW228512   4.936   2.895   6.063
 9205SOL     OW28513   6.200   4.799   3.079
 9205SOL    HW128514   6.115   4.787   3.027
 9205SOL    HW228515   6.178   4.807   3.176
 9206SOL     OW28516   3.688   5.482   2.692
 9206SOL    HW128517   3.689   5.470   2.593
 9206SOL    HW228518   3.751   5.555   2.717
 9207SOL     OW28519   4.924   4.081   6.207
 9207SOL    HW128520   5.020   4.055   6.221
 9207SOL    HW228521   4.920   4.176   6.175
 9208SOL     OW28522   5.993   4.064   3.885
 9208SOL    HW128523   5.927   4.009   3.936
 9208SOL    HW228524   6.025   4.140   3.943
 9209SOL     OW28525   3.472   0.227   6.721
 9209SOL    HW128526   3.567   0.247   6.742
 9209SOL    HW228527   3.461   0.215   6.623
 9210SOL     OW28528   0.182   1.194   2.776
 9210SOL    HW128529   0.160   1.118   2.714
 9210SOL    HW228530   0.237   1.262   2.728
 9211SOL     OW28531   0.411   2.533   5.900
 9211SOL    HW128532   0.414   2.440   5.863
 9211SOL    HW228533   0.504   2.568   5.911
 9212SOL     OW28534   5.229   5.014   4.515
 9212SOL    HW128535   5.145   5.002   4.462
 9212SOL    HW228536   5.275   5.098   4.485
 9213SOL     OW28537   5.032   3.600   5.820
 9213SOL    HW128538   5.109   3.554   5.775
 9213SOL    HW228539   4.947   3.579   5.772
 9214SOL     OW28540   6.485   3.576   6.951
 9214SOL    HW128541   6.526   3.664   6.972
 9214SOL    HW228542   6.402   3.564   7.005
 9215SOL     OW28543   0.859   2.104   1.303
 9215SOL    HW128544   0.772   2.134   1.341
 9215SOL    HW228545   0.843   2.061   1.214
 9216SOL     OW28546   2.744   0.368   2.318
 9216SOL    HW128547   2.726   0.465   2.336
 9216SOL    HW228548   2.821   0.360   2.255
 9217SOL     OW28549   0.801   2.263   6.951
 9217SOL    HW128550   0.845   2.257   0.017
 9217SOL    HW228551   0.703   2.249   6.961
 9218SOL     OW28552   2.035   6.715   0.479
 9218SOL    HW128553   2.079   6.683   0.396
 9218SOL    HW228554   2.020   6.638   0.541
 9219SOL     OW28555   6.695   2.879   1.529
 9219SOL    HW128556   6.624   2.827   1.483
 9219SOL    HW228557   6.745   2.934   1.462
 9220SOL     OW28558   1.635   6.495   1.589
 9220SOL    HW128559   1.559   6.459   1.535
 9220SOL    HW228560   1.666   6.581   1.550
 9221SOL     OW28561   2.946   0.760   3.166
 9221SOL    HW128562   3.038   0.770   3.129
 9221SOL    HW228563   2.950   0.759   3.266
 9222SOL     OW28564   1.869   6.897   6.230
 9222SOL    HW128565   1.790   6.956   6.250
 9222SOL    HW228566   1.875   6.825   6.299
 9223SOL     OW28567   0.988   1.361   4.003
 9223SOL    HW128568   0.975   1.438   4.065
 9223SOL    HW228569   0.972   1.390   3.909
 9224SOL     OW28570   1.368   4.719   4.871
 9224SOL    HW128571   1.398   4.644   4.931
 9224SOL    HW228572   1.357   4.802   4.924
 9225SOL     OW28573   3.179   6.755   5.815
 9225SOL    HW128574   3.216   6.670   5.853
 9225SOL    HW228575   3.243   6.791   5.747
 9226SOL     OW28576   6.146   6.824   1.035
 9226SOL    HW128577   6.175   6.778   0.952
 9226SOL    HW228578   6.070   6.886   1.015
 9227SOL     OW28579   0.772   5.447   0.536
 9227SOL    HW128580   0.797   5.544   0.536
 9227SOL    HW228581   0.793   5.407   0.447
 9228SOL     OW28582   1.361   1.255   5.437
 9228SOL    HW128583   1.338   1.173   5.385
 9228SOL    HW228584   1.345   1.336   5.381
 9229SOL     OW28585   0.564   5.882   4.759
 9229SOL    HW128586   0.659   5.860   4.781
 9229SOL    HW228587   0.510   5.885   4.844
 9230SOL     OW28588   4.797   1.781   3.674
 9230SOL    HW128589   4.821   1.827   3.588
 9230SOL    HW228590   4.727   1.711   3.655
 9231SOL     OW28591   0.566   4.257   4.807
 9231SOL    HW128592   0.559   4.160   4.784
 9231SOL    HW228593   0.524   4.312   4.734
 9232SOL     OW28594   3.694   5.401   0.170
 9232SOL    HW128595   3.792   5.389   0.153
 9232SOL    HW228596   3.643   5.379   0.087
 9233SOL     OW28597   5.505   5.353   2.112
 9233SOL    HW128598   5.552   5.306   2.038
 9233SOL    HW228599   5.418   5.390   2.079
 9234SOL     OW28600   3.702   5.470   5.831
 9234SOL    HW128601   3.729   5.400   5.897
 9234SOL    HW228602   3.680   5.554   5.880
 9235SOL     OW28603   1.732   3.086   3.071
 9235SOL    HW128604   1.812   3.083   3.131
 9235SOL    HW228605   1.734   3.009   3.008
 9236SOL     OW28606   2.865   3.973   5.433
 9236SOL    HW128607   2.775   3.955   5.393
 9236SOL    HW228608   2.928   4.002   5.361
 9237SOL     OW28609   1.768   5.409   4.723
 9237SOL    HW128610   1.831   5.419   4.646
 9237SOL    HW228611   1.713   5.326   4.711
 9238SOL     OW28612   3.808   1.543   6.981
 9238SOL    HW128613   3.872   1.533   0.033
 9238SOL    HW228614   3.856   1.573   6.899
 9239SOL     OW28615   6.677   4.561   0.639
 9239SOL    HW128616   6.772   4.590   0.647
 9239SOL    HW228617   6.624   4.633   0.593
 9240SOL     OW28618   4.812   1.499   1.309
 9240SOL    HW128619   4.833   1.488   1.406
 9240SOL    HW228620   4.721   1.539   1.298
 9241SOL     OW28621   0.628   4.984   5.505
 9241SOL    HW128622   0.628   5.020   5.412
 9241SOL    HW228623   0.646   4.886   5.503
 9242SOL     OW28624   0.057   5.369   0.338
 9242SOL    HW128625   0.071   5.295   0.404
 9242SOL    HW228626   0.096   5.454   0.375
 9243SOL     OW28627   6.108   6.536   2.029
 9243SOL    HW128628   6.105   6.626   2.070
 9243SOL    HW228629   6.072   6.540   1.936
 9244SOL     OW28630   4.180   5.358   6.758
 9244SOL    HW128631   4.146   5.449   6.733
 9244SOL    HW228632   4.265   5.339   6.709
 9245SOL     OW28633   1.511   4.611   3.168
 9245SOL    HW128634   1.432   4.593   3.226
 9245SOL    HW228635   1.593   4.573   3.210
 9246SOL     OW28636   0.380   4.689   2.603
 9246SOL    HW128637   0.330   4.697   2.517
 9246SOL    HW228638   0.408   4.594   2.616
 9247SOL     OW28639   1.125   0.109   2.861
 9247SOL    HW128640   1.154   0.042   2.792
 9247SOL    HW228641   1.069   0.063   2.931
 9248SOL     OW28642   1.529   2.381   5.139
 9248SOL    HW128643   1.504   2.477   5.123
 9248SOL    HW228644   1.453   2.334   5.185
 9249SOL     OW28645   4.865   3.718   0.060
 9249SOL    HW128646   4.832   3.801   0.104
 9249SOL    HW228647   4.787   3.664   0.028
 9250SOL     OW28648   5.474   3.183   4.988
 9250SOL    HW128649   5.550   3.237   4.951
 9250SOL    HW228650   5.427   3.135   4.914
 9251SOL     OW28651   4.149   2.267   3.202
 9251SOL    HW128652   4.235   2.286   3.249
 9251SOL    HW228653   4.152   2.305   3.109
 9252SOL     OW28654   5.665   0.305   4.299
 9252SOL    HW128655   5.744   0.302   4.362
 9252SOL    HW228656   5.645   0.213   4.267
 9253SOL     OW28657   5.941   6.469   5.781
 9253SOL    HW128658   5.852   6.435   5.750
 9253SOL    HW228659   6.008   6.458   5.708
 9254SOL     OW28660   6.371   4.644   2.684
 9254SOL    HW128661   6.345   4.551   2.711
 9254SOL    HW228662   6.360   4.706   2.762
 9255SOL     OW28663   4.964   4.005   0.632
 9255SOL    HW128664   4.870   3.982   0.655
 9255SOL    HW228665   5.023   3.983   0.710
 9256SOL     OW28666   4.203   6.838   2.524
 9256SOL    HW128667   4.152   6.913   2.567
 9256SOL    HW228668   4.138   6.774   2.481
 9257SOL     OW28669   0.843   3.936   3.041
 9257SOL    HW128670   0.793   3.889   2.969
 9257SOL    HW228671   0.907   3.873   3.085
 9258SOL     OW28672   2.950   3.589   3.843
 9258SOL    HW128673   2.988   3.497   3.850
 9258SOL    HW228674   2.982   3.644   3.920
 9259SOL     OW28675   1.317   2.439   0.387
 9259SOL    HW128676   1.385   2.508   0.365
 9259SOL    HW228677   1.305   2.433   0.486
 9260SOL     OW28678   5.145   1.628   5.699
 9260SOL    HW128679   5.138   1.659   5.604
 9260SOL    HW228680   5.241   1.613   5.722
 9261SOL     OW28681   4.346   0.510   6.569
 9261SOL    HW128682   4.249   0.523   6.546
 9261SOL    HW228683   4.355   0.435   6.633
 9262SOL     OW28684   6.519   3.317   5.339
 9262SOL    HW128685   6.603   3.305   5.286
 9262SOL    HW228686   6.536   3.293   5.434
 9263SOL     OW28687   5.736   5.226   1.854
 9263SOL    HW128688   5.782   5.296   1.799
 9263SOL    HW228689   5.804   5.173   1.905
 9264SOL     OW28690   5.587   4.201   0.391
 9264SOL    HW128691   5.565   4.205   0.489
 9264SOL    HW228692   5.596   4.106   0.363
 9265SOL     OW28693   3.201   1.531   6.704
 9265SOL    HW128694   3.241   1.491   6.621
 9265SOL    HW228695   3.135   1.467   6.743
 9266SOL     OW28696   1.720   6.550   2.131
 9266SOL    HW128697   1.722   6.466   2.185
 9266SOL    HW228698   1.683   6.531   2.040
 9267SOL     OW28699   0.570   3.721   5.773
 9267SOL    HW128700   0.662   3.760   5.767
 9267SOL    HW228701   0.508   3.772   5.714
 9268SOL     OW28702   1.562   4.903   1.449
 9268SOL    HW128703   1.626   4.828   1.465
 9268SOL    HW228704   1.493   4.874   1.381
 9269SOL     OW28705   3.254   1.969   6.031
 9269SOL    HW128706   3.270   1.981   5.933
 9269SOL    HW228707   3.156   1.972   6.049
 9270SOL     OW28708   4.934   6.914   5.916
 9270SOL    HW128709   4.855   6.855   5.930
 9270SOL    HW228710   4.934   6.988   5.984
 9271SOL     OW28711   1.593   5.930   6.918
 9271SOL    HW128712   1.675   5.886   6.880
 9271SOL    HW228713   1.524   5.941   6.847
 9272SOL     OW28714   1.717   5.495   5.619
 9272SOL    HW128715   1.691   5.588   5.646
 9272SOL    HW228716   1.743   5.495   5.523
 9273SOL     OW28717   5.138   5.737   4.056
 9273SOL    HW128718   5.049   5.783   4.062
 9273SOL    HW228719   5.134   5.669   3.982
 9274SOL     OW28720   6.700   2.507   0.220
 9274SOL    HW128721   6.673   2.411   0.231
 9274SOL    HW228722   6.784   2.513   0.166
 9275SOL     OW28723   0.170   2.123   0.314
 9275SOL    HW128724   0.099   2.063   0.277
 9275SOL    HW228725   0.193   2.093   0.407
 9276SOL     OW28726   2.069   4.611   2.876
 9276SOL    HW128727   2.099   4.546   2.946
 9276SOL    HW228728   2.099   4.579   2.786
 9277SOL     OW28729   5.443   3.113   0.626
 9277SOL    HW128730   5.401   3.064   0.702
 9277SOL    HW228731   5.414   3.072   0.540
 9278SOL     OW28732   1.452   0.450   4.863
 9278SOL    HW128733   1.383   0.517   4.836
 9278SOL    HW228734   1.536   0.465   4.810
 9279SOL     OW28735   4.619   0.607   2.097
 9279SOL    HW128736   4.606   0.558   2.183
 9279SOL    HW228737   4.655   0.545   2.028
 9280SOL     OW28738   1.674   1.182   2.626
 9280SOL    HW128739   1.634   1.092   2.645
 9280SOL    HW228740   1.669   1.201   2.528
 9281SOL     OW28741   3.224   4.690   1.074
 9281SOL    HW128742   3.174   4.777   1.077
 9281SOL    HW228743   3.228   4.651   1.166
 9282SOL     OW28744   4.922   1.458   5.028
 9282SOL    HW128745   4.914   1.405   5.113
 9282SOL    HW228746   4.889   1.551   5.043
 9283SOL     OW28747   5.927   0.434   3.755
 9283SOL    HW128748   5.946   0.350   3.806
 9283SOL    HW228749   5.888   0.411   3.666
 9284SOL     OW28750   3.233   4.725   5.779
 9284SOL    HW128751   3.205   4.821   5.781
 9284SOL    HW228752   3.331   4.720   5.759
 9285SOL     OW28753   5.381   2.806   1.233
 9285SOL    HW128754   5.449   2.788   1.304
 9285SOL    HW228755   5.413   2.881   1.174
 9286SOL     OW28756   5.183   6.533   6.366
 9286SOL    HW128757   5.240   6.572   6.293
 9286SOL    HW228758   5.210   6.438   6.382
 9287SOL     OW28759   3.065   5.317   0.181
 9287SOL    HW128760   3.072   5.390   0.112
 9287SOL    HW228761   3.010   5.242   0.144
 9288SOL     OW28762   3.971   1.343   4.157
 9288SOL    HW128763   3.966   1.318   4.060
 9288SOL    HW228764   4.060   1.386   4.174
 9289SOL     OW28765   3.356   1.958   2.729
 9289SOL    HW128766   3.393   2.014   2.804
 9289SOL    HW228767   3.402   1.869   2.729
 9290SOL     OW28768   4.856   1.895   3.917
 9290SOL    HW128769   4.818   1.833   3.986
 9290SOL    HW228770   4.853   1.851   3.827
 9291SOL     OW28771   2.458   7.008   4.317
 9291SOL    HW128772   2.440   0.083   4.306
 9291SOL    HW228773   2.372   6.960   4.333
 9292SOL     OW28774   0.649   3.268   6.768
 9292SOL    HW128775   0.565   3.318   6.747
 9292SOL    HW228776   0.722   3.299   6.708
 9293SOL     OW28777   5.633   4.002   6.965
 9293SOL    HW128778   5.605   4.098   6.968
 9293SOL    HW228779   5.588   3.952   0.015
 9294SOL     OW28780   3.348   6.838   4.964
 9294SOL    HW128781   3.283   6.781   4.913
 9294SOL    HW228782   3.303   6.922   4.993
 9295SOL     OW28783   5.277   2.510   4.735
 9295SOL    HW128784   5.317   2.478   4.820
 9295SOL    HW228785   5.268   2.434   4.671
 9296SOL     OW28786   0.686   6.663   6.320
 9296SOL    HW128787   0.626   6.595   6.279
 9296SOL    HW228788   0.769   6.673   6.266
 9297SOL     OW28789   6.333   1.094   0.555
 9297SOL    HW128790   6.363   1.085   0.650
 9297SOL    HW228791   6.411   1.116   0.497
 9298SOL     OW28792   1.981   0.468   4.499
 9298SOL    HW128793   1.887   0.464   4.466
 9298SOL    HW228794   2.018   0.560   4.485
 9299SOL     OW28795   0.651   2.719   4.288
 9299SOL    HW128796   0.655   2.682   4.195
 9299SOL    HW228797   0.584   2.666   4.341
 9300SOL     OW28798   0.516   4.292   5.594
 9300SOL    HW128799   0.585   4.315   5.663
 9300SOL    HW228800   0.521   4.358   5.520
 9301SOL     OW28801   5.014   4.381   3.692
 9301SOL    HW128802   4.987   4.345   3.603
 9301SOL    HW228803   5.004   4.310   3.761
 9302SOL     OW28804   2.073   2.826   4.443
 9302SOL    HW128805   2.119   2.909   4.474
 9302SOL    HW228806   2.027   2.843   4.356
 9303SOL     OW28807   3.812   5.856   0.207
 9303SOL    HW128808   3.906   5.845   0.237
 9303SOL    HW228809   3.789   5.953   0.202
 9304SOL     OW28810   4.935   4.113   1.767
 9304SOL    HW128811   5.020   4.061   1.764
 9304SOL    HW228812   4.859   4.052   1.787
 9305SOL     OW28813   3.546   1.216   1.997
 9305SOL    HW128814   3.495   1.200   2.081
 9305SOL    HW228815   3.488   1.267   1.932
 9306SOL     OW28816   0.253   4.356   4.907
 9306SOL    HW128817   0.340   4.404   4.913
 9306SOL    HW228818   0.259   4.268   4.955
 9307SOL     OW28819   1.173   3.611   0.903
 9307SOL    HW128820   1.182   3.583   0.999
 9307SOL    HW228821   1.102   3.681   0.896
 9308SOL     OW28822   1.463   4.115   0.952
 9308SOL    HW128823   1.459   4.214   0.946
 9308SOL    HW228824   1.370   4.078   0.961
 9309SOL     OW28825   3.513   4.754   5.705
 9309SOL    HW128826   3.549   4.847   5.701
 9309SOL    HW228827   3.587   4.689   5.691
 9310SOL     OW28828   4.369   5.543   5.713
 9310SOL    HW128829   4.324   5.454   5.716
 9310SOL    HW228830   4.458   5.537   5.756
 9311SOL     OW28831   4.774   5.364   1.974
 9311SOL    HW128832   4.820   5.370   2.063
 9311SOL    HW228833   4.715   5.284   1.972
 9312SOL     OW28834   1.356   3.211   1.178
 9312SOL    HW128835   1.283   3.258   1.227
 9312SOL    HW228836   1.443   3.255   1.197
 9313SOL     OW28837   6.815   0.651   1.065
 9313SOL    HW128838   6.851   0.591   0.993
 9313SOL    HW228839   6.798   0.742   1.027
 9314SOL     OW28840   4.661   5.901   6.132
 9314SOL    HW128841   4.656   5.969   6.059
 9314SOL    HW228842   4.569   5.875   6.161
 9315SOL     OW28843   6.635   0.786   5.132
 9315SOL    HW128844   6.563   0.856   5.140
 9315SOL    HW228845   6.593   0.695   5.136
 9316SOL     OW28846   4.611   6.117   5.390
 9316SOL    HW128847   4.615   6.024   5.425
 9316SOL    HW228848   4.675   6.127   5.314
 9317SOL     OW28849   6.558   4.827   3.214
 9317SOL    HW128850   6.531   4.916   3.252
 9317SOL    HW228851   6.520   4.754   3.271
 9318SOL     OW28852   6.286   0.615   5.754
 9318SOL    HW128853   6.196   0.655   5.770
 9318SOL    HW228854   6.284   0.562   5.669
 9319SOL     OW28855   0.962   3.083   0.206
 9319SOL    HW128856   0.890   3.052   0.145
 9319SOL    HW228857   1.032   3.131   0.154
 9320SOL     OW28858   3.864   1.008   5.998
 9320SOL    HW128859   3.910   0.936   5.946
 9320SOL    HW228860   3.922   1.037   6.073
 9321SOL     OW28861   6.137   0.175   3.460
 9321SOL    HW128862   6.205   0.134   3.398
 9321SOL    HW228863   6.185   0.225   3.532
 9322SOL     OW28864   1.121   4.824   6.266
 9322SOL    HW128865   1.139   4.777   6.352
 9322SOL    HW228866   1.059   4.901   6.282
 9323SOL     OW28867   1.246   0.392   5.391
 9323SOL    HW128868   1.157   0.365   5.426
 9323SOL    HW228869   1.296   0.443   5.462
 9324SOL     OW28870   1.406   5.025   0.605
 9324SOL    HW128871   1.422   5.103   0.666
 9324SOL    HW228872   1.433   5.049   0.512
 9325SOL     OW28873   4.862   0.946   6.631
 9325SOL    HW128874   4.813   0.886   6.695
 9325SOL    HW228875   4.874   0.898   6.544
 9326SOL     OW28876   2.080   6.714   0.986
 9326SOL    HW128877   2.028   6.773   0.924
 9326SOL    HW228878   2.081   6.755   1.077
 9327SOL     OW28879   5.102   6.797   2.804
 9327SOL    HW128880   5.042   6.877   2.802
 9327SOL    HW228881   5.083   6.739   2.725
 9328SOL     OW28882   3.375   0.581   5.451
 9328SOL    HW128883   3.391   0.609   5.356
 9328SOL    HW228884   3.462   0.563   5.496
 9329SOL     OW28885   6.542   4.214   2.007
 9329SOL    HW128886   6.530   4.198   1.909
 9329SOL    HW228887   6.536   4.311   2.026
 9330SOL     OW28888   6.716   6.392   6.674
 9330SOL    HW128889   6.748   6.437   6.590
 9330SOL    HW228890   6.634   6.439   6.707
 9331SOL     OW28891   1.556   1.130   6.507
 9331SOL    HW128892   1.555   1.131   6.607
 9331SOL    HW228893   1.518   1.215   6.472
 9332SOL     OW28894   4.210   4.028   1.786
 9332SOL    HW128895   4.289   4.083   1.810
 9332SOL    HW228896   4.162   4.069   1.708
 9333SOL     OW28897   4.377   3.705   1.376
 9333SOL    HW128898   4.334   3.628   1.329
 9333SOL    HW228899   4.362   3.696   1.474
 9334SOL     OW28900   5.013   5.237   4.012
 9334SOL    HW128901   4.948   5.162   4.013
 9334SOL    HW228902   5.033   5.265   4.106
 9335SOL     OW28903   0.937   1.433   6.008
 9335SOL    HW128904   0.957   1.516   5.956
 9335SOL    HW228905   0.845   1.401   5.985
 9336SOL     OW28906   2.484   5.200   5.256
 9336SOL    HW128907   2.512   5.193   5.352
 9336SOL    HW228908   2.403   5.258   5.249
 9337SOL     OW28909   5.352   1.747   4.086
 9337SOL    HW128910   5.379   1.729   3.992
 9337SOL    HW228911   5.305   1.666   4.123
 9338SOL     OW28912   4.026   0.362   1.779
 9338SOL    HW128913   4.083   0.342   1.699
 9338SOL    HW228914   3.946   0.414   1.750
 9339SOL     OW28915   5.954   0.133   1.366
 9339SOL    HW128916   5.942   0.086   1.453
 9339SOL    HW228917   6.048   0.167   1.358
 9340SOL     OW28918   5.442   3.734   3.993
 9340SOL    HW128919   5.380   3.806   3.960
 9340SOL    HW228920   5.519   3.776   4.041
 9341SOL     OW28921   0.044   6.176   0.215
 9341SOL    HW128922   0.092   6.094   0.246
 9341SOL    HW228923   0.074   6.255   0.268
 9342SOL     OW28924   1.523   6.944   3.426
 9342SOL    HW128925   1.555   6.861   3.381
 9342SOL    HW228926   1.574   6.957   3.511
 9343SOL     OW28927   6.066   4.252   2.675
 9343SOL    HW128928   6.098   4.192   2.749
 9343SOL    HW228929   5.968   4.267   2.685
 9344SOL     OW28930   4.662   6.554   1.913
 9344SOL    HW128931   4.638   6.484   1.846
 9344SOL    HW228932   4.588   6.620   1.920
 9345SOL     OW28933   6.605   4.499   2.592
 9345SOL    HW128934   6.548   4.417   2.585
 9345SOL    HW228935   6.546   4.580   2.592
 9346SOL     OW28936   6.355   0.841   1.163
 9346SOL    HW128937   6.257   0.856   1.146
 9346SOL    HW228938   6.367   0.751   1.205
 9347SOL     OW28939   0.963   3.975   0.412
 9347SOL    HW128940   0.901   4.043   0.371
 9347SOL    HW228941   0.995   3.912   0.341
 9348SOL     OW28942   3.913   5.970   1.858
 9348SOL    HW128943   3.943   6.046   1.801
 9348SOL    HW228944   3.990   5.934   1.909
 9349SOL     OW28945   0.997   6.549   2.718
 9349SOL    HW128946   1.048   6.543   2.804
 9349SOL    HW228947   0.908   6.506   2.729
 9350SOL     OW28948   0.060   3.312   5.389
 9350SOL    HW128949   0.107   3.390   5.431
 9350SOL    HW228950   0.054   3.237   5.455
 9351SOL     OW28951   2.786   0.566   6.832
 9351SOL    HW128952   2.746   0.570   6.740
 9351SOL    HW228953   2.884   0.545   6.824
 9352SOL     OW28954   3.308   1.980   6.764
 9352SOL    HW128955   3.353   2.065   6.793
 9352SOL    HW228956   3.236   2.002   6.697
 9353SOL     OW28957   0.363   5.058   0.691
 9353SOL    HW128958   0.454   5.096   0.672
 9353SOL    HW228959   0.363   4.960   0.671
 9354SOL     OW28960   6.298   1.857   6.252
 9354SOL    HW128961   6.227   1.788   6.238
 9354SOL    HW228962   6.317   1.903   6.165
 9355SOL     OW28963   0.529   2.340   4.733
 9355SOL    HW128964   0.611   2.287   4.754
 9355SOL    HW228965   0.525   2.419   4.794
 9356SOL     OW28966   4.494   0.149   1.788
 9356SOL    HW128967   4.473   0.116   1.696
 9356SOL    HW228968   4.565   0.092   1.829
 9357SOL     OW28969   1.420   3.692   6.578
 9357SOL    HW128970   1.354   3.618   6.570
 9357SOL    HW228971   1.494   3.678   6.513
 9358SOL     OW28972   0.085   3.932   2.318
 9358SOL    HW128973   0.047   3.851   2.274
 9358SOL    HW228974   0.182   3.917   2.337
 9359SOL     OW28975   1.340   4.902   0.147
 9359SOL    HW128976   1.387   4.885   0.061
 9359SOL    HW228977   1.304   4.816   0.184
 9360SOL     OW28978   1.838   5.285   6.198
 9360SOL    HW128979   1.803   5.272   6.106
 9360SOL    HW228980   1.817   5.377   6.230
 9361SOL     OW28981   1.884   5.130   3.153
 9361SOL    HW128982   1.786   5.109   3.157
 9361SOL    HW228983   1.896   5.224   3.121
 9362SOL     OW28984   0.724   1.098   2.784
 9362SOL    HW128985   0.630   1.129   2.800
 9362SOL    HW228986   0.727   1.041   2.702
 9363SOL     OW28987   3.600   5.262   2.117
 9363SOL    HW128988   3.695   5.244   2.141
 9363SOL    HW228989   3.549   5.291   2.198
 9364SOL     OW28990   2.513   2.232   7.007
 9364SOL    HW128991   2.589   2.168   6.996
 9364SOL    HW228992   2.477   2.258   6.918
 9365SOL     OW28993   3.003   1.737   3.553
 9365SOL    HW128994   2.907   1.748   3.530
 9365SOL    HW228995   3.025   1.640   3.564
 9366SOL     OW28996   3.221   5.216   0.424
 9366SOL    HW128997   3.254   5.280   0.355
 9366SOL    HW228998   3.165   5.265   0.491
 9367SOL     OW28999   6.617   0.229   1.485
 9367SOL    HW129000   6.586   0.182   1.402
 9367SOL    HW229001   6.623   0.327   1.467
 9368SOL     OW29002   3.621   6.426   2.052
 9368SOL    HW129003   3.693   6.356   2.053
 9368SOL    HW229004   3.662   6.516   2.063
 9369SOL     OW29005   0.019   6.124   4.781
 9369SOL    HW129006   0.057   6.068   4.854
 9369SOL    HW229007   6.993   6.066   4.717
 9370SOL     OW29008   5.300   6.963   3.756
 9370SOL    HW129009   5.257   6.899   3.820
 9370SOL    HW229010   5.366   7.020   3.805
 9371SOL     OW29011   2.677   5.785   0.910
 9371SOL    HW129012   2.636   5.694   0.898
 9371SOL    HW229013   2.661   5.840   0.828
 9372SOL     OW29014   5.305   0.170   1.572
 9372SOL    HW129015   5.353   0.169   1.660
 9372SOL    HW229016   5.268   0.262   1.556
 9373SOL     OW29017   5.358   2.008   0.795
 9373SOL    HW129018   5.427   2.079   0.780
 9373SOL    HW229019   5.354   1.985   0.892
 9374SOL     OW29020   6.695   3.391   5.580
 9374SOL    HW129021   6.619   3.456   5.588
 9374SOL    HW229022   6.744   3.387   5.667
 9375SOL     OW29023   6.972   1.783   0.885
 9375SOL    HW129024   6.933   1.704   0.932
 9375SOL    HW229025   7.000   1.756   0.793
 9376SOL     OW29026   2.285   3.856   1.710
 9376SOL    HW129027   2.240   3.826   1.626
 9376SOL    HW229028   2.243   3.810   1.789
 9377SOL     OW29029   2.071   4.947   3.100
 9377SOL    HW129030   2.000   5.009   3.134
 9377SOL    HW229031   2.161   4.990   3.110
 9378SOL     OW29032   3.459   0.935   3.805
 9378SOL    HW129033   3.394   0.954   3.731
 9378SOL    HW229034   3.456   0.838   3.828
 9379SOL     OW29035   5.387   0.177   4.810
 9379SOL    HW129036   5.395   0.276   4.815
 9379SOL    HW229037   5.314   0.152   4.746
 9380SOL     OW29038   3.509   5.516   5.605
 9380SOL    HW129039   3.555   5.529   5.693
 9380SOL    HW229040   3.574   5.477   5.539
 9381SOL     OW29041   5.064   2.886   5.102
 9381SOL    HW129042   5.081   2.858   5.196
 9381SOL    HW229043   5.129   2.840   5.041
 9382SOL     OW29044   3.688   1.090   3.800
 9382SOL    HW129045   3.608   1.031   3.790
 9382SOL    HW229046   3.696   1.149   3.720
 9383SOL     OW29047   5.035   4.648   4.453
 9383SOL    HW129048   4.984   4.567   4.424
 9383SOL    HW229049   5.132   4.626   4.456
 9384SOL     OW29050   3.296   6.881   1.826
 9384SOL    HW129051   3.357   6.960   1.824
 9384SOL    HW229052   3.299   6.839   1.916
 9385SOL     OW29053   4.311   1.726   4.241
 9385SOL    HW129054   4.283   1.816   4.275
 9385SOL    HW229055   4.381   1.688   4.301
 9386SOL     OW29056   2.938   5.611   5.356
 9386SOL    HW129057   2.929   5.647   5.263
 9386SOL    HW229058   3.026   5.564   5.365
 9387SOL     OW29059   3.761   2.330   0.655
 9387SOL    HW129060   3.794   2.424   0.659
 9387SOL    HW229061   3.838   2.267   0.666
 9388SOL     OW29062   1.711   6.489   3.111
 9388SOL    HW129063   1.678   6.401   3.078
 9388SOL    HW229064   1.802   6.478   3.150
 9389SOL     OW29065   3.331   6.143   2.863
 9389SOL    HW129066   3.261   6.120   2.931
 9389SOL    HW229067   3.369   6.233   2.885
 9390SOL     OW29068   5.949   5.018   5.804
 9390SOL    HW129069   5.901   5.078   5.740
 9390SOL    HW229070   6.043   5.050   5.815
 9391SOL     OW29071   0.356   0.483   4.885
 9391SOL    HW129072   0.341   0.468   4.787
 9391SOL    HW229073   0.284   0.541   4.921
 9392SOL     OW29074   4.617   4.301   4.135
 9392SOL    HW129075   4.635   4.308   4.234
 9392SOL    HW229076   4.665   4.221   4.099
 9393SOL     OW29077   2.917   0.257   6.216
 9393SOL    HW129078   2.882   0.293   6.129
 9393SOL    HW229079   2.997   0.310   6.244
 9394SOL     OW29080   5.900   0.535   1.345
 9394SOL    HW129081   5.979   0.542   1.406
 9394SOL    HW229082   5.893   0.618   1.290
 9395SOL     OW29083   2.198   1.346   0.897
 9395SOL    HW129084   2.256   1.269   0.870
 9395SOL    HW229085   2.200   1.416   0.826
 9396SOL     OW29086   2.217   5.116   5.052
 9396SOL    HW129087   2.184   5.187   4.990
 9396SOL    HW229088   2.144   5.091   5.115
 9397SOL     OW29089   2.796   6.751   5.534
 9397SOL    HW129090   2.713   6.728   5.584
 9397SOL    HW229091   2.837   6.669   5.495
 9398SOL     OW29092   5.927   1.318   5.586
 9398SOL    HW129093   5.897   1.247   5.523
 9398SOL    HW229094   6.026   1.312   5.598
 9399SOL     OW29095   1.002   2.549   4.589
 9399SOL    HW129096   1.084   2.588   4.631
 9399SOL    HW229097   0.985   2.592   4.501
 9400SOL     OW29098   4.834   0.337   0.302
 9400SOL    HW129099   4.875   0.340   0.211
 9400SOL    HW229100   4.829   0.429   0.339
 9401SOL     OW29101   0.001   2.790   1.540
 9401SOL    HW129102   0.094   2.754   1.533
 9401SOL    HW229103   7.010   2.831   1.630
 9402SOL     OW29104   1.734   4.932   3.383
 9402SOL    HW129105   1.684   4.923   3.297
 9402SOL    HW229106   1.679   4.895   3.458
 9403SOL     OW29107   0.119   1.652   2.407
 9403SOL    HW129108   0.186   1.586   2.374
 9403SOL    HW229109   0.135   1.740   2.361
 9404SOL     OW29110   0.245   1.933   1.259
 9404SOL    HW129111   0.161   1.968   1.299
 9404SOL    HW229112   0.225   1.884   1.174
 9405SOL     OW29113   0.857   4.393   4.808
 9405SOL    HW129114   0.931   4.456   4.786
 9405SOL    HW229115   0.769   4.434   4.783
 9406SOL     OW29116   1.316   3.046   6.786
 9406SOL    HW129117   1.253   3.002   6.722
 9406SOL    HW229118   1.380   3.104   6.736
 9407SOL     OW29119   2.737   4.981   4.750
 9407SOL    HW129120   2.660   4.936   4.704
 9407SOL    HW229121   2.703   5.054   4.809
 9408SOL     OW29122   0.086   2.470   5.988
 9408SOL    HW129123   0.140   2.468   6.073
 9408SOL    HW229124   0.035   2.556   5.984
 9409SOL     OW29125   6.448   5.550   2.623
 9409SOL    HW129126   6.548   5.544   2.624
 9409SOL    HW229127   6.415   5.568   2.716
 9410SOL     OW29128   4.825   1.084   1.605
 9410SOL    HW129129   4.752   1.016   1.611
 9410SOL    HW229130   4.843   1.121   1.697
 9411SOL     OW29131   3.358   3.480   3.041
 9411SOL    HW129132   3.422   3.540   2.994
 9411SOL    HW229133   3.317   3.528   3.118
 9412SOL     OW29134   0.946   0.569   1.593
 9412SOL    HW129135   0.956   0.641   1.524
 9412SOL    HW229136   1.024   0.572   1.656
 9413SOL     OW29137   4.602   4.784   4.829
 9413SOL    HW129138   4.506   4.765   4.811
 9413SOL    HW229139   4.654   4.777   4.743
 9414SOL     OW29140   2.634   2.278   4.597
 9414SOL    HW129141   2.665   2.348   4.661
 9414SOL    HW229142   2.657   2.306   4.504
 9415SOL     OW29143   2.901   6.935   1.841
 9415SOL    HW129144   2.807   6.929   1.806
 9415SOL    HW229145   2.964   6.951   1.765
 9416SOL     OW29146   0.328   0.832   5.185
 9416SOL    HW129147   0.286   0.751   5.226
 9416SOL    HW229148   0.259   0.886   5.138
 9417SOL     OW29149   3.228   6.252   1.695
 9417SOL    HW129150   3.263   6.277   1.605
 9417SOL    HW229151   3.165   6.175   1.686
 9418SOL     OW29152   2.833   1.465   2.919
 9418SOL    HW129153   2.789   1.489   3.005
 9418SOL    HW229154   2.773   1.490   2.843
 9419SOL     OW29155   2.742   2.881   6.491
 9419SOL    HW129156   2.811   2.897   6.420
 9419SOL    HW229157   2.767   2.932   6.574
 9420SOL     OW29158   6.083   4.974   0.291
 9420SOL    HW129159   6.091   4.880   0.325
 9420SOL    HW229160   6.158   5.029   0.327
 9421SOL     OW29161   3.018   5.765   4.202
 9421SOL    HW129162   3.011   5.863   4.222
 9421SOL    HW229163   2.926   5.725   4.198
 9422SOL     OW29164   2.597   6.296   4.004
 9422SOL    HW129165   2.635   6.228   3.941
 9422SOL    HW229166   2.646   6.291   4.091
 9423SOL     OW29167   4.276   6.357   2.756
 9423SOL    HW129168   4.254   6.454   2.765
 9423SOL    HW229169   4.356   6.346   2.698
 9424SOL     OW29170   5.189   1.550   4.687
 9424SOL    HW129171   5.280   1.585   4.666
 9424SOL    HW229172   5.130   1.561   4.606
 9425SOL     OW29173   6.140   4.862   1.560
 9425SOL    HW129174   6.149   4.959   1.536
 9425SOL    HW229175   6.104   4.854   1.653
 9426SOL     OW29176   1.615   1.541   6.104
 9426SOL    HW129177   1.588   1.585   6.190
 9426SOL    HW229178   1.575   1.591   6.027
 9427SOL     OW29179   2.367   5.940   2.817
 9427SOL    HW129180   2.442   5.882   2.849
 9427SOL    HW229181   2.282   5.888   2.814
 9428SOL     OW29182   6.567   6.469   0.198
 9428SOL    HW129183   6.568   6.568   0.216
 9428SOL    HW229184   6.661   6.435   0.196
 9429SOL     OW29185   1.606   2.173   3.924
 9429SOL    HW129186   1.589   2.075   3.922
 9429SOL    HW229187   1.699   2.190   3.958
 9430SOL     OW29188   0.231   2.517   4.393
 9430SOL    HW129189   0.160   2.587   4.384
 9430SOL    HW229190   0.190   2.431   4.422
 9431SOL     OW29191   6.684   4.440   0.874
 9431SOL    HW129192   6.673   4.499   0.794
 9431SOL    HW229193   6.766   4.384   0.862
 9432SOL     OW29194   6.505   1.916   4.154
 9432SOL    HW129195   6.462   1.872   4.076
 9432SOL    HW229196   6.533   2.009   4.129
 9433SOL     OW29197   4.117   5.606   2.998
 9433SOL    HW129198   4.125   5.637   2.903
 9433SOL    HW229199   4.204   5.624   3.046
 9434SOL     OW29200   5.844   5.395   3.782
 9434SOL    HW129201   5.826   5.355   3.693
 9434SOL    HW229202   5.838   5.495   3.776
 9435SOL     OW29203   0.595   2.528   2.184
 9435SOL    HW129204   0.684   2.484   2.201
 9435SOL    HW229205   0.525   2.458   2.171
 9436SOL     OW29206   1.207   1.078   2.303
 9436SOL    HW129207   1.205   0.998   2.244
 9436SOL    HW229208   1.265   1.148   2.261
 9437SOL     OW29209   0.809   5.180   3.453
 9437SOL    HW129210   0.850   5.163   3.543
 9437SOL    HW229211   0.716   5.213   3.464
 9438SOL     OW29212   1.420   6.955   1.954
 9438SOL    HW129213   1.379   6.865   1.967
 9438SOL    HW229214   1.389   6.992   1.866
 9439SOL     OW29215   0.335   3.188   1.029
 9439SOL    HW129216   0.410   3.255   1.032
 9439SOL    HW229217   0.372   3.098   1.006
 9440SOL     OW29218   2.591   4.871   3.297
 9440SOL    HW129219   2.629   4.963   3.305
 9440SOL    HW229220   2.591   4.828   3.387
 9441SOL     OW29221   6.657   5.498   5.632
 9441SOL    HW129222   6.616   5.558   5.563
 9441SOL    HW229223   6.635   5.403   5.612
 9442SOL     OW29224   4.736   3.420   1.385
 9442SOL    HW129225   4.676   3.470   1.321
 9442SOL    HW229226   4.686   3.402   1.470
 9443SOL     OW29227   2.629   5.811   1.534
 9443SOL    HW129228   2.559   5.881   1.547
 9443SOL    HW229229   2.671   5.787   1.622
 9444SOL     OW29230   1.750   3.781   0.974
 9444SOL    HW129231   1.754   3.700   0.915
 9444SOL    HW229232   1.842   3.812   0.996
 9445SOL     OW29233   6.747   1.859   3.894
 9445SOL    HW129234   6.817   1.788   3.902
 9445SOL    HW229235   6.780   1.931   3.833
 9446SOL     OW29236   6.319   4.855   4.495
 9446SOL    HW129237   6.394   4.918   4.513
 9446SOL    HW229238   6.238   4.885   4.546
 9447SOL     OW29239   4.889   5.112   2.767
 9447SOL    HW129240   4.929   5.130   2.857
 9447SOL    HW229241   4.890   5.196   2.712
 9448SOL     OW29242   6.222   6.955   5.831
 9448SOL    HW129243   6.179   7.000   5.753
 9448SOL    HW229244   6.228   7.019   5.908
 9449SOL     OW29245   5.255   6.639   6.932
 9449SOL    HW129246   5.175   6.697   6.918
 9449SOL    HW229247   5.235   6.571   7.003
 9450SOL     OW29248   1.658   5.306   4.077
 9450SOL    HW129249   1.704   5.245   4.012
 9450SOL    HW229250   1.646   5.259   4.164
 9451SOL     OW29251   3.652   5.752   5.916
 9451SOL    HW129252   3.629   5.804   5.834
 9451SOL    HW229253   3.745   5.772   5.944
 9452SOL     OW29254   0.572   4.204   0.725
 9452SOL    HW129255   0.667   4.218   0.754
 9452SOL    HW229256   0.557   4.106   0.708
 9453SOL     OW29257   3.082   5.072   3.335
 9453SOL    HW129258   2.983   5.059   3.336
 9453SOL    HW229259   3.122   5.031   3.417
 9454SOL     OW29260   4.557   3.771   1.007
 9454SOL    HW129261   4.517   3.714   0.935
 9454SOL    HW229262   4.607   3.713   1.072
 9455SOL     OW29263   2.578   1.925   2.533
 9455SOL    HW129264   2.608   2.019   2.550
 9455SOL    HW229265   2.640   1.882   2.466
 9456SOL     OW29266   6.240   4.138   2.376
 9456SOL    HW129267   6.174   4.064   2.361
 9456SOL    HW229268   6.192   4.225   2.386
 9457SOL     OW29269   0.791   5.096   4.481
 9457SOL    HW129270   0.855   5.028   4.517
 9457SOL    HW229271   0.784   5.173   4.545
 9458SOL     OW29272   0.183   4.291   0.387
 9458SOL    HW129273   0.094   4.250   0.409
 9458SOL    HW229274   0.255   4.222   0.395
 9459SOL     OW29275   5.153   3.950   4.177
 9459SOL    HW129276   5.097   3.885   4.228
 9459SOL    HW229277   5.219   3.901   4.121
 9460SOL     OW29278   1.733   3.319   4.573
 9460SOL    HW129279   1.803   3.272   4.627
 9460SOL    HW229280   1.766   3.410   4.547
 9461SOL     OW29281   1.185   1.488   1.176
 9461SOL    HW129282   1.096   1.470   1.134
 9461SOL    HW229283   1.178   1.567   1.237
 9462SOL     OW29284   1.742   2.843   3.303
 9462SOL    HW129285   1.791   2.930   3.303
 9462SOL    HW229286   1.654   2.854   3.350
 9463SOL     OW29287   5.357   6.722   1.513
 9463SOL    HW129288   5.361   6.697   1.610
 9463SOL    HW229289   5.450   6.741   1.480
 9464SOL     OW29290   6.582   0.189   2.046
 9464SOL    HW129291   6.589   0.092   2.069
 9464SOL    HW229292   6.539   0.199   1.956
 9465SOL     OW29293   0.398   4.195   1.560
 9465SOL    HW129294   0.397   4.183   1.659
 9465SOL    HW229295   0.304   4.195   1.525
 9466SOL     OW29296   4.525   5.611   6.537
 9466SOL    HW129297   4.456   5.678   6.563
 9466SOL    HW229298   4.611   5.657   6.519
 9467SOL     OW29299   1.560   2.481   0.750
 9467SOL    HW129300   1.532   2.567   0.708
 9467SOL    HW229301   1.608   2.425   0.683
 9468SOL     OW29302   6.285   3.149   6.753
 9468SOL    HW129303   6.257   3.053   6.761
 9468SOL    HW229304   6.227   3.205   6.812
 9469SOL     OW29305   6.932   6.527   0.413
 9469SOL    HW129306   6.871   6.464   0.366
 9469SOL    HW229307   6.939   6.612   0.361
 9470SOL     OW29308   4.730   3.899   0.220
 9470SOL    HW129309   4.631   3.902   0.214
 9470SOL    HW229310   4.758   3.831   0.287
 9471SOL     OW29311   5.651   2.595   5.408
 9471SOL    HW129312   5.587   2.562   5.478
 9471SOL    HW229313   5.611   2.673   5.361
 9472SOL     OW29314   1.291   4.360   6.157
 9472SOL    HW129315   1.235   4.416   6.218
 9472SOL    HW229316   1.387   4.362   6.188
 9473SOL     OW29317   3.186   3.435   6.679
 9473SOL    HW129318   3.145   3.363   6.622
 9473SOL    HW229319   3.265   3.474   6.632
 9474SOL     OW29320   6.360   3.275   1.683
 9474SOL    HW129321   6.360   3.249   1.586
 9474SOL    HW229322   6.271   3.255   1.723
 9475SOL     OW29323   4.241   3.624   6.769
 9475SOL    HW129324   4.285   3.685   6.704
 9475SOL    HW229325   4.168   3.572   6.723
 9476SOL     OW29326   3.567   3.825   5.749
 9476SOL    HW129327   3.536   3.920   5.743
 9476SOL    HW229328   3.579   3.789   5.656
 9477SOL     OW29329   1.453   3.513   0.791
 9477SOL    HW129330   1.396   3.525   0.872
 9477SOL    HW229331   1.457   3.416   0.767
 9478SOL     OW29332   4.396   2.726   1.193
 9478SOL    HW129333   4.360   2.794   1.257
 9478SOL    HW229334   4.322   2.665   1.165
 9479SOL     OW29335   3.903   0.675   1.569
 9479SOL    HW129336   3.992   0.669   1.614
 9479SOL    HW229337   3.895   0.762   1.521
 9480SOL     OW29338   5.696   5.826   6.738
 9480SOL    HW129339   5.764   5.841   6.809
 9480SOL    HW229340   5.723   5.747   6.683
 9481SOL     OW29341   5.055   2.429   3.228
 9481SOL    HW129342   4.992   2.420   3.305
 9481SOL    HW229343   5.097   2.341   3.209
 9482SOL     OW29344   5.988   6.867   1.446
 9482SOL    HW129345   5.990   6.917   1.359
 9482SOL    HW229346   5.952   6.775   1.430
 9483SOL     OW29347   1.577   0.569   6.546
 9483SOL    HW129348   1.523   0.515   6.610
 9483SOL    HW229349   1.576   0.665   6.575
 9484SOL     OW29350   2.751   0.380   4.221
 9484SOL    HW129351   2.777   0.341   4.310
 9484SOL    HW229352   2.687   0.455   4.235
 9485SOL     OW29353   5.940   1.842   1.299
 9485SOL    HW129354   5.905   1.852   1.392
 9485SOL    HW229355   6.040   1.838   1.302
 9486SOL     OW29356   4.945   5.645   0.987
 9486SOL    HW129357   4.922   5.672   1.081
 9486SOL    HW229358   5.041   5.618   0.983
 9487SOL     OW29359   3.328   3.224   4.675
 9487SOL    HW129360   3.238   3.196   4.641
 9487SOL    HW229361   3.344   3.180   4.764
 9488SOL     OW29362   2.012   1.418   1.444
 9488SOL    HW129363   2.004   1.465   1.356
 9488SOL    HW229364   2.026   1.485   1.517
 9489SOL     OW29365   5.380   4.197   1.453
 9489SOL    HW129366   5.423   4.259   1.517
 9489SOL    HW229367   5.319   4.248   1.392
 9490SOL     OW29368   6.762   5.823   3.873
 9490SOL    HW129369   6.842   5.769   3.900
 9490SOL    HW229370   6.786   5.920   3.871
 9491SOL     OW29371   5.561   5.595   4.252
 9491SOL    HW129372   5.628   5.664   4.277
 9491SOL    HW229373   5.595   5.542   4.173
 9492SOL     OW29374   4.534   3.283   5.508
 9492SOL    HW129375   4.469   3.218   5.467
 9492SOL    HW229376   4.494   3.320   5.592
 9493SOL     OW29377   3.282   6.096   3.744
 9493SOL    HW129378   3.245   6.104   3.652
 9493SOL    HW229379   3.223   6.039   3.800
 9494SOL     OW29380   5.910   3.108   2.174
 9494SOL    HW129381   5.885   3.081   2.267
 9494SOL    HW229382   5.972   3.185   2.177
 9495SOL     OW29383   0.057   1.293   2.363
 9495SOL    HW129384   0.029   1.283   2.268
 9495SOL    HW229385   0.140   1.350   2.368
 9496SOL     OW29386   4.520   2.020   2.267
 9496SOL    HW129387   4.427   2.040   2.235
 9496SOL    HW229388   4.563   1.954   2.205
 9497SOL     OW29389   5.791   5.949   5.402
 9497SOL    HW129390   5.731   5.951   5.482
 9497SOL    HW229391   5.759   5.880   5.337
 9498SOL     OW29392   0.081   4.722   5.037
 9498SOL    HW129393   0.090   4.772   5.123
 9498SOL    HW229394   0.054   4.628   5.056
 9499SOL     OW29395   0.003   5.709   5.355
 9499SOL    HW129396   7.001   5.615   5.376
 9499SOL    HW229397   6.962   5.747   5.289
 9500SOL     OW29398   3.810   6.175   1.184
 9500SOL    HW129399   3.759   6.261   1.183
 9500SOL    HW229400   3.908   6.195   1.194
 9501SOL     OW29401   1.563   1.599   4.222
 9501SOL    HW129402   1.500   1.629   4.150
 9501SOL    HW229403   1.570   1.670   4.292
 9502SOL     OW29404   6.515   3.863   4.336
 9502SOL    HW129405   6.609   3.854   4.302
 9502SOL    HW229406   6.452   3.870   4.259
 9503SOL     OW29407   0.555   2.301   0.815
 9503SOL    HW129408   0.549   2.319   0.913
 9503SOL    HW229409   0.615   2.369   0.771
 9504SOL     OW29410   6.734   4.106   1.785
 9504SOL    HW129411   6.746   4.154   1.699
 9504SOL    HW229412   6.773   4.160   1.859
 9505SOL     OW29413   5.050   4.667   5.796
 9505SOL    HW129414   4.957   4.667   5.831
 9505SOL    HW229415   5.083   4.761   5.788
 9506SOL     OW29416   2.447   2.576   0.231
 9506SOL    HW129417   2.521   2.581   0.164
 9506SOL    HW229418   2.371   2.634   0.201
 9507SOL     OW29419   6.366   0.828   0.793
 9507SOL    HW129420   6.358   0.926   0.774
 9507SOL    HW229421   6.448   0.811   0.847
 9508SOL     OW29422   5.737   1.853   2.474
 9508SOL    HW129423   5.828   1.875   2.438
 9508SOL    HW229424   5.718   1.909   2.555
 9509SOL     OW29425   6.735   0.264   3.239
 9509SOL    HW129426   6.696   0.225   3.156
 9509SOL    HW229427   6.670   0.255   3.315
 9510SOL     OW29428   0.915   3.810   3.468
 9510SOL    HW129429   1.004   3.818   3.513
 9510SOL    HW229430   0.859   3.889   3.492
 9511SOL     OW29431   0.921   0.988   1.877
 9511SOL    HW129432   0.951   0.904   1.924
 9511SOL    HW229433   0.983   1.006   1.800
 9512SOL     OW29434   6.862   2.574   1.408
 9512SOL    HW129435   6.884   2.635   1.484
 9512SOL    HW229436   6.769   2.540   1.418
 9513SOL     OW29437   3.139   5.007   5.732
 9513SOL    HW129438   3.189   5.058   5.663
 9513SOL    HW229439   3.049   5.048   5.746
 9514SOL     OW29440   2.803   3.703   6.820
 9514SOL    HW129441   2.867   3.645   6.870
 9514SOL    HW229442   2.817   3.690   6.721
 9515SOL     OW29443   2.304   5.168   3.481
 9515SOL    HW129444   2.380   5.232   3.494
 9515SOL    HW229445   2.220   5.220   3.467
 9516SOL     OW29446   5.532   4.731   0.657
 9516SOL    HW129447   5.477   4.650   0.642
 9516SOL    HW229448   5.623   4.705   0.691
 9517SOL     OW29449   1.149   4.346   0.996
 9517SOL    HW129450   1.128   4.427   0.942
 9517SOL    HW229451   1.247   4.343   1.015
 9518SOL     OW29452   2.601   1.611   0.231
 9518SOL    HW129453   2.527   1.673   0.204
 9518SOL    HW229454   2.688   1.647   0.199
 9519SOL     OW29455   1.764   2.144   5.903
 9519SOL    HW129456   1.814   2.187   5.828
 9519SOL    HW229457   1.829   2.119   5.976
 9520SOL     OW29458   2.898   0.201   2.499
 9520SOL    HW129459   2.872   0.107   2.522
 9520SOL    HW229460   2.829   0.241   2.439
 9521SOL     OW29461   5.468   5.918   3.127
 9521SOL    HW129462   5.538   5.851   3.102
 9521SOL    HW229463   5.463   5.926   3.226
 9522SOL     OW29464   3.457   5.971   1.244
 9522SOL    HW129465   3.541   5.969   1.299
 9522SOL    HW229466   3.480   5.972   1.147
 9523SOL     OW29467   3.103   5.544   3.993
 9523SOL    HW129468   3.047   5.604   4.050
 9523SOL    HW229469   3.052   5.460   3.973
 9524SOL     OW29470   4.201   2.817   1.409
 9524SOL    HW129471   4.138   2.880   1.455
 9524SOL    HW229472   4.151   2.766   1.339
 9525SOL     OW29473   1.803   1.309   6.138
 9525SOL    HW129474   1.883   1.302   6.079
 9525SOL    HW229475   1.738   1.374   6.099
 9526SOL     OW29476   5.678   5.718   3.116
 9526SOL    HW129477   5.692   5.763   3.204
 9526SOL    HW229478   5.737   5.637   3.109
 9527SOL     OW29479   1.197   0.936   1.998
 9527SOL    HW129480   1.254   0.887   1.931
 9527SOL    HW229481   1.136   0.871   2.043
 9528SOL     OW29482   6.508   0.472   0.393
 9528SOL    HW129483   6.573   0.531   0.344
 9528SOL    HW229484   6.442   0.528   0.441
 9529SOL     OW29485   0.857   2.966   6.036
 9529SOL    HW129486   0.833   3.055   6.074
 9529SOL    HW229487   0.941   2.933   6.079
 9530SOL     OW29488   1.467   3.163   3.047
 9530SOL    HW129489   1.481   3.246   3.101
 9530SOL    HW229490   1.556   3.123   3.024
 9531SOL     OW29491   4.008   5.950   2.988
 9531SOL    HW129492   4.093   5.970   3.036
 9531SOL    HW229493   3.966   5.868   3.027
 9532SOL     OW29494   1.490   5.830   1.420
 9532SOL    HW129495   1.563   5.896   1.404
 9532SOL    HW229496   1.529   5.745   1.454
 9533SOL     OW29497   0.246   1.645   5.090
 9533SOL    HW129498   0.166   1.696   5.059
 9533SOL    HW229499   0.301   1.618   5.011
 9534SOL     OW29500   5.133   3.244   5.049
 9534SOL    HW129501   5.174   3.188   5.121
 9534SOL    HW229502   5.035   3.252   5.064
 9535SOL     OW29503   2.752   1.157   5.405
 9535SOL    HW129504   2.736   1.080   5.467
 9535SOL    HW229505   2.753   1.123   5.310
 9536SOL     OW29506   2.089   5.833   5.460
 9536SOL    HW129507   2.057   5.871   5.547
 9536SOL    HW229508   2.063   5.737   5.454
 9537SOL     OW29509   3.135   0.354   2.451
 9537SOL    HW129510   3.072   0.278   2.468
 9537SOL    HW229511   3.083   0.436   2.428
 9538SOL     OW29512   6.879   1.301   4.315
 9538SOL    HW129513   6.901   1.284   4.411
 9538SOL    HW229514   6.849   1.396   4.305
 9539SOL     OW29515   2.388   4.565   6.046
 9539SOL    HW129516   2.471   4.557   5.991
 9539SOL    HW229517   2.348   4.474   6.059
 9540SOL     OW29518   4.669   4.596   5.372
 9540SOL    HW129519   4.759   4.560   5.346
 9540SOL    HW229520   4.675   4.695   5.386
 9541SOL     OW29521   1.595   1.932   5.034
 9541SOL    HW129522   1.653   1.972   5.104
 9541SOL    HW229523   1.580   1.835   5.053
 9542SOL     OW29524   4.868   3.303   5.041
 9542SOL    HW129525   4.840   3.398   5.058
 9542SOL    HW229526   4.813   3.266   4.966
 9543SOL     OW29527   4.652   0.707   4.577
 9543SOL    HW129528   4.564   0.670   4.607
 9543SOL    HW229529   4.686   0.772   4.646
 9544SOL     OW29530   5.711   6.991   2.058
 9544SOL    HW129531   5.612   7.001   2.068
 9544SOL    HW229532   5.734   6.894   2.058
 9545SOL     OW29533   6.537   6.280   3.304
 9545SOL    HW129534   6.466   6.224   3.347
 9545SOL    HW229535   6.496   6.361   3.263
 9546SOL     OW29536   3.118   3.857   6.466
 9546SOL    HW129537   3.115   3.870   6.367
 9546SOL    HW229538   3.213   3.856   6.496
 9547SOL     OW29539   2.095   6.122   4.017
 9547SOL    HW129540   2.114   6.139   3.921
 9547SOL    HW229541   2.174   6.150   4.072
 9548SOL     OW29542   6.235   5.111   4.796
 9548SOL    HW129543   6.300   5.147   4.729
 9548SOL    HW229544   6.286   5.064   4.869
 9549SOL     OW29545   3.645   5.525   0.965
 9549SOL    HW129546   3.597   5.536   1.052
 9549SOL    HW229547   3.625   5.603   0.906
 9550SOL     OW29548   0.219   1.448   0.201
 9550SOL    HW129549   0.121   1.426   0.196
 9550SOL    HW229550   0.246   1.495   0.117
 9551SOL     OW29551   0.274   0.129   4.934
 9551SOL    HW129552   0.342   0.190   4.975
 9551SOL    HW229553   0.183   0.155   4.963
 9552SOL     OW29554   1.188   6.712   3.265
 9552SOL    HW129555   1.249   6.787   3.240
 9552SOL    HW229556   1.152   6.727   3.357
 9553SOL     OW29557   6.146   4.731   6.864
 9553SOL    HW129558   6.122   4.808   6.923
 9553SOL    HW229559   6.063   4.693   6.823
 9554SOL     OW29560   2.887   0.491   1.964
 9554SOL    HW129561   2.857   0.428   1.893
 9554SOL    HW229562   2.950   0.444   2.026
 9555SOL     OW29563   6.388   2.280   1.330
 9555SOL    HW129564   6.433   2.191   1.327
 9555SOL    HW229565   6.424   2.334   1.406
 9556SOL     OW29566   2.732   1.584   1.421
 9556SOL    HW129567   2.670   1.617   1.350
 9556SOL    HW229568   2.693   1.504   1.465
 9557SOL     OW29569   6.540   0.545   2.862
 9557SOL    HW129570   6.560   0.565   2.958
 9557SOL    HW229571   6.625   0.550   2.809
 9558SOL     OW29572   0.227   4.899   3.166
 9558SOL    HW129573   0.200   4.957   3.243
 9558SOL    HW229574   0.301   4.838   3.194
 9559SOL     OW29575   0.658   3.709   1.969
 9559SOL    HW129576   0.752   3.744   1.966
 9559SOL    HW229577   0.654   3.631   2.032
 9560SOL     OW29578   2.433   1.407   2.793
 9560SOL    HW129579   2.507   1.474   2.786
 9560SOL    HW229580   2.465   1.327   2.843
 9561SOL     OW29581   3.282   6.246   0.999
 9561SOL    HW129582   3.184   6.241   1.017
 9561SOL    HW229583   3.330   6.272   1.082
 9562SOL     OW29584   4.196   5.628   3.756
 9562SOL    HW129585   4.118   5.687   3.777
 9562SOL    HW229586   4.197   5.608   3.658
 9563SOL     OW29587   6.984   6.657   6.638
 9563SOL    HW129588   0.022   6.662   6.559
 9563SOL    HW229589   7.010   6.580   6.696
 9564SOL     OW29590   2.691   6.729   6.320
 9564SOL    HW129591   2.753   6.803   6.295
 9564SOL    HW229592   2.628   6.711   6.245
 9565SOL     OW29593   3.601   5.890   4.389
 9565SOL    HW129594   3.542   5.828   4.337
 9565SOL    HW229595   3.659   5.838   4.451
 9566SOL     OW29596   3.433   4.729   6.463
 9566SOL    HW129597   3.440   4.693   6.370
 9566SOL    HW229598   3.450   4.657   6.529
 9567SOL     OW29599   5.825   6.010   6.255
 9567SOL    HW129600   5.766   5.940   6.214
 9567SOL    HW229601   5.791   6.101   6.230
 9568SOL     OW29602   5.188   3.804   6.530
 9568SOL    HW129603   5.269   3.846   6.488
 9568SOL    HW229604   5.111   3.868   6.523
 9569SOL     OW29605   6.623   1.390   0.258
 9569SOL    HW129606   6.564   1.353   0.186
 9569SOL    HW229607   6.567   1.418   0.336
 9570SOL     OW29608   0.118   1.516   0.735
 9570SOL    HW129609   0.166   1.574   0.800
 9570SOL    HW229610   0.177   1.441   0.706
 9571SOL     OW29611   2.429   4.014   0.324
 9571SOL    HW129612   2.497   3.992   0.394
 9571SOL    HW229613   2.445   4.106   0.289
 9572SOL     OW29614   1.022   4.546   0.826
 9572SOL    HW129615   0.981   4.631   0.791
 9572SOL    HW229616   1.048   4.488   0.750
 9573SOL     OW29617   0.849   1.222   6.499
 9573SOL    HW129618   0.873   1.130   6.530
 9573SOL    HW229619   0.751   1.238   6.516
 9574SOL     OW29620   3.773   3.573   5.757
 9574SOL    HW129621   3.685   3.596   5.715
 9574SOL    HW229622   3.843   3.636   5.723
 9575SOL     OW29623   5.533   0.745   1.862
 9575SOL    HW129624   5.597   0.709   1.930
 9575SOL    HW229625   5.554   0.841   1.844
 9576SOL     OW29626   3.105   1.388   4.332
 9576SOL    HW129627   3.066   1.467   4.286
 9576SOL    HW229628   3.066   1.304   4.294
 9577SOL     OW29629   6.906   6.893   2.486
 9577SOL    HW129630   7.003   6.883   2.466
 9577SOL    HW229631   6.884   6.989   2.504
 9578SOL     OW29632   5.957   2.751   2.312
 9578SOL    HW129633   5.923   2.836   2.353
 9578SOL    HW229634   5.972   2.765   2.214
 9579SOL     OW29635   1.671   0.085   1.494
 9579SOL    HW129636   1.597   0.031   1.454
 9579SOL    HW229637   1.748   0.024   1.516
 9580SOL     OW29638   4.749   3.699   0.405
 9580SOL    HW129639   4.833   3.649   0.387
 9580SOL    HW229640   4.671   3.649   0.366
 9581SOL     OW29641   1.322   5.065   5.958
 9581SOL    HW129642   1.375   5.000   5.903
 9581SOL    HW229643   1.236   5.086   5.911
 9582SOL     OW29644   4.045   5.001   4.417
 9582SOL    HW129645   3.951   5.032   4.401
 9582SOL    HW229646   4.069   4.930   4.351
 9583SOL     OW29647   2.188   3.772   1.985
 9583SOL    HW129648   2.103   3.810   1.949
 9583SOL    HW229649   2.191   3.674   1.969
 9584SOL     OW29650   6.217   5.114   6.644
 9584SOL    HW129651   6.134   5.157   6.608
 9584SOL    HW229652   6.239   5.033   6.590
 9585SOL     OW29653   5.986   6.918   2.640
 9585SOL    HW129654   6.074   6.926   2.593
 9585SOL    HW229655   5.994   6.956   2.733
 9586SOL     OW29656   5.378   2.920   3.382
 9586SOL    HW129657   5.299   2.941   3.439
 9586SOL    HW229658   5.386   2.989   3.310
 9587SOL     OW29659   5.926   0.163   1.808
 9587SOL    HW129660   5.910   0.192   1.902
 9587SOL    HW229661   5.838   0.145   1.763
 9588SOL     OW29662   0.043   0.744   1.509
 9588SOL    HW129663   0.049   0.837   1.474
 9588SOL    HW229664   7.008   0.689   1.449
 9589SOL     OW29665   2.176   6.551   5.503
 9589SOL    HW129666   2.108   6.482   5.527
 9589SOL    HW229667   2.254   6.508   5.457
 9590SOL     OW29668   0.468   3.950   3.001
 9590SOL    HW129669   0.536   3.990   2.940
 9590SOL    HW229670   0.379   3.947   2.955
 9591SOL     OW29671   2.486   6.328   1.215
 9591SOL    HW129672   2.422   6.264   1.259
 9591SOL    HW229673   2.487   6.414   1.265
 9592SOL     OW29674   4.454   5.403   2.662
 9592SOL    HW129675   4.366   5.388   2.617
 9592SOL    HW229676   4.440   5.404   2.761
 9593SOL     OW29677   6.466   2.862   4.586
 9593SOL    HW129678   6.507   2.856   4.495
 9593SOL    HW229679   6.402   2.939   4.589
 9594SOL     OW29680   6.783   6.439   2.482
 9594SOL    HW129681   6.688   6.438   2.453
 9594SOL    HW229682   6.795   6.373   2.557
 9595SOL     OW29683   1.586   5.563   4.149
 9595SOL    HW129684   1.623   5.471   4.133
 9595SOL    HW229685   1.660   5.625   4.173
 9596SOL     OW29686   6.444   5.933   5.349
 9596SOL    HW129687   6.521   5.978   5.394
 9596SOL    HW229688   6.358   5.970   5.384
 9597SOL     OW29689   0.761   4.473   1.663
 9597SOL    HW129690   0.695   4.547   1.656
 9597SOL    HW229691   0.780   4.454   1.759
 9598SOL     OW29692   6.939   4.366   6.552
 9598SOL    HW129693   6.969   4.461   6.561
 9598SOL    HW229694   6.928   4.343   6.455
 9599SOL     OW29695   3.709   0.279   5.410
 9599SOL    HW129696   3.672   0.196   5.453
 9599SOL    HW229697   3.756   0.254   5.325
 9600SOL     OW29698   1.053   0.248   5.539
 9600SOL    HW129699   1.037   0.274   5.634
 9600SOL    HW229700   1.110   0.166   5.536
 9601SOL     OW29701   0.544   4.642   5.967
 9601SOL    HW129702   0.515   4.587   6.045
 9601SOL    HW229703   0.595   4.584   5.903
 9602SOL     OW29704   0.456   4.763   6.600
 9602SOL    HW129705   0.512   4.832   6.553
 9602SOL    HW229706   0.387   4.809   6.656
 9603SOL     OW29707   1.881   5.813   4.138
 9603SOL    HW129708   1.939   5.798   4.218
 9603SOL    HW229709   1.852   5.908   4.136
 9604SOL     OW29710   4.528   1.308   6.685
 9604SOL    HW129711   4.505   1.301   6.782
 9604SOL    HW229712   4.618   1.267   6.670
 9605SOL     OW29713   2.010   5.591   6.054
 9605SOL    HW129714   2.078   5.556   5.989
 9605SOL    HW229715   1.950   5.656   6.008
 9606SOL     OW29716   0.221   6.009   3.516
 9606SOL    HW129717   0.256   5.996   3.608
 9606SOL    HW229718   0.121   6.002   3.517
 9607SOL     OW29719   0.969   1.496   2.617
 9607SOL    HW129720   0.990   1.528   2.525
 9607SOL    HW229721   1.045   1.441   2.652
 9608SOL     OW29722   0.284   0.308   2.661
 9608SOL    HW129723   0.268   0.403   2.637
 9608SOL    HW229724   0.204   0.253   2.636
 9609SOL     OW29725   2.288   4.289   4.807
 9609SOL    HW129726   2.226   4.253   4.737
 9609SOL    HW229727   2.311   4.217   4.872
 9610SOL     OW29728   2.169   1.865   6.106
 9610SOL    HW129729   2.129   1.862   6.197
 9610SOL    HW229730   2.112   1.813   6.042
 9611SOL     OW29731   6.582   0.850   0.979
 9611SOL    HW129732   6.666   0.883   1.022
 9611SOL    HW229733   6.509   0.847   1.048
 9612SOL     OW29734   5.854   3.253   1.212
 9612SOL    HW129735   5.814   3.171   1.252
 9612SOL    HW229736   5.804   3.334   1.242
 9613SOL     OW29737   6.483   6.477   5.100
 9613SOL    HW129738   6.511   6.450   5.192
 9613SOL    HW229739   6.559   6.520   5.053
 9614SOL     OW29740   3.595   3.727   2.007
 9614SOL    HW129741   3.534   3.668   2.060
 9614SOL    HW229742   3.687   3.689   2.006
 9615SOL     OW29743   0.967   6.266   2.602
 9615SOL    HW129744   0.938   6.217   2.520
 9615SOL    HW229745   1.024   6.205   2.658
 9616SOL     OW29746   3.262   2.239   0.794
 9616SOL    HW129747   3.328   2.174   0.831
 9616SOL    HW229748   3.247   2.219   0.697
 9617SOL     OW29749   1.364   2.984   3.674
 9617SOL    HW129750   1.331   2.922   3.745
 9617SOL    HW229751   1.295   3.053   3.655
 9618SOL     OW29752   3.913   6.318   6.166
 9618SOL    HW129753   3.816   6.299   6.181
 9618SOL    HW229754   3.939   6.402   6.214
 9619SOL     OW29755   2.319   6.021   0.238
 9619SOL    HW129756   2.262   5.989   0.163
 9619SOL    HW229757   2.263   6.034   0.320
 9620SOL     OW29758   3.432   0.776   6.965
 9620SOL    HW129759   3.515   0.724   6.978
 9620SOL    HW229760   3.352   0.718   6.983
 9621SOL     OW29761   0.485   1.041   2.519
 9621SOL    HW129762   0.550   1.029   2.444
 9621SOL    HW229763   0.472   1.138   2.538
 9622SOL     OW29764   5.524   0.606   6.756
 9622SOL    HW129765   5.598   0.672   6.764
 9622SOL    HW229766   5.559   0.522   6.713
 9623SOL     OW29767   4.885   5.746   6.243
 9623SOL    HW129768   4.855   5.731   6.337
 9623SOL    HW229769   4.809   5.781   6.189
 9624SOL     OW29770   4.564   5.888   5.042
 9624SOL    HW129771   4.576   5.957   4.970
 9624SOL    HW229772   4.510   5.928   5.116
 9625SOL     OW29773   5.291   4.344   6.593
 9625SOL    HW129774   5.260   4.353   6.687
 9625SOL    HW229775   5.213   4.320   6.535
 9626SOL     OW29776   1.956   4.493   5.822
 9626SOL    HW129777   2.056   4.486   5.817
 9626SOL    HW229778   1.931   4.587   5.847
 9627SOL     OW29779   1.406   5.243   6.449
 9627SOL    HW129780   1.385   5.194   6.364
 9627SOL    HW229781   1.332   5.226   6.515
 9628SOL     OW29782   5.711   3.975   6.668
 9628SOL    HW129783   5.708   3.979   6.768
 9628SOL    HW229784   5.639   4.034   6.630
 9629SOL     OW29785   0.268   6.061   2.562
 9629SOL    HW129786   0.272   6.150   2.608
 9629SOL    HW229787   0.350   6.009   2.585
 9630SOL     OW29788   6.456   6.507   5.719
 9630SOL    HW129789   6.428   6.411   5.724
 9630SOL    HW229790   6.544   6.513   5.670
 9631SOL     OW29791   4.174   1.052   0.804
 9631SOL    HW129792   4.267   1.030   0.832
 9631SOL    HW229793   4.127   1.100   0.878
 9632SOL     OW29794   3.289   5.666   1.095
 9632SOL    HW129795   3.248   5.656   1.004
 9632SOL    HW229796   3.260   5.590   1.153
 9633SOL     OW29797   3.800   2.930   2.203
 9633SOL    HW129798   3.756   2.870   2.136
 9633SOL    HW229799   3.899   2.932   2.186
 9634SOL     OW29800   5.309   4.824   2.962
 9634SOL    HW129801   5.304   4.790   2.869
 9634SOL    HW229802   5.405   4.842   2.986
 9635SOL     OW29803   1.161   3.998   4.290
 9635SOL    HW129804   1.234   4.054   4.330
 9635SOL    HW229805   1.144   3.919   4.348
 9636SOL     OW29806   4.586   2.142   5.429
 9636SOL    HW129807   4.504   2.103   5.470
 9636SOL    HW229808   4.644   2.181   5.500
 9637SOL     OW29809   2.099   2.912   0.743
 9637SOL    HW129810   2.115   2.969   0.823
 9637SOL    HW229811   2.016   2.942   0.697
 9638SOL     OW29812   0.572   4.009   6.343
 9638SOL    HW129813   0.604   3.918   6.318
 9638SOL    HW229814   0.475   4.017   6.319
 9639SOL     OW29815   4.588   2.035   1.710
 9639SOL    HW129816   4.683   2.049   1.738
 9639SOL    HW229817   4.586   2.008   1.613
 9640SOL     OW29818   4.089   1.060   2.512
 9640SOL    HW129819   4.123   1.131   2.573
 9640SOL    HW229820   4.088   1.093   2.418
 9641SOL     OW29821   5.728   4.901   2.466
 9641SOL    HW129822   5.657   4.834   2.441
 9641SOL    HW229823   5.684   4.988   2.489
 9642SOL     OW29824   1.553   0.332   3.663
 9642SOL    HW129825   1.528   0.311   3.758
 9642SOL    HW229826   1.474   0.316   3.604
 9643SOL     OW29827   5.009   3.530   4.220
 9643SOL    HW129828   4.981   3.586   4.142
 9643SOL    HW229829   5.037   3.439   4.187
 9644SOL     OW29830   1.305   6.205   5.160
 9644SOL    HW129831   1.377   6.137   5.149
 9644SOL    HW229832   1.266   6.227   5.071
 9645SOL     OW29833   1.548   5.464   6.479
 9645SOL    HW129834   1.494   5.380   6.477
 9645SOL    HW229835   1.629   5.450   6.536
 9646SOL     OW29836   2.811   6.570   4.889
 9646SOL    HW129837   2.829   6.472   4.879
 9646SOL    HW229838   2.794   6.610   4.799
 9647SOL     OW29839   6.186   6.357   3.598
 9647SOL    HW129840   6.255   6.319   3.659
 9647SOL    HW229841   6.113   6.290   3.583
 9648SOL     OW29842   5.056   2.036   1.515
 9648SOL    HW129843   5.052   2.135   1.500
 9648SOL    HW229844   5.097   1.992   1.435
 9649SOL     OW29845   2.265   3.462   0.439
 9649SOL    HW129846   2.346   3.502   0.395
 9649SOL    HW229847   2.202   3.536   0.464
 9650SOL     OW29848   6.206   4.562   4.146
 9650SOL    HW129849   6.172   4.589   4.236
 9650SOL    HW229850   6.257   4.476   4.154
 9651SOL     OW29851   2.796   1.419   6.987
 9651SOL    HW129852   2.714   1.398   0.018
 9651SOL    HW229853   2.770   1.467   6.904
 9652SOL     OW29854   0.383   4.096   0.917
 9652SOL    HW129855   0.426   4.159   0.853
 9652SOL    HW229856   0.446   4.023   0.940
 9653SOL     OW29857   4.494   4.155   6.197
 9653SOL    HW129858   4.521   4.067   6.156
 9653SOL    HW229859   4.532   4.230   6.143
 9654SOL     OW29860   4.119   3.259   3.665
 9654SOL    HW129861   4.215   3.277   3.688
 9654SOL    HW229862   4.098   3.297   3.575
 9655SOL     OW29863   6.011   0.607   1.588
 9655SOL    HW129864   6.015   0.635   1.684
 9655SOL    HW229865   5.931   0.549   1.574
 9656SOL     OW29866   5.723   3.568   0.853
 9656SOL    HW129867   5.662   3.489   0.862
 9656SOL    HW229868   5.772   3.562   0.766
 9657SOL     OW29869   5.415   3.661   3.354
 9657SOL    HW129870   5.457   3.749   3.332
 9657SOL    HW229871   5.480   3.606   3.407
 9658SOL     OW29872   4.416   1.657   2.702
 9658SOL    HW129873   4.393   1.747   2.739
 9658SOL    HW229874   4.515   1.651   2.687
 9659SOL     OW29875   3.798   2.607   0.932
 9659SOL    HW129876   3.717   2.634   0.983
 9659SOL    HW229877   3.828   2.517   0.964
 9660SOL     OW29878   0.591   6.142   0.665
 9660SOL    HW129879   0.663   6.194   0.710
 9660SOL    HW229880   0.622   6.048   0.651
 9661SOL     OW29881   5.131   5.051   1.515
 9661SOL    HW129882   5.121   5.015   1.422
 9661SOL    HW229883   5.124   5.151   1.513
 9662SOL     OW29884   5.636   4.956   0.134
 9662SOL    HW129885   5.674   4.865   0.150
 9662SOL    HW229886   5.568   4.978   0.204
 9663SOL     OW29887   1.016   4.464   3.561
 9663SOL    HW129888   0.957   4.457   3.480
 9663SOL    HW229889   0.964   4.507   3.635
 9664SOL     OW29890   5.245   3.665   3.570
 9664SOL    HW129891   5.204   3.754   3.591
 9664SOL    HW229892   5.296   3.671   3.485
 9665SOL     OW29893   6.739   6.917   6.188
 9665SOL    HW129894   6.793   6.965   6.119
 9665SOL    HW229895   6.641   6.928   6.169
 9666SOL     OW29896   6.444   4.643   1.232
 9666SOL    HW129897   6.422   4.556   1.189
 9666SOL    HW229898   6.531   4.634   1.281
 9667SOL     OW29899   4.264   5.477   0.680
 9667SOL    HW129900   4.321   5.539   0.625
 9667SOL    HW229901   4.298   5.383   0.669
 9668SOL     OW29902   1.170   6.578   5.648
 9668SOL    HW129903   1.257   6.627   5.658
 9668SOL    HW229904   1.163   6.542   5.555
 9669SOL     OW29905   2.660   0.083   1.073
 9669SOL    HW129906   2.593   0.118   1.139
 9669SOL    HW229907   2.732   0.034   1.122
 9670SOL     OW29908   0.698   0.581   6.084
 9670SOL    HW129909   0.671   0.496   6.131
 9670SOL    HW229910   0.754   0.558   6.004
 9671SOL     OW29911   0.987   4.942   6.733
 9671SOL    HW129912   0.966   4.961   6.829
 9671SOL    HW229913   0.914   4.886   6.693
 9672SOL     OW29914   0.421   4.126   3.477
 9672SOL    HW129915   0.460   4.050   3.528
 9672SOL    HW229916   0.450   4.121   3.382
 9673SOL     OW29917   3.336   4.353   1.637
 9673SOL    HW129918   3.399   4.319   1.567
 9673SOL    HW229919   3.246   4.367   1.596
 9674SOL     OW29920   3.494   6.726   2.652
 9674SOL    HW129921   3.468   6.762   2.741
 9674SOL    HW229922   3.573   6.777   2.617
 9675SOL     OW29923   5.039   3.875   0.903
 9675SOL    HW129924   4.959   3.901   0.958
 9675SOL    HW229925   5.112   3.843   0.963
 9676SOL     OW29926   1.191   2.449   6.280
 9676SOL    HW129927   1.240   2.389   6.216
 9676SOL    HW229928   1.229   2.541   6.275
 9677SOL     OW29929   6.048   5.255   0.182
 9677SOL    HW129930   6.096   5.292   0.261
 9677SOL    HW229931   5.978   5.191   0.212
 9678SOL     OW29932   3.203   3.657   4.402
 9678SOL    HW129933   3.199   3.633   4.499
 9678SOL    HW229934   3.122   3.711   4.377
 9679SOL     OW29935   2.877   1.988   4.370
 9679SOL    HW129936   2.851   1.913   4.310
 9679SOL    HW229937   2.806   2.000   4.441
 9680SOL     OW29938   5.038   6.527   4.514
 9680SOL    HW129939   4.950   6.491   4.485
 9680SOL    HW229940   5.059   6.610   4.463
 9681SOL     OW29941   2.386   1.234   1.271
 9681SOL    HW129942   2.404   1.175   1.193
 9681SOL    HW229943   2.298   1.209   1.312
 9682SOL     OW29944   5.306   5.269   4.426
 9682SOL    HW129945   5.325   5.342   4.491
 9682SOL    HW229946   5.375   5.271   4.353
 9683SOL     OW29947   1.737   6.447   1.018
 9683SOL    HW129948   1.665   6.506   0.981
 9683SOL    HW229949   1.697   6.381   1.081
 9684SOL     OW29950   0.994   3.945   5.417
 9684SOL    HW129951   0.969   3.930   5.321
 9684SOL    HW229952   1.053   3.870   5.448
 9685SOL     OW29953   4.515   3.596   0.751
 9685SOL    HW129954   4.594   3.608   0.690
 9685SOL    HW229955   4.493   3.499   0.758
 9686SOL     OW29956   6.874   2.159   6.788
 9686SOL    HW129957   6.918   2.226   6.848
 9686SOL    HW229958   6.945   2.107   6.739
 9687SOL     OW29959   6.358   6.766   1.208
 9687SOL    HW129960   6.277   6.798   1.158
 9687SOL    HW229961   6.440   6.789   1.156
 9688SOL     OW29962   1.378   4.876   0.868
 9688SOL    HW129963   1.456   4.818   0.890
 9688SOL    HW229964   1.370   4.886   0.769
 9689SOL     OW29965   1.011   5.623   6.229
 9689SOL    HW129966   1.004   5.548   6.163
 9689SOL    HW229967   0.968   5.705   6.190
 9690SOL     OW29968   4.641   5.407   4.919
 9690SOL    HW129969   4.688   5.459   4.848
 9690SOL    HW229970   4.547   5.440   4.928
 9691SOL     OW29971   3.626   4.131   2.171
 9691SOL    HW129972   3.624   4.079   2.256
 9691SOL    HW229973   3.618   4.229   2.191
 9692SOL     OW29974   4.688   5.232   0.103
 9692SOL    HW129975   4.652   5.217   0.195
 9692SOL    HW229976   4.765   5.170   0.088
 9693SOL     OW29977   5.887   3.883   4.189
 9693SOL    HW129978   5.844   3.849   4.273
 9693SOL    HW229979   5.969   3.934   4.212
 9694SOL     OW29980   2.661   0.011   1.983
 9694SOL    HW129981   2.658   6.950   1.930
 9694SOL    HW229982   2.621   0.086   1.929
 9695SOL     OW29983   0.051   3.828   3.135
 9695SOL    HW129984   0.077   3.917   3.173
 9695SOL    HW229985   0.120   3.760   3.159
 9696SOL     OW29986   6.214   1.328   3.227
 9696SOL    HW129987   6.138   1.384   3.193
 9696SOL    HW229988   6.276   1.306   3.151
 9697SOL     OW29989   6.955   5.863   0.218
 9697SOL    HW129990   7.017   5.789   0.189
 9697SOL    HW229991   6.923   5.913   0.137
 9698SOL     OW29992   5.856   3.430   6.600
 9698SOL    HW129993   5.757   3.426   6.588
 9698SOL    HW229994   5.900   3.376   6.528
 9699SOL     OW29995   0.978   5.405   0.083
 9699SOL    HW129996   1.070   5.409   0.121
 9699SOL    HW229997   0.981   5.424   7.008
 9700SOL     OW29998   6.341   6.590   3.945
 9700SOL    HW129999   6.400   6.511   3.962
 9700SOL    HW230000   6.246   6.563   3.958
 9701SOL     OW30001   4.867   3.099   6.628
 9701SOL    HW130002   4.941   3.042   6.591
 9701SOL    HW230003   4.849   3.175   6.566
 9702SOL     OW30004   3.512   2.817   0.352
 9702SOL    HW130005   3.578   2.891   0.344
 9702SOL    HW230006   3.540   2.756   0.426
 9703SOL     OW30007   6.342   4.027   4.451
 9703SOL    HW130008   6.367   4.049   4.545
 9703SOL    HW230009   6.416   3.975   4.409
 9704SOL     OW30010   3.293   4.940   2.890
 9704SOL    HW130011   3.215   4.984   2.846
 9704SOL    HW230012   3.274   4.927   2.987
 9705SOL     OW30013   6.236   4.229   5.315
 9705SOL    HW130014   6.234   4.244   5.216
 9705SOL    HW230015   6.217   4.315   5.362
 9706SOL     OW30016   1.456   1.979   1.895
 9706SOL    HW130017   1.518   1.907   1.924
 9706SOL    HW230018   1.501   2.068   1.903
 9707SOL     OW30019   5.643   4.792   1.799
 9707SOL    HW130020   5.545   4.811   1.798
 9707SOL    HW230021   5.683   4.829   1.883
 9708SOL     OW30022   1.739   1.385   2.108
 9708SOL    HW130023   1.836   1.408   2.119
 9708SOL    HW230024   1.683   1.465   2.132
 9709SOL     OW30025   5.614   3.305   2.204
 9709SOL    HW130026   5.585   3.214   2.175
 9709SOL    HW230027   5.562   3.374   2.154
 9710SOL     OW30028   6.400   0.064   6.627
 9710SOL    HW130029   6.456   0.049   6.545
 9710SOL    HW230030   6.450   0.123   6.691
 9711SOL     OW30031   4.126   6.277   5.862
 9711SOL    HW130032   4.080   6.352   5.815
 9711SOL    HW230033   4.207   6.312   5.909
 9712SOL     OW30034   6.164   2.978   1.035
 9712SOL    HW130035   6.079   2.972   0.982
 9712SOL    HW230036   6.241   2.946   0.980
 9713SOL     OW30037   2.403   6.334   3.136
 9713SOL    HW130038   2.352   6.420   3.138
 9713SOL    HW230039   2.366   6.274   3.066
 9714SOL     OW30040   4.001   5.464   4.759
 9714SOL    HW130041   3.971   5.378   4.716
 9714SOL    HW230042   4.036   5.444   4.851
 9715SOL     OW30043   6.401   4.875   1.083
 9715SOL    HW130044   6.452   4.874   0.997
 9715SOL    HW230045   6.414   4.788   1.131
 9716SOL     OW30046   3.817   4.289   6.864
 9716SOL    HW130047   3.904   4.252   6.832
 9716SOL    HW230048   3.816   4.290   6.964
 9717SOL     OW30049   4.688   6.615   6.216
 9717SOL    HW130050   4.709   6.563   6.133
 9717SOL    HW230051   4.771   6.628   6.270
 9718SOL     OW30052   3.999   1.742   0.559
 9718SOL    HW130053   3.955   1.831   0.550
 9718SOL    HW230054   4.096   1.751   0.539
 9719SOL     OW30055   5.303   6.602   5.518
 9719SOL    HW130056   5.299   6.608   5.618
 9719SOL    HW230057   5.283   6.691   5.478
 9720SOL     OW30058   1.480   3.795   2.735
 9720SOL    HW130059   1.573   3.828   2.748
 9720SOL    HW230060   1.482   3.696   2.716
 9721SOL     OW30061   0.524   1.563   0.735
 9721SOL    HW130062   0.605   1.619   0.718
 9721SOL    HW230063   0.473   1.552   0.650
 9722SOL     OW30064   3.683   2.225   5.369
 9722SOL    HW130065   3.585   2.231   5.390
 9722SOL    HW230066   3.720   2.317   5.356
 9723SOL     OW30067   5.855   4.809   4.767
 9723SOL    HW130068   5.868   4.882   4.834
 9723SOL    HW230069   5.839   4.723   4.815
 9724SOL     OW30070   2.111   5.261   6.650
 9724SOL    HW130071   2.024   5.243   6.605
 9724SOL    HW230072   2.099   5.330   6.721
 9725SOL     OW30073   3.799   5.857   4.797
 9725SOL    HW130074   3.729   5.796   4.759
 9725SOL    HW230075   3.854   5.807   4.864
 9726SOL     OW30076   5.053   0.889   4.140
 9726SOL    HW130077   4.982   0.958   4.134
 9726SOL    HW230078   5.013   0.798   4.129
 9727SOL     OW30079   0.830   2.617   7.010
 9727SOL    HW130080   0.914   2.661   6.977
 9727SOL    HW230081   0.783   2.573   6.933
 9728SOL     OW30082   6.194   1.466   6.064
 9728SOL    HW130083   6.265   1.403   6.097
 9728SOL    HW230084   6.105   1.421   6.067
 9729SOL     OW30085   1.631   3.864   4.118
 9729SOL    HW130086   1.619   3.948   4.065
 9729SOL    HW230087   1.721   3.825   4.098
 9730SOL     OW30088   0.773   4.206   4.271
 9730SOL    HW130089   0.731   4.152   4.198
 9730SOL    HW230090   0.867   4.231   4.244
 9731SOL     OW30091   5.027   4.684   1.975
 9731SOL    HW130092   4.961   4.609   1.970
 9731SOL    HW230093   5.115   4.653   1.941
 9732SOL     OW30094   0.693   3.303   1.939
 9732SOL    HW130095   0.756   3.246   1.993
 9732SOL    HW230096   0.601   3.298   1.979
 9733SOL     OW30097   6.156   5.549   2.066
 9733SOL    HW130098   6.113   5.639   2.060
 9733SOL    HW230099   6.255   5.558   2.055
 9734SOL     OW30100   6.507   6.881   0.028
 9734SOL    HW130101   6.587   6.895   6.994
 9734SOL    HW230102   6.426   6.871   6.994
 9735SOL     OW30103   1.527   2.426   3.527
 9735SOL    HW130104   1.502   2.523   3.533
 9735SOL    HW230105   1.593   2.404   3.599
 9736SOL     OW30106   4.841   1.892   6.023
 9736SOL    HW130107   4.814   1.895   6.120
 9736SOL    HW230108   4.830   1.983   5.983
 9737SOL     OW30109   5.799   2.433   2.788
 9737SOL    HW130110   5.872   2.442   2.720
 9737SOL    HW230111   5.827   2.371   2.861
 9738SOL     OW30112   2.270   6.819   0.686
 9738SOL    HW130113   2.182   6.841   0.644
 9738SOL    HW230114   2.278   6.720   0.698
 9739SOL     OW30115   4.544   6.001   6.769
 9739SOL    HW130116   4.481   5.928   6.743
 9739SOL    HW230117   4.559   6.061   6.691
 9740SOL     OW30118   5.684   0.434   2.246
 9740SOL    HW130119   5.605   0.438   2.185
 9740SOL    HW230120   5.658   0.393   2.333
 9741SOL     OW30121   2.816   0.942   3.838
 9741SOL    HW130122   2.910   0.916   3.862
 9741SOL    HW230123   2.759   0.861   3.834
 9742SOL     OW30124   4.265   1.079   6.861
 9742SOL    HW130125   4.195   1.091   6.931
 9742SOL    HW230126   4.352   1.117   6.893
 9743SOL     OW30127   0.511   3.455   3.512
 9743SOL    HW130128   0.561   3.383   3.464
 9743SOL    HW230129   0.557   3.476   3.598
 9744SOL     OW30130   2.364   6.799   2.557
 9744SOL    HW130131   2.347   6.737   2.634
 9744SOL    HW230132   2.314   6.885   2.572
 9745SOL     OW30133   5.234   2.237   6.273
 9745SOL    HW130134   5.204   2.166   6.209
 9745SOL    HW230135   5.331   2.223   6.294
 9746SOL     OW30136   5.015   6.788   6.890
 9746SOL    HW130137   5.015   6.858   6.819
 9746SOL    HW230138   4.980   6.702   6.851
 9747SOL     OW30139   2.467   1.983   1.355
 9747SOL    HW130140   2.487   2.062   1.412
 9747SOL    HW230141   2.433   1.908   1.411
 9748SOL     OW30142   0.214   0.689   3.131
 9748SOL    HW130143   0.228   0.776   3.082
 9748SOL    HW230144   0.246   0.614   3.073
 9749SOL     OW30145   0.390   2.185   2.121
 9749SOL    HW130146   0.351   2.203   2.211
 9749SOL    HW230147   0.336   2.115   2.075
 9750SOL     OW30148   5.982   4.470   4.022
 9750SOL    HW130149   6.048   4.527   4.072
 9750SOL    HW230150   5.948   4.521   3.942
 9751SOL     OW30151   2.468   0.409   1.113
 9751SOL    HW130152   2.450   0.435   1.018
 9751SOL    HW230153   2.562   0.435   1.137
 9752SOL     OW30154   4.062   2.422   6.883
 9752SOL    HW130155   4.150   2.450   6.843
 9752SOL    HW230156   3.999   2.500   6.881
 9753SOL     OW30157   0.844   5.449   5.832
 9753SOL    HW130158   0.762   5.408   5.873
 9753SOL    HW230159   0.836   5.447   5.733
 9754SOL     OW30160   3.817   0.082   0.572
 9754SOL    HW130161   3.817   7.016   0.527
 9754SOL    HW230162   3.880   0.081   0.650
 9755SOL     OW30163   3.054   4.067   5.246
 9755SOL    HW130164   3.096   4.066   5.155
 9755SOL    HW230165   3.033   4.162   5.272
 9756SOL     OW30166   5.424   1.928   6.270
 9756SOL    HW130167   5.518   1.894   6.274
 9756SOL    HW230168   5.366   1.868   6.325
 9757SOL     OW30169   5.214   4.863   4.094
 9757SOL    HW130170   5.309   4.844   4.120
 9757SOL    HW230171   5.165   4.904   4.171
 9758SOL     OW30172   0.955   1.292   0.021
 9758SOL    HW130173   1.036   1.345   0.046
 9758SOL    HW230174   0.970   1.247   6.957
 9759SOL     OW30175   0.835   1.485   0.427
 9759SOL    HW130176   0.926   1.460   0.460
 9759SOL    HW230177   0.836   1.579   0.393
 9760SOL     OW30178   5.097   2.512   6.912
 9760SOL    HW130179   5.031   2.571   6.957
 9760SOL    HW230180   5.190   2.547   6.929
 9761SOL     OW30181   1.280   1.456   1.974
 9761SOL    HW130182   1.258   1.364   1.940
 9761SOL    HW230183   1.327   1.507   1.902
 9762SOL     OW30184   3.257   1.713   4.667
 9762SOL    HW130185   3.312   1.716   4.751
 9762SOL    HW230186   3.318   1.698   4.589
 9763SOL     OW30187   6.153   1.032   2.903
 9763SOL    HW130188   6.161   0.952   2.963
 9763SOL    HW230189   6.074   1.022   2.844
 9764SOL     OW30190   6.366   2.214   2.962
 9764SOL    HW130191   6.442   2.271   2.992
 9764SOL    HW230192   6.401   2.137   2.908
 9765SOL     OW30193   6.314   1.266   2.708
 9765SOL    HW130194   6.284   1.171   2.707
 9765SOL    HW230195   6.338   1.295   2.615
 9766SOL     OW30196   1.909   0.112   3.353
 9766SOL    HW130197   1.840   0.079   3.289
 9766SOL    HW230198   1.981   0.043   3.362
 9767SOL     OW30199   2.021   2.803   4.909
 9767SOL    HW130200   2.042   2.895   4.874
 9767SOL    HW230201   2.100   2.768   4.959
 9768SOL     OW30202   5.520   2.241   0.773
 9768SOL    HW130203   5.496   2.338   0.769
 9768SOL    HW230204   5.574   2.223   0.856
 9769SOL     OW30205   3.641   0.562   5.017
 9769SOL    HW130206   3.676   0.582   5.108
 9769SOL    HW230207   3.672   0.632   4.953
 9770SOL     OW30208   3.618   1.914   5.369
 9770SOL    HW130209   3.592   1.901   5.274
 9770SOL    HW230210   3.709   1.876   5.384
 9771SOL     OW30211   2.308   7.010   1.622
 9771SOL    HW130212   2.335   6.998   1.717
 9771SOL    HW230213   2.255   6.930   1.592
 9772SOL     OW30214   1.907   6.672   1.920
 9772SOL    HW130215   1.891   6.664   2.019
 9772SOL    HW230216   1.923   6.581   1.882
 9773SOL     OW30217   5.543   5.020   3.658
 9773SOL    HW130218   5.552   5.035   3.560
 9773SOL    HW230219   5.484   4.941   3.674
 9774SOL     OW30220   0.866   4.499   3.845
 9774SOL    HW130221   0.771   4.530   3.839
 9774SOL    HW230222   0.885   4.466   3.937
 9775SOL     OW30223   2.781   0.522   3.072
 9775SOL    HW130224   2.812   0.593   3.135
 9775SOL    HW230225   2.681   0.514   3.077
 9776SOL     OW30226   1.381   4.619   5.886
 9776SOL    HW130227   1.435   4.560   5.945
 9776SOL    HW230228   1.336   4.689   5.942
 9777SOL     OW30229   5.046   6.232   6.946
 9777SOL    HW130230   5.083   6.308   6.998
 9777SOL    HW230231   4.951   6.252   6.921
 9778SOL     OW30232   0.317   2.164   4.740
 9778SOL    HW130233   0.394   2.226   4.727
 9778SOL    HW230234   0.348   2.080   4.784
 9779SOL     OW30235   0.801   2.676   3.797
 9779SOL    HW130236   0.784   2.672   3.699
 9779SOL    HW230237   0.877   2.616   3.820
 9780SOL     OW30238   1.926   1.439   1.152
 9780SOL    HW130239   1.830   1.424   1.126
 9780SOL    HW230240   1.958   1.525   1.112
 9781SOL     OW30241   2.135   3.497   4.595
 9781SOL    HW130242   2.081   3.480   4.677
 9781SOL    HW230243   2.175   3.412   4.562
 9782SOL     OW30244   0.457   1.948   0.810
 9782SOL    HW130245   0.474   1.959   0.908
 9782SOL    HW230246   0.512   1.872   0.775
 9783SOL     OW30247   4.492   1.849   3.520
 9783SOL    HW130248   4.531   1.832   3.429
 9783SOL    HW230249   4.502   1.766   3.575
 9784SOL     OW30250   3.569   1.111   6.240
 9784SOL    HW130251   3.481   1.120   6.193
 9784SOL    HW230252   3.606   1.019   6.226
 9785SOL     OW30253   6.099   2.493   5.301
 9785SOL    HW130254   6.152   2.468   5.219
 9785SOL    HW230255   6.139   2.449   5.381
 9786SOL     OW30256   2.637   4.281   0.530
 9786SOL    HW130257   2.663   4.376   0.512
 9786SOL    HW230258   2.631   4.266   0.629
 9787SOL     OW30259   3.927   3.693   4.393
 9787SOL    HW130260   3.926   3.771   4.330
 9787SOL    HW230261   3.970   3.614   4.348
 9788SOL     OW30262   1.456   6.090   2.012
 9788SOL    HW130263   1.377   6.104   1.953
 9788SOL    HW230264   1.499   6.002   1.990
 9789SOL     OW30265   2.790   0.102   0.280
 9789SOL    HW130266   2.771   0.110   0.182
 9789SOL    HW230267   2.742   0.023   0.317
 9790SOL     OW30268   6.521   4.289   6.330
 9790SOL    HW130269   6.486   4.381   6.346
 9790SOL    HW230270   6.451   4.221   6.351
 9791SOL     OW30271   0.697   0.269   0.154
 9791SOL    HW130272   0.797   0.264   0.155
 9791SOL    HW230273   0.661   0.238   0.241
 9792SOL     OW30274   4.112   5.232   1.099
 9792SOL    HW130275   4.138   5.166   1.029
 9792SOL    HW230276   4.051   5.300   1.059
 9793SOL     OW30277   4.072   0.044   1.845
 9793SOL    HW130278   4.161   0.073   1.882
 9793SOL    HW230279   4.087   6.999   1.774
 9794SOL     OW30280   5.384   3.981   4.963
 9794SOL    HW130281   5.481   3.989   4.943
 9794SOL    HW230282   5.333   3.958   4.880
 9795SOL     OW30283   1.124   3.181   4.179
 9795SOL    HW130284   1.125   3.237   4.262
 9795SOL    HW230285   1.199   3.114   4.183
 9796SOL     OW30286   3.701   4.030   3.696
 9796SOL    HW130287   3.767   3.979   3.640
 9796SOL    HW230288   3.626   3.970   3.722
 9797SOL     OW30289   2.386   6.268   0.260
 9797SOL    HW130290   2.372   6.169   0.266
 9797SOL    HW230291   2.320   6.307   0.196
 9798SOL     OW30292   2.019   1.681   1.072
 9798SOL    HW130293   2.046   1.731   1.155
 9798SOL    HW230294   2.099   1.666   1.014
 9799SOL     OW30295   3.392   4.127   6.189
 9799SOL    HW130296   3.346   4.073   6.119
 9799SOL    HW230297   3.457   4.070   6.239
 9800SOL     OW30298   5.641   3.903   4.036
 9800SOL    HW130299   5.589   3.986   4.055
 9800SOL    HW230300   5.698   3.880   4.115
 9801SOL     OW30301   5.137   4.857   0.358
 9801SOL    HW130302   5.196   4.811   0.292
 9801SOL    HW230303   5.190   4.926   0.408
 9802SOL     OW30304   4.248   4.814   0.451
 9802SOL    HW130305   4.179   4.829   0.521
 9802SOL    HW230306   4.260   4.716   0.435
 9803SOL     OW30307   1.734   3.516   6.517
 9803SOL    HW130308   1.826   3.477   6.513
 9803SOL    HW230309   1.676   3.472   6.449
 9804SOL     OW30310   0.207   6.043   3.051
 9804SOL    HW130311   0.250   5.986   3.122
 9804SOL    HW230312   0.143   6.106   3.094
 9805SOL     OW30313   1.231   0.067   3.180
 9805SOL    HW130314   1.217   0.035   3.274
 9805SOL    HW230315   1.318   0.115   3.174
 9806SOL     OW30316   2.732   2.591   6.108
 9806SOL    HW130317   2.821   2.560   6.075
 9806SOL    HW230318   2.678   2.626   6.032
 9807SOL     OW30319   3.108   2.983   2.283
 9807SOL    HW130320   3.102   2.934   2.196
 9807SOL    HW230321   3.183   2.946   2.337
 9808SOL     OW30322   3.807   5.615   3.937
 9808SOL    HW130323   3.877   5.567   3.991
 9808SOL    HW230324   3.718   5.574   3.955
 9809SOL     OW30325   1.292   3.461   0.398
 9809SOL    HW130326   1.359   3.534   0.381
 9809SOL    HW230327   1.323   3.377   0.354
 9810SOL     OW30328   3.022   2.083   4.984
 9810SOL    HW130329   3.067   2.013   4.929
 9810SOL    HW230330   3.076   2.167   4.982
 9811SOL     OW30331   5.833   3.919   3.565
 9811SOL    HW130332   5.831   3.878   3.656
 9811SOL    HW230333   5.806   4.015   3.571
 9812SOL     OW30334   3.414   0.584   4.375
 9812SOL    HW130335   3.473   0.632   4.311
 9812SOL    HW230336   3.365   0.651   4.432
 9813SOL     OW30337   5.793   2.202   0.902
 9813SOL    HW130338   5.823   2.153   0.984
 9813SOL    HW230339   5.818   2.298   0.909
 9814SOL     OW30340   5.056   1.200   6.689
 9814SOL    HW130341   5.106   1.114   6.678
 9814SOL    HW230342   5.120   1.272   6.717
 9815SOL     OW30343   5.122   2.448   4.318
 9815SOL    HW130344   5.098   2.510   4.243
 9815SOL    HW230345   5.165   2.500   4.391
 9816SOL     OW30346   1.155   0.566   6.422
 9816SOL    HW130347   1.230   0.521   6.375
 9816SOL    HW230348   1.191   0.634   6.486
 9817SOL     OW30349   0.636   6.879   3.337
 9817SOL    HW130350   0.632   6.792   3.386
 9817SOL    HW230351   0.547   6.924   3.343
 9818SOL     OW30352   6.290   2.063   4.913
 9818SOL    HW130353   6.389   2.074   4.915
 9818SOL    HW230354   6.265   1.989   4.851
 9819SOL     OW30355   4.565   2.492   3.173
 9819SOL    HW130356   4.611   2.577   3.201
 9819SOL    HW230357   4.633   2.420   3.160
 9820SOL     OW30358   3.478   3.162   6.573
 9820SOL    HW130359   3.548   3.208   6.518
 9820SOL    HW230360   3.502   3.171   6.670
 9821SOL     OW30361   5.493   0.484   6.445
 9821SOL    HW130362   5.467   0.578   6.466
 9821SOL    HW230363   5.557   0.451   6.514
 9822SOL     OW30364   0.765   7.016   2.905
 9822SOL    HW130365   0.782   0.011   3.002
 9822SOL    HW230366   0.797   6.925   2.882
 9823SOL     OW30367   3.604   0.063   1.581
 9823SOL    HW130368   3.645   0.155   1.576
 9823SOL    HW230369   3.550   0.046   1.498
 9824SOL     OW30370   2.258   4.039   5.972
 9824SOL    HW130371   2.211   3.951   5.986
 9824SOL    HW230372   2.248   4.067   5.877
 9825SOL     OW30373   3.165   5.556   5.134
 9825SOL    HW130374   3.204   5.647   5.116
 9825SOL    HW230375   3.172   5.535   5.231
 9826SOL     OW30376   4.527   5.640   5.945
 9826SOL    HW130377   4.596   5.708   5.921
 9826SOL    HW230378   4.448   5.685   5.986
 9827SOL     OW30379   2.382   4.322   4.395
 9827SOL    HW130380   2.361   4.327   4.297
 9827SOL    HW230381   2.343   4.237   4.433
 9828SOL     OW30382   2.961   2.861   6.812
 9828SOL    HW130383   2.944   2.763   6.801
 9828SOL    HW230384   3.058   2.880   6.799
 9829SOL     OW30385   2.930   6.664   0.919
 9829SOL    HW130386   2.949   6.733   0.849
 9829SOL    HW230387   2.834   6.668   0.946
 9830SOL     OW30388   5.530   2.441   1.754
 9830SOL    HW130389   5.468   2.518   1.746
 9830SOL    HW230390   5.519   2.398   1.844
 9831SOL     OW30391   1.687   6.186   0.855
 9831SOL    HW130392   1.671   6.232   0.942
 9831SOL    HW230393   1.674   6.251   0.780
 9832SOL     OW30394   5.111   5.170   2.328
 9832SOL    HW130395   5.198   5.138   2.289
 9832SOL    HW230396   5.126   5.256   2.376
 9833SOL     OW30397   3.293   3.037   4.890
 9833SOL    HW130398   3.305   2.983   4.974
 9833SOL    HW230399   3.196   3.046   4.870
 9834SOL     OW30400   2.932   3.658   5.890
 9834SOL    HW130401   2.895   3.725   5.954
 9834SOL    HW230402   2.898   3.567   5.915
 9835SOL     OW30403   3.851   2.381   5.651
 9835SOL    HW130404   3.755   2.373   5.675
 9835SOL    HW230405   3.873   2.478   5.635
 9836SOL     OW30406   6.144   4.332   3.686
 9836SOL    HW130407   6.241   4.318   3.668
 9836SOL    HW230408   6.130   4.346   3.784
 9837SOL     OW30409   2.164   0.207   2.529
 9837SOL    HW130410   2.202   0.202   2.437
 9837SOL    HW230411   2.077   0.256   2.527
 9838SOL     OW30412   0.783   6.966   6.111
 9838SOL    HW130413   0.752   6.999   6.200
 9838SOL    HW230414   0.705   6.958   6.049
 9839SOL     OW30415   5.908   1.228   3.004
 9839SOL    HW130416   5.910   1.296   3.077
 9839SOL    HW230417   5.999   1.219   2.964
 9840SOL     OW30418   0.449   1.025   1.351
 9840SOL    HW130419   0.480   0.938   1.389
 9840SOL    HW230420   0.468   1.027   1.253
 9841SOL     OW30421   1.013   4.837   4.861
 9841SOL    HW130422   1.052   4.748   4.836
 9841SOL    HW230423   1.071   4.882   4.929
 9842SOL     OW30424   3.454   4.150   3.606
 9842SOL    HW130425   3.425   4.122   3.515
 9842SOL    HW230426   3.551   4.131   3.618
 9843SOL     OW30427   6.481   1.873   1.899
 9843SOL    HW130428   6.463   1.873   1.800
 9843SOL    HW230429   6.394   1.877   1.948
 9844SOL     OW30430   5.288   0.330   2.424
 9844SOL    HW130431   5.310   0.315   2.520
 9844SOL    HW230432   5.276   0.428   2.407
 9845SOL     OW30433   2.620   1.523   4.636
 9845SOL    HW130434   2.628   1.586   4.713
 9845SOL    HW230435   2.711   1.485   4.614
 9846SOL     OW30436   3.901   3.246   2.427
 9846SOL    HW130437   3.815   3.197   2.442
 9846SOL    HW230438   3.946   3.209   2.346
 9847SOL     OW30439   3.633   2.844   5.515
 9847SOL    HW130440   3.684   2.910   5.571
 9847SOL    HW230441   3.637   2.754   5.557
 9848SOL     OW30442   3.296   2.469   6.348
 9848SOL    HW130443   3.226   2.532   6.383
 9848SOL    HW230444   3.313   2.397   6.415
 9849SOL     OW30445   5.989   0.455   0.314
 9849SOL    HW130446   5.984   0.541   0.365
 9849SOL    HW230447   5.985   0.473   0.216
 9850SOL     OW30448   5.738   6.212   2.718
 9850SOL    HW130449   5.696   6.176   2.801
 9850SOL    HW230450   5.770   6.305   2.734
 9851SOL     OW30451   4.698   2.221   5.668
 9851SOL    HW130452   4.792   2.186   5.670
 9851SOL    HW230453   4.641   2.165   5.729
 9852SOL     OW30454   4.403   1.998   3.198
 9852SOL    HW130455   4.471   1.930   3.223
 9852SOL    HW230456   4.440   2.090   3.213
 9853SOL     OW30457   4.803   4.066   3.420
 9853SOL    HW130458   4.855   4.151   3.412
 9853SOL    HW230459   4.866   3.989   3.426
 9854SOL     OW30460   6.613   5.217   5.004
 9854SOL    HW130461   6.626   5.204   4.906
 9854SOL    HW230462   6.550   5.292   5.020
 9855SOL     OW30463   2.343   4.277   2.181
 9855SOL    HW130464   2.323   4.183   2.152
 9855SOL    HW230465   2.268   4.337   2.153
 9856SOL     OW30466   5.144   4.025   0.151
 9856SOL    HW130467   5.199   4.095   0.197
 9856SOL    HW230468   5.052   4.060   0.134
 9857SOL     OW30469   4.313   1.975   4.326
 9857SOL    HW130470   4.378   1.984   4.251
 9857SOL    HW230471   4.284   2.067   4.356
 9858SOL     OW30472   0.058   1.209   1.427
 9858SOL    HW130473   6.993   1.255   1.424
 9858SOL    HW230474   0.130   1.273   1.401
 9859SOL     OW30475   6.163   0.115   1.074
 9859SOL    HW130476   6.065   0.128   1.054
 9859SOL    HW230477   6.179   0.128   1.171
 9860SOL     OW30478   6.939   1.004   2.778
 9860SOL    HW130479   6.983   1.027   2.691
 9860SOL    HW230480   6.904   0.910   2.773
 9861SOL     OW30481   2.881   0.029   3.051
 9861SOL    HW130482   2.855   6.991   2.978
 9861SOL    HW230483   2.902   0.119   3.013
 9862SOL     OW30484   2.600   4.730   0.603
 9862SOL    HW130485   2.580   4.764   0.512
 9862SOL    HW230486   2.606   4.807   0.667
 9863SOL     OW30487   2.871   0.240   3.279
 9863SOL    HW130488   2.933   0.175   3.322
 9863SOL    HW230489   2.900   0.258   3.185
 9864SOL     OW30490   3.859   6.077   4.009
 9864SOL    HW130491   3.831   5.984   4.033
 9864SOL    HW230492   3.946   6.098   4.052
 9865SOL     OW30493   1.453   1.324   3.990
 9865SOL    HW130494   1.391   1.246   3.989
 9865SOL    HW230495   1.524   1.310   4.059
 9866SOL     OW30496   5.624   4.215   5.023
 9866SOL    HW130497   5.669   4.270   4.953
 9866SOL    HW230498   5.525   4.220   5.011
 9867SOL     OW30499   6.135   0.514   1.189
 9867SOL    HW130500   6.039   0.485   1.184
 9867SOL    HW230501   6.151   0.588   1.124
 9868SOL     OW30502   1.420   4.156   5.512
 9868SOL    HW130503   1.336   4.198   5.477
 9868SOL    HW230504   1.408   4.057   5.517
 9869SOL     OW30505   1.854   3.480   2.367
 9869SOL    HW130506   1.889   3.541   2.439
 9869SOL    HW230507   1.884   3.514   2.278
 9870SOL     OW30508   4.419   5.757   2.581
 9870SOL    HW130509   4.503   5.734   2.532
 9870SOL    HW230510   4.347   5.692   2.555
 9871SOL     OW30511   1.103   6.840   5.417
 9871SOL    HW130512   1.141   6.755   5.454
 9871SOL    HW230513   1.100   6.834   5.317
 9872SOL     OW30514   3.191   5.125   4.119
 9872SOL    HW130515   3.184   5.062   4.197
 9872SOL    HW230516   3.225   5.214   4.150
 9873SOL     OW30517   2.880   2.103   1.264
 9873SOL    HW130518   2.793   2.086   1.216
 9873SOL    HW230519   2.946   2.142   1.200
 9874SOL     OW30520   0.943   3.641   4.158
 9874SOL    HW130521   0.856   3.625   4.113
 9874SOL    HW230522   0.956   3.739   4.172
 9875SOL     OW30523   0.029   6.776   2.179
 9875SOL    HW130524   0.057   6.755   2.086
 9875SOL    HW230525   0.007   6.692   2.228
 9876SOL     OW30526   6.390   0.587   2.533
 9876SOL    HW130527   6.454   0.621   2.464
 9876SOL    HW230528   6.402   0.638   2.618
 9877SOL     OW30529   0.299   5.929   3.264
 9877SOL    HW130530   0.283   5.975   3.351
 9877SOL    HW230531   0.302   5.830   3.279
 9878SOL     OW30532   2.843   5.541   4.708
 9878SOL    HW130533   2.911   5.614   4.710
 9878SOL    HW230534   2.818   5.515   4.801
 9879SOL     OW30535   5.885   5.469   4.086
 9879SOL    HW130536   5.953   5.398   4.104
 9879SOL    HW230537   5.854   5.463   3.992
 9880SOL     OW30538   2.689   1.629   5.481
 9880SOL    HW130539   2.596   1.664   5.484
 9880SOL    HW230540   2.744   1.674   5.551
 9881SOL     OW30541   2.047   1.045   4.937
 9881SOL    HW130542   2.096   0.966   4.902
 9881SOL    HW230543   1.991   1.018   5.016
 9882SOL     OW30544   1.050   2.180   4.255
 9882SOL    HW130545   1.000   2.212   4.336
 9882SOL    HW230546   1.142   2.218   4.256
 9883SOL     OW30547   1.932   5.311   0.198
 9883SOL    HW130548   1.902   5.332   0.290
 9883SOL    HW230549   1.874   5.360   0.132
 9884SOL     OW30550   4.041   1.746   3.183
 9884SOL    HW130551   3.996   1.658   3.198
 9884SOL    HW230552   4.018   1.809   3.257
 9885SOL     OW30553   6.790   3.152   5.503
 9885SOL    HW130554   6.869   3.126   5.559
 9885SOL    HW230555   6.765   3.247   5.521
 9886SOL     OW30556   0.808   4.198   1.340
 9886SOL    HW130557   0.825   4.125   1.406
 9886SOL    HW230558   0.853   4.174   1.253
 9887SOL     OW30559   3.689   0.418   6.167
 9887SOL    HW130560   3.693   0.356   6.088
 9887SOL    HW230561   3.596   0.455   6.175
 9888SOL     OW30562   6.222   4.154   1.972
 9888SOL    HW130563   6.235   4.235   1.916
 9888SOL    HW230564   6.311   4.114   1.995
 9889SOL     OW30565   0.305   5.420   1.608
 9889SOL    HW130566   0.212   5.441   1.640
 9889SOL    HW230567   0.360   5.388   1.685
 9890SOL     OW30568   1.821   1.706   0.608
 9890SOL    HW130569   1.811   1.805   0.611
 9890SOL    HW230570   1.790   1.667   0.695
 9891SOL     OW30571   5.329   2.911   1.768
 9891SOL    HW130572   5.347   2.980   1.837
 9891SOL    HW230573   5.352   2.946   1.677
 9892SOL     OW30574   6.894   5.094   0.642
 9892SOL    HW130575   6.948   5.112   0.559
 9892SOL    HW230576   6.902   5.172   0.704
 9893SOL     OW30577   1.196   0.020   1.193
 9893SOL    HW130578   1.172   7.013   1.285
 9893SOL    HW230579   1.163   6.977   1.126
 9894SOL     OW30580   2.538   2.862   1.769
 9894SOL    HW130581   2.449   2.887   1.807
 9894SOL    HW230582   2.561   2.924   1.693
 9895SOL     OW30583   6.850   3.680   5.094
 9895SOL    HW130584   6.943   3.708   5.068
 9895SOL    HW230585   6.850   3.649   5.189
 9896SOL     OW30586   6.040   0.549   0.023
 9896SOL    HW130587   6.095   0.624   0.062
 9896SOL    HW230588   6.101   0.475   7.018
 9897SOL     OW30589   6.022   5.820   3.087
 9897SOL    HW130590   6.008   5.827   3.186
 9897SOL    HW230591   6.025   5.724   3.060
 9898SOL     OW30592   1.348   5.755   4.294
 9898SOL    HW130593   1.269   5.776   4.352
 9898SOL    HW230594   1.371   5.658   4.305
 9899SOL     OW30595   0.997   5.884   6.905
 9899SOL    HW130596   1.006   5.867   7.003
 9899SOL    HW230597   1.071   5.944   6.875
 9900SOL     OW30598   1.802   3.611   3.702
 9900SOL    HW130599   1.711   3.649   3.715
 9900SOL    HW230600   1.818   3.596   3.604
 9901SOL     OW30601   3.063   0.707   6.158
 9901SOL    HW130602   2.999   0.644   6.114
 9901SOL    HW230603   3.153   0.698   6.115
 9902SOL     OW30604   3.377   4.916   0.706
 9902SOL    HW130605   3.370   4.931   0.804
 9902SOL    HW230606   3.415   4.997   0.662
 9903SOL     OW30607   5.198   1.469   2.383
 9903SOL    HW130608   5.222   1.482   2.287
 9903SOL    HW230609   5.144   1.546   2.415
 9904SOL     OW30610   1.099   4.240   6.750
 9904SOL    HW130611   1.154   4.220   6.669
 9904SOL    HW230612   1.059   4.331   6.741
 9905SOL     OW30613   2.325   0.233   6.131
 9905SOL    HW130614   2.240   0.279   6.157
 9905SOL    HW230615   2.396   0.253   6.198
 9906SOL     OW30616   2.600   3.469   1.719
 9906SOL    HW130617   2.524   3.481   1.783
 9906SOL    HW230618   2.633   3.375   1.724
 9907SOL     OW30619   6.607   0.503   1.296
 9907SOL    HW130620   6.513   0.536   1.309
 9907SOL    HW230621   6.620   0.475   1.201
 9908SOL     OW30622   5.586   1.888   5.016
 9908SOL    HW130623   5.543   1.833   4.944
 9908SOL    HW230624   5.667   1.840   5.050
 9909SOL     OW30625   4.190   0.922   3.478
 9909SOL    HW130626   4.154   0.834   3.509
 9909SOL    HW230627   4.226   0.912   3.385
 9910SOL     OW30628   1.521   4.407   2.976
 9910SOL    HW130629   1.493   4.446   2.888
 9910SOL    HW230630   1.493   4.468   3.050
 9911SOL     OW30631   3.123   5.808   2.424
 9911SOL    HW130632   3.118   5.901   2.387
 9911SOL    HW230633   3.155   5.745   2.354
 9912SOL     OW30634   4.278   0.515   1.326
 9912SOL    HW130635   4.278   0.598   1.270
 9912SOL    HW230636   4.345   0.451   1.290
 9913SOL     OW30637   6.042   4.028   1.459
 9913SOL    HW130638   6.008   4.121   1.470
 9913SOL    HW230639   5.974   3.963   1.495
 9914SOL     OW30640   5.569   1.449   4.511
 9914SOL    HW130641   5.505   1.384   4.552
 9914SOL    HW230642   5.549   1.541   4.545
 9915SOL     OW30643   4.871   0.366   3.702
 9915SOL    HW130644   4.809   0.410   3.637
 9915SOL    HW230645   4.923   0.435   3.751
 9916SOL     OW30646   2.274   2.808   3.049
 9916SOL    HW130647   2.213   2.736   3.017
 9916SOL    HW230648   2.235   2.897   3.025
 9917SOL     OW30649   5.471   4.243   6.890
 9917SOL    HW130650   5.404   4.257   6.962
 9917SOL    HW230651   5.510   4.332   6.863
 9918SOL     OW30652   3.489   1.481   3.040
 9918SOL    HW130653   3.398   1.510   3.069
 9918SOL    HW230654   3.548   1.561   3.030
 9919SOL     OW30655   6.861   5.202   1.641
 9919SOL    HW130656   6.830   5.107   1.647
 9919SOL    HW230657   6.949   5.205   1.592
 9920SOL     OW30658   4.652   1.487   2.209
 9920SOL    HW130659   4.722   1.465   2.278
 9920SOL    HW230660   4.677   1.571   2.162
 9921SOL     OW30661   4.255   6.910   5.400
 9921SOL    HW130662   4.278   6.897   5.497
 9921SOL    HW230663   4.267   7.007   5.376
 9922SOL     OW30664   2.868   4.077   0.548
 9922SOL    HW130665   2.900   4.169   0.572
 9922SOL    HW230666   2.777   4.084   0.506
 9923SOL     OW30667   5.263   4.740   6.470
 9923SOL    HW130668   5.229   4.833   6.460
 9923SOL    HW230669   5.224   4.699   6.552
 9924SOL     OW30670   6.584   1.792   4.794
 9924SOL    HW130671   6.639   1.817   4.715
 9924SOL    HW230672   6.487   1.803   4.771
 9925SOL     OW30673   6.942   3.144   4.382
 9925SOL    HW130674   6.923   3.145   4.284
 9925SOL    HW230675   6.980   3.232   4.409
 9926SOL     OW30676   4.117   2.288   0.711
 9926SOL    HW130677   4.035   2.236   0.733
 9926SOL    HW230678   4.105   2.333   0.622
 9927SOL     OW30679   0.119   6.834   0.294
 9927SOL    HW130680   0.114   6.831   0.394
 9927SOL    HW230681   0.037   6.791   0.255
 9928SOL     OW30682   4.895   4.207   2.730
 9928SOL    HW130683   4.895   4.138   2.658
 9928SOL    HW230684   4.989   4.224   2.760
 9929SOL     OW30685   3.035   4.496   5.603
 9929SOL    HW130686   3.065   4.543   5.686
 9929SOL    HW230687   2.936   4.487   5.604
 9930SOL     OW30688   6.674   6.270   4.973
 9930SOL    HW130689   6.680   6.278   5.073
 9930SOL    HW230690   6.578   6.272   4.946
 9931SOL     OW30691   0.305   5.718   4.054
 9931SOL    HW130692   0.374   5.727   3.982
 9931SOL    HW230693   0.350   5.699   4.141
 9932SOL     OW30694   3.146   3.876   6.932
 9932SOL    HW130695   3.055   3.918   6.926
 9932SOL    HW230696   3.168   3.859   0.005
 9933SOL     OW30697   6.999   5.713   3.649
 9933SOL    HW130698   0.020   5.739   3.735
 9933SOL    HW230699   0.038   5.656   3.596
 9934SOL     OW30700   6.153   2.366   5.881
 9934SOL    HW130701   6.087   2.291   5.881
 9934SOL    HW230702   6.241   2.333   5.847
 9935SOL     OW30703   2.533   6.460   6.854
 9935SOL    HW130704   2.482   6.530   6.802
 9935SOL    HW230705   2.624   6.450   6.814
 9936SOL     OW30706   6.728   5.306   6.640
 9936SOL    HW130707   6.827   5.315   6.629
 9936SOL    HW230708   6.692   5.246   6.569
 9937SOL     OW30709   6.518   1.526   1.095
 9937SOL    HW130710   6.490   1.596   1.161
 9937SOL    HW230711   6.442   1.462   1.082
 9938SOL     OW30712   6.764   4.911   2.641
 9938SOL    HW130713   6.800   4.838   2.699
 9938SOL    HW230714   6.670   4.889   2.614
 9939SOL     OW30715   4.319   2.227   0.900
 9939SOL    HW130716   4.274   2.264   0.818
 9939SOL    HW230717   4.325   2.298   0.969
 9940SOL     OW30718   1.125   0.523   1.392
 9940SOL    HW130719   1.053   0.521   1.462
 9940SOL    HW230720   1.157   0.430   1.375
 9941SOL     OW30721   3.029   3.662   5.342
 9941SOL    HW130722   3.056   3.661   5.438
 9941SOL    HW230723   3.110   3.672   5.285
 9942SOL     OW30724   2.543   5.491   2.417
 9942SOL    HW130725   2.579   5.401   2.441
 9942SOL    HW230726   2.448   5.483   2.387
 9943SOL     OW30727   0.250   4.204   5.603
 9943SOL    HW130728   0.343   4.237   5.588
 9943SOL    HW230729   0.201   4.200   5.516
 9944SOL     OW30730   1.583   4.568   6.536
 9944SOL    HW130731   1.509   4.522   6.585
 9944SOL    HW230732   1.612   4.648   6.588
 9945SOL     OW30733   5.917   5.680   6.478
 9945SOL    HW130734   5.994   5.717   6.426
 9945SOL    HW230735   5.833   5.689   6.424
 9946SOL     OW30736   5.039   1.039   3.691
 9946SOL    HW130737   5.101   0.995   3.756
 9946SOL    HW230738   5.083   1.121   3.654
 9947SOL     OW30739   1.818   2.232   4.788
 9947SOL    HW130740   1.862   2.148   4.820
 9947SOL    HW230741   1.809   2.295   4.865
 9948SOL     OW30742   5.995   4.114   4.518
 9948SOL    HW130743   5.925   4.145   4.454
 9948SOL    HW230744   6.019   4.019   4.500
 9949SOL     OW30745   6.530   4.618   4.526
 9949SOL    HW130746   6.452   4.678   4.545
 9949SOL    HW230747   6.615   4.666   4.550
 9950SOL     OW30748   5.693   5.845   5.134
 9950SOL    HW130749   5.716   5.930   5.088
 9950SOL    HW230750   5.601   5.815   5.106
 9951SOL     OW30751   0.186   0.678   4.597
 9951SOL    HW130752   0.259   0.728   4.643
 9951SOL    HW230753   0.098   0.710   4.630
 9952SOL     OW30754   1.096   3.918   0.848
 9952SOL    HW130755   0.999   3.892   0.841
 9952SOL    HW230756   1.119   3.978   0.771
 9953SOL     OW30757   5.696   2.806   4.871
 9953SOL    HW130758   5.729   2.900   4.870
 9953SOL    HW230759   5.624   2.795   4.803
 9954SOL     OW30760   6.522   1.116   6.494
 9954SOL    HW130761   6.541   1.184   6.565
 9954SOL    HW230762   6.601   1.055   6.485
 9955SOL     OW30763   6.516   3.592   5.573
 9955SOL    HW130764   6.439   3.589   5.637
 9955SOL    HW230765   6.480   3.600   5.480
 9956SOL     OW30766   1.527   6.901   2.588
 9956SOL    HW130767   1.458   6.851   2.535
 9956SOL    HW230768   1.491   6.918   2.680
 9957SOL     OW30769   4.993   5.843   2.514
 9957SOL    HW130770   4.968   5.939   2.525
 9957SOL    HW230771   5.060   5.819   2.584
 9958SOL     OW30772   3.416   5.413   0.291
 9958SOL    HW130773   3.390   5.505   0.265
 9958SOL    HW230774   3.509   5.394   0.258
 9959SOL     OW30775   4.145   3.717   5.163
 9959SOL    HW130776   4.103   3.703   5.073
 9959SOL    HW230777   4.149   3.815   5.182
 9960SOL     OW30778   6.939   0.417   1.816
 9960SOL    HW130779   6.959   0.370   1.902
 9960SOL    HW230780   7.022   0.462   1.782
 9961SOL     OW30781   1.282   4.989   4.522
 9961SOL    HW130782   1.350   4.920   4.498
 9961SOL    HW230783   1.297   5.019   4.616
 9962SOL     OW30784   6.452   6.373   2.736
 9962SOL    HW130785   6.380   6.314   2.771
 9962SOL    HW230786   6.446   6.377   2.636
 9963SOL     OW30787   2.781   3.299   6.605
 9963SOL    HW130788   2.864   3.244   6.613
 9963SOL    HW230789   2.750   3.298   6.510
 9964SOL     OW30790   5.326   4.640   5.604
 9964SOL    HW130791   5.368   4.598   5.524
 9964SOL    HW230792   5.241   4.592   5.626
 9965SOL     OW30793   3.787   6.420   5.934
 9965SOL    HW130794   3.786   6.505   5.987
 9965SOL    HW230795   3.818   6.345   5.992
 9966SOL     OW30796   1.826   5.881   1.712
 9966SOL    HW130797   1.862   5.795   1.675
 9966SOL    HW230798   1.888   5.956   1.689
 9967SOL     OW30799   0.326   0.174   2.302
 9967SOL    HW130800   0.271   0.258   2.294
 9967SOL    HW230801   0.389   0.168   2.224
 9968SOL     OW30802   3.323   4.022   1.128
 9968SOL    HW130803   3.257   3.964   1.176
 9968SOL    HW230804   3.273   4.092   1.077
 9969SOL     OW30805   1.718   3.076   2.708
 9969SOL    HW130806   1.794   3.091   2.645
 9969SOL    HW230807   1.632   3.102   2.664
 9970SOL     OW30808   5.143   4.072   2.597
 9970SOL    HW130809   5.160   3.974   2.607
 9970SOL    HW230810   5.088   4.088   2.515
 9971SOL     OW30811   2.378   5.496   1.612
 9971SOL    HW130812   2.299   5.496   1.552
 9971SOL    HW230813   2.462   5.503   1.557
 9972SOL     OW30814   4.655   5.137   1.629
 9972SOL    HW130815   4.560   5.123   1.657
 9972SOL    HW230816   4.660   5.214   1.566
 9973SOL     OW30817   5.075   2.034   4.048
 9973SOL    HW130818   5.096   2.088   3.966
 9973SOL    HW230819   4.982   1.999   4.041
 9974SOL     OW30820   0.544   3.048   2.818
 9974SOL    HW130821   0.625   2.991   2.807
 9974SOL    HW230822   0.567   3.143   2.801
 9975SOL     OW30823   6.205   4.455   6.917
 9975SOL    HW130824   6.295   4.422   6.886
 9975SOL    HW230825   6.193   4.550   6.887
 9976SOL     OW30826   0.515   6.394   5.603
 9976SOL    HW130827   0.516   6.372   5.700
 9976SOL    HW230828   0.491   6.313   5.550
 9977SOL     OW30829   0.030   5.105   5.533
 9977SOL    HW130830   0.003   5.069   5.444
 9977SOL    HW230831   0.066   5.031   5.590
 9978SOL     OW30832   0.110   2.275   4.430
 9978SOL    HW130833   0.039   2.231   4.486
 9978SOL    HW230834   0.184   2.210   4.413
 9979SOL     OW30835   6.402   5.090   5.449
 9979SOL    HW130836   6.412   4.999   5.407
 9979SOL    HW230837   6.443   5.159   5.389
 9980SOL     OW30838   1.673   0.817   5.747
 9980SOL    HW130839   1.688   0.914   5.727
 9980SOL    HW230840   1.674   0.804   5.847
 9981SOL     OW30841   2.373   1.814   2.368
 9981SOL    HW130842   2.438   1.836   2.440
 9981SOL    HW230843   2.423   1.782   2.287
 9982SOL     OW30844   6.476   6.508   4.384
 9982SOL    HW130845   6.507   6.544   4.296
 9982SOL    HW230846   6.376   6.498   4.382
 9983SOL     OW30847   6.565   2.424   2.891
 9983SOL    HW130848   6.658   2.391   2.873
 9983SOL    HW230849   6.510   2.415   2.808
 9984SOL     OW30850   2.084   0.689   6.792
 9984SOL    HW130851   2.051   0.754   6.861
 9984SOL    HW230852   2.012   0.623   6.772
 9985SOL     OW30853   1.192   1.169   0.798
 9985SOL    HW130854   1.129   1.170   0.720
 9985SOL    HW230855   1.259   1.242   0.788
 9986SOL     OW30856   5.487   4.073   5.830
 9986SOL    HW130857   5.562   4.054   5.894
 9986SOL    HW230858   5.408   4.108   5.880
 9987SOL     OW30859   0.130   3.475   4.132
 9987SOL    HW130860   0.166   3.409   4.066
 9987SOL    HW230861   0.167   3.565   4.114
 9988SOL     OW30862   6.492   5.728   4.176
 9988SOL    HW130863   6.481   5.743   4.275
 9988SOL    HW230864   6.523   5.813   4.133
 9989SOL     OW30865   6.255   3.617   3.493
 9989SOL    HW130866   6.177   3.675   3.468
 9989SOL    HW230867   6.334   3.641   3.437
 9990SOL     OW30868   2.460   5.200   1.756
 9990SOL    HW130869   2.489   5.222   1.663
 9990SOL    HW230870   2.441   5.284   1.806
 9991SOL     OW30871   2.109   2.120   3.443
 9991SOL    HW130872   2.175   2.195   3.437
 9991SOL    HW230873   2.101   2.075   3.354
 9992SOL     OW30874   5.690   5.366   0.035
 9992SOL    HW130875   5.749   5.410   0.103
 9992SOL    HW230876   5.740   5.355   6.973
 9993SOL     OW30877   2.699   0.981   0.628
 9993SOL    HW130878   2.655   0.897   0.597
 9993SOL    HW230879   2.770   0.960   0.695
 9994SOL     OW30880   5.750   4.283   3.376
 9994SOL    HW130881   5.682   4.212   3.357
 9994SOL    HW230882   5.838   4.240   3.396
 9995SOL     OW30883   4.940   0.984   2.978
 9995SOL    HW130884   5.028   1.020   2.947
 9995SOL    HW230885   4.904   1.042   3.051
 9996SOL     OW30886   3.006   3.220   1.081
 9996SOL    HW130887   3.069   3.262   1.015
 9996SOL    HW230888   2.915   3.260   1.072
 9997SOL     OW30889   3.581   1.733   6.959
 9997SOL    HW130890   3.661   1.673   6.958
 9997SOL    HW230891   3.537   1.731   6.869
 9998SOL     OW30892   5.910   4.509   6.082
 9998SOL    HW130893   5.910   4.609   6.091
 9998SOL    HW230894   6.000   4.474   6.110
 9999SOL     OW30895   6.361   3.317   5.669
 9999SOL    HW130896   6.288   3.386   5.671
 9999SOL    HW230897   6.360   3.264   5.754
10000SOL     OW30898   6.814   4.425   6.881
10000SOL    HW130899   6.845   4.332   6.900
10000SOL    HW230900   6.893   4.485   6.872
10001SOL     OW30901   4.906   6.680   1.929
10001SOL    HW130902   4.818   6.635   1.912
10001SOL    HW230903   4.895   6.749   2.001
10002SOL     OW30904   1.128   0.636   2.772
10002SOL    HW130905   1.121   0.712   2.836
10002SOL    HW230906   1.213   0.643   2.720
10003SOL     OW30907   3.881   1.530   3.314
10003SOL    HW130908   3.935   1.533   3.398
10003SOL    HW230909   3.784   1.528   3.336
10004SOL     OW30910   6.557   2.425   4.560
10004SOL    HW130911   6.612   2.465   4.487
10004SOL    HW230912   6.577   2.327   4.567
10005SOL     OW30913   5.507   0.483   4.804
10005SOL    HW130914   5.572   0.425   4.755
10005SOL    HW230915   5.480   0.559   4.744
10006SOL     OW30916   4.843   5.129   4.225
10006SOL    HW130917   4.766   5.130   4.289
10006SOL    HW230918   4.927   5.155   4.274
10007SOL     OW30919   6.631   4.554   5.766
10007SOL    HW130920   6.611   4.623   5.697
10007SOL    HW230921   6.599   4.465   5.735
10008SOL     OW30922   3.674   1.375   4.365
10008SOL    HW130923   3.578   1.371   4.339
10008SOL    HW230924   3.729   1.324   4.299
10009SOL     OW30925   1.961   3.869   1.875
10009SOL    HW130926   1.973   3.900   1.781
10009SOL    HW230927   1.887   3.921   1.918
10010SOL     OW30928   2.195   0.708   5.322
10010SOL    HW130929   2.248   0.639   5.272
10010SOL    HW230930   2.156   0.667   5.404
10011SOL     OW30931   5.908   0.897   5.669
10011SOL    HW130932   5.922   0.800   5.652
10011SOL    HW230933   5.868   0.909   5.760
10012SOL     OW30934   5.545   1.452   3.390
10012SOL    HW130935   5.503   1.370   3.352
10012SOL    HW230936   5.550   1.523   3.319
10013SOL     OW30937   0.193   1.317   3.371
10013SOL    HW130938   0.122   1.281   3.310
10013SOL    HW230939   0.221   1.245   3.434
10014SOL     OW30940   6.723   4.111   0.735
10014SOL    HW130941   6.764   4.026   0.703
10014SOL    HW230942   6.789   4.161   0.791
10015SOL     OW30943   2.294   5.019   0.503
10015SOL    HW130944   2.221   4.989   0.440
10015SOL    HW230945   2.253   5.069   0.579
10016SOL     OW30946   1.345   1.068   6.130
10016SOL    HW130947   1.390   1.158   6.129
10016SOL    HW230948   1.290   1.059   6.213
10017SOL     OW30949   2.812   1.765   3.115
10017SOL    HW130950   2.774   1.854   3.088
10017SOL    HW230951   2.741   1.696   3.109
10018SOL     OW30952   4.680   0.453   6.161
10018SOL    HW130953   4.682   0.502   6.248
10018SOL    HW230954   4.752   0.487   6.102
10019SOL     OW30955   0.191   1.574   2.966
10019SOL    HW130956   0.206   1.478   2.992
10019SOL    HW230957   0.246   1.595   2.885
10020SOL     OW30958   1.829   2.254   1.047
10020SOL    HW130959   1.902   2.238   1.114
10020SOL    HW230960   1.816   2.171   0.993
10021SOL     OW30961   0.620   2.248   1.339
10021SOL    HW130962   0.527   2.215   1.322
10021SOL    HW230963   0.623   2.293   1.429
10022SOL     OW30964   2.485   1.454   5.760
10022SOL    HW130965   2.420   1.436   5.834
10022SOL    HW230966   2.575   1.472   5.799
10023SOL     OW30967   0.053   4.993   1.032
10023SOL    HW130968   7.023   4.919   0.991
10023SOL    HW230969   0.048   4.988   1.131
10024SOL     OW30970   1.872   6.358   2.402
10024SOL    HW130971   1.860   6.455   2.423
10024SOL    HW230972   1.843   6.303   2.480
10025SOL     OW30973   1.245   0.807   0.344
10025SOL    HW130974   1.192   0.768   0.419
10025SOL    HW230975   1.305   0.737   0.304
10026SOL     OW30976   4.774   6.454   3.836
10026SOL    HW130977   4.869   6.430   3.818
10026SOL    HW230978   4.758   6.550   3.812
10027SOL     OW30979   6.837   3.882   4.092
10027SOL    HW130980   6.756   3.863   4.037
10027SOL    HW230981   6.913   3.909   4.033
10028SOL     OW30982   1.201   0.397   2.197
10028SOL    HW130983   1.300   0.405   2.190
10028SOL    HW230984   1.172   0.421   2.290
10029SOL     OW30985   4.772   1.725   4.802
10029SOL    HW130986   4.728   1.813   4.782
10029SOL    HW230987   4.701   1.656   4.818
10030SOL     OW30988   1.948   0.733   3.297
10030SOL    HW130989   1.880   0.690   3.356
10030SOL    HW230990   1.905   0.807   3.245
10031SOL     OW30991   5.383   4.284   4.691
10031SOL    HW130992   5.354   4.198   4.733
10031SOL    HW230993   5.412   4.348   4.763
10032SOL     OW30994   3.217   0.791   5.216
10032SOL    HW130995   3.269   0.706   5.216
10032SOL    HW230996   3.122   0.772   5.192
10033SOL     OW30997   6.772   2.916   4.658
10033SOL    HW130998   6.795   2.869   4.573
10033SOL    HW230999   6.718   2.997   4.638
10034SOL     OW31000   3.809   7.021   4.373
10034SOL    HW131001   3.790   6.936   4.422
10034SOL    HW231002   3.761   0.073   4.417
10035SOL     OW31003   6.775   5.429   1.533
10035SOL    HW131004   6.781   5.336   1.570
10035SOL    HW231005   6.680   5.449   1.509
10036SOL     OW31006   6.263   2.303   0.915
10036SOL    HW131007   6.351   2.267   0.886
10036SOL    HW231008   6.192   2.274   0.852
10037SOL     OW31009   6.978   1.684   6.688
10037SOL    HW131010   6.894   1.735   6.672
10037SOL    HW231011   0.022   1.708   6.618
10038SOL     OW31012   6.056   6.907   0.222
10038SOL    HW131013   6.119   6.830   0.213
10038SOL    HW231014   6.051   6.934   0.318
10039SOL     OW31015   3.558   0.774   3.434
10039SOL    HW131016   3.651   0.805   3.414
10039SOL    HW231017   3.544   0.683   3.395
10040SOL     OW31018   5.554   4.967   6.707
10040SOL    HW131019   5.645   5.000   6.682
10040SOL    HW231020   5.530   4.999   6.798
10041SOL     OW31021   3.505   6.166   6.835
10041SOL    HW131022   3.493   6.254   6.882
10041SOL    HW231023   3.535   6.097   6.901
10042SOL     OW31024   6.948   1.646   3.885
10042SOL    HW131025   0.013   1.640   3.933
10042SOL    HW231026   6.964   1.663   3.788
10043SOL     OW31027   6.462   1.720   5.161
10043SOL    HW131028   6.405   1.639   5.145
10043SOL    HW231029   6.407   1.802   5.148
10044SOL     OW31030   2.178   2.968   5.592
10044SOL    HW131031   2.229   3.022   5.658
10044SOL    HW231032   2.231   2.960   5.507
10045SOL     OW31033   4.201   0.696   1.104
10045SOL    HW131034   4.138   0.771   1.127
10045SOL    HW231035   4.176   0.657   1.015
10046SOL     OW31036   2.101   3.885   1.228
10046SOL    HW131037   2.072   3.925   1.141
10046SOL    HW231038   2.110   3.957   1.296
10047SOL     OW31039   0.791   3.200   6.158
10047SOL    HW131040   0.850   3.176   6.236
10047SOL    HW231041   0.799   3.298   6.140
10048SOL     OW31042   6.869   6.563   3.278
10048SOL    HW131043   6.859   6.611   3.191
10048SOL    HW231044   6.783   6.567   3.328
10049SOL     OW31045   0.753   1.779   5.989
10049SOL    HW131046   0.809   1.752   5.910
10049SOL    HW231047   0.805   1.843   6.046
10050SOL     OW31048   5.030   3.604   5.376
10050SOL    HW131049   4.989   3.648   5.456
10050SOL    HW231050   5.128   3.624   5.373
10051SOL     OW31051   0.600   4.169   5.068
10051SOL    HW131052   0.519   4.139   5.120
10051SOL    HW231053   0.571   4.205   4.980
10052SOL     OW31054   1.328   1.163   3.250
10052SOL    HW131055   1.285   1.203   3.169
10052SOL    HW231056   1.315   1.224   3.328
10053SOL     OW31057   4.910   4.960   3.927
10053SOL    HW131058   4.979   4.891   3.949
10053SOL    HW231059   4.841   4.919   3.868
10054SOL     OW31060   5.457   4.429   4.904
10054SOL    HW131061   5.430   4.521   4.876
10054SOL    HW231062   5.396   4.396   4.977
10055SOL     OW31063   6.719   2.768   6.830
10055SOL    HW131064   6.624   2.755   6.800
10055SOL    HW231065   6.722   2.778   6.929
10056SOL     OW31066   5.323   3.401   3.015
10056SOL    HW131067   5.385   3.479   3.007
10056SOL    HW231068   5.289   3.377   2.924
10057SOL     OW31069   5.832   3.795   5.734
10057SOL    HW131070   5.878   3.839   5.657
10057SOL    HW231071   5.900   3.753   5.794
10058SOL     OW31072   6.842   2.963   4.085
10058SOL    HW131073   6.925   2.938   4.135
10058SOL    HW231074   6.834   3.063   4.081
10059SOL     OW31075   5.886   1.420   0.926
10059SOL    HW131076   5.837   1.373   0.999
10059SOL    HW231077   5.904   1.355   0.851
10060SOL     OW31078   2.633   1.599   2.766
10060SOL    HW131079   2.676   1.610   2.676
10060SOL    HW231080   2.614   1.689   2.805
10061SOL     OW31081   4.116   1.304   3.662
10061SOL    HW131082   4.186   1.333   3.728
10061SOL    HW231083   4.062   1.384   3.634
10062SOL     OW31084   0.355   6.931   3.917
10062SOL    HW131085   0.266   6.911   3.876
10062SOL    HW231086   0.371   0.006   3.915
10063SOL     OW31087   2.277   2.188   4.400
10063SOL    HW131088   2.186   2.208   4.436
10063SOL    HW231089   2.337   2.267   4.415
10064SOL     OW31090   3.717   6.135   0.164
10064SOL    HW131091   3.664   6.183   0.234
10064SOL    HW231092   3.771   6.201   0.111
10065SOL     OW31093   1.495   0.678   1.304
10065SOL    HW131094   1.447   0.696   1.389
10065SOL    HW231095   1.594   0.678   1.320
10066SOL     OW31096   0.077   3.321   4.866
10066SOL    HW131097   0.094   3.290   4.960
10066SOL    HW231098   0.127   3.405   4.849
10067SOL     OW31099   0.717   2.864   6.775
10067SOL    HW131100   0.618   2.876   6.761
10067SOL    HW231101   0.760   2.843   6.687
10068SOL     OW31102   1.790   3.602   2.710
10068SOL    HW131103   1.721   3.547   2.664
10068SOL    HW231104   1.753   3.693   2.730
10069SOL     OW31105   3.729   5.122   1.914
10069SOL    HW131106   3.658   5.159   1.974
10069SOL    HW231107   3.804   5.188   1.906
10070SOL     OW31108   2.709   5.940   4.294
10070SOL    HW131109   2.739   5.865   4.352
10070SOL    HW231110   2.652   5.905   4.219
10071SOL     OW31111   0.239   6.316   4.005
10071SOL    HW131112   0.297   6.398   4.002
10071SOL    HW231113   0.177   6.316   3.927
10072SOL     OW31114   6.908   1.379   2.695
10072SOL    HW131115   6.821   1.335   2.675
10072SOL    HW231116   6.983   1.314   2.684
10073SOL     OW31117   6.041   2.793   3.678
10073SOL    HW131118   6.050   2.812   3.775
10073SOL    HW231119   6.118   2.737   3.647
10074SOL     OW31120   1.824   5.044   0.464
10074SOL    HW131121   1.904   5.039   0.403
10074SOL    HW231122   1.741   5.040   0.410
10075SOL     OW31123   1.912   1.477   2.434
10075SOL    HW131124   1.842   1.499   2.502
10075SOL    HW231125   1.975   1.409   2.470
10076SOL     OW31126   4.763   5.433   3.184
10076SOL    HW131127   4.790   5.337   3.193
10076SOL    HW231128   4.834   5.491   3.222
10077SOL     OW31129   6.460   3.555   0.284
10077SOL    HW131130   6.439   3.653   0.283
10077SOL    HW231131   6.557   3.541   0.265
10078SOL     OW31132   6.964   6.282   5.068
10078SOL    HW131133   6.930   6.223   4.996
10078SOL    HW231134   0.025   6.326   5.038
10079SOL     OW31135   5.561   2.734   3.195
10079SOL    HW131136   5.616   2.669   3.247
10079SOL    HW231137   5.539   2.813   3.253
10080SOL     OW31138   5.458   0.883   6.170
10080SOL    HW131139   5.458   0.982   6.182
10080SOL    HW231140   5.423   0.861   6.079
10081SOL     OW31141   1.520   1.581   6.583
10081SOL    HW131142   1.569   1.667   6.568
10081SOL    HW231143   1.547   1.541   6.670
10082SOL     OW31144   1.434   4.861   2.696
10082SOL    HW131145   1.349   4.889   2.741
10082SOL    HW231146   1.432   4.890   2.600
10083SOL     OW31147   3.552   5.029   4.065
10083SOL    HW131148   3.529   4.976   4.147
10083SOL    HW231149   3.646   5.008   4.037
10084SOL     OW31150   0.899   0.366   5.378
10084SOL    HW131151   0.952   0.315   5.446
10084SOL    HW231152   0.882   0.458   5.411
10085SOL     OW31153   4.000   6.853   6.999
10085SOL    HW131154   3.939   6.912   0.028
10085SOL    HW231155   4.068   6.910   6.952
10086SOL     OW31156   6.715   6.567   2.080
10086SOL    HW131157   6.617   6.546   2.084
10086SOL    HW231158   6.746   6.597   2.170
10087SOL     OW31159   0.696   6.622   4.025
10087SOL    HW131160   0.749   6.692   4.073
10087SOL    HW231161   0.655   6.560   4.092
10088SOL     OW31162   0.406   2.746   0.047
10088SOL    HW131163   0.325   2.797   0.019
10088SOL    HW231164   0.386   2.696   0.132
10089SOL     OW31165   4.292   2.091   2.164
10089SOL    HW131166   4.214   2.153   2.175
10089SOL    HW231167   4.264   1.997   2.187
10090SOL     OW31168   0.997   5.074   1.333
10090SOL    HW131169   0.973   4.984   1.296
10090SOL    HW231170   1.073   5.112   1.281
10091SOL     OW31171   6.584   5.183   6.138
10091SOL    HW131172   6.632   5.134   6.066
10091SOL    HW231173   6.581   5.281   6.116
10092SOL     OW31174   0.722   2.956   5.495
10092SOL    HW131175   0.772   2.999   5.420
10092SOL    HW231176   0.654   2.893   5.457
10093SOL     OW31177   5.573   3.730   5.694
10093SOL    HW131178   5.534   3.788   5.622
10093SOL    HW231179   5.664   3.763   5.717
10094SOL     OW31180   3.181   0.230   1.141
10094SOL    HW131181   3.260   0.176   1.170
10094SOL    HW231182   3.199   0.273   1.053
10095SOL     OW31183   5.142   2.448   5.323
10095SOL    HW131184   5.059   2.463   5.270
10095SOL    HW231185   5.210   2.517   5.300
10096SOL     OW31186   4.846   1.019   2.600
10096SOL    HW131187   4.891   1.085   2.660
10096SOL    HW231188   4.913   0.954   2.565
10097SOL     OW31189   1.611   1.364   5.834
10097SOL    HW131190   1.519   1.392   5.862
10097SOL    HW231191   1.676   1.436   5.857
10098SOL     OW31192   3.164   5.776   4.459
10098SOL    HW131193   3.098   5.761   4.386
10098SOL    HW231194   3.179   5.874   4.470
10099SOL     OW31195   6.866   4.297   1.953
10099SOL    HW131196   6.818   4.373   1.998
10099SOL    HW231197   6.912   4.241   2.022
10100SOL     OW31198   5.328   5.200   5.222
10100SOL    HW131199   5.377   5.165   5.301
10100SOL    HW231200   5.258   5.264   5.251
10101SOL     OW31201   1.143   2.336   1.565
10101SOL    HW131202   1.216   2.293   1.619
10101SOL    HW231203   1.128   2.283   1.482
10102SOL     OW31204   5.976   6.561   0.821
10102SOL    HW131205   5.958   6.566   0.722
10102SOL    HW231206   6.066   6.600   0.841
10103SOL     OW31207   0.350   0.129   5.626
10103SOL    HW131208   0.405   0.126   5.543
10103SOL    HW231209   0.408   0.111   5.706
10104SOL     OW31210   2.516   0.521   5.872
10104SOL    HW131211   2.547   0.529   5.967
10104SOL    HW231212   2.572   0.452   5.826
10105SOL     OW31213   3.129   1.223   5.777
10105SOL    HW131214   3.160   1.301   5.722
10105SOL    HW231215   3.115   1.144   5.717
10106SOL     OW31216   5.033   6.111   1.286
10106SOL    HW131217   5.043   6.013   1.302
10106SOL    HW231218   5.116   6.146   1.243
10107SOL     OW31219   5.423   4.459   6.364
10107SOL    HW131220   5.404   4.427   6.456
10107SOL    HW231221   5.345   4.513   6.331
10108SOL     OW31222   1.460   3.218   0.776
10108SOL    HW131223   1.454   3.178   0.684
10108SOL    HW231224   1.401   3.167   0.838
10109SOL     OW31225   0.657   1.384   0.233
10109SOL    HW131226   0.598   1.307   0.257
10109SOL    HW231227   0.741   1.380   0.286
10110SOL     OW31228   4.825   5.659   2.788
10110SOL    HW131229   4.827   5.749   2.831
10110SOL    HW231230   4.740   5.612   2.813
10111SOL     OW31231   1.268   1.937   2.132
10111SOL    HW131232   1.316   1.981   2.056
10111SOL    HW231233   1.288   1.839   2.131
10112SOL     OW31234   6.269   2.630   3.512
10112SOL    HW131235   6.368   2.644   3.500
10112SOL    HW231236   6.236   2.567   3.442
10113SOL     OW31237   4.765   1.222   6.570
10113SOL    HW131238   4.774   1.134   6.616
10113SOL    HW231239   4.848   1.276   6.585
10114SOL     OW31240   4.225   1.696   2.987
10114SOL    HW131241   4.250   1.782   2.943
10114SOL    HW231242   4.177   1.714   3.072
10115SOL     OW31243   3.458   1.551   5.252
10115SOL    HW131244   3.377   1.544   5.310
10115SOL    HW231245   3.537   1.513   5.300
10116SOL     OW31246   6.493   0.534   5.056
10116SOL    HW131247   6.399   0.545   5.024
10116SOL    HW231248   6.555   0.525   4.978
10117SOL     OW31249   6.114   5.408   4.545
10117SOL    HW131250   6.146   5.385   4.637
10117SOL    HW231251   6.035   5.468   4.552
10118SOL     OW31252   3.141   4.889   5.089
10118SOL    HW131253   3.150   4.934   5.178
10118SOL    HW231254   3.045   4.884   5.063
10119SOL     OW31255   0.027   5.193   4.547
10119SOL    HW131256   6.968   5.182   4.491
10119SOL    HW231257   0.061   5.103   4.576
10120SOL     OW31258   1.802   3.060   2.125
10120SOL    HW131259   1.751   3.146   2.117
10120SOL    HW231260   1.899   3.077   2.107
10121SOL     OW31261   6.120   4.537   0.804
10121SOL    HW131262   6.106   4.443   0.836
10121SOL    HW231263   6.125   4.598   0.883
10122SOL     OW31264   0.426   1.795   3.531
10122SOL    HW131265   0.480   1.712   3.532
10122SOL    HW231266   0.364   1.796   3.610
10123SOL     OW31267   5.640   6.233   1.201
10123SOL    HW131268   5.723   6.232   1.146
10123SOL    HW231269   5.605   6.326   1.208
10124SOL     OW31270   0.871   4.508   2.727
10124SOL    HW131271   0.940   4.549   2.788
10124SOL    HW231272   0.788   4.488   2.779
10125SOL     OW31273   1.258   2.354   6.941
10125SOL    HW131274   1.334   2.290   6.947
10125SOL    HW231275   1.291   2.447   6.962
10126SOL     OW31276   6.242   0.427   6.844
10126SOL    HW131277   6.284   0.465   6.926
10126SOL    HW231278   6.291   0.345   6.815
10127SOL     OW31279   2.475   5.206   6.142
10127SOL    HW131280   2.555   5.244   6.186
10127SOL    HW231281   2.392   5.240   6.186
10128SOL     OW31282   3.399   0.532   0.334
10128SOL    HW131283   3.326   0.507   0.271
10128SOL    HW231284   3.418   0.455   0.396
10129SOL     OW31285   6.448   1.235   4.248
10129SOL    HW131286   6.423   1.317   4.298
10129SOL    HW231287   6.547   1.236   4.230
10130SOL     OW31288   1.662   2.416   2.469
10130SOL    HW131289   1.588   2.358   2.505
10130SOL    HW231290   1.744   2.361   2.456
10131SOL     OW31291   1.901   0.708   4.227
10131SOL    HW131292   1.813   0.751   4.243
10131SOL    HW231293   1.967   0.742   4.294
10132SOL     OW31294   7.009   1.023   3.055
10132SOL    HW131295   0.076   0.980   3.051
10132SOL    HW231296   6.961   1.008   2.969
10133SOL     OW31297   4.695   5.970   0.736
10133SOL    HW131298   4.670   6.049   0.792
10133SOL    HW231299   4.752   6.001   0.659
10134SOL     OW31300   5.941   0.858   2.039
10134SOL    HW131301   5.995   0.859   2.124
10134SOL    HW231302   5.907   0.951   2.021
10135SOL     OW31303   5.470   0.417   3.369
10135SOL    HW131304   5.376   0.413   3.404
10135SOL    HW231305   5.469   0.452   3.276
10136SOL     OW31306   4.619   1.801   2.872
10136SOL    HW131307   4.530   1.842   2.854
10136SOL    HW231308   4.656   1.763   2.787
10137SOL     OW31309   0.064   5.839   5.880
10137SOL    HW131310   0.106   5.869   5.966
10137SOL    HW231311   6.993   5.813   5.896
10138SOL     OW31312   5.629   1.242   0.235
10138SOL    HW131313   5.634   1.268   0.332
10138SOL    HW231314   5.607   1.322   0.180
10139SOL     OW31315   3.455   3.422   5.447
10139SOL    HW131316   3.360   3.413   5.416
10139SOL    HW231317   3.496   3.331   5.455
10140SOL     OW31318   0.032   5.504   6.034
10140SOL    HW131319   0.017   5.539   6.126
10140SOL    HW231320   6.969   5.469   5.997
10141SOL     OW31321   2.747   1.418   4.220
10141SOL    HW131322   2.676   1.392   4.286
10141SOL    HW231323   2.745   1.518   4.208
10142SOL     OW31324   6.113   6.382   4.332
10142SOL    HW131325   6.157   6.307   4.284
10142SOL    HW231326   6.129   6.373   4.431
10143SOL     OW31327   5.913   3.214   0.498
10143SOL    HW131328   5.840   3.187   0.562
10143SOL    HW231329   5.877   3.215   0.405
10144SOL     OW31330   3.613   6.414   5.195
10144SOL    HW131331   3.553   6.356   5.140
10144SOL    HW231332   3.574   6.506   5.203
10145SOL     OW31333   5.305   5.942   0.242
10145SOL    HW131334   5.361   5.924   0.161
10145SOL    HW231335   5.273   6.036   0.241
10146SOL     OW31336   0.347   2.905   4.201
10146SOL    HW131337   0.345   2.944   4.293
10146SOL    HW231338   0.441   2.881   4.178
10147SOL     OW31339   4.800   5.669   6.485
10147SOL    HW131340   4.895   5.676   6.516
10147SOL    HW231341   4.769   5.575   6.492
10148SOL     OW31342   0.777   4.793   6.598
10148SOL    HW131343   0.705   4.862   6.603
10148SOL    HW231344   0.736   4.702   6.598
10149SOL     OW31345   4.724   3.906   0.796
10149SOL    HW131346   4.672   3.849   0.860
10149SOL    HW231347   4.688   4.000   0.799
10150SOL     OW31348   4.863   4.138   0.128
10150SOL    HW131349   4.796   4.075   0.088
10150SOL    HW231350   4.860   4.130   0.228
10151SOL     OW31351   6.501   0.053   5.629
10151SOL    HW131352   6.453   6.997   5.592
10151SOL    HW231353   6.467   0.072   5.721
10152SOL     OW31354   5.484   6.536   2.783
10152SOL    HW131355   5.497   6.579   2.873
10152SOL    HW231356   5.572   6.501   2.751
10153SOL     OW31357   5.459   4.555   3.908
10153SOL    HW131358   5.485   4.531   3.815
10153SOL    HW231359   5.370   4.515   3.929
10154SOL     OW31360   4.687   5.254   5.151
10154SOL    HW131361   4.719   5.298   5.235
10154SOL    HW231362   4.677   5.322   5.079
10155SOL     OW31363   4.380   2.032   5.595
10155SOL    HW131364   4.395   2.016   5.692
10155SOL    HW231365   4.308   2.100   5.583
10156SOL     OW31366   4.995   0.916   1.063
10156SOL    HW131367   4.941   0.858   1.124
10156SOL    HW231368   4.974   1.012   1.081
10157SOL     OW31369   0.099   3.095   1.340
10157SOL    HW131370   0.182   3.048   1.310
10157SOL    HW231371   0.096   3.098   1.440
10158SOL     OW31372   5.868   6.280   1.854
10158SOL    HW131373   5.789   6.243   1.806
10158SOL    HW231374   5.943   6.214   1.849
10159SOL     OW31375   3.635   3.222   3.057
10159SOL    HW131376   3.675   3.272   3.134
10159SOL    HW231377   3.672   3.130   3.054
10160SOL     OW31378   2.266   4.390   3.350
10160SOL    HW131379   2.193   4.393   3.282
10160SOL    HW231380   2.347   4.434   3.312
10161SOL     OW31381   4.573   4.326   6.025
10161SOL    HW131382   4.591   4.420   6.055
10161SOL    HW231383   4.550   4.326   5.928
10162SOL     OW31384   1.295   3.942   2.567
10162SOL    HW131385   1.258   4.018   2.621
10162SOL    HW231386   1.370   3.899   2.618
10163SOL     OW31387   0.843   6.563   4.922
10163SOL    HW131388   0.757   6.595   4.963
10163SOL    HW231389   0.824   6.488   4.858
10164SOL     OW31390   0.047   3.266   3.303
10164SOL    HW131391   0.115   3.260   3.377
10164SOL    HW231392   0.090   3.240   3.217
10165SOL     OW31393   6.539   3.568   4.142
10165SOL    HW131394   6.531   3.531   4.049
10165SOL    HW231395   6.636   3.587   4.162
10166SOL     OW31396   1.248   1.697   0.975
10166SOL    HW131397   1.198   1.616   1.006
10166SOL    HW231398   1.340   1.671   0.948
10167SOL     OW31399   1.175   6.448   6.482
10167SOL    HW131400   1.131   6.467   6.570
10167SOL    HW231401   1.109   6.405   6.420
10168SOL     OW31402   5.630   1.370   0.479
10168SOL    HW131403   5.546   1.425   0.482
10168SOL    HW231404   5.627   1.301   0.551
10169SOL     OW31405   6.645   3.162   3.362
10169SOL    HW131406   6.627   3.113   3.276
10169SOL    HW231407   6.726   3.220   3.350
10170SOL     OW31408   6.101   5.810   6.319
10170SOL    HW131409   6.094   5.856   6.230
10170SOL    HW231410   6.090   5.877   6.392
10171SOL     OW31411   1.918   3.202   5.390
10171SOL    HW131412   1.941   3.131   5.323
10171SOL    HW231413   1.865   3.273   5.344
10172SOL     OW31414   6.232   0.207   3.030
10172SOL    HW131415   6.261   0.129   3.085
10172SOL    HW231416   6.143   0.239   3.061
10173SOL     OW31417   3.382   4.974   6.543
10173SOL    HW131418   3.411   4.882   6.515
10173SOL    HW231419   3.436   5.042   6.493
10174SOL     OW31420   4.662   6.338   2.243
10174SOL    HW131421   4.612   6.271   2.187
10174SOL    HW231422   4.605   6.368   2.319
10175SOL     OW31423   0.131   1.925   4.122
10175SOL    HW131424   0.042   1.971   4.128
10175SOL    HW231425   0.191   1.977   4.062
10176SOL     OW31426   6.493   3.036   5.771
10176SOL    HW131427   6.429   3.012   5.844
10176SOL    HW231428   6.443   3.051   5.686
10177SOL     OW31429   2.256   0.820   1.877
10177SOL    HW131430   2.284   0.750   1.942
10177SOL    HW231431   2.253   0.909   1.923
10178SOL     OW31432   1.495   1.211   0.145
10178SOL    HW131433   1.559   1.284   0.170
10178SOL    HW231434   1.532   1.161   0.066
10179SOL     OW31435   0.023   4.399   1.074
10179SOL    HW131436   0.064   4.468   1.015
10179SOL    HW231437   0.094   4.354   1.128
10180SOL     OW31438   3.148   6.934   5.352
10180SOL    HW131439   3.196   7.022   5.355
10180SOL    HW231440   3.182   6.875   5.426
10181SOL     OW31441   0.062   4.063   1.275
10181SOL    HW131442   0.116   4.032   1.196
10181SOL    HW231443   0.009   3.986   1.311
10182SOL     OW31444   4.941   1.089   6.900
10182SOL    HW131445   4.986   1.119   6.816
10182SOL    HW231446   4.975   0.999   6.927
10183SOL     OW31447   6.463   2.237   6.285
10183SOL    HW131448   6.398   2.198   6.219
10183SOL    HW231449   6.441   2.334   6.300
10184SOL     OW31450   5.854   3.785   6.290
10184SOL    HW131451   5.757   3.796   6.270
10184SOL    HW231452   5.908   3.834   6.222
10185SOL     OW31453   3.752   5.800   2.706
10185SOL    HW131454   3.661   5.829   2.677
10185SOL    HW231455   3.764   5.819   2.804
10186SOL     OW31456   4.899   3.646   6.216
10186SOL    HW131457   4.859   3.679   6.302
10186SOL    HW231458   4.923   3.549   6.226
10187SOL     OW31459   2.837   4.747   6.284
10187SOL    HW131460   2.854   4.794   6.370
10187SOL    HW231461   2.804   4.812   6.216
10188SOL     OW31462   2.982   0.143   0.472
10188SOL    HW131463   2.921   0.140   0.394
10188SOL    HW231464   2.940   0.097   0.550
10189SOL     OW31465   1.043   1.568   6.392
10189SOL    HW131466   1.081   1.541   6.480
10189SOL    HW231467   1.056   1.494   6.325
10190SOL     OW31468   3.291   4.851   1.619
10190SOL    HW131469   3.326   4.758   1.629
10190SOL    HW231470   3.281   4.893   1.709
10191SOL     OW31471   5.418   6.008   6.366
10191SOL    HW131472   5.342   6.073   6.368
10191SOL    HW231473   5.485   6.034   6.436
10192SOL     OW31474   2.290   1.806   5.088
10192SOL    HW131475   2.258   1.799   4.993
10192SOL    HW231476   2.380   1.850   5.090
10193SOL     OW31477   3.987   3.750   2.957
10193SOL    HW131478   4.053   3.811   2.913
10193SOL    HW231479   3.952   3.685   2.890
10194SOL     OW31480   3.748   0.118   4.115
10194SOL    HW131481   3.691   0.060   4.057
10194SOL    HW231482   3.731   0.097   4.211
10195SOL     OW31483   5.100   0.284   2.174
10195SOL    HW131484   5.120   0.367   2.123
10195SOL    HW231485   5.165   0.273   2.249
10196SOL     OW31486   5.806   1.570   3.088
10196SOL    HW131487   5.778   1.639   3.021
10196SOL    HW231488   5.744   1.574   3.167
10197SOL     OW31489   6.394   0.725   2.263
10197SOL    HW131490   6.303   0.733   2.304
10197SOL    HW231491   6.398   0.642   2.207
10198SOL     OW31492   3.022   6.612   1.507
10198SOL    HW131493   2.973   6.533   1.544
10198SOL    HW231494   3.076   6.655   1.579
10199SOL     OW31495   0.839   1.711   6.306
10199SOL    HW131496   0.768   1.640   6.308
10199SOL    HW231497   0.925   1.672   6.340
10200SOL     OW31498   4.907   4.397   5.408
10200SOL    HW131499   4.970   4.380   5.484
10200SOL    HW231500   4.839   4.323   5.404
10201SOL     OW31501   0.765   5.723   2.401
10201SOL    HW131502   0.805   5.802   2.354
10201SOL    HW231503   0.818   5.641   2.378
10202SOL     OW31504   0.931   3.335   1.547
10202SOL    HW131505   0.914   3.331   1.645
10202SOL    HW231506   0.859   3.390   1.503
10203SOL     OW31507   2.182   3.095   2.364
10203SOL    HW131508   2.140   3.053   2.444
10203SOL    HW231509   2.184   3.029   2.289
10204SOL     OW31510   3.163   4.661   5.271
10204SOL    HW131511   3.074   4.621   5.251
10204SOL    HW231512   3.177   4.742   5.214
10205SOL     OW31513   5.698   1.913   3.716
10205SOL    HW131514   5.789   1.881   3.687
10205SOL    HW231515   5.707   1.966   3.801
10206SOL     OW31516   5.960   6.736   5.737
10206SOL    HW131517   5.945   6.646   5.778
10206SOL    HW231518   5.968   6.726   5.637
10207SOL     OW31519   2.972   0.951   2.887
10207SOL    HW131520   2.874   0.962   2.904
10207SOL    HW231521   3.010   0.887   2.953
10208SOL     OW31522   5.653   4.979   5.638
10208SOL    HW131523   5.594   4.918   5.692
10208SOL    HW231524   5.605   5.008   5.556
10209SOL     OW31525   0.111   0.224   6.360
10209SOL    HW131526   0.117   0.307   6.416
10209SOL    HW231527   0.043   0.237   6.288
10210SOL     OW31528   5.946   6.556   2.448
10210SOL    HW131529   5.851   6.535   2.471
10210SOL    HW231530   5.950   6.640   2.395
10211SOL     OW31531   3.905   6.193   5.520
10211SOL    HW131532   3.910   6.290   5.496
10211SOL    HW231533   3.935   6.138   5.442
10212SOL     OW31534   0.496   1.317   3.913
10212SOL    HW131535   0.430   1.279   3.977
10212SOL    HW231536   0.502   1.257   3.832
10213SOL     OW31537   5.935   1.649   3.430
10213SOL    HW131538   5.970   1.740   3.450
10213SOL    HW231539   6.011   1.584   3.428
10214SOL     OW31540   6.297   1.017   1.861
10214SOL    HW131541   6.366   1.056   1.923
10214SOL    HW231542   6.243   0.949   1.911
10215SOL     OW31543   3.769   3.484   6.152
10215SOL    HW131544   3.703   3.461   6.224
10215SOL    HW231545   3.844   3.537   6.192
10216SOL     OW31546   5.859   0.214   1.017
10216SOL    HW131547   5.885   0.305   0.983
10216SOL    HW231548   5.800   0.225   1.097
10217SOL     OW31549   2.780   2.312   3.866
10217SOL    HW131550   2.858   2.258   3.832
10217SOL    HW231551   2.710   2.250   3.901
10218SOL     OW31552   2.086   0.887   0.723
10218SOL    HW131553   2.141   0.807   0.699
10218SOL    HW231554   1.994   0.877   0.685
10219SOL     OW31555   0.656   2.737   1.638
10219SOL    HW131556   0.592   2.732   1.715
10219SOL    HW231557   0.638   2.820   1.586
10220SOL     OW31558   4.442   2.132   1.306
10220SOL    HW131559   4.431   2.221   1.261
10220SOL    HW231560   4.380   2.127   1.385
10221SOL     OW31561   2.954   0.841   5.418
10221SOL    HW131562   3.029   0.793   5.464
10221SOL    HW231563   2.867   0.812   5.457
10222SOL     OW31564   1.430   4.481   5.021
10222SOL    HW131565   1.437   4.478   5.121
10222SOL    HW231566   1.372   4.406   4.990
10223SOL     OW31567   1.676   4.754   6.711
10223SOL    HW131568   1.771   4.780   6.695
10223SOL    HW231569   1.670   4.696   6.792
10224SOL     OW31570   0.582   0.135   4.068
10224SOL    HW131571   0.627   0.224   4.057
10224SOL    HW231572   0.488   0.141   4.036
10225SOL     OW31573   6.729   5.931   4.831
10225SOL    HW131574   6.763   5.935   4.925
10225SOL    HW231575   6.803   5.951   4.767
10226SOL     OW31576   2.734   1.207   6.768
10226SOL    HW131577   2.638   1.203   6.795
10226SOL    HW231578   2.746   1.278   6.698
10227SOL     OW31579   4.600   4.158   0.358
10227SOL    HW131580   4.692   4.121   0.376
10227SOL    HW231581   4.605   4.257   0.349
10228SOL     OW31582   0.865   5.088   2.597
10228SOL    HW131583   0.907   5.082   2.687
10228SOL    HW231584   0.766   5.093   2.607
10229SOL     OW31585   0.949   0.408   3.433
10229SOL    HW131586   1.034   0.396   3.484
10229SOL    HW231587   0.946   0.341   3.358
10230SOL     OW31588   6.076   6.799   3.426
10230SOL    HW131589   6.119   6.873   3.373
10230SOL    HW231590   6.147   6.749   3.477
10231SOL     OW31591   6.132   6.876   4.689
10231SOL    HW131592   6.053   6.842   4.740
10231SOL    HW231593   6.135   6.833   4.599
10232SOL     OW31594   3.467   0.789   4.200
10232SOL    HW131595   3.465   0.889   4.207
10232SOL    HW231596   3.389   0.758   4.146
10233SOL     OW31597   4.113   3.173   6.157
10233SOL    HW131598   4.015   3.193   6.150
10233SOL    HW231599   4.129   3.077   6.137
10234SOL     OW31600   5.093   0.251   0.592
10234SOL    HW131601   5.023   0.193   0.634
10234SOL    HW231602   5.098   0.233   0.494
10235SOL     OW31603   4.893   1.644   0.025
10235SOL    HW131604   4.882   1.545   0.033
10235SOL    HW231605   4.948   1.665   6.968
10236SOL     OW31606   2.213   6.693   1.906
10236SOL    HW131607   2.196   6.631   1.983
10236SOL    HW231608   2.127   6.735   1.878
10237SOL     OW31609   6.558   4.445   2.168
10237SOL    HW131610   6.600   4.520   2.117
10237SOL    HW231611   6.467   4.473   2.200
10238SOL     OW31612   3.813   4.491   5.417
10238SOL    HW131613   3.818   4.392   5.404
10238SOL    HW231614   3.902   4.532   5.397
10239SOL     OW31615   0.359   4.183   5.220
10239SOL    HW131616   0.314   4.162   5.133
10239SOL    HW231617   0.353   4.281   5.239
10240SOL     OW31618   1.147   4.510   3.004
10240SOL    HW131619   1.080   4.471   3.067
10240SOL    HW231620   1.201   4.437   2.962
10241SOL     OW31621   0.737   1.287   2.406
10241SOL    HW131622   0.701   1.278   2.314
10241SOL    HW231623   0.832   1.255   2.408
10242SOL     OW31624   0.081   1.316   5.520
10242SOL    HW131625   0.018   1.241   5.501
10242SOL    HW231626   0.063   1.392   5.457
10243SOL     OW31627   0.534   5.221   1.350
10243SOL    HW131628   0.554   5.318   1.334
10243SOL    HW231629   0.487   5.210   1.437
10244SOL     OW31630   2.458   4.974   6.978
10244SOL    HW131631   2.546   4.931   7.001
10244SOL    HW231632   2.412   5.002   0.039
10245SOL     OW31633   1.693   3.266   6.923
10245SOL    HW131634   1.725   3.327   6.851
10245SOL    HW231635   1.595   3.281   6.937
10246SOL     OW31636   2.964   3.842   4.620
10246SOL    HW131637   2.895   3.848   4.693
10246SOL    HW231638   3.012   3.929   4.612
10247SOL     OW31639   0.313   5.146   5.904
10247SOL    HW131640   0.268   5.235   5.896
10247SOL    HW231641   0.355   5.123   5.816
10248SOL     OW31642   3.031   0.359   2.132
10248SOL    HW131643   3.069   0.275   2.095
10248SOL    HW231644   3.105   0.420   2.161
10249SOL     OW31645   4.507   0.475   5.484
10249SOL    HW131646   4.505   0.377   5.463
10249SOL    HW231647   4.457   0.492   5.569
10250SOL     OW31648   6.125   1.062   1.387
10250SOL    HW131649   6.159   0.973   1.359
10250SOL    HW231650   6.171   1.091   1.471
10251SOL     OW31651   3.019   3.006   6.516
10251SOL    HW131652   3.001   2.934   6.582
10251SOL    HW231653   3.051   2.965   6.430
10252SOL     OW31654   6.247   6.630   0.852
10252SOL    HW131655   6.321   6.649   0.916
10252SOL    HW231656   6.261   6.540   0.810
10253SOL     OW31657   4.637   4.764   0.390
10253SOL    HW131658   4.727   4.749   0.349
10253SOL    HW231659   4.586   4.830   0.334
10254SOL     OW31660   2.919   1.598   4.859
10254SOL    HW131661   2.961   1.553   4.938
10254SOL    HW231662   2.967   1.570   4.776
10255SOL     OW31663   1.770   6.141   2.012
10255SOL    HW131664   1.833   6.065   2.000
10255SOL    HW231665   1.708   6.146   1.933
10256SOL     OW31666   4.903   0.084   0.306
10256SOL    HW131667   5.001   0.085   0.326
10256SOL    HW231668   4.868   0.177   0.309
10257SOL     OW31669   1.374   5.259   5.521
10257SOL    HW131670   1.290   5.296   5.559
10257SOL    HW231671   1.422   5.330   5.469
10258SOL     OW31672   4.447   6.312   3.480
10258SOL    HW131673   4.455   6.404   3.443
10258SOL    HW231674   4.470   6.312   3.577
10259SOL     OW31675   6.829   4.753   4.327
10259SOL    HW131676   6.880   4.755   4.241
10259SOL    HW231677   6.823   4.845   4.364
10260SOL     OW31678   0.570   6.513   2.884
10260SOL    HW131679   0.530   6.468   2.963
10260SOL    HW231680   0.638   6.453   2.842
10261SOL     OW31681   0.056   5.512   2.666
10261SOL    HW131682   0.149   5.481   2.646
10261SOL    HW231683   7.014   5.447   2.627
10262SOL     OW31684   3.276   5.167   4.469
10262SOL    HW131685   3.206   5.128   4.530
10262SOL    HW231686   3.232   5.229   4.404
10263SOL     OW31687   4.896   2.103   6.917
10263SOL    HW131688   4.904   2.053   7.003
10263SOL    HW231689   4.986   2.111   6.873
10264SOL     OW31690   5.801   1.433   6.235
10264SOL    HW131691   5.827   1.506   6.299
10264SOL    HW231692   5.722   1.384   6.271
10265SOL     OW31693   3.450   1.712   2.732
10265SOL    HW131694   3.414   1.635   2.785
10265SOL    HW231695   3.550   1.711   2.735
10266SOL     OW31696   3.776   3.836   6.439
10266SOL    HW131697   3.702   3.789   6.488
10266SOL    HW231698   3.739   3.916   6.392
10267SOL     OW31699   6.980   1.976   0.213
10267SOL    HW131700   7.003   1.905   0.147
10267SOL    HW231701   6.925   2.047   0.167
10268SOL     OW31702   5.655   6.091   1.457
10268SOL    HW131703   5.617   6.146   1.383
10268SOL    HW231704   5.609   6.002   1.459
10269SOL     OW31705   2.479   2.189   5.768
10269SOL    HW131706   2.469   2.112   5.830
10269SOL    HW231707   2.441   2.165   5.678
10270SOL     OW31708   2.051   6.071   0.807
10270SOL    HW131709   1.983   6.033   0.744
10270SOL    HW231710   2.130   6.010   0.812
10271SOL     OW31711   3.504   3.685   0.873
10271SOL    HW131712   3.581   3.645   0.924
10271SOL    HW231713   3.490   3.634   0.788
10272SOL     OW31714   1.221   0.878   4.207
10272SOL    HW131715   1.139   0.918   4.249
10272SOL    HW231716   1.287   0.855   4.278
10273SOL     OW31717   3.370   5.779   4.232
10273SOL    HW131718   3.298   5.828   4.282
10273SOL    HW231719   3.338   5.688   4.209
10274SOL     OW31720   1.607   5.087   5.601
10274SOL    HW131721   1.627   5.072   5.504
10274SOL    HW231722   1.544   5.165   5.610
10275SOL     OW31723   0.845   6.616   3.091
10275SOL    HW131724   0.770   6.682   3.091
10275SOL    HW231725   0.832   6.550   3.165
10276SOL     OW31726   0.222   5.811   6.116
10276SOL    HW131727   0.287   5.802   6.040
10276SOL    HW231728   0.178   5.723   6.134
10277SOL     OW31729   2.741   6.607   3.928
10277SOL    HW131730   2.825   6.657   3.951
10277SOL    HW231731   2.712   6.552   4.006
10278SOL     OW31732   6.687   0.573   6.722
10278SOL    HW131733   6.627   0.649   6.744
10278SOL    HW231734   6.655   0.527   6.640
10279SOL     OW31735   3.266   0.133   4.186
10279SOL    HW131736   3.200   0.186   4.133
10279SOL    HW231737   3.347   0.189   4.206
10280SOL     OW31738   2.112   4.351   0.997
10280SOL    HW131739   2.049   4.427   0.983
10280SOL    HW231740   2.116   4.328   1.094
10281SOL     OW31741   4.897   1.499   2.825
10281SOL    HW131742   4.958   1.551   2.765
10281SOL    HW231743   4.900   1.538   2.917
10282SOL     OW31744   0.448   2.420   3.857
10282SOL    HW131745   0.411   2.429   3.950
10282SOL    HW231746   0.515   2.346   3.854
10283SOL     OW31747   0.954   3.109   1.189
10283SOL    HW131748   0.892   3.093   1.112
10283SOL    HW231749   1.013   3.187   1.169
10284SOL     OW31750   5.494   3.633   4.971
10284SOL    HW131751   5.583   3.671   4.996
10284SOL    HW231752   5.496   3.534   4.982
10285SOL     OW31753   5.018   0.089   1.412
10285SOL    HW131754   5.095   0.144   1.379
10285SOL    HW231755   5.052   0.013   1.466
10286SOL     OW31756   3.725   1.151   3.238
10286SOL    HW131757   3.625   1.156   3.236
10286SOL    HW231758   3.754   1.057   3.220
10287SOL     OW31759   1.277   6.729   1.925
10287SOL    HW131760   1.292   6.722   1.827
10287SOL    HW231761   1.222   6.653   1.957
10288SOL     OW31762   5.108   5.681   3.060
10288SOL    HW131763   5.053   5.652   3.139
10288SOL    HW231764   5.134   5.777   3.071
10289SOL     OW31765   3.081   1.425   1.702
10289SOL    HW131766   3.071   1.373   1.618
10289SOL    HW231767   3.131   1.510   1.684
10290SOL     OW31768   3.991   3.503   2.522
10290SOL    HW131769   4.056   3.474   2.592
10290SOL    HW231770   3.938   3.424   2.491
10291SOL     OW31771   3.851   0.830   3.457
10291SOL    HW131772   3.878   0.894   3.529
10291SOL    HW231773   3.879   0.867   3.368
10292SOL     OW31774   0.328   2.194   5.276
10292SOL    HW131775   0.259   2.217   5.207
10292SOL    HW231776   0.391   2.271   5.287
10293SOL     OW31777   1.813   5.820   2.840
10293SOL    HW131778   1.783   5.845   2.748
10293SOL    HW231779   1.737   5.779   2.890
10294SOL     OW31780   5.152   2.340   2.837
10294SOL    HW131781   5.224   2.298   2.782
10294SOL    HW231782   5.115   2.273   2.901
10295SOL     OW31783   6.790   4.692   5.416
10295SOL    HW131784   6.802   4.654   5.324
10295SOL    HW231785   6.856   4.651   5.478
10296SOL     OW31786   5.943   4.240   5.951
10296SOL    HW131787   5.894   4.324   5.974
10296SOL    HW231788   6.019   4.227   6.015
10297SOL     OW31789   2.383   6.453   3.936
10297SOL    HW131790   2.387   6.544   3.978
10297SOL    HW231791   2.460   6.399   3.969
10298SOL     OW31792   4.827   3.848   3.795
10298SOL    HW131793   4.777   3.927   3.761
10298SOL    HW231794   4.822   3.774   3.728
10299SOL     OW31795   4.751   4.074   3.685
10299SOL    HW131796   4.704   4.155   3.720
10299SOL    HW231797   4.754   4.077   3.585
10300SOL     OW31798   1.368   3.652   1.695
10300SOL    HW131799   1.291   3.686   1.641
10300SOL    HW231800   1.451   3.650   1.638
10301SOL     OW31801   5.750   1.485   3.573
10301SOL    HW131802   5.818   1.540   3.524
10301SOL    HW231803   5.661   1.495   3.528
10302SOL     OW31804   1.294   6.449   2.872
10302SOL    HW131805   1.280   6.356   2.907
10302SOL    HW231806   1.240   6.514   2.925
10303SOL     OW31807   3.576   3.513   1.696
10303SOL    HW131808   3.635   3.492   1.774
10303SOL    HW231809   3.608   3.596   1.651
10304SOL     OW31810   6.677   6.652   3.871
10304SOL    HW131811   6.671   6.603   3.958
10304SOL    HW231812   6.706   6.589   3.799
10305SOL     OW31813   1.987   5.720   0.028
10305SOL    HW131814   2.078   5.761   0.017
10305SOL    HW231815   1.984   5.667   0.112
10306SOL     OW31816   4.762   5.615   0.054
10306SOL    HW131817   4.678   5.566   0.075
10306SOL    HW231818   4.793   5.591   6.986
10307SOL     OW31819   1.303   0.729   5.394
10307SOL    HW131820   1.358   0.675   5.458
10307SOL    HW231821   1.206   0.720   5.417
10308SOL     OW31822   3.550   4.896   3.328
10308SOL    HW131823   3.641   4.935   3.315
10308SOL    HW231824   3.527   4.893   3.425
10309SOL     OW31825   5.806   6.818   3.028
10309SOL    HW131826   5.872   6.766   2.973
10309SOL    HW231827   5.810   6.787   3.123
10310SOL     OW31828   2.938   3.703   2.650
10310SOL    HW131829   3.013   3.768   2.637
10310SOL    HW231830   2.893   3.686   2.563
10311SOL     OW31831   0.595   5.833   0.776
10311SOL    HW131832   0.516   5.774   0.790
10311SOL    HW231833   0.567   5.929   0.787
10312SOL     OW31834   3.686   4.866   0.832
10312SOL    HW131835   3.692   4.962   0.860
10312SOL    HW231836   3.669   4.861   0.733
10313SOL     OW31837   5.004   0.367   2.504
10313SOL    HW131838   4.908   0.375   2.481
10313SOL    HW231839   5.055   0.441   2.461
10314SOL     OW31840   6.316   0.358   1.043
10314SOL    HW131841   6.259   0.280   1.020
10314SOL    HW231842   6.264   0.421   1.101
10315SOL     OW31843   6.642   5.868   5.720
10315SOL    HW131844   6.645   5.924   5.637
10315SOL    HW231845   6.557   5.815   5.720
10316SOL     OW31846   0.199   3.577   4.814
10316SOL    HW131847   0.274   3.575   4.881
10316SOL    HW231848   0.235   3.606   4.725
10317SOL     OW31849   4.177   4.881   6.305
10317SOL    HW131850   4.087   4.838   6.302
10317SOL    HW231851   4.234   4.835   6.374
10318SOL     OW31852   6.491   5.143   1.196
10318SOL    HW131853   6.521   5.050   1.217
10318SOL    HW231854   6.507   5.162   1.099
10319SOL     OW31855   0.286   4.698   3.888
10319SOL    HW131856   0.212   4.641   3.924
10319SOL    HW231857   0.296   4.681   3.790
10320SOL     OW31858   0.722   6.384   0.719
10320SOL    HW131859   0.801   6.415   0.665
10320SOL    HW231860   0.639   6.426   0.682
10321SOL     OW31861   4.376   5.756   4.887
10321SOL    HW131862   4.360   5.820   4.812
10321SOL    HW231863   4.431   5.800   4.957
10322SOL     OW31864   6.573   5.481   1.006
10322SOL    HW131865   6.641   5.454   1.074
10322SOL    HW231866   6.602   5.566   0.962
10323SOL     OW31867   5.912   3.258   6.399
10323SOL    HW131868   5.977   3.225   6.331
10323SOL    HW231869   5.915   3.198   6.479
10324SOL     OW31870   3.080   3.304   3.856
10324SOL    HW131871   3.177   3.326   3.864
10324SOL    HW231872   3.050   3.252   3.936
10325SOL     OW31873   6.563   3.481   3.476
10325SOL    HW131874   6.544   3.395   3.428
10325SOL    HW231875   6.649   3.519   3.442
10326SOL     OW31876   4.925   3.068   6.876
10326SOL    HW131877   4.984   3.143   6.907
10326SOL    HW231878   4.896   3.086   6.782
10327SOL     OW31879   1.171   1.246   3.012
10327SOL    HW131880   1.073   1.262   3.019
10327SOL    HW231881   1.188   1.161   2.963
10328SOL     OW31882   6.283   3.666   2.421
10328SOL    HW131883   6.265   3.719   2.504
10328SOL    HW231884   6.197   3.647   2.375
10329SOL     OW31885   3.261   0.645   2.859
10329SOL    HW131886   3.206   0.700   2.795
10329SOL    HW231887   3.279   0.556   2.819
10330SOL     OW31888   3.720   5.303   2.877
10330SOL    HW131889   3.748   5.208   2.859
10330SOL    HW231890   3.705   5.350   2.790
10331SOL     OW31891   5.387   0.835   3.705
10331SOL    HW131892   5.437   0.849   3.791
10331SOL    HW231893   5.297   0.877   3.712
10332SOL     OW31894   0.161   2.008   0.571
10332SOL    HW131895   0.203   2.064   0.643
10332SOL    HW231896   0.062   2.013   0.578
10333SOL     OW31897   5.646   5.099   4.725
10333SOL    HW131898   5.595   5.179   4.757
10333SOL    HW231899   5.738   5.101   4.763
10334SOL     OW31900   2.157   4.944   4.406
10334SOL    HW131901   2.064   4.916   4.427
10334SOL    HW231902   2.180   4.915   4.313
10335SOL     OW31903   2.498   5.362   0.408
10335SOL    HW131904   2.575   5.384   0.347
10335SOL    HW231905   2.502   5.266   0.433
10336SOL     OW31906   4.818   7.023   2.298
10336SOL    HW131907   4.764   0.042   2.371
10336SOL    HW231908   4.909   7.001   2.332
10337SOL     OW31909   0.217   5.283   4.783
10337SOL    HW131910   0.231   5.188   4.754
10337SOL    HW231911   0.186   5.337   4.705
10338SOL     OW31912   2.958   6.797   2.079
10338SOL    HW131913   2.954   6.709   2.032
10338SOL    HW231914   2.913   6.867   2.023
10339SOL     OW31915   2.956   5.932   1.274
10339SOL    HW131916   3.041   5.879   1.280
10339SOL    HW231917   2.970   6.024   1.310
10340SOL     OW31918   2.574   5.968   0.090
10340SOL    HW131919   2.497   5.928   0.141
10340SOL    HW231920   2.625   6.029   0.150
10341SOL     OW31921   1.982   1.868   2.239
10341SOL    HW131922   1.923   1.932   2.190
10341SOL    HW231923   2.044   1.920   2.299
10342SOL     OW31924   2.267   0.061   5.495
10342SOL    HW131925   2.356   0.053   5.450
10342SOL    HW231926   2.249   0.158   5.514
10343SOL     OW31927   2.769   3.764   6.091
10343SOL    HW131928   2.770   3.778   6.190
10343SOL    HW231929   2.686   3.803   6.053
10344SOL     OW31930   4.125   3.691   4.886
10344SOL    HW131931   4.223   3.708   4.899
10344SOL    HW231932   4.109   3.661   4.792
10345SOL     OW31933   2.273   1.327   6.934
10345SOL    HW131934   2.363   1.288   6.956
10345SOL    HW231935   2.277   1.368   6.843
10346SOL     OW31936   4.995   6.982   0.051
10346SOL    HW131937   4.991   6.910   7.005
10346SOL    HW231938   4.912   6.979   0.107
10347SOL     OW31939   5.597   1.882   1.273
10347SOL    HW131940   5.696   1.870   1.286
10347SOL    HW231941   5.567   1.961   1.327
10348SOL     OW31942   5.760   1.344   6.590
10348SOL    HW131943   5.809   1.423   6.553
10348SOL    HW231944   5.760   1.271   6.521
10349SOL     OW31945   6.285   1.307   1.152
10349SOL    HW131946   6.265   1.308   1.250
10349SOL    HW231947   6.339   1.225   1.130
10350SOL     OW31948   3.239   6.026   4.362
10350SOL    HW131949   3.320   6.076   4.333
10350SOL    HW231950   3.159   6.086   4.359
10351SOL     OW31951   6.070   5.408   5.352
10351SOL    HW131952   6.055   5.398   5.451
10351SOL    HW231953   6.123   5.330   5.319
10352SOL     OW31954   5.269   1.812   6.969
10352SOL    HW131955   5.289   1.905   6.937
10352SOL    HW231956   5.320   1.794   0.030
10353SOL     OW31957   0.383   2.839   3.112
10353SOL    HW131958   0.424   2.906   3.173
10353SOL    HW231959   0.411   2.747   3.139
10354SOL     OW31960   0.286   3.663   0.362
10354SOL    HW131961   0.308   3.682   0.457
10354SOL    HW231962   0.291   3.747   0.308
10355SOL     OW31963   1.429   0.238   0.391
10355SOL    HW131964   1.423   0.216   0.293
10355SOL    HW231965   1.525   0.253   0.415
10356SOL     OW31966   6.818   3.578   0.133
10356SOL    HW131967   6.817   3.581   0.232
10356SOL    HW231968   6.738   3.627   0.097
10357SOL     OW31969   1.315   2.706   6.731
10357SOL    HW131970   1.253   2.648   6.679
10357SOL    HW231971   1.406   2.704   6.689
10358SOL     OW31972   1.077   2.715   3.101
10358SOL    HW131973   1.170   2.694   3.070
10358SOL    HW231974   1.059   2.666   3.187
10359SOL     OW31975   5.361   1.900   2.903
10359SOL    HW131976   5.278   1.944   2.867
10359SOL    HW231977   5.439   1.924   2.845
10360SOL     OW31978   5.502   5.135   3.108
10360SOL    HW131979   5.545   5.046   3.091
10360SOL    HW231980   5.456   5.166   3.025
10361SOL     OW31981   1.081   1.101   1.666
10361SOL    HW131982   1.180   1.105   1.676
10361SOL    HW231983   1.049   1.182   1.617
10362SOL     OW31984   1.150   4.695   2.203
10362SOL    HW131985   1.085   4.756   2.248
10362SOL    HW231986   1.202   4.747   2.135
10363SOL     OW31987   5.207   3.166   0.839
10363SOL    HW131988   5.183   3.133   0.930
10363SOL    HW231989   5.220   3.265   0.842
10364SOL     OW31990   5.182   4.700   1.569
10364SOL    HW131991   5.195   4.781   1.512
10364SOL    HW231992   5.187   4.618   1.512
10365SOL     OW31993   6.018   5.428   0.582
10365SOL    HW131994   6.002   5.436   0.484
10365SOL    HW231995   5.953   5.486   0.631
10366SOL     OW31996   3.912   6.471   3.007
10366SOL    HW131997   3.891   6.407   3.080
10366SOL    HW231998   3.913   6.423   2.919
10367SOL     OW31999   6.192   1.666   1.277
10367SOL    HW132000   6.160   1.612   1.198
10367SOL    HW232001   6.291   1.682   1.268
10368SOL     OW32002   2.029   0.537   1.901
10368SOL    HW132003   1.944   0.489   1.920
10368SOL    HW232004   2.059   0.516   1.808
10369SOL     OW32005   2.822   6.287   4.882
10369SOL    HW132006   2.832   6.228   4.801
10369SOL    HW232007   2.863   6.242   4.961
10370SOL     OW32008   0.326   2.106   4.456
10370SOL    HW132009   0.367   2.016   4.440
10370SOL    HW232010   0.360   2.143   4.542
10371SOL     OW32011   3.607   6.132   3.355
10371SOL    HW132012   3.574   6.078   3.432
10371SOL    HW232013   3.529   6.167   3.303
10372SOL     OW32014   2.705   0.235   1.546
10372SOL    HW132015   2.759   0.238   1.462
10372SOL    HW232016   2.608   0.226   1.524
10373SOL     OW32017   6.962   1.769   5.870
10373SOL    HW132018   6.989   1.840   5.805
10373SOL    HW232019   7.015   1.778   5.954
10374SOL     OW32020   3.510   6.721   4.729
10374SOL    HW132021   3.499   6.622   4.735
10374SOL    HW232022   3.463   6.764   4.807
10375SOL     OW32023   3.592   2.801   0.011
10375SOL    HW132024   3.535   2.745   0.071
10375SOL    HW232025   3.554   2.800   6.942
10376SOL     OW32026   1.454   5.993   2.763
10376SOL    HW132027   1.375   5.993   2.700
10376SOL    HW232028   1.538   5.983   2.710
10377SOL     OW32029   0.409   1.766   1.922
10377SOL    HW132030   0.400   1.843   1.858
10377SOL    HW232031   0.464   1.694   1.878
10378SOL     OW32032   0.206   5.363   5.252
10378SOL    HW132033   0.185   5.381   5.348
10378SOL    HW232034   0.136   5.302   5.214
10379SOL     OW32035   2.396   6.854   3.847
10379SOL    HW132036   2.389   6.807   3.935
10379SOL    HW232037   2.456   6.933   3.855
10380SOL     OW32038   1.531   2.694   4.743
10380SOL    HW132039   1.530   2.644   4.657
10380SOL    HW232040   1.447   2.747   4.752
10381SOL     OW32041   4.269   4.409   1.726
10381SOL    HW132042   4.328   4.330   1.710
10381SOL    HW232043   4.309   4.468   1.795
10382SOL     OW32044   3.195   4.865   2.106
10382SOL    HW132045   3.281   4.864   2.158
10382SOL    HW232046   3.125   4.913   2.158
10383SOL     OW32047   1.951   4.920   0.035
10383SOL    HW132048   1.851   4.922   0.025
10383SOL    HW232049   1.993   4.979   6.990
10384SOL     OW32050   6.303   6.273   0.982
10384SOL    HW132051   6.235   6.201   0.993
10384SOL    HW232052   6.304   6.304   0.887
10385SOL     OW32053   3.335   5.283   6.104
10385SOL    HW132054   3.296   5.210   6.048
10385SOL    HW232055   3.281   5.366   6.092
10386SOL     OW32056   0.065   1.075   6.776
10386SOL    HW132057   0.164   1.066   6.786
10386SOL    HW232058   0.020   1.034   6.856
10387SOL     OW32059   4.882   2.972   3.281
10387SOL    HW132060   4.879   3.017   3.192
10387SOL    HW232061   4.955   3.012   3.336
10388SOL     OW32062   2.954   0.809   5.808
10388SOL    HW132063   2.860   0.785   5.783
10388SOL    HW232064   3.007   0.827   5.726
10389SOL     OW32065   6.621   3.755   0.084
10389SOL    HW132066   6.564   3.771   0.164
10389SOL    HW232067   6.660   3.842   0.053
10390SOL     OW32068   2.394   2.290   0.762
10390SOL    HW132069   2.443   2.243   0.689
10390SOL    HW232070   2.400   2.237   0.846
10391SOL     OW32071   0.529   5.955   3.549
10391SOL    HW132072   0.506   6.037   3.498
10391SOL    HW232073   0.532   5.877   3.487
10392SOL     OW32074   6.866   5.101   4.954
10392SOL    HW132075   6.774   5.099   4.993
10392SOL    HW232076   6.870   5.173   4.884
10393SOL     OW32077   2.208   3.837   4.368
10393SOL    HW132078   2.248   3.791   4.288
10393SOL    HW232079   2.133   3.895   4.338
10394SOL     OW32080   2.957   6.472   4.148
10394SOL    HW132081   2.931   6.429   4.235
10394SOL    HW232082   2.983   6.401   4.083
10395SOL     OW32083   0.245   6.626   1.424
10395SOL    HW132084   0.180   6.564   1.379
10395SOL    HW232085   0.201   6.714   1.440
10396SOL     OW32086   3.556   1.825   4.024
10396SOL    HW132087   3.606   1.806   3.940
10396SOL    HW232088   3.545   1.924   4.036
10397SOL     OW32089   3.109   2.111   3.006
10397SOL    HW132090   3.208   2.107   2.996
10397SOL    HW232091   3.068   2.027   2.971
10398SOL     OW32092   6.884   3.010   0.885
10398SOL    HW132093   6.873   2.951   0.965
10398SOL    HW232094   6.927   3.096   0.912
10399SOL     OW32095   5.477   2.401   3.087
10399SOL    HW132096   5.503   2.422   3.181
10399SOL    HW232097   5.436   2.482   3.045
10400SOL     OW32098   4.097   0.103   0.164
10400SOL    HW132099   4.107   0.184   0.223
10400SOL    HW232100   4.001   0.091   0.139
10401SOL     OW32101   5.972   0.941   3.885
10401SOL    HW132102   6.045   0.892   3.837
10401SOL    HW232103   5.901   0.966   3.819
10402SOL     OW32104   6.542   3.157   5.050
10402SOL    HW132105   6.537   3.178   4.952
10402SOL    HW232106   6.589   3.231   5.097
10403SOL     OW32107   3.752   1.235   3.511
10403SOL    HW132108   3.757   1.213   3.414
10403SOL    HW232109   3.842   1.225   3.552
10404SOL     OW32110   6.526   6.920   4.979
10404SOL    HW132111   6.428   6.935   4.968
10404SOL    HW232112   6.572   7.009   4.983
10405SOL     OW32113   0.366   1.916   5.808
10405SOL    HW132114   0.394   1.951   5.718
10405SOL    HW232115   0.381   1.817   5.812
10406SOL     OW32116   3.045   5.521   2.800
10406SOL    HW132117   2.968   5.518   2.737
10406SOL    HW232118   3.013   5.505   2.893
10407SOL     OW32119   3.242   6.521   5.948
10407SOL    HW132120   3.228   6.422   5.945
10407SOL    HW232121   3.337   6.540   5.972
10408SOL     OW32122   4.597   0.082   0.905
10408SOL    HW132123   4.614   0.097   1.002
10408SOL    HW232124   4.602   0.169   0.856
10409SOL     OW32125   7.011   4.693   1.184
10409SOL    HW132126   0.062   4.655   1.130
10409SOL    HW232127   6.924   4.674   1.138
10410SOL     OW32128   5.448   1.311   6.943
10410SOL    HW132129   5.500   1.357   7.015
10410SOL    HW232130   5.350   1.326   6.958
10411SOL     OW32131   4.066   6.765   3.441
10411SOL    HW132132   4.036   6.741   3.348
10411SOL    HW232133   4.145   6.709   3.466
10412SOL     OW32134   6.727   0.915   0.687
10412SOL    HW132135   6.720   0.897   0.785
10412SOL    HW232136   6.705   1.011   0.669
10413SOL     OW32137   6.002   2.864   0.620
10413SOL    HW132138   6.096   2.837   0.599
10413SOL    HW232139   5.943   2.784   0.617
10414SOL     OW32140   4.065   4.140   5.515
10414SOL    HW132141   3.969   4.167   5.523
10414SOL    HW232142   4.088   4.124   5.419
10415SOL     OW32143   0.608   3.960   4.706
10415SOL    HW132144   0.522   3.998   4.672
10415SOL    HW232145   0.685   4.012   4.670
10416SOL     OW32146   6.496   0.698   3.629
10416SOL    HW132147   6.409   0.663   3.594
10416SOL    HW232148   6.548   0.739   3.554
10417SOL     OW32149   3.691   5.326   4.497
10417SOL    HW132150   3.663   5.409   4.448
10417SOL    HW232151   3.610   5.273   4.521
10418SOL     OW32152   0.021   4.604   6.542
10418SOL    HW132153   0.050   4.681   6.599
10418SOL    HW232154   7.023   4.636   6.450
10419SOL     OW32155   1.199   6.999   6.343
10419SOL    HW132156   1.186   0.058   6.287
10419SOL    HW232157   1.131   6.998   6.417
10420SOL     OW32158   0.099   3.663   2.885
10420SOL    HW132159   0.088   3.744   2.942
10420SOL    HW232160   0.154   3.595   2.933
10421SOL     OW32161   0.055   1.982   3.591
10421SOL    HW132162   0.070   1.997   3.494
10421SOL    HW232163   0.017   1.891   3.606
10422SOL     OW32164   6.063   3.038   5.709
10422SOL    HW132165   6.067   2.957   5.650
10422SOL    HW232166   6.124   3.109   5.672
10423SOL     OW32167   5.460   4.943   4.875
10423SOL    HW132168   5.371   4.985   4.857
10423SOL    HW232169   5.532   4.995   4.830
10424SOL     OW32170   6.173   3.139   0.519
10424SOL    HW132171   6.079   3.164   0.497
10424SOL    HW232172   6.232   3.157   0.440
10425SOL     OW32173   1.630   6.960   2.128
10425SOL    HW132174   1.553   6.945   2.066
10425SOL    HW232175   1.643   0.035   2.141
10426SOL     OW32176   6.869   4.867   0.811
10426SOL    HW132177   6.899   4.938   0.746
10426SOL    HW232178   6.770   4.876   0.825
10427SOL     OW32179   3.721   1.173   6.818
10427SOL    HW132180   3.765   1.151   6.731
10427SOL    HW232181   3.648   1.107   6.835
10428SOL     OW32182   2.794   1.363   3.946
10428SOL    HW132183   2.890   1.367   3.920
10428SOL    HW232184   2.783   1.397   4.039
10429SOL     OW32185   6.978   5.582   0.795
10429SOL    HW132186   0.038   5.527   0.784
10429SOL    HW232187   6.970   5.610   0.891
10430SOL     OW32188   4.051   6.362   3.865
10430SOL    HW132189   4.107   6.281   3.849
10430SOL    HW232190   3.958   6.335   3.889
10431SOL     OW32191   3.313   6.041   4.680
10431SOL    HW132192   3.368   6.044   4.597
10431SOL    HW232193   3.369   6.006   4.756
10432SOL     OW32194   5.876   0.307   4.459
10432SOL    HW132195   5.905   0.351   4.544
10432SOL    HW232196   5.880   0.208   4.469
10433SOL     OW32197   1.646   0.010   1.134
10433SOL    HW132198   1.726   0.070   1.130
10433SOL    HW232199   1.567   0.057   1.096
10434SOL     OW32200   4.041   0.188   3.445
10434SOL    HW132201   4.084   0.207   3.533
10434SOL    HW232202   4.112   0.163   3.378
10435SOL     OW32203   6.579   6.911   4.599
10435SOL    HW132204   6.660   6.853   4.597
10435SOL    HW232205   6.497   6.854   4.610
10436SOL     OW32206   0.895   4.867   5.671
10436SOL    HW132207   0.938   4.957   5.674
10436SOL    HW232208   0.965   4.796   5.670
10437SOL     OW32209   5.991   4.716   5.748
10437SOL    HW132210   5.951   4.808   5.749
10437SOL    HW232211   6.088   4.722   5.771
10438SOL     OW32212   5.611   6.152   0.245
10438SOL    HW132213   5.549   6.120   0.317
10438SOL    HW232214   5.680   6.211   0.285
10439SOL     OW32215   3.784   1.418   6.012
10439SOL    HW132216   3.806   1.379   5.923
10439SOL    HW232217   3.777   1.518   6.004
10440SOL     OW32218   1.883   6.437   0.347
10440SOL    HW132219   1.935   6.523   0.351
10440SOL    HW232220   1.916   6.374   0.416
10441SOL     OW32221   4.463   1.461   0.328
10441SOL    HW132222   4.395   1.411   0.275
10441SOL    HW232223   4.533   1.397   0.361
10442SOL     OW32224   3.337   6.259   5.954
10442SOL    HW132225   3.318   6.263   6.052
10442SOL    HW232226   3.432   6.234   5.939
10443SOL     OW32227   5.003   4.005   4.824
10443SOL    HW132228   5.098   3.986   4.799
10443SOL    HW232229   4.948   4.014   4.741
10444SOL     OW32230   4.019   6.378   4.501
10444SOL    HW132231   3.983   6.387   4.408
10444SOL    HW232232   4.025   6.281   4.525
10445SOL     OW32233   0.716   5.453   4.063
10445SOL    HW132234   0.805   5.495   4.079
10445SOL    HW232235   0.684   5.408   4.146
10446SOL     OW32236   1.148   3.131   5.702
10446SOL    HW132237   1.133   3.208   5.763
10446SOL    HW232238   1.157   3.047   5.755
10447SOL     OW32239   6.503   1.299   2.094
10447SOL    HW132240   6.525   1.312   1.998
10447SOL    HW232241   6.563   1.356   2.150
10448SOL     OW32242   4.212   2.378   1.719
10448SOL    HW132243   4.128   2.348   1.765
10448SOL    HW232244   4.195   2.466   1.674
10449SOL     OW32245   2.139   5.563   4.802
10449SOL    HW132246   2.112   5.570   4.706
10449SOL    HW232247   2.117   5.648   4.849
10450SOL     OW32248   0.514   2.228   0.558
10450SOL    HW132249   0.518   2.247   0.657
10450SOL    HW232250   0.522   2.130   0.542
10451SOL     OW32251   1.991   5.054   2.711
10451SOL    HW132252   1.980   4.987   2.785
10451SOL    HW232253   2.009   5.007   2.625
10452SOL     OW32254   6.064   3.455   3.780
10452SOL    HW132255   6.051   3.448   3.878
10452SOL    HW232256   6.048   3.549   3.750
10453SOL     OW32257   5.417   6.036   1.829
10453SOL    HW132258   5.432   6.039   1.928
10453SOL    HW232259   5.363   6.115   1.801
10454SOL     OW32260   5.055   2.659   1.465
10454SOL    HW132261   5.044   2.581   1.528
10454SOL    HW232262   5.005   2.737   1.501
10455SOL     OW32263   0.202   4.855   2.730
10455SOL    HW132264   0.262   4.781   2.699
10455SOL    HW232265   0.250   4.909   2.800
10456SOL     OW32266   3.369   6.071   1.833
10456SOL    HW132267   3.363   6.140   1.761
10456SOL    HW232268   3.396   6.115   1.919
10457SOL     OW32269   3.527   2.921   2.755
10457SOL    HW132270   3.536   2.841   2.814
10457SOL    HW232271   3.617   2.957   2.732
10458SOL     OW32272   0.331   0.371   0.054
10458SOL    HW132273   0.263   0.427   0.006
10458SOL    HW232274   0.300   0.354   0.147
10459SOL     OW32275   5.425   5.236   2.847
10459SOL    HW132276   5.384   5.307   2.904
10459SOL    HW232277   5.353   5.184   2.801
10460SOL     OW32278   2.448   5.792   1.134
10460SOL    HW132279   2.434   5.821   1.039
10460SOL    HW232280   2.545   5.800   1.158
10461SOL     OW32281   1.176   6.105   5.679
10461SOL    HW132282   1.194   6.007   5.680
10461SOL    HW232283   1.256   6.152   5.641
10462SOL     OW32284   5.324   1.852   2.444
10462SOL    HW132285   5.321   1.892   2.353
10462SOL    HW232286   5.269   1.768   2.445
10463SOL     OW32287   3.523   3.201   5.780
10463SOL    HW132288   3.565   3.267   5.842
10463SOL    HW232289   3.537   3.109   5.815
10464SOL     OW32290   5.176   0.118   0.366
10464SOL    HW132291   5.197   0.124   0.268
10464SOL    HW232292   5.253   0.075   0.413
10465SOL     OW32293   6.332   6.997   0.653
10465SOL    HW132294   6.321   0.064   0.611
10465SOL    HW232295   6.245   6.969   0.693
10466SOL     OW32296   4.411   5.086   5.404
10466SOL    HW132297   4.500   5.131   5.394
10466SOL    HW232298   4.422   4.987   5.402
10467SOL     OW32299   1.369   1.946   5.559
10467SOL    HW132300   1.299   1.989   5.502
10467SOL    HW232301   1.456   1.994   5.546
10468SOL     OW32302   3.549   6.118   3.754
10468SOL    HW132303   3.463   6.098   3.708
10468SOL    HW232304   3.586   6.033   3.792
10469SOL     OW32305   3.656   3.880   0.692
10469SOL    HW132306   3.569   3.925   0.714
10469SOL    HW232307   3.650   3.783   0.715
10470SOL     OW32308   2.124   1.947   2.709
10470SOL    HW132309   2.087   2.035   2.738
10470SOL    HW232310   2.066   1.873   2.745
10471SOL     OW32311   2.237   3.313   1.056
10471SOL    HW132312   2.207   3.296   1.150
10471SOL    HW232313   2.165   3.361   1.006
10472SOL     OW32314   3.520   6.235   1.492
10472SOL    HW132315   3.436   6.210   1.443
10472SOL    HW232316   3.589   6.164   1.478
10473SOL     OW32317   5.396   0.039   0.854
10473SOL    HW132318   5.375   0.136   0.847
10473SOL    HW232319   5.362   0.005   0.942
10474SOL     OW32320   4.958   0.619   4.643
10474SOL    HW132321   4.939   0.521   4.650
10474SOL    HW232322   5.029   0.634   4.574
10475SOL     OW32323   4.959   6.499   1.432
10475SOL    HW132324   5.040   6.546   1.398
10475SOL    HW232325   4.914   6.556   1.501
10476SOL     OW32326   0.286   5.311   6.433
10476SOL    HW132327   0.217   5.384   6.432
10476SOL    HW232328   0.287   5.266   6.344
10477SOL     OW32329   6.083   3.146   4.903
10477SOL    HW132330   6.161   3.088   4.923
10477SOL    HW232331   6.087   3.229   4.959
10478SOL     OW32332   0.582   0.236   6.896
10478SOL    HW132333   0.574   0.283   6.984
10478SOL    HW232334   0.521   0.279   6.830
10479SOL     OW32335   1.112   2.183   1.287
10479SOL    HW132336   1.107   2.159   1.190
10479SOL    HW232337   1.026   2.160   1.332
10480SOL     OW32338   5.355   0.335   0.891
10480SOL    HW132339   5.286   0.394   0.934
10480SOL    HW232340   5.365   0.360   0.795
10481SOL     OW32341   3.190   1.085   4.651
10481SOL    HW132342   3.142   1.045   4.572
10481SOL    HW232343   3.124   1.104   4.724
10482SOL     OW32344   0.968   6.013   4.199
10482SOL    HW132345   1.060   6.016   4.161
10482SOL    HW232346   0.969   6.052   4.292
10483SOL     OW32347   6.697   5.120   0.215
10483SOL    HW132348   6.676   5.158   0.306
10483SOL    HW232349   6.620   5.137   0.154
10484SOL     OW32350   6.924   0.157   0.858
10484SOL    HW132351   6.839   0.188   0.901
10484SOL    HW232352   6.998   0.159   0.925
10485SOL     OW32353   3.729   3.563   3.216
10485SOL    HW132354   3.675   3.636   3.257
10485SOL    HW232355   3.803   3.603   3.161
10486SOL     OW32356   5.869   0.467   6.092
10486SOL    HW132357   5.806   0.536   6.128
10486SOL    HW232358   5.948   0.460   6.154
10487SOL     OW32359   4.583   1.760   1.387
10487SOL    HW132360   4.577   1.857   1.410
10487SOL    HW232361   4.598   1.707   1.470
10488SOL     OW32362   1.218   1.968   6.108
10488SOL    HW132363   1.231   1.936   6.014
10488SOL    HW232364   1.200   1.889   6.167
10489SOL     OW32365   5.558   5.716   3.600
10489SOL    HW132366   5.649   5.738   3.567
10489SOL    HW232367   5.535   5.775   3.677
10490SOL     OW32368   5.879   0.252   0.440
10490SOL    HW132369   5.924   0.327   0.391
10490SOL    HW232370   5.797   0.224   0.391
10491SOL     OW32371   1.862   2.698   6.527
10491SOL    HW132372   1.880   2.766   6.598
10491SOL    HW232373   1.764   2.691   6.511
10492SOL     OW32374   3.815   6.321   0.520
10492SOL    HW132375   3.775   6.233   0.545
10492SOL    HW232376   3.752   6.395   0.544
10493SOL     OW32377   3.904   5.688   0.750
10493SOL    HW132378   3.984   5.687   0.811
10493SOL    HW232379   3.916   5.620   0.678
10494SOL     OW32380   0.719   4.879   5.990
10494SOL    HW132381   0.661   4.797   5.997
10494SOL    HW232382   0.726   4.906   5.894
10495SOL     OW32383   6.614   6.078   6.962
10495SOL    HW132384   6.570   6.168   6.954
10495SOL    HW232385   6.562   6.011   6.909
10496SOL     OW32386   6.829   3.865   5.327
10496SOL    HW132387   6.811   3.941   5.389
10496SOL    HW232388   6.807   3.892   5.234
10497SOL     OW32389   1.344   0.094   1.730
10497SOL    HW132390   1.254   0.092   1.687
10497SOL    HW232391   1.387   0.183   1.713
10498SOL     OW32392   5.317   6.207   1.217
10498SOL    HW132393   5.388   6.149   1.258
10498SOL    HW232394   5.301   6.286   1.276
10499SOL     OW32395   5.872   5.816   1.334
10499SOL    HW132396   5.950   5.768   1.374
10499SOL    HW232397   5.883   5.915   1.346
10500SOL     OW32398   5.243   3.475   4.928
10500SOL    HW132399   5.186   3.412   4.979
10500SOL    HW232400   5.281   3.544   4.990
10501SOL     OW32401   2.401   5.756   2.285
10501SOL    HW132402   2.338   5.808   2.344
10501SOL    HW232403   2.393   5.659   2.306
10502SOL     OW32404   3.029   3.147   1.365
10502SOL    HW132405   2.973   3.226   1.390
10502SOL    HW232406   3.076   3.166   1.279
10503SOL     OW32407   6.699   3.668   6.632
10503SOL    HW132408   6.669   3.631   6.544
10503SOL    HW232409   6.662   3.611   6.706
10504SOL     OW32410   1.508   2.676   6.032
10504SOL    HW132411   1.437   2.746   6.039
10504SOL    HW232412   1.481   2.609   5.963
10505SOL     OW32413   6.029   5.887   2.342
10505SOL    HW132414   6.128   5.895   2.353
10505SOL    HW232415   6.003   5.791   2.347
10506SOL     OW32416   1.091   3.599   0.497
10506SOL    HW132417   1.087   3.686   0.447
10506SOL    HW232418   1.180   3.556   0.481
10507SOL     OW32419   2.720   4.741   0.108
10507SOL    HW132420   2.786   4.729   0.034
10507SOL    HW232421   2.766   4.732   0.196
10508SOL     OW32422   1.256   5.549   4.077
10508SOL    HW132423   1.355   5.556   4.083
10508SOL    HW232424   1.223   5.601   3.998
10509SOL     OW32425   4.872   3.233   4.549
10509SOL    HW132426   4.867   3.330   4.523
10509SOL    HW232427   4.827   3.221   4.638
10510SOL     OW32428   5.054   6.442   5.697
10510SOL    HW132429   4.970   6.452   5.644
10510SOL    HW232430   5.118   6.515   5.672
10511SOL     OW32431   3.105   1.214   1.861
10511SOL    HW132432   3.049   1.152   1.806
10511SOL    HW232433   3.106   1.304   1.818
10512SOL     OW32434   4.617   6.864   5.780
10512SOL    HW132435   4.591   6.950   5.737
10512SOL    HW232436   4.620   6.875   5.879
10513SOL     OW32437   6.410   2.966   2.416
10513SOL    HW132438   6.348   3.026   2.367
10513SOL    HW232439   6.358   2.899   2.469
10514SOL     OW32440   2.269   2.057   1.172
10514SOL    HW132441   2.329   2.112   1.113
10514SOL    HW232442   2.325   2.004   1.236
10515SOL     OW32443   2.480   2.335   4.113
10515SOL    HW132444   2.521   2.254   4.154
10515SOL    HW232445   2.448   2.396   4.186
10516SOL     OW32446   2.829   1.973   0.219
10516SOL    HW132447   2.827   2.073   0.217
10516SOL    HW232448   2.832   1.941   0.314
10517SOL     OW32449   1.735   3.856   2.799
10517SOL    HW132450   1.691   3.946   2.793
10517SOL    HW232451   1.831   3.868   2.822
10518SOL     OW32452   0.340   5.211   2.466
10518SOL    HW132453   0.273   5.140   2.483
10518SOL    HW232454   0.431   5.170   2.454
10519SOL     OW32455   3.043   5.082   1.653
10519SOL    HW132456   3.105   5.043   1.721
10519SOL    HW232457   3.087   5.079   1.563
10520SOL     OW32458   6.647   1.812   6.383
10520SOL    HW132459   6.680   1.891   6.330
10520SOL    HW232460   6.642   1.732   6.324
10521SOL     OW32461   6.443   4.299   1.417
10521SOL    HW132462   6.419   4.203   1.406
10521SOL    HW232463   6.419   4.349   1.333
10522SOL     OW32464   0.083   2.073   3.306
10522SOL    HW132465   0.015   2.066   3.233
10522SOL    HW232466   0.155   2.137   3.278
10523SOL     OW32467   0.353   4.053   3.815
10523SOL    HW132468   0.339   4.151   3.809
10523SOL    HW232469   0.320   4.020   3.904
10524SOL     OW32470   0.255   5.025   3.738
10524SOL    HW132471   0.241   4.984   3.828
10524SOL    HW232472   0.168   5.062   3.704
10525SOL     OW32473   4.720   0.625   4.970
10525SOL    HW132474   4.733   0.684   5.050
10525SOL    HW232475   4.803   0.627   4.913
10526SOL     OW32476   0.225   5.959   1.184
10526SOL    HW132477   0.283   6.036   1.158
10526SOL    HW232478   0.256   5.922   1.272
10527SOL     OW32479   0.267   0.930   6.155
10527SOL    HW132480   0.325   0.916   6.075
10527SOL    HW232481   0.267   1.027   6.180
10528SOL     OW32482   0.342   4.583   0.214
10528SOL    HW132483   0.358   4.496   0.167
10528SOL    HW232484   0.295   4.646   0.151
10529SOL     OW32485   1.555   6.022   5.156
10529SOL    HW132486   1.638   6.024   5.102
10529SOL    HW232487   1.540   5.929   5.192
10530SOL     OW32488   1.470   6.415   6.478
10530SOL    HW132489   1.487   6.320   6.455
10530SOL    HW232490   1.373   6.436   6.465
10531SOL     OW32491   2.914   2.379   5.245
10531SOL    HW132492   2.917   2.474   5.276
10531SOL    HW232493   2.994   2.360   5.188
10532SOL     OW32494   6.092   6.906   6.639
10532SOL    HW132495   6.045   6.830   6.594
10532SOL    HW232496   6.061   6.914   6.733
10533SOL     OW32497   2.881   6.101   3.974
10533SOL    HW132498   2.937   6.183   3.963
10533SOL    HW232499   2.832   6.083   3.888
10534SOL     OW32500   0.473   5.677   2.505
10534SOL    HW132501   0.446   5.642   2.416
10534SOL    HW232502   0.551   5.739   2.494
10535SOL     OW32503   2.584   1.401   1.657
10535SOL    HW132504   2.550   1.308   1.665
10535SOL    HW232505   2.645   1.422   1.733
10536SOL     OW32506   4.378   0.522   3.382
10536SOL    HW132507   4.408   0.507   3.476
10536SOL    HW232508   4.447   0.487   3.319
10537SOL     OW32509   4.539   6.556   3.407
10537SOL    HW132510   4.582   6.545   3.318
10537SOL    HW232511   4.547   6.651   3.437
10538SOL     OW32512   5.857   3.766   2.496
10538SOL    HW132513   5.841   3.809   2.585
10538SOL    HW232514   5.772   3.765   2.443
10539SOL     OW32515   6.330   5.813   2.313
10539SOL    HW132516   6.370   5.740   2.257
10539SOL    HW232517   6.393   5.838   2.386
10540SOL     OW32518   2.381   3.698   5.960
10540SOL    HW132519   2.451   3.750   5.911
10540SOL    HW232520   2.391   3.712   6.058
10541SOL     OW32521   3.034   3.128   4.790
10541SOL    HW132522   2.942   3.089   4.789
10541SOL    HW232523   3.042   3.197   4.719
10542SOL     OW32524   6.097   0.355   4.678
10542SOL    HW132525   6.148   0.271   4.657
10542SOL    HW232526   6.159   0.433   4.673
10543SOL     OW32527   6.403   2.293   5.717
10543SOL    HW132528   6.476   2.245   5.670
10543SOL    HW232529   6.440   2.373   5.764
10544SOL     OW32530   1.163   0.715   3.618
10544SOL    HW132531   1.081   0.729   3.562
10544SOL    HW232532   1.241   0.760   3.575
10545SOL     OW32533   0.978   3.215   2.347
10545SOL    HW132534   1.058   3.250   2.395
10545SOL    HW232535   0.897   3.267   2.375
10546SOL     OW32536   2.680   6.754   1.237
10546SOL    HW132537   2.599   6.734   1.293
10546SOL    HW232538   2.763   6.731   1.288
10547SOL     OW32539   5.075   0.302   4.374
10547SOL    HW132540   5.157   0.252   4.347
10547SOL    HW232541   5.070   0.388   4.322
10548SOL     OW32542   0.475   4.755   4.925
10548SOL    HW132543   0.544   4.780   4.857
10548SOL    HW232544   0.406   4.827   4.929
10549SOL     OW32545   0.321   1.750   0.262
10549SOL    HW132546   0.412   1.708   0.268
10549SOL    HW232547   0.267   1.722   0.341
10550SOL     OW32548   4.038   6.661   3.181
10550SOL    HW132549   3.973   6.616   3.121
10550SOL    HW232550   4.108   6.595   3.209
10551SOL     OW32551   2.425   1.967   5.996
10551SOL    HW132552   2.478   1.886   5.972
10551SOL    HW232553   2.360   1.944   6.068
10552SOL     OW32554   3.035   0.979   4.439
10552SOL    HW132555   2.993   1.063   4.406
10552SOL    HW232556   3.068   0.926   4.361
10553SOL     OW32557   6.945   5.276   1.034
10553SOL    HW132558   7.010   5.276   0.957
10553SOL    HW232559   6.946   5.365   1.078
10554SOL     OW32560   6.128   4.692   2.560
10554SOL    HW132561   6.097   4.618   2.499
10554SOL    HW232562   6.222   4.674   2.589
10555SOL     OW32563   2.669   2.541   0.605
10555SOL    HW132564   2.745   2.475   0.606
10555SOL    HW232565   2.588   2.498   0.566
10556SOL     OW32566   2.577   1.306   3.034
10556SOL    HW132567   2.486   1.347   3.043
10556SOL    HW232568   2.579   1.217   3.079
10557SOL     OW32569   1.769   3.493   5.018
10557SOL    HW132570   1.677   3.455   5.026
10557SOL    HW232571   1.763   3.584   4.976
10558SOL     OW32572   3.697   4.560   5.686
10558SOL    HW132573   3.631   4.504   5.736
10558SOL    HW232574   3.739   4.506   5.613
10559SOL     OW32575   3.154   1.180   0.665
10559SOL    HW132576   3.232   1.177   0.727
10559SOL    HW232577   3.069   1.166   0.717
10560SOL     OW32578   4.214   6.091   1.861
10560SOL    HW132579   4.141   6.102   1.793
10560SOL    HW232580   4.282   6.162   1.849
10561SOL     OW32581   4.599   4.766   1.979
10561SOL    HW132582   4.688   4.797   1.945
10561SOL    HW232583   4.526   4.818   1.934
10562SOL     OW32584   3.001   6.476   1.114
10562SOL    HW132585   2.974   6.382   1.094
10562SOL    HW232586   2.990   6.532   1.033
10563SOL     OW32587   1.026   0.067   0.647
10563SOL    HW132588   1.109   0.014   0.665
10563SOL    HW232589   1.044   0.164   0.665
10564SOL     OW32590   6.551   5.306   3.499
10564SOL    HW132591   6.619   5.236   3.475
10564SOL    HW232592   6.529   5.360   3.418
10565SOL     OW32593   6.785   0.017   5.862
10565SOL    HW132594   6.861   0.028   5.925
10565SOL    HW232595   6.810   6.975   5.791
10566SOL     OW32596   2.678   2.178   6.738
10566SOL    HW132597   2.657   2.271   6.708
10566SOL    HW232598   2.765   2.178   6.787
10567SOL     OW32599   1.927   2.058   6.109
10567SOL    HW132600   2.001   2.099   6.056
10567SOL    HW232601   1.965   1.991   6.173
10568SOL     OW32602   5.706   3.179   0.008
10568SOL    HW132603   5.783   3.216   6.980
10568SOL    HW232604   5.631   3.244   0.007
10569SOL     OW32605   5.439   0.472   2.055
10569SOL    HW132606   5.418   0.388   2.006
10569SOL    HW232607   5.354   0.521   2.074
10570SOL     OW32608   1.446   4.760   4.003
10570SOL    HW132609   1.453   4.705   3.920
10570SOL    HW232610   1.407   4.849   3.981
10571SOL     OW32611   0.221   3.982   6.517
10571SOL    HW132612   0.263   3.990   6.426
10571SOL    HW232613   0.218   4.072   6.561
10572SOL     OW32614   6.829   4.563   1.559
10572SOL    HW132615   6.886   4.524   1.632
10572SOL    HW232616   6.827   4.662   1.568
10573SOL     OW32617   5.449   0.727   4.571
10573SOL    HW132618   5.370   0.686   4.524
10573SOL    HW232619   5.531   0.673   4.551
10574SOL     OW32620   6.411   0.362   3.983
10574SOL    HW132621   6.348   0.425   3.937
10574SOL    HW232622   6.429   0.284   3.923
10575SOL     OW32623   5.381   0.355   3.678
10575SOL    HW132624   5.468   0.361   3.727
10575SOL    HW232625   5.350   0.447   3.653
10576SOL     OW32626   1.676   4.736   2.712
10576SOL    HW132627   1.700   4.752   2.807
10576SOL    HW232628   1.590   4.782   2.690
10577SOL     OW32629   3.005   6.144   0.711
10577SOL    HW132630   3.048   6.174   0.625
10577SOL    HW232631   2.915   6.186   0.720
10578SOL     OW32632   5.937   2.150   3.755
10578SOL    HW132633   5.960   2.151   3.852
10578SOL    HW232634   5.902   2.240   3.728
10579SOL     OW32635   2.545   3.805   1.429
10579SOL    HW132636   2.484   3.884   1.426
10579SOL    HW232637   2.618   3.821   1.496
10580SOL     OW32638   6.399   0.117   0.104
10580SOL    HW132639   6.303   0.109   0.075
10580SOL    HW232640   6.439   0.026   0.114
10581SOL     OW32641   5.249   6.247   2.898
10581SOL    HW132642   5.344   6.228   2.920
10581SOL    HW232643   5.244   6.308   2.819
10582SOL     OW32644   5.678   4.555   6.498
10582SOL    HW132645   5.616   4.612   6.553
10582SOL    HW232646   5.624   4.503   6.431
10583SOL     OW32647   3.187   0.454   4.206
10583SOL    HW132648   3.274   0.405   4.215
10583SOL    HW232649   3.139   0.451   4.294
10584SOL     OW32650   6.476   0.539   6.485
10584SOL    HW132651   6.458   0.497   6.397
10584SOL    HW232652   6.410   0.612   6.502
10585SOL     OW32653   1.008   2.022   6.341
10585SOL    HW132654   1.019   2.111   6.384
10585SOL    HW232655   0.916   1.987   6.360
10586SOL     OW32656   4.460   4.937   5.801
10586SOL    HW132657   4.433   4.970   5.892
10586SOL    HW232658   4.387   4.957   5.735
10587SOL     OW32659   0.619   5.676   5.969
10587SOL    HW132660   0.703   5.730   5.974
10587SOL    HW232661   0.614   5.631   5.880
10588SOL     OW32662   1.940   2.572   4.352
10588SOL    HW132663   1.893   2.525   4.427
10588SOL    HW232664   1.984   2.655   4.387
10589SOL     OW32665   5.336   6.188   4.875
10589SOL    HW132666   5.346   6.223   4.968
10589SOL    HW232667   5.273   6.247   4.823
10590SOL     OW32668   0.453   5.704   1.697
10590SOL    HW132669   0.355   5.720   1.686
10590SOL    HW232670   0.490   5.668   1.611
10591SOL     OW32671   1.798   1.016   1.058
10591SOL    HW132672   1.718   1.043   1.113
10591SOL    HW232673   1.878   1.065   1.091
10592SOL     OW32674   5.883   2.603   4.487
10592SOL    HW132675   5.910   2.537   4.417
10592SOL    HW232676   5.950   2.601   4.562
10593SOL     OW32677   2.213   6.256   0.663
10593SOL    HW132678   2.198   6.203   0.579
10593SOL    HW232679   2.169   6.210   0.739
10594SOL     OW32680   3.797   1.043   2.806
10594SOL    HW132681   3.802   1.015   2.710
10594SOL    HW232682   3.715   1.004   2.847
10595SOL     OW32683   6.213   0.745   0.369
10595SOL    HW132684   6.203   0.839   0.337
10595SOL    HW232685   6.123   0.709   0.395
10596SOL     OW32686   4.545   1.580   0.049
10596SOL    HW132687   4.627   1.525   0.063
10596SOL    HW232688   4.526   1.587   6.974
10597SOL     OW32689   2.730   0.822   6.095
10597SOL    HW132690   2.803   0.890   6.094
10597SOL    HW232691   2.644   0.865   6.122
10598SOL     OW32692   2.253   1.847   5.717
10598SOL    HW132693   2.229   1.753   5.742
10598SOL    HW232694   2.170   1.902   5.711
10599SOL     OW32695   6.352   4.075   6.422
10599SOL    HW132696   6.296   4.062   6.504
10599SOL    HW232697   6.328   4.006   6.354
10600SOL     OW32698   3.367   1.247   1.411
10600SOL    HW132699   3.415   1.328   1.377
10600SOL    HW232700   3.414   1.212   1.492
10601SOL     OW32701   0.213   6.372   5.732
10601SOL    HW132702   0.273   6.345   5.807
10601SOL    HW232703   0.236   6.464   5.701
10602SOL     OW32704   0.575   0.520   0.066
10602SOL    HW132705   0.477   0.501   0.064
10602SOL    HW232706   0.622   0.443   0.108
10603SOL     OW32707   4.603   6.435   1.680
10603SOL    HW132708   4.614   6.339   1.653
10603SOL    HW232709   4.662   6.492   1.622
10604SOL     OW32710   0.464   6.221   4.804
10604SOL    HW132711   0.440   6.169   4.886
10604SOL    HW232712   0.454   6.319   4.821
10605SOL     OW32713   2.153   0.494   0.180
10605SOL    HW132714   2.059   0.520   0.201
10605SOL    HW232715   2.155   0.439   0.097
10606SOL     OW32716   6.198   0.765   1.498
10606SOL    HW132717   6.132   0.697   1.529
10606SOL    HW232718   6.243   0.806   1.577
10607SOL     OW32719   4.281   4.383   0.115
10607SOL    HW132720   4.292   4.287   0.141
10607SOL    HW232721   4.184   4.404   0.102
10608SOL     OW32722   6.725   2.867   2.922
10608SOL    HW132723   6.808   2.827   2.961
10608SOL    HW232724   6.715   2.836   2.828
10609SOL     OW32725   2.897   6.562   0.637
10609SOL    HW132726   2.824   6.558   0.706
10609SOL    HW232727   2.958   6.638   0.659
10610SOL     OW32728   6.588   2.552   4.220
10610SOL    HW132729   6.617   2.515   4.131
10610SOL    HW232730   6.488   2.551   4.225
10611SOL     OW32731   2.523   5.604   4.858
10611SOL    HW132732   2.579   5.521   4.864
10611SOL    HW232733   2.501   5.622   4.762
10612SOL     OW32734   5.417   0.985   4.359
10612SOL    HW132735   5.508   1.028   4.352
10612SOL    HW232736   5.414   0.925   4.438
10613SOL     OW32737   5.539   6.083   4.393
10613SOL    HW132738   5.532   6.076   4.294
10613SOL    HW232739   5.472   6.023   4.436
10614SOL     OW32740   4.916   1.314   5.541
10614SOL    HW132741   5.004   1.354   5.563
10614SOL    HW232742   4.893   1.244   5.609
10615SOL     OW32743   3.612   1.188   5.623
10615SOL    HW132744   3.533   1.244   5.596
10615SOL    HW232745   3.630   1.202   5.720
10616SOL     OW32746   2.839   6.626   6.714
10616SOL    HW132747   2.877   6.664   6.798
10616SOL    HW232748   2.785   6.696   6.667
10617SOL     OW32749   2.388   4.074   1.808
10617SOL    HW132750   2.481   4.097   1.777
10617SOL    HW232751   2.349   4.004   1.749
10618SOL     OW32752   0.718   5.467   5.482
10618SOL    HW132753   0.732   5.369   5.500
10618SOL    HW232754   0.757   5.490   5.393
10619SOL     OW32755   0.494   2.289   2.842
10619SOL    HW132756   0.592   2.292   2.826
10619SOL    HW232757   0.463   2.194   2.844
10620SOL     OW32758   1.375   0.155   4.861
10620SOL    HW132759   1.284   0.157   4.902
10620SOL    HW232760   1.405   0.249   4.843
10621SOL     OW32761   1.090   4.186   2.415
10621SOL    HW132762   1.081   4.247   2.493
10621SOL    HW232763   1.147   4.230   2.345
10622SOL     OW32764   4.084   2.679   1.182
10622SOL    HW132765   4.015   2.612   1.207
10622SOL    HW232766   4.063   2.718   1.092
10623SOL     OW32767   6.328   5.927   5.107
10623SOL    HW132768   6.412   5.929   5.163
10623SOL    HW232769   6.347   5.880   5.021
10624SOL     OW32770   0.523   2.634   4.789
10624SOL    HW132771   0.620   2.653   4.779
10624SOL    HW232772   0.475   2.716   4.822
10625SOL     OW32773   0.854   3.326   0.338
10625SOL    HW132774   0.887   3.353   0.428
10625SOL    HW232775   0.890   3.236   0.314
10626SOL     OW32776   3.277   3.028   1.570
10626SOL    HW132777   3.182   2.999   1.562
10626SOL    HW232778   3.317   2.991   1.654
10627SOL     OW32779   5.560   0.901   6.575
10627SOL    HW132780   5.651   0.862   6.591
10627SOL    HW232781   5.554   0.989   6.620
10628SOL     OW32782   4.113   0.314   0.327
10628SOL    HW132783   4.213   0.322   0.320
10628SOL    HW232784   4.084   0.343   0.418
10629SOL     OW32785   3.270   5.187   5.117
10629SOL    HW132786   3.200   5.244   5.073
10629SOL    HW232787   3.227   5.109   5.162
10630SOL     OW32788   5.310   0.868   2.408
10630SOL    HW132789   5.403   0.857   2.375
10630SOL    HW232790   5.272   0.954   2.372
10631SOL     OW32791   4.290   4.470   6.090
10631SOL    HW132792   4.321   4.387   6.045
10631SOL    HW232793   4.195   4.488   6.065
10632SOL     OW32794   4.885   5.752   3.470
10632SOL    HW132795   4.797   5.707   3.487
10632SOL    HW232796   4.951   5.723   3.539
10633SOL     OW32797   2.223   2.882   1.785
10633SOL    HW132798   2.182   2.972   1.801
10633SOL    HW232799   2.245   2.840   1.873
10634SOL     OW32800   1.414   5.681   0.374
10634SOL    HW132801   1.426   5.765   0.321
10634SOL    HW232802   1.448   5.695   0.467
10635SOL     OW32803   2.157   3.724   0.511
10635SOL    HW132804   2.094   3.791   0.551
10635SOL    HW232805   2.160   3.736   0.412
10636SOL     OW32806   6.431   1.410   0.787
10636SOL    HW132807   6.365   1.340   0.817
10636SOL    HW232808   6.383   1.480   0.734
10637SOL     OW32809   2.321   6.274   6.602
10637SOL    HW132810   2.316   6.326   6.517
10637SOL    HW232811   2.413   6.283   6.640
10638SOL     OW32812   6.941   6.536   2.292
10638SOL    HW132813   6.869   6.495   2.348
10638SOL    HW232814   7.005   6.465   2.263
10639SOL     OW32815   2.071   3.562   1.759
10639SOL    HW132816   2.131   3.596   1.687
10639SOL    HW232817   2.117   3.570   1.847
10640SOL     OW32818   4.491   1.120   3.618
10640SOL    HW132819   4.560   1.192   3.629
10640SOL    HW232820   4.460   1.090   3.709
10641SOL     OW32821   2.020   1.372   3.663
10641SOL    HW132822   2.032   1.464   3.702
10641SOL    HW232823   2.044   1.304   3.732
10642SOL     OW32824   5.686   1.792   0.587
10642SOL    HW132825   5.725   1.875   0.625
10642SOL    HW232826   5.723   1.713   0.636
10643SOL     OW32827   2.061   5.804   4.926
10643SOL    HW132828   1.988   5.771   4.985
10643SOL    HW232829   2.082   5.899   4.949
10644SOL     OW32830   6.095   3.131   1.276
10644SOL    HW132831   6.108   3.078   1.192
10644SOL    HW232832   6.030   3.205   1.260
10645SOL     OW32833   2.082   2.989   3.718
10645SOL    HW132834   2.078   3.084   3.686
10645SOL    HW232835   2.151   2.939   3.664
10646SOL     OW32836   5.827   0.901   5.930
10646SOL    HW132837   5.913   0.898   5.982
10646SOL    HW232838   5.762   0.961   5.978
10647SOL     OW32839   3.717   5.310   5.170
10647SOL    HW132840   3.734   5.265   5.082
10647SOL    HW232841   3.774   5.392   5.177
10648SOL     OW32842   6.309   5.630   6.391
10648SOL    HW132843   6.230   5.689   6.380
10648SOL    HW232844   6.363   5.660   6.469
10649SOL     OW32845   1.167   3.165   3.668
10649SOL    HW132846   1.150   3.190   3.764
10649SOL    HW232847   1.109   3.220   3.608
10650SOL     OW32848   0.370   0.296   4.415
10650SOL    HW132849   0.294   0.297   4.349
10650SOL    HW232850   0.435   0.225   4.389
10651SOL     OW32851   5.755   5.901   5.958
10651SOL    HW132852   5.839   5.878   5.910
10651SOL    HW232853   5.748   6.001   5.968
10652SOL     OW32854   2.084   6.747   6.099
10652SOL    HW132855   2.075   6.763   6.001
10652SOL    HW232856   2.016   6.803   6.148
10653SOL     OW32857   3.684   6.110   4.565
10653SOL    HW132858   3.650   6.200   4.539
10653SOL    HW232859   3.659   6.044   4.495
10654SOL     OW32860   4.608   1.496   4.886
10654SOL    HW132861   4.632   1.399   4.877
10654SOL    HW232862   4.508   1.505   4.891
10655SOL     OW32863   1.926   4.576   0.989
10655SOL    HW132864   1.952   4.611   0.899
10655SOL    HW232865   1.847   4.516   0.980
10656SOL     OW32866   6.688   1.318   2.472
10656SOL    HW132867   6.702   1.245   2.539
10656SOL    HW232868   6.761   1.315   2.404
10657SOL     OW32869   6.108   0.979   4.702
10657SOL    HW132870   6.062   0.992   4.790
10657SOL    HW232871   6.079   1.051   4.639
10658SOL     OW32872   6.016   3.889   4.799
10658SOL    HW132873   5.920   3.875   4.824
10658SOL    HW232874   6.047   3.976   4.837
10659SOL     OW32875   1.059   4.368   0.621
10659SOL    HW132876   1.009   4.421   0.552
10659SOL    HW232877   1.107   4.292   0.577
10660SOL     OW32878   6.363   3.731   5.350
10660SOL    HW132879   6.329   3.637   5.357
10660SOL    HW232880   6.442   3.733   5.288
10661SOL     OW32881   1.567   5.444   0.531
10661SOL    HW132882   1.514   5.407   0.455
10661SOL    HW232883   1.665   5.437   0.510
10662SOL     OW32884   3.872   1.062   2.095
10662SOL    HW132885   3.871   0.963   2.107
10662SOL    HW232886   3.814   1.105   2.164
10663SOL     OW32887   0.520   1.999   3.375
10663SOL    HW132888   0.469   2.025   3.293
10663SOL    HW232889   0.476   1.921   3.418
10664SOL     OW32890   6.927   5.375   4.948
10664SOL    HW132891   7.009   5.376   4.891
10664SOL    HW232892   6.949   5.340   5.039
10665SOL     OW32893   2.204   2.468   0.022
10665SOL    HW132894   2.259   2.514   6.976
10665SOL    HW232895   2.221   2.369   0.018
10666SOL     OW32896   3.255   4.101   2.298
10666SOL    HW132897   3.299   4.075   2.384
10666SOL    HW232898   3.197   4.182   2.313
10667SOL     OW32899   4.941   1.612   4.114
10667SOL    HW132900   4.957   1.704   4.148
10667SOL    HW232901   4.925   1.550   4.190
10668SOL     OW32902   3.415   1.366   5.595
10668SOL    HW132903   3.326   1.401   5.623
10668SOL    HW232904   3.481   1.441   5.592
10669SOL     OW32905   5.747   0.560   0.791
10669SOL    HW132906   5.808   0.627   0.750
10669SOL    HW232907   5.703   0.506   0.719
10670SOL     OW32908   5.511   4.756   4.399
10670SOL    HW132909   5.433   4.693   4.404
10670SOL    HW232910   5.520   4.789   4.305
10671SOL     OW32911   1.615   1.805   4.417
10671SOL    HW132912   1.703   1.832   4.377
10671SOL    HW232913   1.565   1.886   4.446
10672SOL     OW32914   6.676   4.251   1.539
10672SOL    HW132915   6.753   4.287   1.486
10672SOL    HW232916   6.592   4.262   1.486
10673SOL     OW32917   1.440   6.874   0.105
10673SOL    HW132918   1.464   6.778   0.116
10673SOL    HW232919   1.489   6.913   0.028
10674SOL     OW32920   3.878   3.893   4.208
10674SOL    HW132921   3.869   3.944   4.293
10674SOL    HW232922   3.933   3.946   4.143
10675SOL     OW32923   3.070   0.844   6.393
10675SOL    HW132924   3.048   0.782   6.318
10675SOL    HW232925   3.165   0.831   6.421
10676SOL     OW32926   0.246   6.194   4.641
10676SOL    HW132927   0.173   6.164   4.702
10676SOL    HW232928   0.334   6.189   4.689
10677SOL     OW32929   1.623   1.133   1.271
10677SOL    HW132930   1.538   1.092   1.239
10677SOL    HW232931   1.655   1.085   1.353
10678SOL     OW32932   4.359   4.699   3.779
10678SOL    HW132933   4.382   4.785   3.735
10678SOL    HW232934   4.443   4.649   3.802
10679SOL     OW32935   3.854   5.766   6.668
10679SOL    HW132936   3.812   5.738   6.582
10679SOL    HW232937   3.842   5.865   6.680
10680SOL     OW32938   3.754   2.104   3.535
10680SOL    HW132939   3.837   2.149   3.500
10680SOL    HW232940   3.757   2.007   3.510
10681SOL     OW32941   6.468   3.826   0.295
10681SOL    HW132942   6.528   3.871   0.362
10681SOL    HW232943   6.376   3.864   0.302
10682SOL     OW32944   0.456   2.854   5.394
10682SOL    HW132945   0.433   2.776   5.336
10682SOL    HW232946   0.470   2.823   5.488
10683SOL     OW32947   4.598   0.984   3.917
10683SOL    HW132948   4.591   0.964   4.015
10683SOL    HW232949   4.643   1.072   3.904
10684SOL     OW32950   4.579   5.576   1.921
10684SOL    HW132951   4.616   5.485   1.906
10684SOL    HW232952   4.640   5.627   1.981
10685SOL     OW32953   0.596   5.481   1.251
10685SOL    HW132954   0.675   5.518   1.299
10685SOL    HW232955   0.591   5.521   1.159
10686SOL     OW32956   1.650   4.248   5.850
10686SOL    HW132957   1.745   4.221   5.862
10686SOL    HW232958   1.604   4.182   5.790
10687SOL     OW32959   6.568   4.423   4.727
10687SOL    HW132960   6.637   4.364   4.685
10687SOL    HW232961   6.547   4.499   4.665
10688SOL     OW32962   5.996   2.939   3.261
10688SOL    HW132963   6.027   3.029   3.293
10688SOL    HW232964   5.926   2.904   3.323
10689SOL     OW32965   6.816   0.776   1.970
10689SOL    HW132966   6.743   0.791   2.037
10689SOL    HW232967   6.878   0.705   2.003
10690SOL     OW32968   0.395   5.078   3.366
10690SOL    HW132969   0.458   5.152   3.389
10690SOL    HW232970   0.426   5.032   3.283
10691SOL     OW32971   1.713   2.109   1.671
10691SOL    HW132972   1.803   2.141   1.641
10691SOL    HW232973   1.695   2.141   1.764
10692SOL     OW32974   2.249   0.436   3.497
10692SOL    HW132975   2.162   0.429   3.448
10692SOL    HW232976   2.252   0.520   3.550
10693SOL     OW32977   1.421   6.090   1.044
10693SOL    HW132978   1.399   6.014   0.982
10693SOL    HW232979   1.402   6.063   1.138
10694SOL     OW32980   5.411   6.276   6.562
10694SOL    HW132981   5.511   6.274   6.567
10694SOL    HW232982   5.373   6.216   6.632
10695SOL     OW32983   1.704   2.640   2.302
10695SOL    HW132984   1.684   2.574   2.374
10695SOL    HW232985   1.804   2.651   2.293
10696SOL     OW32986   6.619   3.786   4.578
10696SOL    HW132987   6.552   3.809   4.507
10696SOL    HW232988   6.687   3.724   4.541
10697SOL     OW32989   0.131   0.604   5.668
10697SOL    HW132990   0.084   0.620   5.755
10697SOL    HW232991   0.087   0.659   5.596
10698SOL     OW32992   4.823   4.641   6.915
10698SOL    HW132993   4.833   4.559   6.971
10698SOL    HW232994   4.826   4.616   6.818
10699SOL     OW32995   3.959   4.909   1.733
10699SOL    HW132996   3.981   4.958   1.648
10699SOL    HW232997   4.021   4.939   1.805
10700SOL     OW32998   5.720   6.250   0.693
10700SOL    HW132999   5.796   6.310   0.668
10700SOL    HW233000   5.697   6.264   0.789
10701SOL     OW33001   2.683   0.331   5.799
10701SOL    HW133002   2.688   0.270   5.877
10701SOL    HW233003   2.773   0.372   5.782
10702SOL     OW33004   5.244   3.456   2.496
10702SOL    HW133005   5.149   3.475   2.519
10702SOL    HW233006   5.258   3.472   2.398
10703SOL     OW33007   2.320   2.607   5.420
10703SOL    HW133008   2.390   2.665   5.379
10703SOL    HW233009   2.359   2.516   5.438
10704SOL     OW33010   6.817   5.071   2.198
10704SOL    HW133011   6.732   5.030   2.165
10704SOL    HW233012   6.894   5.033   2.147
10705SOL     OW33013   6.511   5.128   1.490
10705SOL    HW133014   6.503   5.134   1.390
10705SOL    HW233015   6.601   5.091   1.514
10706SOL     OW33016   4.027   0.049   2.507
10706SOL    HW133017   3.969   0.071   2.586
10706SOL    HW233018   3.970   0.035   2.427
10707SOL     OW33019   0.434   6.118   4.044
10707SOL    HW133020   0.341   6.154   4.046
10707SOL    HW233021   0.495   6.186   4.002
10708SOL     OW33022   3.935   1.430   1.594
10708SOL    HW133023   4.012   1.368   1.583
10708SOL    HW233024   3.885   1.438   1.508
10709SOL     OW33025   5.551   5.315   4.841
10709SOL    HW133026   5.551   5.410   4.809
10709SOL    HW233027   5.551   5.313   4.941
10710SOL     OW33028   6.359   0.984   4.161
10710SOL    HW133029   6.408   0.986   4.073
10710SOL    HW233030   6.385   1.064   4.215
10711SOL     OW33031   2.151   6.583   4.167
10711SOL    HW133032   2.175   6.487   4.152
10711SOL    HW233033   2.134   6.598   4.264
10712SOL     OW33034   3.109   0.850   2.090
10712SOL    HW133035   3.123   0.876   2.185
10712SOL    HW233036   3.181   0.890   2.033
10713SOL     OW33037   0.680   3.517   0.582
10713SOL    HW133038   0.754   3.451   0.574
10713SOL    HW233039   0.602   3.487   0.527
10714SOL     OW33040   4.823   3.846   5.751
10714SOL    HW133041   4.801   3.830   5.847
10714SOL    HW233042   4.758   3.795   5.693
10715SOL     OW33043   4.721   0.424   2.439
10715SOL    HW133044   4.622   0.415   2.434
10715SOL    HW233045   4.746   0.481   2.517
10716SOL     OW33046   5.760   2.299   4.183
10716SOL    HW133047   5.712   2.321   4.268
10716SOL    HW233048   5.702   2.321   4.105
10717SOL     OW33049   1.144   2.153   1.011
10717SOL    HW133050   1.218   2.200   0.962
10717SOL    HW233051   1.147   2.055   0.990
10718SOL     OW33052   1.066   3.734   7.013
10718SOL    HW133053   1.014   3.672   6.955
10718SOL    HW233054   1.074   3.823   6.969
10719SOL     OW33055   0.217   5.831   2.860
10719SOL    HW133056   0.290   5.840   2.793
10719SOL    HW233057   0.203   5.918   2.907
10720SOL     OW33058   6.828   4.358   5.412
10720SOL    HW133059   6.890   4.311   5.350
10720SOL    HW233060   6.881   4.411   5.479
10721SOL     OW33061   5.144   3.813   5.092
10721SOL    HW133062   5.238   3.814   5.125
10721SOL    HW233063   5.134   3.880   5.018
10722SOL     OW33064   1.475   5.196   0.132
10722SOL    HW133065   1.512   5.244   0.052
10722SOL    HW233066   1.436   5.263   0.195
10723SOL     OW33067   0.206   2.838   6.482
10723SOL    HW133068   0.236   2.752   6.522
10723SOL    HW233069   0.265   2.912   6.515
10724SOL     OW33070   6.214   0.933   6.799
10724SOL    HW133071   6.123   0.927   6.759
10724SOL    HW233072   6.283   0.916   6.728
10725SOL     OW33073   1.413   5.588   4.741
10725SOL    HW133074   1.331   5.621   4.693
10725SOL    HW233075   1.483   5.659   4.741
10726SOL     OW33076   5.684   0.550   4.568
10726SOL    HW133077   5.695   0.586   4.475
10726SOL    HW233078   5.669   0.452   4.565
10727SOL     OW33079   0.340   5.503   5.665
10727SOL    HW133080   0.343   5.428   5.600
10727SOL    HW233081   0.284   5.478   5.744
10728SOL     OW33082   1.213   6.020   6.852
10728SOL    HW133083   1.210   6.058   6.760
10728SOL    HW233084   1.230   6.093   6.918
10729SOL     OW33085   4.680   1.629   2.648
10729SOL    HW133086   4.744   1.556   2.673
10729SOL    HW233087   4.697   1.657   2.553
10730SOL     OW33088   1.742   0.695   0.820
10730SOL    HW133089   1.812   0.677   0.889
10730SOL    HW233090   1.656   0.721   0.865
10731SOL     OW33091   3.101   0.557   0.995
10731SOL    HW133092   3.131   0.481   0.938
10731SOL    HW233093   3.178   0.620   1.011
10732SOL     OW33094   6.139   4.739   4.930
10732SOL    HW133095   6.085   4.686   4.995
10732SOL    HW233096   6.132   4.696   4.839
10733SOL     OW33097   6.408   1.953   0.647
10733SOL    HW133098   6.320   1.916   0.675
10733SOL    HW233099   6.417   1.945   0.548
10734SOL     OW33100   1.058   0.341   6.981
10734SOL    HW133101   1.004   0.322   6.899
10734SOL    HW233102   1.142   0.388   6.956
10735SOL     OW33103   0.316   2.903   2.700
10735SOL    HW133104   0.250   2.859   2.760
10735SOL    HW233105   0.395   2.932   2.753
10736SOL     OW33106   0.843   1.158   3.475
10736SOL    HW133107   0.772   1.095   3.444
10736SOL    HW233108   0.813   1.203   3.559
10737SOL     OW33109   1.053   1.539   0.679
10737SOL    HW133110   1.016   1.602   0.747
10737SOL    HW233111   1.036   1.445   0.709
10738SOL     OW33112   2.440   0.556   2.751
10738SOL    HW133113   2.483   0.470   2.723
10738SOL    HW233114   2.382   0.590   2.677
10739SOL     OW33115   1.394   1.374   1.017
10739SOL    HW133116   1.365   1.398   0.924
10739SOL    HW233117   1.335   1.420   1.083
10740SOL     OW33118   0.361   5.379   4.990
10740SOL    HW133119   0.294   5.385   4.916
10740SOL    HW233120   0.314   5.388   5.078
10741SOL     OW33121   5.050   0.298   1.203
10741SOL    HW133122   5.015   0.206   1.219
10741SOL    HW233123   5.007   0.336   1.121
10742SOL     OW33124   5.771   0.291   1.264
10742SOL    HW133125   5.822   0.210   1.294
10742SOL    HW233126   5.803   0.371   1.315
10743SOL     OW33127   2.237   1.394   5.198
10743SOL    HW133128   2.155   1.353   5.158
10743SOL    HW233129   2.218   1.489   5.222
10744SOL     OW33130   3.632   1.463   0.899
10744SOL    HW133131   3.594   1.469   0.807
10744SOL    HW233132   3.572   1.408   0.956
10745SOL     OW33133   0.338   5.727   6.593
10745SOL    HW133134   0.404   5.776   6.535
10745SOL    HW233135   0.378   5.712   6.683
10746SOL     OW33136   2.289   4.965   1.344
10746SOL    HW133137   2.275   4.981   1.441
10746SOL    HW233138   2.388   4.961   1.325
10747SOL     OW33139   3.861   1.142   4.285
10747SOL    HW133140   3.818   1.096   4.207
10747SOL    HW233141   3.911   1.222   4.254
10748SOL     OW33142   5.440   0.817   0.862
10748SOL    HW133143   5.411   0.760   0.785
10748SOL    HW233144   5.371   0.888   0.878
10749SOL     OW33145   0.433   5.410   3.024
10749SOL    HW133146   0.457   5.474   3.097
10749SOL    HW233147   0.396   5.461   2.946
10750SOL     OW33148   4.384   6.315   4.087
10750SOL    HW133149   4.358   6.266   4.170
10750SOL    HW233150   4.479   6.346   4.095
10751SOL     OW33151   1.828   4.803   4.739
10751SOL    HW133152   1.752   4.822   4.801
10751SOL    HW233153   1.913   4.840   4.776
10752SOL     OW33154   6.217   4.387   5.853
10752SOL    HW133155   6.142   4.442   5.816
10752SOL    HW233156   6.273   4.352   5.778
10753SOL     OW33157   4.869   5.076   4.901
10753SOL    HW133158   4.912   4.986   4.890
10753SOL    HW233159   4.886   5.131   4.820
10754SOL     OW33160   0.688   0.514   3.305
10754SOL    HW133161   0.763   0.516   3.371
10754SOL    HW233162   0.686   0.600   3.254
10755SOL     OW33163   0.143   1.097   0.449
10755SOL    HW133164   0.094   1.177   0.482
10755SOL    HW233165   0.079   1.023   0.429
10756SOL     OW33166   6.372   5.083   6.870
10756SOL    HW133167   6.328   5.096   6.958
10756SOL    HW233168   6.303   5.086   6.797
10757SOL     OW33169   2.065   2.974   6.992
10757SOL    HW133170   2.052   3.011   6.900
10757SOL    HW233171   2.069   2.874   6.987
10758SOL     OW33172   0.924   6.369   4.364
10758SOL    HW133173   0.943   6.278   4.401
10758SOL    HW233174   0.935   6.438   4.436
10759SOL     OW33175   1.693   2.619   1.242
10759SOL    HW133176   1.663   2.603   1.147
10759SOL    HW233177   1.721   2.533   1.283
10760SOL     OW33178   5.866   0.344   2.469
10760SOL    HW133179   5.848   0.439   2.493
10760SOL    HW233180   5.821   0.283   2.534
10761SOL     OW33181   1.010   6.400   6.077
10761SOL    HW133182   1.077   6.380   6.005
10761SOL    HW233183   0.990   6.498   6.079
10762SOL     OW33184   3.600   2.128   4.062
10762SOL    HW133185   3.629   2.169   4.148
10762SOL    HW233186   3.623   2.189   3.986
10763SOL     OW33187   5.336   6.908   3.004
10763SOL    HW133188   5.343   7.007   2.993
10763SOL    HW233189   5.287   6.887   3.089
10764SOL     OW33190   4.466   2.320   6.257
10764SOL    HW133191   4.423   2.359   6.175
10764SOL    HW233192   4.548   2.373   6.279
10765SOL     OW33193   4.829   2.488   0.687
10765SOL    HW133194   4.828   2.556   0.760
10765SOL    HW233195   4.912   2.433   0.693
10766SOL     OW33196   5.386   4.490   0.551
10766SOL    HW133197   5.372   4.421   0.622
10766SOL    HW233198   5.297   4.525   0.521
10767SOL     OW33199   1.857   0.218   0.257
10767SOL    HW133200   1.904   0.130   0.260
10767SOL    HW233201   1.889   0.271   0.178
10768SOL     OW33202   4.895   5.499   1.778
10768SOL    HW133203   4.991   5.474   1.773
10768SOL    HW233204   4.850   5.443   1.847
10769SOL     OW33205   2.494   4.234   5.295
10769SOL    HW133206   2.484   4.142   5.259
10769SOL    HW233207   2.472   4.301   5.224
10770SOL     OW33208   5.603   0.280   4.626
10770SOL    HW133209   5.586   0.190   4.668
10770SOL    HW233210   5.523   0.307   4.572
10771SOL     OW33211   5.710   6.609   3.515
10771SOL    HW133212   5.760   6.530   3.551
10771SOL    HW233213   5.620   6.614   3.560
10772SOL     OW33214   6.192   6.976   4.183
10772SOL    HW133215   6.204   7.023   4.096
10772SOL    HW233216   6.096   6.977   4.209
10773SOL     OW33217   6.168   5.587   5.979
10773SOL    HW133218   6.083   5.590   6.031
10773SOL    HW233219   6.245   5.593   6.043
10774SOL     OW33220   2.300   1.621   6.288
10774SOL    HW133221   2.235   1.697   6.282
10774SOL    HW233222   2.393   1.658   6.291
10775SOL     OW33223   0.471   4.488   1.986
10775SOL    HW133224   0.493   4.584   2.001
10775SOL    HW233225   0.545   4.431   2.022
10776SOL     OW33226   0.333   1.061   6.839
10776SOL    HW133227   0.393   1.142   6.837
10776SOL    HW233228   0.362   0.997   6.768
10777SOL     OW33229   4.025   5.323   2.478
10777SOL    HW133230   3.949   5.258   2.478
10777SOL    HW233231   4.105   5.280   2.435
10778SOL     OW33232   5.329   0.226   4.264
10778SOL    HW133233   5.364   0.276   4.185
10778SOL    HW233234   5.381   0.142   4.277
10779SOL     OW33235   6.309   3.296   3.463
10779SOL    HW133236   6.311   3.213   3.519
10779SOL    HW233237   6.317   3.376   3.522
10780SOL     OW33238   1.925   0.860   3.751
10780SOL    HW133239   1.860   0.789   3.725
10780SOL    HW233240   1.962   0.840   3.842
10781SOL     OW33241   4.298   1.117   4.209
10781SOL    HW133242   4.313   1.070   4.122
10781SOL    HW233243   4.295   1.050   4.284
10782SOL     OW33244   6.968   1.775   2.050
10782SOL    HW133245   7.022   1.835   2.109
10782SOL    HW233246   7.022   1.748   1.971
10783SOL     OW33247   0.611   2.597   2.650
10783SOL    HW133248   0.577   2.596   2.556
10783SOL    HW233249   0.534   2.597   2.713
10784SOL     OW33250   3.610   6.621   4.314
10784SOL    HW133251   3.592   6.654   4.221
10784SOL    HW233252   3.686   6.673   4.353
10785SOL     OW33253   6.587   4.762   0.516
10785SOL    HW133254   6.589   4.852   0.560
10785SOL    HW233255   6.674   4.744   0.472
10786SOL     OW33256   5.935   4.808   3.451
10786SOL    HW133257   5.962   4.728   3.505
10786SOL    HW233258   6.016   4.852   3.414
10787SOL     OW33259   1.879   1.382   5.527
10787SOL    HW133260   1.920   1.470   5.505
10787SOL    HW233261   1.779   1.392   5.527
10788SOL     OW33262   1.892   4.523   6.559
10788SOL    HW133263   1.918   4.426   6.560
10788SOL    HW233264   1.793   4.531   6.572
10789SOL     OW33265   6.433   2.728   6.749
10789SOL    HW133266   6.355   2.671   6.724
10789SOL    HW233267   6.486   2.750   6.668
10790SOL     OW33268   0.664   0.290   1.761
10790SOL    HW133269   0.748   0.245   1.790
10790SOL    HW233270   0.625   0.340   1.838
10791SOL     OW33271   6.583   6.490   1.544
10791SOL    HW133272   6.527   6.467   1.624
10791SOL    HW233273   6.524   6.498   1.463
10792SOL     OW33274   3.665   2.991   4.501
10792SOL    HW133275   3.570   2.966   4.480
10792SOL    HW233276   3.698   2.937   4.577
10793SOL     OW33277   5.728   3.058   5.598
10793SOL    HW133278   5.652   3.092   5.653
10793SOL    HW233279   5.806   3.038   5.658
10794SOL     OW33280   3.826   3.008   4.286
10794SOL    HW133281   3.767   3.016   4.367
10794SOL    HW233282   3.785   2.943   4.222
10795SOL     OW33283   0.176   5.008   2.491
10795SOL    HW133284   0.097   4.985   2.435
10795SOL    HW233285   0.176   4.950   2.573
10796SOL     OW33286   6.144   0.153   6.025
10796SOL    HW133287   6.137   0.136   6.124
10796SOL    HW233288   6.198   0.236   6.009
10797SOL     OW33289   3.155   2.398   1.502
10797SOL    HW133290   3.204   2.319   1.538
10797SOL    HW233291   3.184   2.416   1.408
10798SOL     OW33292   2.781   0.640   0.309
10798SOL    HW133293   2.805   0.544   0.301
10798SOL    HW233294   2.851   0.688   0.362
10799SOL     OW33295   3.753   1.161   2.312
10799SOL    HW133296   3.669   1.208   2.282
10799SOL    HW233297   3.810   1.225   2.364
10800SOL     OW33298   0.417   6.263   6.218
10800SOL    HW133299   0.356   6.320   6.273
10800SOL    HW233300   0.413   6.169   6.251
10801SOL     OW33301   1.239   7.013   6.786
10801SOL    HW133302   1.223   0.035   6.874
10801SOL    HW233303   1.214   6.917   6.793
10802SOL     OW33304   0.884   0.518   2.318
10802SOL    HW133305   0.971   0.496   2.362
10802SOL    HW233306   0.811   0.463   2.359
10803SOL     OW33307   1.861   5.348   5.905
10803SOL    HW133308   1.902   5.438   5.922
10803SOL    HW233309   1.878   5.321   5.810
10804SOL     OW33310   5.844   2.994   2.421
10804SOL    HW133311   5.874   2.959   2.510
10804SOL    HW233312   5.745   2.990   2.415
10805SOL     OW33313   4.997   6.764   5.703
10805SOL    HW133314   4.969   6.816   5.784
10805SOL    HW233315   5.096   6.747   5.706
10806SOL     OW33316   4.168   4.021   5.780
10806SOL    HW133317   4.189   4.043   5.685
10806SOL    HW233318   4.087   3.963   5.784
10807SOL     OW33319   1.724   0.036   3.156
10807SOL    HW133320   1.703   7.007   3.073
10807SOL    HW233321   1.639   0.058   3.204
10808SOL     OW33322   0.202   3.201   6.510
10808SOL    HW133323   0.120   3.150   6.534
10808SOL    HW233324   0.238   3.247   6.591
10809SOL     OW33325   2.321   4.240   3.590
10809SOL    HW133326   2.296   4.292   3.508
10809SOL    HW233327   2.260   4.161   3.598
10810SOL     OW33328   0.508   0.851   3.774
10810SOL    HW133329   0.536   0.947   3.779
10810SOL    HW233330   0.567   0.803   3.708
10811SOL     OW33331   4.194   4.744   5.751
10811SOL    HW133332   4.100   4.741   5.717
10811SOL    HW233333   4.194   4.776   5.846
10812SOL     OW33334   0.232   3.727   0.636
10812SOL    HW133335   0.243   3.673   0.719
10812SOL    HW233336   0.144   3.706   0.594
10813SOL     OW33337   0.901   3.581   5.898
10813SOL    HW133338   0.920   3.596   5.801
10813SOL    HW233339   0.929   3.661   5.950
10814SOL     OW33340   1.507   6.959   6.134
10814SOL    HW133341   1.475   6.880   6.080
10814SOL    HW233342   1.516   6.932   6.230
10815SOL     OW33343   5.244   3.250   3.258
10815SOL    HW133344   5.173   3.276   3.325
10815SOL    HW233345   5.237   3.152   3.240
10816SOL     OW33346   3.125   3.448   2.244
10816SOL    HW133347   3.176   3.492   2.318
10816SOL    HW233348   3.031   3.434   2.273
10817SOL     OW33349   3.854   0.552   3.427
10817SOL    HW133350   3.842   0.650   3.415
10817SOL    HW233351   3.810   0.522   3.511
10818SOL     OW33352   5.061   4.278   5.602
10818SOL    HW133353   5.078   4.306   5.697
10818SOL    HW233354   5.033   4.182   5.601
10819SOL     OW33355   5.957   5.091   6.124
10819SOL    HW133356   6.037   5.090   6.184
10819SOL    HW233357   5.952   5.178   6.076
10820SOL     OW33358   0.436   5.108   4.627
10820SOL    HW133359   0.372   5.078   4.557
10820SOL    HW233360   0.519   5.053   4.622
10821SOL     OW33361   4.571   6.831   3.437
10821SOL    HW133362   4.647   6.896   3.427
10821SOL    HW233363   4.490   6.868   3.392
10822SOL     OW33364   6.088   2.135   2.688
10822SOL    HW133365   6.174   2.098   2.722
10822SOL    HW233366   6.015   2.118   2.754
10823SOL     OW33367   1.092   0.778   2.219
10823SOL    HW133368   1.036   0.805   2.298
10823SOL    HW233369   1.176   0.735   2.251
10824SOL     OW33370   0.414   1.015   2.824
10824SOL    HW133371   0.393   1.113   2.830
10824SOL    HW233372   0.457   0.996   2.736
10825SOL     OW33373   2.346   1.942   6.771
10825SOL    HW133374   2.424   1.888   6.805
10825SOL    HW233375   2.368   1.979   6.681
10826SOL     OW33376   1.227   1.736   3.076
10826SOL    HW133377   1.257   1.641   3.072
10826SOL    HW233378   1.181   1.760   2.991
10827SOL     OW33379   0.297   3.181   5.106
10827SOL    HW133380   0.340   3.207   5.020
10827SOL    HW233381   0.231   3.251   5.134
10828SOL     OW33382   1.547   4.716   0.390
10828SOL    HW133383   1.537   4.640   0.326
10828SOL    HW233384   1.565   4.681   0.482
10829SOL     OW33385   4.715   2.432   0.453
10829SOL    HW133386   4.766   2.457   0.535
10829SOL    HW233387   4.770   2.371   0.396
10830SOL     OW33388   4.610   1.797   3.259
10830SOL    HW133389   4.581   1.716   3.208
10830SOL    HW233390   4.710   1.803   3.257
10831SOL     OW33391   2.928   6.370   2.725
10831SOL    HW133392   2.963   6.460   2.702
10831SOL    HW233393   2.958   6.303   2.657
10832SOL     OW33394   6.935   3.697   6.437
10832SOL    HW133395   6.998   3.667   6.509
10832SOL    HW233396   6.858   3.745   6.479
10833SOL     OW33397   0.668   1.419   1.616
10833SOL    HW133398   0.640   1.437   1.522
10833SOL    HW233399   0.609   1.350   1.657
10834SOL     OW33400   6.279   1.566   0.640
10834SOL    HW133401   6.243   1.659   0.642
10834SOL    HW233402   6.218   1.506   0.588
10835SOL     OW33403   6.124   2.392   0.101
10835SOL    HW133404   6.217   2.355   0.113
10835SOL    HW233405   6.078   2.395   0.190
10836SOL     OW33406   6.865   1.979   4.168
10836SOL    HW133407   6.801   1.968   4.244
10836SOL    HW233408   6.831   1.927   4.089
10837SOL     OW33409   6.858   5.130   1.268
10837SOL    HW133410   6.942   5.104   1.315
10837SOL    HW233411   6.881   5.174   1.181
10838SOL     OW33412   6.479   6.361   4.042
10838SOL    HW133413   6.539   6.431   4.080
10838SOL    HW233414   6.523   6.319   3.962
10839SOL     OW33415   4.430   3.333   0.763
10839SOL    HW133416   4.370   3.366   0.690
10839SOL    HW233417   4.378   3.272   0.824
10840SOL     OW33418   2.984   6.242   2.477
10840SOL    HW133419   2.897   6.205   2.444
10840SOL    HW233420   3.020   6.307   2.410
10841SOL     OW33421   6.547   4.362   5.365
10841SOL    HW133422   6.524   4.268   5.342
10841SOL    HW233423   6.645   4.369   5.385
10842SOL     OW33424   4.737   2.434   1.481
10842SOL    HW133425   4.759   2.506   1.547
10842SOL    HW233426   4.638   2.429   1.469
10843SOL     OW33427   1.414   0.968   1.184
10843SOL    HW133428   1.371   0.931   1.267
10843SOL    HW233429   1.346   1.014   1.128
10844SOL     OW33430   0.567   5.136   3.010
10844SOL    HW133431   0.516   5.221   2.998
10844SOL    HW233432   0.582   5.093   2.921
10845SOL     OW33433   3.882   6.388   5.311
10845SOL    HW133434   3.790   6.375   5.274
10845SOL    HW233435   3.908   6.484   5.302
10846SOL     OW33436   5.095   0.697   6.515
10846SOL    HW133437   5.104   0.751   6.599
10846SOL    HW233438   5.113   0.600   6.536
10847SOL     OW33439   3.383   2.217   0.173
10847SOL    HW133440   3.464   2.255   0.129
10847SOL    HW233441   3.394   2.119   0.187
10848SOL     OW33442   1.446   4.367   0.871
10848SOL    HW133443   1.429   4.397   0.778
10848SOL    HW233444   1.539   4.391   0.898
10849SOL     OW33445   2.762   4.951   4.097
10849SOL    HW133446   2.822   4.991   4.028
10849SOL    HW233447   2.699   5.021   4.131
10850SOL     OW33448   3.648   6.162   5.627
10850SOL    HW133449   3.723   6.184   5.564
10850SOL    HW233450   3.569   6.219   5.606
10851SOL     OW33451   3.243   3.706   0.449
10851SOL    HW133452   3.183   3.765   0.502
10851SOL    HW233453   3.203   3.615   0.442
10852SOL     OW33454   1.799   0.497   6.384
10852SOL    HW133455   1.882   0.538   6.423
10852SOL    HW233456   1.725   0.501   6.451
10853SOL     OW33457   1.819   3.099   5.610
10853SOL    HW133458   1.830   3.149   5.524
10853SOL    HW233459   1.890   3.030   5.617
10854SOL     OW33460   4.395   5.266   5.823
10854SOL    HW133461   4.352   5.220   5.745
10854SOL    HW233462   4.377   5.214   5.906
10855SOL     OW33463   4.190   0.678   0.582
10855SOL    HW133464   4.170   0.776   0.578
10855SOL    HW233465   4.279   0.661   0.540
10856SOL     OW33466   5.318   0.891   1.152
10856SOL    HW133467   5.288   0.932   1.238
10856SOL    HW233468   5.360   0.961   1.095
10857SOL     OW33469   0.962   2.315   2.733
10857SOL    HW133470   1.024   2.339   2.808
10857SOL    HW233471   0.991   2.229   2.692
10858SOL     OW33472   1.070   1.209   0.557
10858SOL    HW133473   1.036   1.148   0.486
10858SOL    HW233474   1.126   1.281   0.516
10859SOL     OW33475   1.044   4.782   4.278
10859SOL    HW133476   0.988   4.770   4.360
10859SOL    HW233477   1.085   4.873   4.278
10860SOL     OW33478   0.507   3.097   5.279
10860SOL    HW133479   0.432   3.114   5.216
10860SOL    HW233480   0.498   3.005   5.317
10861SOL     OW33481   3.350   3.652   3.396
10861SOL    HW133482   3.370   3.681   3.302
10861SOL    HW233483   3.365   3.554   3.404
10862SOL     OW33484   1.944   0.801   6.114
10862SOL    HW133485   1.857   0.791   6.066
10862SOL    HW233486   1.926   0.815   6.212
10863SOL     OW33487   2.647   0.638   4.121
10863SOL    HW133488   2.734   0.676   4.150
10863SOL    HW233489   2.652   0.611   4.025
10864SOL     OW33490   2.546   6.166   6.932
10864SOL    HW133491   2.581   6.106   7.005
10864SOL    HW233492   2.614   6.236   6.911
10865SOL     OW33493   6.686   1.481   0.732
10865SOL    HW133494   6.588   1.483   0.750
10865SOL    HW233495   6.719   1.575   0.722
10866SOL     OW33496   5.257   4.153   0.505
10866SOL    HW133497   5.266   4.058   0.474
10866SOL    HW233498   5.160   4.178   0.506
10867SOL     OW33499   3.269   4.245   0.864
10867SOL    HW133500   3.327   4.307   0.811
10867SOL    HW233501   3.239   4.170   0.805
10868SOL     OW33502   5.167   1.245   3.963
10868SOL    HW133503   5.157   1.339   3.932
10868SOL    HW233504   5.263   1.225   3.978
10869NA      NA33505   6.393   2.820   5.173
10870NA      NA33506   4.466   4.434   5.304
10871NA      NA33507   1.629   3.021   1.732
10872NA      NA33508   4.945   3.715   5.175
10873NA      NA33509   4.255   2.403   5.370
10874NA      NA33510   3.717   4.888   1.833
10875NA      NA33511   6.551   4.929   6.812
10876NA      NA33512   3.570   3.484   4.426
10877NA      NA33513   4.822   5.844   0.113
10878NA      NA33514   4.114   6.484   4.953
10879NA      NA33515   6.105   5.102   2.040
10880NA      NA33516   2.162   6.900   3.832
10881NA      NA33517   4.035   5.659   2.373
10882NA      NA33518   3.565   3.980   1.951
   7.02339   7.02339   7.02339
