Generated by trjconv : CNT in water t= 383.00000
33518
    1C        C    1   2.844   2.769   4.749
    1C        C    2   2.902   2.718   4.868
    1C        C    3   2.843   2.772   4.983
    1C        C    4   2.852   2.773   4.264
    1C        C    5   2.904   2.727   4.387
    1C        C    6   2.850   2.775   4.508
    1C        C    7   3.019   2.646   4.629
    1C        C    8   2.898   2.719   4.629
    1C        C    9   3.084   2.603   4.747
    1C        C   10   3.014   2.633   4.867
    1C        C   11   3.183   2.499   4.982
    1C        C   12   3.060   2.567   4.981
    1C        C   13   2.856   2.775   3.776
    1C        C   14   2.901   2.720   3.898
    1C        C   15   2.849   2.771   4.019
    1C        C   16   3.020   2.646   4.141
    1C        C   17   2.902   2.724   4.142
    1C        C   18   3.084   2.618   4.264
    1C        C   19   3.023   2.652   4.387
    1C        C   20   3.212   2.554   4.505
    1C        C   21   3.083   2.610   4.509
    1C        C   22   3.282   2.532   4.626
    1C        C   23   3.214   2.545   4.750
    1C        C   24   3.416   2.485   4.867
    1C        C   25   3.273   2.500   4.871
    1C        C   26   3.489   2.485   4.987
    1C        C   27   2.853   2.766   3.285
    1C        C   28   2.905   2.720   3.408
    1C        C   29   2.853   2.770   3.530
    1C        C   30   3.015   2.636   3.652
    1C        C   31   2.905   2.725   3.653
    1C        C   32   3.076   2.602   3.775
    1C        C   33   3.014   2.636   3.897
    1C        C   34   3.209   2.553   4.018
    1C        C   35   3.078   2.606   4.019
    1C        C   36   3.278   2.538   4.140
    1C        C   37   3.214   2.564   4.263
    1C        C   38   3.421   2.509   4.385
    1C        C   39   3.283   2.538   4.384
    1C        C   40   3.492   2.498   4.506
    1C        C   41   3.420   2.503   4.628
    1C        C   42   3.634   2.481   4.746
    1C        C   43   3.492   2.479   4.747
    1C        C   44   3.708   2.488   4.866
    1C        C   45   3.627   2.478   4.981
    1C        C   46   2.833   2.747   2.797
    1C        C   47   2.891   2.704   2.918
    1C        C   48   2.845   2.761   3.039
    1C        C   49   3.015   2.635   3.164
    1C        C   50   2.901   2.718   3.162
    1C        C   51   3.076   2.598   3.286
    1C        C   52   3.014   2.630   3.408
    1C        C   53   3.206   2.543   3.531
    1C        C   54   3.075   2.597   3.531
    1C        C   55   3.276   2.528   3.652
    1C        C   56   3.208   2.550   3.774
    1C        C   57   3.416   2.508   3.895
    1C        C   58   3.277   2.531   3.895
    1C        C   59   3.488   2.501   4.016
    1C        C   60   3.417   2.512   4.138
    1C        C   61   3.629   2.501   4.261
    1C        C   62   3.487   2.501   4.260
    1C        C   63   3.702   2.508   4.381
    1C        C   64   3.633   2.502   4.504
    1C        C   65   3.840   2.541   4.625
    1C        C   66   3.705   2.500   4.626
    1C        C   67   3.911   2.555   4.746
    1C        C   68   3.843   2.528   4.866
    1C        C   69   4.055   2.586   4.986
    1C        C   70   3.928   2.529   4.978
    1C        C   71   2.825   2.734   2.309
    1C        C   72   2.882   2.694   2.432
    1C        C   73   2.830   2.742   2.554
    1C        C   74   3.004   2.622   2.674
    1C        C   75   2.883   2.694   2.676
    1C        C   76   3.070   2.592   2.796
    1C        C   77   3.013   2.632   2.918
    1C        C   78   3.207   2.547   3.039
    1C        C   79   3.076   2.600   3.041
    1C        C   80   3.274   2.531   3.162
    1C        C   81   3.209   2.549   3.286
    1C        C   82   3.414   2.501   3.406
    1C        C   83   3.275   2.525   3.409
    1C        C   84   3.486   2.497   3.528
    1C        C   85   3.416   2.507   3.650
    1C        C   86   3.628   2.510   3.773
    1C        C   87   3.486   2.506   3.772
    1C        C   88   3.698   2.511   3.895
    1C        C   89   3.629   2.507   4.018
    1C        C   90   3.836   2.556   4.139
    1C        C   91   3.701   2.515   4.140
    1C        C   92   3.906   2.571   4.260
    1C        C   93   3.838   2.545   4.381
    1C        C   94   4.033   2.632   4.504
    1C        C   95   3.906   2.570   4.503
    1C        C   96   4.095   2.670   4.625
    1C        C   97   4.036   2.624   4.744
    1C        C   98   4.189   2.765   4.865
    1C        C   99   4.097   2.656   4.868
    1C        C  100   4.211   2.846   4.978
    1C        C  101   2.822   2.730   2.070
    1C        C  102   2.990   2.591   2.192
    1C        C  103   2.878   2.680   2.188
    1C        C  104   3.064   2.578   2.313
    1C        C  105   3.001   2.618   2.433
    1C        C  106   3.198   2.531   2.550
    1C        C  107   3.068   2.588   2.553
    1C        C  108   3.267   2.520   2.673
    1C        C  109   3.203   2.542   2.796
    1C        C  110   3.412   2.499   2.917
    1C        C  111   3.274   2.524   2.917
    1C        C  112   3.482   2.494   3.040
    1C        C  113   3.414   2.508   3.162
    1C        C  114   3.626   2.507   3.281
    1C        C  115   3.485   2.498   3.284
    1C        C  116   3.695   2.513   3.404
    1C        C  117   3.628   2.503   3.528
    1C        C  118   3.835   2.542   3.646
    1C        C  119   3.697   2.511   3.650
    1C        C  120   3.899   2.570   3.769
    1C        C  121   3.836   2.543   3.893
    1C        C  122   4.024   2.641   4.015
    1C        C  123   3.902   2.571   4.015
    1C        C  124   4.088   2.676   4.137
    1C        C  125   4.032   2.636   4.260
    1C        C  126   4.200   2.764   4.380
    1C        C  127   4.092   2.672   4.382
    1C        C  128   4.247   2.818   4.501
    1C        C  129   4.199   2.767   4.623
    1C        C  130   4.323   2.938   4.742
    1C        C  131   4.242   2.821   4.746
    1C        C  132   4.351   3.005   4.864
    1C        C  133   4.281   2.966   4.979
    1C        C  134   3.171   2.473   2.087
    1C        C  135   3.035   2.510   2.083
    1C        C  136   3.262   2.485   2.192
    1C        C  137   3.196   2.525   2.310
    1C        C  138   3.408   2.486   2.428
    1C        C  139   3.269   2.511   2.430
    1C        C  140   3.479   2.488   2.550
    1C        C  141   3.407   2.500   2.671
    1C        C  142   3.621   2.500   2.794
    1C        C  143   3.479   2.496   2.792
    1C        C  144   3.693   2.509   2.915
    1C        C  145   3.623   2.499   3.038
    1C        C  146   3.832   2.547   3.156
    1C        C  147   3.696   2.512   3.158
    1C        C  148   3.898   2.569   3.279
    1C        C  149   3.833   2.541   3.402
    1C        C  150   4.025   2.632   3.525
    1C        C  151   3.901   2.565   3.523
    1C        C  152   4.084   2.673   3.647
    1C        C  153   4.024   2.637   3.770
    1C        C  154   4.193   2.766   3.892
    1C        C  155   4.080   2.681   3.892
    1C        C  156   4.244   2.817   4.013
    1C        C  157   4.198   2.764   4.136
    1C        C  158   4.338   2.923   4.254
    1C        C  159   4.253   2.811   4.258
    1C        C  160   4.375   2.986   4.375
    1C        C  161   4.337   2.928   4.497
    1C        C  162   4.432   3.118   4.619
    1C        C  163   4.367   2.992   4.620
    1C        C  164   4.469   3.184   4.739
    1C        C  165   4.428   3.123   4.859
    1C        C  166   4.514   3.318   4.973
    1C        C  167   4.472   3.186   4.976
    1C        C  168   3.479   2.435   2.078
    1C        C  169   3.399   2.449   2.193
    1C        C  170   3.621   2.473   2.309
    1C        C  171   3.479   2.461   2.308
    1C        C  172   3.691   2.497   2.429
    1C        C  173   3.621   2.489   2.551
    1C        C  174   3.828   2.540   2.670
    1C        C  175   3.692   2.500   2.672
    1C        C  176   3.895   2.566   2.792
    1C        C  177   3.830   2.542   2.915
    1C        C  178   4.029   2.629   3.035
    1C        C  179   3.901   2.570   3.034
    1C        C  180   4.087   2.663   3.159
    1C        C  181   4.027   2.628   3.282
    1C        C  182   4.200   2.752   3.401
    1C        C  183   4.090   2.664   3.403
    1C        C  184   4.250   2.806   3.522
    1C        C  185   4.198   2.755   3.644
    1C        C  186   4.337   2.913   3.768
    1C        C  187   4.247   2.803   3.767
    1C        C  188   4.377   2.976   3.887
    1C        C  189   4.335   2.925   4.012
    1C        C  190   4.449   3.106   4.129
    1C        C  191   4.383   2.981   4.133
    1C        C  192   4.476   3.171   4.251
    1C        C  193   4.440   3.112   4.375
    1C        C  194   4.503   3.315   4.494
    1C        C  195   4.463   3.180   4.496
    1C        C  196   4.524   3.389   4.612
    1C        C  197   4.507   3.321   4.735
    1C        C  198   4.554   3.534   4.853
    1C        C  199   4.528   3.393   4.855
    1C        C  200   4.582   3.620   4.964
    1C        C  201   3.618   2.417   2.079
    1C        C  202   3.829   2.516   2.188
    1C        C  203   3.697   2.462   2.190
    1C        C  204   3.901   2.542   2.308
    1C        C  205   3.829   2.530   2.429
    1C        C  206   4.020   2.631   2.547
    1C        C  207   3.894   2.567   2.548
    1C        C  208   4.084   2.664   2.669
    1C        C  209   4.023   2.627   2.790
    1C        C  210   4.199   2.749   2.912
    1C        C  211   4.085   2.667   2.911
    1C        C  212   4.257   2.791   3.034
    1C        C  213   4.201   2.747   3.156
    1C        C  214   4.338   2.909   3.275
    1C        C  215   4.248   2.800   3.277
    1C        C  216   4.373   2.971   3.397
    1C        C  217   4.341   2.914   3.522
    1C        C  218   4.434   3.100   3.642
    1C        C  219   4.380   2.970   3.646
    1C        C  220   4.462   3.170   3.762
    1C        C  221   4.440   3.103   3.885
    1C        C  222   4.502   3.309   4.008
    1C        C  223   4.468   3.172   4.005
    1C        C  224   4.518   3.379   4.130
    1C        C  225   4.511   3.307   4.251
    1C        C  226   4.523   3.524   4.367
    1C        C  227   4.517   3.383   4.371
    1C        C  228   4.517   3.599   4.486
    1C        C  229   4.530   3.530   4.610
    1C        C  230   4.501   3.740   4.729
    1C        C  231   4.539   3.603   4.730
    1C        C  232   4.495   3.819   4.846
    1C        C  233   4.546   3.755   4.960
    1C        C  234   4.021   2.608   2.067
    1C        C  235   3.898   2.544   2.069
    1C        C  236   4.086   2.652   2.183
    1C        C  237   4.025   2.610   2.304
    1C        C  238   4.206   2.729   2.424
    1C        C  239   4.085   2.654   2.424
    1C        C  240   4.255   2.786   2.543
    1C        C  241   4.197   2.749   2.666
    1C        C  242   4.341   2.904   2.786
    1C        C  243   4.251   2.795   2.788
    1C        C  244   4.379   2.962   2.909
    1C        C  245   4.345   2.902   3.032
    1C        C  246   4.442   3.093   3.150
    1C        C  247   4.383   2.965   3.153
    1C        C  248   4.457   3.162   3.273
    1C        C  249   4.433   3.099   3.397
    1C        C  250   4.493   3.303   3.518
    1C        C  251   4.457   3.166   3.519
    1C        C  252   4.506   3.375   3.639
    1C        C  253   4.497   3.307   3.763
    1C        C  254   4.518   3.518   3.881
    1C        C  255   4.512   3.377   3.885
    1C        C  256   4.517   3.590   4.002
    1C        C  257   4.518   3.520   4.125
    1C        C  258   4.492   3.734   4.244
    1C        C  259   4.517   3.595   4.245
    1C        C  260   4.471   3.806   4.364
    1C        C  261   4.489   3.737   4.486
    1C        C  262   4.435   3.943   4.606
    1C        C  263   4.479   3.809   4.608
    1C        C  264   4.403   4.012   4.725
    1C        C  265   4.437   3.948   4.846
    1C        C  266   4.323   4.132   4.959
    1C        C  267   4.399   4.016   4.963
    1C        C  268   4.264   2.779   2.065
    1C        C  269   4.201   2.733   2.181
    1C        C  270   4.345   2.892   2.302
    1C        C  271   4.256   2.780   2.302
    1C        C  272   4.386   2.954   2.422
    1C        C  273   4.346   2.895   2.544
    1C        C  274   4.450   3.084   2.665
    1C        C  275   4.387   2.958   2.664
    1C        C  276   4.468   3.155   2.786
    1C        C  277   4.441   3.089   2.908
    1C        C  278   4.505   3.294   3.026
    1C        C  279   4.471   3.157   3.028
    1C        C  280   4.513   3.364   3.149
    1C        C  281   4.494   3.298   3.272
    1C        C  282   4.514   3.510   3.392
    1C        C  283   4.506   3.369   3.394
    1C        C  284   4.516   3.582   3.513
    1C        C  285   4.515   3.516   3.638
    1C        C  286   4.492   3.729   3.753
    1C        C  287   4.514   3.589   3.759
    1C        C  288   4.471   3.796   3.875
    1C        C  289   4.492   3.729   3.998
    1C        C  290   4.427   3.932   4.117
    1C        C  291   4.475   3.799   4.119
    1C        C  292   4.397   3.999   4.238
    1C        C  293   4.425   3.939   4.363
    1C        C  294   4.325   4.126   4.479
    1C        C  295   4.398   4.005   4.485
    1C        C  296   4.284   4.187   4.600
    1C        C  297   4.327   4.132   4.724
    1C        C  298   4.205   4.318   4.839
    1C        C  299   4.285   4.199   4.842
    1C        C  300   4.175   4.404   4.949
    1C        C  301   4.357   2.882   2.064
    1C        C  302   4.476   3.066   2.179
    1C        C  303   4.399   2.946   2.182
    1C        C  304   4.492   3.141   2.298
    1C        C  305   4.451   3.079   2.419
    1C        C  306   4.513   3.281   2.538
    1C        C  307   4.475   3.145   2.541
    1C        C  308   4.517   3.357   2.657
    1C        C  309   4.499   3.293   2.782
    1C        C  310   4.526   3.504   2.902
    1C        C  311   4.516   3.363   2.903
    1C        C  312   4.518   3.575   3.024
    1C        C  313   4.518   3.505   3.147
    1C        C  314   4.481   3.716   3.263
    1C        C  315   4.509   3.578   3.268
    1C        C  316   4.470   3.787   3.385
    1C        C  317   4.488   3.721   3.509
    1C        C  318   4.424   3.926   3.628
    1C        C  319   4.473   3.794   3.629
    1C        C  320   4.388   3.989   3.750
    1C        C  321   4.418   3.927   3.873
    1C        C  322   4.315   4.113   3.993
    1C        C  323   4.388   3.992   3.995
    1C        C  324   4.276   4.171   4.115
    1C        C  325   4.322   4.118   4.238
    1C        C  326   4.189   4.288   4.356
    1C        C  327   4.287   4.186   4.357
    1C        C  328   4.139   4.342   4.476
    1C        C  329   4.191   4.292   4.598
    1C        C  330   4.028   4.438   4.716
    1C        C  331   4.144   4.355   4.715
    1C        C  332   3.973   4.493   4.833
    1C        C  333   4.057   4.480   4.944
    1C        C  334   4.551   3.270   2.063
    1C        C  335   4.539   3.131   2.067
    1C        C  336   4.533   3.351   2.175
    1C        C  337   4.512   3.282   2.297
    1C        C  338   4.516   3.496   2.414
    1C        C  339   4.521   3.355   2.417
    1C        C  340   4.513   3.568   2.535
    1C        C  341   4.522   3.498   2.658
    1C        C  342   4.488   3.709   2.775
    1C        C  343   4.522   3.572   2.779
    1C        C  344   4.469   3.780   2.895
    1C        C  345   4.493   3.714   3.018
    1C        C  346   4.425   3.916   3.140
    1C        C  347   4.474   3.783   3.139
    1C        C  348   4.398   3.985   3.260
    1C        C  349   4.424   3.920   3.383
    1C        C  350   4.317   4.105   3.504
    1C        C  351   4.394   3.987   3.504
    1C        C  352   4.274   4.166   3.625
    1C        C  353   4.316   4.111   3.748
    1C        C  354   4.179   4.273   3.867
    1C        C  355   4.272   4.168   3.869
    1C        C  356   4.127   4.321   3.990
    1C        C  357   4.177   4.272   4.112
    1C        C  358   4.015   4.409   4.230
    1C        C  359   4.130   4.327   4.233
    1C        C  360   3.960   4.457   4.351
    1C        C  361   4.024   4.424   4.472
    1C        C  362   3.831   4.513   4.594
    1C        C  363   3.963   4.463   4.593
    1C        C  364   3.765   4.546   4.714
    1C        C  365   3.839   4.537   4.834
    1C        C  366   3.631   4.591   4.949
    1C        C  367   3.768   4.573   4.949
    1C        C  368   4.509   3.568   2.057
    1C        C  369   4.528   3.492   2.174
    1C        C  370   4.506   3.709   2.294
    1C        C  371   4.517   3.568   2.293
    1C        C  372   4.484   3.781   2.413
    1C        C  373   4.493   3.707   2.533
    1C        C  374   4.421   3.909   2.650
    1C        C  375   4.477   3.780   2.653
    1C        C  376   4.389   3.972   2.772
    1C        C  377   4.424   3.914   2.896
    1C        C  378   4.322   4.101   3.016
    1C        C  379   4.395   3.980   3.018
    1C        C  380   4.277   4.157   3.137
    1C        C  381   4.319   4.103   3.261
    1C        C  382   4.181   4.267   3.378
    1C        C  383   4.274   4.161   3.381
    1C        C  384   4.126   4.315   3.499
    1C        C  385   4.178   4.269   3.622
    1C        C  386   4.010   4.399   3.743
    1C        C  387   4.128   4.321   3.744
    1C        C  388   3.948   4.435   3.864
    1C        C  389   4.010   4.401   3.986
    1C        C  390   3.819   4.492   4.109
    1C        C  391   3.948   4.436   4.108
    1C        C  392   3.753   4.514   4.233
    1C        C  393   3.825   4.501   4.353
    1C        C  394   3.618   4.550   4.474
    1C        C  395   3.757   4.527   4.474
    1C        C  396   3.549   4.564   4.596
    1C        C  397   3.625   4.568   4.715
    1C        C  398   3.412   4.551   4.842
    1C        C  399   3.551   4.574   4.835
    1C        C  400   3.343   4.516   4.958
    1C        C  401   4.498   3.706   2.056
    1C        C  402   4.460   3.919   2.172
    1C        C  403   4.494   3.782   2.174
    1C        C  404   4.422   3.986   2.290
    1C        C  405   4.440   3.915   2.411
    1C        C  406   4.327   4.101   2.530
    1C        C  407   4.401   3.981   2.530
    1C        C  408   4.286   4.160   2.651
    1C        C  409   4.323   4.098   2.772
    1C        C  410   4.182   4.259   2.890
    1C        C  411   4.280   4.156   2.893
    1C        C  412   4.132   4.308   3.012
    1C        C  413   4.184   4.263   3.136
    1C        C  414   4.010   4.391   3.255
    1C        C  415   4.129   4.315   3.256
    1C        C  416   3.945   4.418   3.377
    1C        C  417   4.007   4.390   3.501
    1C        C  418   3.814   4.482   3.621
    1C        C  419   3.946   4.432   3.621
    1C        C  420   3.748   4.506   3.743
    1C        C  421   3.817   4.487   3.866
    1C        C  422   3.610   4.533   3.986
    1C        C  423   3.749   4.508   3.988
    1C        C  424   3.543   4.541   4.110
    1C        C  425   3.613   4.530   4.232
    1C        C  426   3.403   4.545   4.358
    1C        C  427   3.544   4.550   4.354
    1C        C  428   3.334   4.544   4.482
    1C        C  429   3.408   4.554   4.602
    1C        C  430   3.196   4.524   4.726
    1C        C  431   3.336   4.548   4.723
    1C        C  432   3.124   4.500   4.847
    1C        C  433   3.207   4.490   4.960
    1C        C  434   4.389   4.123   2.049
    1C        C  435   4.446   3.996   2.056
    1C        C  436   4.310   4.164   2.162
    1C        C  437   4.342   4.104   2.286
    1C        C  438   4.185   4.252   2.401
    1C        C  439   4.290   4.158   2.406
    1C        C  440   4.128   4.296   2.522
    1C        C  441   4.182   4.256   2.646
    1C        C  442   4.011   4.383   2.767
    1C        C  443   4.127   4.302   2.768
    1C        C  444   3.950   4.420   2.889
    1C        C  445   4.013   4.385   3.010
    1C        C  446   3.820   4.477   3.130
    1C        C  447   3.951   4.426   3.131
    1C        C  448   3.750   4.493   3.252
    1C        C  449   3.815   4.474   3.376
    1C        C  450   3.609   4.532   3.497
    1C        C  451   3.747   4.501   3.498
    1C        C  452   3.542   4.549   3.620
    1C        C  453   3.611   4.537   3.744
    1C        C  454   3.397   4.545   3.866
    1C        C  455   3.539   4.546   3.865
    1C        C  456   3.332   4.538   3.991
    1C        C  457   3.401   4.541   4.114
    1C        C  458   3.193   4.508   4.238
    1C        C  459   3.332   4.532   4.237
    1C        C  460   3.127   4.487   4.361
    1C        C  461   3.195   4.518   4.481
    1C        C  462   3.001   4.439   4.607
    1C        C  463   3.131   4.496   4.604
    1C        C  464   2.931   4.411   4.726
    1C        C  465   2.992   4.445   4.850
    1C        C  466   2.805   4.338   4.964
    1C        C  467   2.915   4.425   4.969
    1C        C  468   4.123   4.283   2.047
    1C        C  469   4.195   4.250   2.162
    1C        C  470   4.010   4.373   2.278
    1C        C  471   4.133   4.301   2.279
    1C        C  472   3.946   4.403   2.400
    1C        C  473   4.008   4.372   2.523
    1C        C  474   3.820   4.472   2.644
    1C        C  475   3.951   4.417   2.643
    1C        C  476   3.753   4.495   2.766
    1C        C  477   3.820   4.475   2.889
    1C        C  478   3.610   4.520   3.010
    1C        C  479   3.750   4.499   3.009
    1C        C  480   3.540   4.532   3.132
    1C        C  481   3.612   4.523   3.253
    1C        C  482   3.398   4.536   3.378
    1C        C  483   3.539   4.531   3.374
    1C        C  484   3.329   4.541   3.501
    1C        C  485   3.401   4.550   3.622
    1C        C  486   3.192   4.506   3.745
    1C        C  487   3.329   4.541   3.743
    1C        C  488   3.131   4.479   3.869
    1C        C  489   3.195   4.502   3.993
    1C        C  490   3.000   4.420   4.115
    1C        C  491   3.126   4.483   4.115
    1C        C  492   2.946   4.381   4.240
    1C        C  493   3.000   4.425   4.362
    1C        C  494   2.832   4.306   4.488
    1C        C  495   2.940   4.397   4.487
    1C        C  496   2.775   4.260   4.609
    1C        C  497   2.820   4.322   4.727
    1C        C  498   2.670   4.169   4.847
    1C        C  499   2.756   4.280   4.846
    1C        C  500   2.598   4.117   4.956
    1C        C  501   4.008   4.362   2.042
    1C        C  502   3.815   4.465   2.155
    1C        C  503   3.944   4.408   2.158
    1C        C  504   3.750   4.481   2.279
    1C        C  505   3.817   4.460   2.402
    1C        C  506   3.610   4.507   2.521
    1C        C  507   3.750   4.487   2.523
    1C        C  508   3.541   4.514   2.644
    1C        C  509   3.613   4.518   2.765
    1C        C  510   3.401   4.526   2.888
    1C        C  511   3.542   4.524   2.887
    1C        C  512   3.328   4.524   3.009
    1C        C  513   3.399   4.533   3.131
    1C        C  514   3.193   4.493   3.256
    1C        C  515   3.330   4.528   3.255
    1C        C  516   3.127   4.471   3.380
    1C        C  517   3.192   4.504   3.501
    1C        C  518   3.003   4.410   3.624
    1C        C  519   3.126   4.479   3.623
    1C        C  520   2.946   4.374   3.749
    1C        C  521   3.005   4.414   3.871
    1C        C  522   2.833   4.291   3.997
    1C        C  523   2.940   4.383   3.993
    1C        C  524   2.787   4.242   4.120
    1C        C  525   2.836   4.293   4.243
    1C        C  526   2.698   4.138   4.367
    1C        C  527   2.783   4.252   4.367
    1C        C  528   2.659   4.079   4.489
    1C        C  529   2.696   4.143   4.610
    1C        C  530   2.580   3.966   4.731
    1C        C  531   2.642   4.094   4.731
    1C        C  532   2.546   3.903   4.854
    1C        C  533   2.533   3.994   4.964
    1C        C  534   3.616   4.557   2.041
    1C        C  535   3.749   4.513   2.042
    1C        C  536   3.539   4.540   2.160
    1C        C  537   3.610   4.509   2.279
    1C        C  538   3.396   4.512   2.402
    1C        C  539   3.537   4.513   2.400
    1C        C  540   3.328   4.501   2.525
    1C        C  541   3.400   4.504   2.646
    1C        C  542   3.191   4.477   2.767
    1C        C  543   3.329   4.505   2.769
    1C        C  544   3.125   4.462   2.891
    1C        C  545   3.191   4.489   3.013
    1C        C  546   2.998   4.405   3.136
    1C        C  547   3.125   4.466   3.136
    1C        C  548   2.940   4.369   3.260
    1C        C  549   3.001   4.408   3.381
    1C        C  550   2.833   4.280   3.506
    1C        C  551   2.939   4.374   3.503
    1C        C  552   2.783   4.236   3.630
    1C        C  553   2.835   4.288   3.751
    1C        C  554   2.697   4.129   3.876
    1C        C  555   2.787   4.238   3.874
    1C        C  556   2.660   4.069   3.999
    1C        C  557   2.704   4.127   4.120
    1C        C  558   2.606   3.946   4.247
    1C        C  559   2.668   4.073   4.246
    1C        C  560   2.577   3.884   4.370
    1C        C  561   2.598   3.951   4.492
    1C        C  562   2.535   3.751   4.616
    1C        C  563   2.560   3.890   4.614
    1C        C  564   2.520   3.682   4.738
    1C        C  565   2.528   3.761   4.857
    1C        C  566   2.524   3.547   4.977
    1C        C  567   2.521   3.686   4.975
    1C        C  568   3.331   4.475   2.042
    1C        C  569   3.399   4.513   2.158
    1C        C  570   3.186   4.480   2.282
    1C        C  571   3.325   4.510   2.279
    1C        C  572   3.117   4.457   2.403
    1C        C  573   3.189   4.477   2.523
    1C        C  574   2.993   4.401   2.648
    1C        C  575   3.119   4.465   2.646
    1C        C  576   2.935   4.362   2.771
    1C        C  577   2.997   4.403   2.892
    1C        C  578   2.830   4.274   3.016
    1C        C  579   2.938   4.366   3.014
    1C        C  580   2.783   4.223   3.139
    1C        C  581   2.836   4.274   3.260
    1C        C  582   2.699   4.115   3.385
    1C        C  583   2.788   4.225   3.384
    1C        C  584   2.662   4.060   3.510
    1C        C  585   2.699   4.122   3.632
    1C        C  586   2.592   3.942   3.757
    1C        C  587   2.658   4.068   3.755
    1C        C  588   2.569   3.877   3.880
    1C        C  589   2.603   3.940   4.002
    1C        C  590   2.542   3.741   4.128
    1C        C  591   2.579   3.877   4.126
    1C        C  592   2.527   3.676   4.253
    1C        C  593   2.537   3.748   4.374
    1C        C  594   2.515   3.537   4.498
    1C        C  595   2.522   3.678   4.495
    1C        C  596   2.513   3.465   4.620
    1C        C  597   2.511   3.540   4.740
    1C        C  598   2.526   3.328   4.864
    1C        C  599   2.517   3.469   4.861
    1C        C  600   2.521   3.245   4.976
    1C        C  601   3.196   4.444   2.043
    1C        C  602   2.984   4.400   2.161
    1C        C  603   3.121   4.441   2.162
    1C        C  604   2.928   4.362   2.286
    1C        C  605   2.992   4.392   2.408
    1C        C  606   2.816   4.274   2.530
    1C        C  607   2.930   4.357   2.530
    1C        C  608   2.771   4.221   2.653
    1C        C  609   2.825   4.273   2.773
    1C        C  610   2.690   4.112   2.897
    1C        C  611   2.777   4.223   2.896
    1C        C  612   2.654   4.054   3.020
    1C        C  613   2.692   4.115   3.142
    1C        C  614   2.591   3.930   3.266
    1C        C  615   2.652   4.058   3.265
    1C        C  616   2.575   3.866   3.391
    1C        C  617   2.602   3.932   3.513
    1C        C  618   2.539   3.733   3.638
    1C        C  619   2.575   3.870   3.637
    1C        C  620   2.526   3.667   3.762
    1C        C  621   2.538   3.739   3.883
    1C        C  622   2.520   3.530   4.011
    1C        C  623   2.528   3.671   4.006
    1C        C  624   2.525   3.461   4.134
    1C        C  625   2.523   3.534   4.255
    1C        C  626   2.545   3.324   4.380
    1C        C  627   2.523   3.464   4.377
    1C        C  628   2.561   3.254   4.502
    1C        C  629   2.538   3.326   4.622
    1C        C  630   2.597   3.123   4.746
    1C        C  631   2.547   3.256   4.744
    1C        C  632   2.620   3.050   4.866
    1C        C  633   2.558   3.110   4.980
    1C        C  634   2.783   4.301   2.057
    1C        C  635   2.892   4.390   2.052
    1C        C  636   2.754   4.227   2.172
    1C        C  637   2.819   4.270   2.290
    1C        C  638   2.674   4.112   2.409
    1C        C  639   2.762   4.223   2.410
    1C        C  640   2.640   4.054   2.533
    1C        C  641   2.681   4.113   2.655
    1C        C  642   2.585   3.924   2.779
    1C        C  643   2.641   4.054   2.777
    1C        C  644   2.563   3.857   2.901
    1C        C  645   2.593   3.926   3.021
    1C        C  646   2.538   3.725   3.150
    1C        C  647   2.566   3.863   3.144
    1C        C  648   2.526   3.656   3.272
    1C        C  649   2.543   3.729   3.392
    1C        C  650   2.519   3.521   3.520
    1C        C  651   2.529   3.662   3.516
    1C        C  652   2.528   3.454   3.644
    1C        C  653   2.521   3.526   3.765
    1C        C  654   2.548   3.319   3.893
    1C        C  655   2.525   3.459   3.889
    1C        C  656   2.559   3.251   4.016
    1C        C  657   2.543   3.321   4.138
    1C        C  658   2.605   3.119   4.260
    1C        C  659   2.556   3.251   4.260
    1C        C  660   2.634   3.056   4.384
    1C        C  661   2.609   3.122   4.506
    1C        C  662   2.715   2.938   4.629
    1C        C  663   2.637   3.056   4.628
    1C        C  664   2.749   2.874   4.751
    1C        C  665   2.697   2.930   4.871
    1C        C  666   2.741   2.866   4.987
    1C        C  667   2.677   4.024   2.055
    1C        C  668   2.682   4.106   2.169
    1C        C  669   2.581   3.917   2.294
    1C        C  670   2.637   4.048   2.289
    1C        C  671   2.557   3.852   2.417
    1C        C  672   2.587   3.923   2.535
    1C        C  673   2.519   3.722   2.659
    1C        C  674   2.562   3.856   2.657
    1C        C  675   2.513   3.653   2.782
    1C        C  676   2.532   3.719   2.906
    1C        C  677   2.515   3.511   3.031
    1C        C  678   2.522   3.652   3.030
    1C        C  679   2.516   3.444   3.155
    1C        C  680   2.518   3.515   3.277
    1C        C  681   2.536   3.305   3.403
    1C        C  682   2.519   3.445   3.400
    1C        C  683   2.556   3.241   3.527
    1C        C  684   2.546   3.314   3.648
    1C        C  685   2.613   3.116   3.774
    1C        C  686   2.561   3.247   3.771
    1C        C  687   2.642   3.054   3.898
    1C        C  688   2.607   3.118   4.019
    1C        C  689   2.713   2.933   4.143
    1C        C  690   2.636   3.051   4.140
    1C        C  691   2.759   2.880   4.266
    1C        C  692   2.712   2.939   4.386
    1C        C  693   2.754   2.879   4.507
    1C        C  694   2.621   3.895   2.057
    1C        C  695   2.528   3.706   2.176
    1C        C  696   2.573   3.839   2.176
    1C        C  697   2.514   3.639   2.300
    1C        C  698   2.524   3.714   2.419
    1C        C  699   2.488   3.505   2.544
    1C        C  700   2.500   3.646   2.541
    1C        C  701   2.508   3.440   2.667
    1C        C  702   2.509   3.512   2.789
    1C        C  703   2.538   3.300   2.911
    1C        C  704   2.511   3.439   2.910
    1C        C  705   2.552   3.234   3.035
    1C        C  706   2.535   3.304   3.156
    1C        C  707   2.603   3.105   3.282
    1C        C  708   2.554   3.238   3.280
    1C        C  709   2.636   3.044   3.405
    1C        C  710   2.609   3.110   3.527
    1C        C  711   2.715   2.932   3.652
    1C        C  712   2.638   3.050   3.652
    1C        C  713   2.761   2.880   3.775
    1C        C  714   2.717   2.935   3.898
    1C        C  715   2.758   2.879   4.021
    1C        C  716   2.453   3.498   2.064
    1C        C  717   2.482   3.635   2.064
    1C        C  718   2.464   3.423   2.185
    1C        C  719   2.484   3.500   2.302
    1C        C  720   2.513   3.291   2.427
    1C        C  721   2.489   3.430   2.424
    1C        C  722   2.544   3.227   2.550
    1C        C  723   2.531   3.301   2.670
    1C        C  724   2.596   3.096   2.793
    1C        C  725   2.546   3.228   2.790
    1C        C  726   2.633   3.036   2.916
    1C        C  727   2.598   3.100   3.037
    1C        C  728   2.709   2.922   3.163
    1C        C  729   2.630   3.039   3.160
    1C        C  730   2.754   2.867   3.285
    1C        C  731   2.711   2.924   3.407
    1C        C  732   2.752   2.869   3.531
    1C        C  733   2.494   3.201   2.072
    1C        C  734   2.487   3.281   2.187
    1C        C  735   2.589   3.090   2.309
    1C        C  736   2.523   3.216   2.308
    1C        C  737   2.617   3.023   2.430
    1C        C  738   2.596   3.095   2.549
    1C        C  739   2.695   2.908   2.670
    1C        C  740   2.625   3.031   2.672
    1C        C  741   2.745   2.857   2.793
    1C        C  742   2.705   2.914   2.916
    1C        C  743   2.752   2.867   3.040
    1C        C  744   2.547   3.073   2.077
    1C        C  745   2.687   2.900   2.189
    1C        C  746   2.613   3.021   2.188
    1C        C  747   2.726   2.836   2.308
    1C        C  748   2.688   2.901   2.428
    1C        C  749   2.735   2.847   2.550
    1C        C  750   2.739   2.842   2.072
    1C        C  751   3.668   2.327   1.973
    1C        O  752   3.672   2.202   1.991
    1C        O  753   3.720   2.367   1.849
    1C        C  754   4.638   3.048   1.995
    1C        O  755   4.611   3.021   1.875
    1C        O  756   4.765   3.021   2.047
    1C        C  757   4.458   4.208   1.950
    1C        O  758   4.536   4.299   1.990
    1C        O  759   4.429   4.212   1.813
    1C        C  760   3.582   4.646   1.927
    1C        O  761   3.549   4.767   1.944
    1C        O  762   3.533   4.599   1.805
    1C        C  763   2.897   4.482   1.937
    1C        O  764   2.908   4.440   1.819
    1C        O  765   2.824   4.601   1.954
    1C        C  766   2.327   3.479   1.989
    1C        O  767   2.316   3.456   1.865
    1C        O  768   2.205   3.466   2.056
    1C        C  769   4.712   3.598   5.030
    1C        O  770   4.711   3.556   5.150
    1C        O  771   4.836   3.585   4.966
    1C        C  772   4.276   4.473   5.032
    1C        O  773   4.303   4.436   5.150
    1C        O  774   4.334   4.598   5.007
    1C        C  775   4.155   2.513   5.068
    1C        O  776   4.229   2.418   5.033
    1C        O  777   4.138   2.504   5.207
    1C        C  778   2.877   4.548   5.043
    1C        O  779   2.772   4.614   5.019
    1C        O  780   2.917   4.558   5.176
    1C        C  781   2.449   3.035   5.046
    1C        O  782   2.344   2.996   4.987
    1C        O  783   2.449   3.027   5.185
    1C        C  784   2.408   4.010   5.043
    1C        O  785   2.297   4.016   4.985
    1C        O  786   2.400   3.965   5.175
    1C        C  787   2.953   2.409   2.012
    1C        O  788   2.901   2.432   1.900
    1C        O  789   2.925   2.280   2.055
    1C        C  790   3.180   2.380   5.070
    1C        O  791   3.102   2.283   5.053
    1C        O  792   3.228   2.378   5.202
    1C        H  793   4.226   3.043   5.028
    1C        H  794   4.133   2.839   5.051
    1C        H  795   4.522   3.124   5.048
    1C        H  796   4.562   3.356   5.060
    1C        H  797   4.576   3.809   5.047
    1C        H  798   4.429   3.979   5.059
    1C        H  799   4.255   4.141   5.041
    1C        H  800   4.043   4.550   5.023
    1C        H  801   3.815   4.582   5.045
    1C        H  802   3.588   4.645   5.031
    1C        H  803   3.381   4.548   5.053
    1C        H  804   3.170   4.463   5.057
    1C        H  805   3.881   2.499   5.070
    1C        H  806   3.669   2.418   5.059
    1C        H  807   2.994   2.557   5.064
    1C        H  808   3.451   2.536   5.073
    1C        H  809   2.915   2.794   5.059
    1C        H  810   2.686   2.882   5.078
    1C        H  811   2.477   3.285   5.066
    1C        H  812   2.514   3.501   5.074
    1C        H  813   2.492   3.732   5.067
    1C        H  814   2.616   4.168   5.048
    1C        H  815   2.743   4.331   5.050
    1C        H  816   2.718   2.884   1.976
    1C        H  817   2.849   2.688   1.976
    1C        H  818   3.203   2.434   1.993
    1C        H  819   3.444   2.472   1.984
    1C        H  820   3.872   2.490   1.980
    1C        H  821   4.053   2.642   1.971
    1C        H  822   4.225   2.749   1.969
    1C        H  823   4.368   2.934   1.972
    1C        H  824   4.630   3.296   1.994
    1C        H  825   4.497   3.510   1.968
    1C        H  826   4.420   3.733   1.987
    1C        H  827   3.785   4.477   1.948
    1C        H  828   3.992   4.406   1.946
    1C        H  829   4.147   4.236   1.954
    1C        H  830   4.524   3.980   1.984
    1C        H  831   2.612   3.841   1.966
    1C        H  832   2.733   4.051   1.968
    1C        H  833   2.697   4.329   2.001
    1C        H  834   3.362   4.507   1.944
    1C        H  835   3.161   4.381   1.965
    1C        H  836   2.560   3.020   1.984
    1C        H  837   2.424   3.226   1.995
    1C        H  838   2.455   3.690   1.975
    2V3OU   H29  839   2.809   3.554   4.649
    2V3OU   C27  840   2.794   3.505   4.749
    2V3OU   H27  841   2.739   3.572   4.820
    2V3OU   H28  842   2.740   3.407   4.739
    2V3OU   O11  843   2.915   3.472   4.816
    2V3OU   C15  844   2.925   3.393   4.929
    2V3OU   C13  845   3.056   3.376   4.977
    2V3OU   C14  846   3.081   3.270   5.065
    2V3OU   C16  847   2.977   3.193   5.119
    2V3OU    H6  848   2.996   3.107   5.184
    2V3OU   C12  849   3.221   3.226   5.085
    2V3OU    O2  850   3.239   3.130   5.163
    2V3OU   C10  851   3.329   3.306   5.028
    2V3OU    C8  852   3.462   3.270   5.046
    2V3OU   O10  853   3.493   3.157   5.114
    2V3OU   H26  854   3.409   3.113   5.133
    2V3OU    C6  855   3.569   3.353   4.999
    2V3OU    C5  856   3.534   3.467   4.929
    2V3OU    C4  857   3.705   3.292   4.992
    2V3OU    H4  858   3.729   3.223   5.078
    2V3OU    H5  859   3.713   3.231   4.897
    2V3OU    C2  860   3.815   3.398   4.994
    2V3OU    O6  861   3.806   3.474   5.114
    2V3OU   H21  862   3.779   3.562   5.082
    2V3OU    C3  863   3.781   3.497   4.882
    2V3OU    H2  864   3.863   3.573   4.874
    2V3OU    H3  865   3.778   3.441   4.785
    2V3OU   C25  866   3.954   3.335   4.982
    2V3OU    O7  867   4.000   3.303   4.873
    2V3OU   C26  868   4.030   3.289   5.105
    2V3OU   H22  869   4.060   3.382   5.159
    2V3OU   H23  870   4.120   3.230   5.075
    2V3OU    O8  871   3.963   3.206   5.198
    2V3OU   H24  872   3.930   3.269   5.264
    2V3OU    C1  873   3.646   3.564   4.899
    2V3OU    H1  874   3.623   3.618   4.803
    2V3OU    O3  875   3.654   3.655   5.009
    2V3OU   C19  876   3.621   3.794   5.015
    2V3OU    H9  877   3.522   3.805   4.962
    2V3OU    O4  878   3.714   3.852   4.926
    2V3OU   C20  879   3.846   3.879   4.973
    2V3OU   H10  880   3.898   3.780   4.989
    2V3OU   C24  881   3.611   3.854   5.155
    2V3OU   H16  882   3.550   3.789   5.223
    2V3OU   H17  883   3.560   3.954   5.151
    2V3OU   C23  884   3.752   3.881   5.207
    2V3OU   H15  885   3.799   3.779   5.230
    2V3OU    N1  886   3.743   3.954   5.332
    2V3OU   H19  887   3.816   3.930   5.396
    2V3OU   H20  888   3.654   3.938   5.376
    2V3OU   C21  889   3.850   3.951   5.108
    2V3OU   H11  890   3.954   3.938   5.151
    2V3OU    O5  891   3.831   4.091   5.106
    2V3OU   H18  892   3.778   4.111   5.185
    2V3OU   C22  893   3.918   3.953   4.861
    2V3OU   H12  894   3.871   4.054   4.849
    2V3OU   H13  895   3.901   3.898   4.764
    2V3OU   H14  896   4.024   3.969   4.892
    2V3OU   C11  897   3.161   3.474   4.945
    2V3OU    O1  898   3.138   3.589   4.900
    2V3OU    C9  899   3.300   3.428   4.960
    2V3OU    C7  900   3.400   3.511   4.909
    2V3OU    O9  901   3.391   3.619   4.824
    2V3OU   H25  902   3.294   3.630   4.822
    2V3OU   C17  903   2.827   3.315   4.994
    2V3OU    H7  904   2.728   3.359   5.003
    2V3OU   C18  905   2.843   3.213   5.087
    2V3OU    H8  906   2.761   3.151   5.124
    3SOL     OW  907   3.006   4.321   5.306
    3SOL    HW1  908   2.947   4.386   5.257
    3SOL    HW2  909   3.067   4.371   5.367
    4SOL     OW  910   6.918   0.277   0.090
    4SOL    HW1  911   6.988   0.315   0.151
    4SOL    HW2  912   6.933   0.311   7.025
    5SOL     OW  913   4.229   0.983   1.550
    5SOL    HW1  914   4.279   0.979   1.637
    5SOL    HW2  915   4.291   1.006   1.476
    6SOL     OW  916   5.451   1.290   3.584
    6SOL    HW1  917   5.451   1.205   3.532
    6SOL    HW2  918   5.421   1.365   3.525
    7SOL     OW  919   1.222   4.245   5.302
    7SOL    HW1  920   1.224   4.288   5.211
    7SOL    HW2  921   1.217   4.146   5.292
    8SOL     OW  922   2.137   2.564   6.013
    8SOL    HW1  923   2.157   2.641   6.074
    8SOL    HW2  924   2.217   2.546   5.955
    9SOL     OW  925   6.713   1.692   6.343
    9SOL    HW1  926   6.737   1.758   6.414
    9SOL    HW2  927   6.719   1.599   6.380
   10SOL     OW  928   4.402   4.990   2.993
   10SOL    HW1  929   4.437   4.988   2.899
   10SOL    HW2  930   4.333   5.062   3.001
   11SOL     OW  931   1.954   0.859   6.847
   11SOL    HW1  932   1.947   0.763   6.876
   11SOL    HW2  933   1.915   0.919   6.916
   12SOL     OW  934   2.626   4.780   3.554
   12SOL    HW1  935   2.528   4.792   3.539
   12SOL    HW2  936   2.674   4.782   3.466
   13SOL     OW  937   4.419   5.959   2.582
   13SOL    HW1  938   4.465   5.984   2.497
   13SOL    HW2  939   4.361   6.035   2.612
   14SOL     OW  940   4.918   5.003   5.658
   14SOL    HW1  941   4.935   5.102   5.656
   14SOL    HW2  942   4.838   4.982   5.602
   15SOL     OW  943   0.922   5.950   6.251
   15SOL    HW1  944   0.888   6.043   6.266
   15SOL    HW2  945   0.989   5.927   6.321
   16SOL     OW  946   5.903   2.632   6.495
   16SOL    HW1  947   5.847   2.571   6.439
   16SOL    HW2  948   5.991   2.648   6.450
   17SOL     OW  949   5.950   0.588   5.759
   17SOL    HW1  950   5.979   0.522   5.690
   17SOL    HW2  951   5.996   0.568   5.846
   18SOL     OW  952   2.998   0.752   5.348
   18SOL    HW1  953   3.009   0.692   5.269
   18SOL    HW2  954   3.011   0.847   5.320
   19SOL     OW  955   1.143   1.976   3.327
   19SOL    HW1  956   1.125   2.074   3.326
   19SOL    HW2  957   1.093   1.933   3.251
   20SOL     OW  958   5.879   2.421   5.743
   20SOL    HW1  959   5.786   2.405   5.776
   20SOL    HW2  960   5.931   2.472   5.811
   21SOL     OW  961   3.834   6.102   2.702
   21SOL    HW1  962   3.842   6.171   2.630
   21SOL    HW2  963   3.876   6.135   2.786
   22SOL     OW  964   1.908   6.325   4.997
   22SOL    HW1  965   2.004   6.353   5.009
   22SOL    HW2  966   1.898   6.229   5.022
   23SOL     OW  967   5.169   4.696   1.858
   23SOL    HW1  968   5.201   4.603   1.876
   23SOL    HW2  969   5.102   4.695   1.784
   24SOL     OW  970   3.659   0.544   1.582
   24SOL    HW1  971   3.642   0.557   1.484
   24SOL    HW2  972   3.740   0.487   1.594
   25SOL     OW  973   2.721   6.974   3.349
   25SOL    HW1  974   2.760   0.028   3.305
   25SOL    HW2  975   2.655   7.002   3.418
   26SOL     OW  976   1.767   2.008   6.757
   26SOL    HW1  977   1.837   2.003   6.828
   26SOL    HW2  978   1.679   2.030   6.799
   27SOL     OW  979   0.036   1.008   2.473
   27SOL    HW1  980   0.040   1.092   2.529
   27SOL    HW2  981   0.078   1.026   2.384
   28SOL     OW  982   1.864   0.469   4.910
   28SOL    HW1  983   1.779   0.506   4.949
   28SOL    HW2  984   1.914   0.418   4.981
   29SOL     OW  985   6.849   0.734   0.084
   29SOL    HW1  986   6.761   0.708   0.044
   29SOL    HW2  987   6.845   0.829   0.115
   30SOL     OW  988   3.495   0.468   5.074
   30SOL    HW1  989   3.469   0.544   5.134
   30SOL    HW2  990   3.592   0.475   5.050
   31SOL     OW  991   0.116   2.704   4.844
   31SOL    HW1  992   0.064   2.714   4.759
   31SOL    HW2  993   0.177   2.625   4.838
   32SOL     OW  994   1.486   1.467   1.052
   32SOL    HW1  995   1.468   1.371   1.035
   32SOL    HW2  996   1.580   1.489   1.025
   33SOL     OW  997   0.260   3.730   5.706
   33SOL    HW1  998   0.329   3.664   5.737
   33SOL    HW2  999   0.287   3.822   5.733
   34SOL     OW 1000   1.618   5.156   4.973
   34SOL    HW1 1001   1.575   5.123   4.890
   34SOL    HW2 1002   1.636   5.079   5.035
   35SOL     OW 1003   3.860   2.616   6.123
   35SOL    HW1 1004   3.892   2.595   6.216
   35SOL    HW2 1005   3.854   2.531   6.070
   36SOL     OW 1006   5.057   1.046   4.091
   36SOL    HW1 1007   5.035   1.115   4.023
   36SOL    HW2 1008   5.156   1.039   4.102
   37SOL     OW 1009   2.418   1.256   3.360
   37SOL    HW1 1010   2.454   1.215   3.443
   37SOL    HW2 1011   2.359   1.334   3.383
   38SOL     OW 1012   1.967   5.304   2.087
   38SOL    HW1 1013   1.977   5.395   2.048
   38SOL    HW2 1014   2.025   5.240   2.038
   39SOL     OW 1015   6.010   4.543   6.800
   39SOL    HW1 1016   6.083   4.524   6.866
   39SOL    HW2 1017   5.921   4.525   6.842
   40SOL     OW 1018   3.389   0.486   6.310
   40SOL    HW1 1019   3.360   0.421   6.240
   40SOL    HW2 1020   3.489   0.483   6.319
   41SOL     OW 1021   5.865   4.157   2.122
   41SOL    HW1 1022   5.805   4.126   2.196
   41SOL    HW2 1023   5.864   4.089   2.049
   42SOL     OW 1024   2.903   5.481   4.506
   42SOL    HW1 1025   2.901   5.441   4.598
   42SOL    HW2 1026   2.810   5.484   4.469
   43SOL     OW 1027   4.079   6.754   4.790
   43SOL    HW1 1028   4.045   6.666   4.760
   43SOL    HW2 1029   4.013   6.826   4.767
   44SOL     OW 1030   6.272   3.219   5.131
   44SOL    HW1 1031   6.255   3.192   5.036
   44SOL    HW2 1032   6.208   3.293   5.156
   45SOL     OW 1033   4.276   5.565   0.947
   45SOL    HW1 1034   4.367   5.598   0.922
   45SOL    HW2 1035   4.284   5.499   1.022
   46SOL     OW 1036   0.580   3.040   4.016
   46SOL    HW1 1037   0.505   2.976   4.032
   46SOL    HW2 1038   0.623   3.064   4.103
   47SOL     OW 1039   5.234   3.703   2.017
   47SOL    HW1 1040   5.175   3.622   2.016
   47SOL    HW2 1041   5.179   3.784   1.996
   48SOL     OW 1042   7.015   3.175   6.729
   48SOL    HW1 1043   6.926   3.151   6.691
   48SOL    HW2 1044   0.028   3.094   6.772
   49SOL     OW 1045   4.942   3.107   0.306
   49SOL    HW1 1046   5.007   3.168   0.261
   49SOL    HW2 1047   4.849   3.143   0.293
   50SOL     OW 1048   6.002   2.175   6.135
   50SOL    HW1 1049   6.069   2.164   6.061
   50SOL    HW2 1050   6.041   2.144   6.221
   51SOL     OW 1051   2.231   4.822   2.732
   51SOL    HW1 1052   2.252   4.860   2.642
   51SOL    HW2 1053   2.261   4.887   2.803
   52SOL     OW 1054   5.598   3.022   1.821
   52SOL    HW1 1055   5.536   2.950   1.851
   52SOL    HW2 1056   5.675   2.981   1.771
   53SOL     OW 1057   4.977   7.025   3.509
   53SOL    HW1 1058   4.916   6.949   3.532
   53SOL    HW2 1059   4.930   0.059   3.446
   54SOL     OW 1060   5.729   5.840   0.310
   54SOL    HW1 1061   5.716   5.881   0.219
   54SOL    HW2 1062   5.669   5.761   0.320
   55SOL     OW 1063   2.282   2.591   6.673
   55SOL    HW1 1064   2.339   2.671   6.655
   55SOL    HW2 1065   2.228   2.569   6.592
   56SOL     OW 1066   1.342   1.859   0.586
   56SOL    HW1 1067   1.393   1.826   0.665
   56SOL    HW2 1068   1.280   1.933   0.614
   57SOL     OW 1069   3.699   0.617   6.859
   57SOL    HW1 1070   3.648   0.585   6.939
   57SOL    HW2 1071   3.693   0.717   6.854
   58SOL     OW 1072   0.824   0.292   6.486
   58SOL    HW1 1073   0.842   0.371   6.544
   58SOL    HW2 1074   0.861   0.209   6.530
   59SOL     OW 1075   6.377   3.995   6.504
   59SOL    HW1 1076   6.457   3.972   6.559
   59SOL    HW2 1077   6.304   4.029   6.565
   60SOL     OW 1078   5.728   0.457   3.438
   60SOL    HW1 1079   5.707   0.370   3.393
   60SOL    HW2 1080   5.706   0.533   3.377
   61SOL     OW 1081   0.639   1.062   3.760
   61SOL    HW1 1082   0.687   1.092   3.842
   61SOL    HW2 1083   0.542   1.049   3.781
   62SOL     OW 1084   0.886   0.951   1.772
   62SOL    HW1 1085   0.829   1.030   1.796
   62SOL    HW2 1086   0.982   0.974   1.783
   63SOL     OW 1087   3.899   6.724   4.050
   63SOL    HW1 1088   3.931   6.679   3.967
   63SOL    HW2 1089   3.825   6.788   4.028
   64SOL     OW 1090   1.258   4.148   6.896
   64SOL    HW1 1091   1.348   4.168   6.858
   64SOL    HW2 1092   1.268   4.111   6.989
   65SOL     OW 1093   0.809   0.803   5.490
   65SOL    HW1 1094   0.723   0.772   5.531
   65SOL    HW2 1095   0.789   0.873   5.422
   66SOL     OW 1096   3.888   0.129   2.453
   66SOL    HW1 1097   3.931   0.055   2.401
   66SOL    HW2 1098   3.848   0.195   2.390
   67SOL     OW 1099   0.460   2.610   0.557
   67SOL    HW1 1100   0.404   2.679   0.510
   67SOL    HW2 1101   0.410   2.524   0.564
   68SOL     OW 1102   0.210   2.154   5.388
   68SOL    HW1 1103   0.291   2.113   5.431
   68SOL    HW2 1104   0.131   2.142   5.448
   69SOL     OW 1105   1.356   5.384   5.531
   69SOL    HW1 1106   1.329   5.400   5.626
   69SOL    HW2 1107   1.276   5.358   5.477
   70SOL     OW 1108   5.456   3.752   4.507
   70SOL    HW1 1109   5.363   3.720   4.490
   70SOL    HW2 1110   5.455   3.819   4.582
   71SOL     OW 1111   4.703   1.760   4.847
   71SOL    HW1 1112   4.690   1.661   4.845
   71SOL    HW2 1113   4.665   1.800   4.764
   72SOL     OW 1114   0.094   0.562   3.608
   72SOL    HW1 1115   0.178   0.545   3.557
   72SOL    HW2 1116   0.041   0.633   3.562
   73SOL     OW 1117   2.638   0.929   0.409
   73SOL    HW1 1118   2.666   0.962   0.498
   73SOL    HW2 1119   2.654   0.830   0.404
   74SOL     OW 1120   2.467   1.489   6.260
   74SOL    HW1 1121   2.515   1.487   6.172
   74SOL    HW2 1122   2.375   1.452   6.248
   75SOL     OW 1123   4.411   1.421   0.995
   75SOL    HW1 1124   4.396   1.504   1.048
   75SOL    HW2 1125   4.429   1.344   1.056
   76SOL     OW 1126   2.593   4.433   5.462
   76SOL    HW1 1127   2.667   4.455   5.525
   76SOL    HW2 1128   2.587   4.504   5.392
   77SOL     OW 1129   1.912   5.184   4.018
   77SOL    HW1 1130   1.957   5.251   4.078
   77SOL    HW2 1131   1.853   5.232   3.953
   78SOL     OW 1132   4.388   1.729   0.991
   78SOL    HW1 1133   4.473   1.754   0.946
   78SOL    HW2 1134   4.391   1.759   1.087
   79SOL     OW 1135   2.276   5.514   1.751
   79SOL    HW1 1136   2.179   5.501   1.767
   79SOL    HW2 1137   2.329   5.455   1.812
   80SOL     OW 1138   4.577   2.235   5.390
   80SOL    HW1 1139   4.613   2.297   5.320
   80SOL    HW2 1140   4.653   2.187   5.435
   81SOL     OW 1141   2.331   6.949   1.088
   81SOL    HW1 1142   2.301   6.882   1.021
   81SOL    HW2 1143   2.295   0.012   1.065
   82SOL     OW 1144   0.985   6.012   2.179
   82SOL    HW1 1145   0.932   6.041   2.259
   82SOL    HW2 1146   1.070   5.969   2.210
   83SOL     OW 1147   6.718   2.297   5.660
   83SOL    HW1 1148   6.730   2.245   5.575
   83SOL    HW2 1149   6.646   2.255   5.714
   84SOL     OW 1150   6.323   3.045   3.961
   84SOL    HW1 1151   6.422   3.061   3.954
   84SOL    HW2 1152   6.285   3.027   3.870
   85SOL     OW 1153   1.549   0.028   3.971
   85SOL    HW1 1154   1.620   6.998   4.011
   85SOL    HW2 1155   1.481   6.998   3.925
   86SOL     OW 1156   5.620   1.086   6.147
   86SOL    HW1 1157   5.649   1.172   6.104
   86SOL    HW2 1158   5.531   1.059   6.111
   87SOL     OW 1159   4.686   4.487   6.746
   87SOL    HW1 1160   4.617   4.556   6.767
   87SOL    HW2 1161   4.713   4.441   6.831
   88SOL     OW 1162   2.893   2.633   5.674
   88SOL    HW1 1163   2.889   2.726   5.710
   88SOL    HW2 1164   2.803   2.606   5.639
   89SOL     OW 1165   3.022   3.078   2.054
   89SOL    HW1 1166   2.989   3.074   2.149
   89SOL    HW2 1167   3.099   3.015   2.043
   90SOL     OW 1168   4.851   3.752   3.282
   90SOL    HW1 1169   4.945   3.781   3.297
   90SOL    HW2 1170   4.803   3.748   3.369
   91SOL     OW 1171   5.839   5.683   6.184
   91SOL    HW1 1172   5.873   5.771   6.152
   91SOL    HW2 1173   5.772   5.696   6.256
   92SOL     OW 1174   5.124   4.206   0.313
   92SOL    HW1 1175   5.030   4.205   0.278
   92SOL    HW2 1176   5.160   4.299   0.308
   93SOL     OW 1177   3.313   2.827   1.121
   93SOL    HW1 1178   3.258   2.844   1.203
   93SOL    HW2 1179   3.372   2.748   1.136
   94SOL     OW 1180   2.868   0.269   6.291
   94SOL    HW1 1181   2.857   0.296   6.195
   94SOL    HW2 1182   2.806   0.194   6.312
   95SOL     OW 1183   0.456   0.818   4.420
   95SOL    HW1 1184   0.517   0.895   4.399
   95SOL    HW2 1185   0.481   0.740   4.362
   96SOL     OW 1186   4.829   4.889   0.045
   96SOL    HW1 1187   4.849   4.937   0.130
   96SOL    HW2 1188   4.737   4.850   0.049
   97SOL     OW 1189   1.963   4.809   5.630
   97SOL    HW1 1190   1.966   4.741   5.556
   97SOL    HW2 1191   1.927   4.895   5.595
   98SOL     OW 1192   1.090   2.603   1.975
   98SOL    HW1 1193   0.997   2.635   1.991
   98SOL    HW2 1194   1.096   2.505   1.995
   99SOL     OW 1195   3.621   3.664   3.732
   99SOL    HW1 1196   3.702   3.721   3.743
   99SOL    HW2 1197   3.543   3.721   3.708
  100SOL     OW 1198   0.047   6.579   3.915
  100SOL    HW1 1199   0.072   6.484   3.933
  100SOL    HW2 1200   0.124   6.638   3.936
  101SOL     OW 1201   0.486   4.756   2.401
  101SOL    HW1 1202   0.441   4.824   2.343
  101SOL    HW2 1203   0.581   4.745   2.371
  102SOL     OW 1204   2.886   6.228   1.847
  102SOL    HW1 1205   2.787   6.211   1.841
  102SOL    HW2 1206   2.907   6.313   1.798
  103SOL     OW 1207   2.306   1.110   2.599
  103SOL    HW1 1208   2.338   1.177   2.667
  103SOL    HW2 1209   2.354   1.024   2.613
  104SOL     OW 1210   0.997   4.394   1.786
  104SOL    HW1 1211   0.996   4.417   1.883
  104SOL    HW2 1212   1.047   4.309   1.772
  105SOL     OW 1213   5.882   1.743   6.653
  105SOL    HW1 1214   5.848   1.836   6.635
  105SOL    HW2 1215   5.917   1.739   6.747
  106SOL     OW 1216   5.484   5.365   1.618
  106SOL    HW1 1217   5.581   5.344   1.611
  106SOL    HW2 1218   5.448   5.329   1.705
  107SOL     OW 1219   6.636   1.130   0.020
  107SOL    HW1 1220   6.677   1.179   6.970
  107SOL    HW2 1221   6.709   1.095   0.079
  108SOL     OW 1222   2.140   0.409   5.034
  108SOL    HW1 1223   2.110   0.409   5.130
  108SOL    HW2 1224   2.229   0.452   5.027
  109SOL     OW 1225   3.772   1.004   2.796
  109SOL    HW1 1226   3.847   1.071   2.792
  109SOL    HW2 1227   3.764   0.958   2.707
  110SOL     OW 1228   2.356   4.472   5.597
  110SOL    HW1 1229   2.274   4.523   5.571
  110SOL    HW2 1230   2.421   4.474   5.521
  111SOL     OW 1231   6.135   1.358   2.490
  111SOL    HW1 1232   6.052   1.370   2.436
  111SOL    HW2 1233   6.214   1.355   2.428
  112SOL     OW 1234   4.150   6.663   6.573
  112SOL    HW1 1235   4.086   6.654   6.497
  112SOL    HW2 1236   4.117   6.612   6.652
  113SOL     OW 1237   6.497   5.668   2.653
  113SOL    HW1 1238   6.518   5.758   2.691
  113SOL    HW2 1239   6.558   5.600   2.694
  114SOL     OW 1240   1.222   4.307   3.754
  114SOL    HW1 1241   1.277   4.260   3.685
  114SOL    HW2 1242   1.276   4.381   3.795
  115SOL     OW 1243   5.871   1.089   3.425
  115SOL    HW1 1244   5.860   1.188   3.426
  115SOL    HW2 1245   5.894   1.057   3.517
  116SOL     OW 1246   0.845   6.098   1.393
  116SOL    HW1 1247   0.876   6.115   1.486
  116SOL    HW2 1248   0.854   6.000   1.373
  117SOL     OW 1249   3.023   1.473   0.082
  117SOL    HW1 1250   3.042   1.571   0.078
  117SOL    HW2 1251   2.941   1.453   0.028
  118SOL     OW 1252   1.192   1.344   3.221
  118SOL    HW1 1253   1.258   1.405   3.266
  118SOL    HW2 1254   1.150   1.285   3.289
  119SOL     OW 1255   0.034   7.024   0.015
  119SOL    HW1 1256   6.986   6.963   0.040
  119SOL    HW2 1257   7.024   0.083   7.010
  120SOL     OW 1258   4.657   0.900   5.612
  120SOL    HW1 1259   4.608   0.816   5.591
  120SOL    HW2 1260   4.623   0.974   5.554
  121SOL     OW 1261   1.262   3.436   6.522
  121SOL    HW1 1262   1.282   3.431   6.424
  121SOL    HW2 1263   1.329   3.495   6.567
  122SOL     OW 1264   1.125   4.522   0.310
  122SOL    HW1 1265   1.205   4.496   0.255
  122SOL    HW2 1266   1.103   4.618   0.294
  123SOL     OW 1267   1.368   1.084   1.632
  123SOL    HW1 1268   1.436   1.066   1.704
  123SOL    HW2 1269   1.405   1.054   1.544
  124SOL     OW 1270   3.205   2.606   0.891
  124SOL    HW1 1271   3.254   2.634   0.808
  124SOL    HW2 1272   3.253   2.639   0.971
  125SOL     OW 1273   3.527   2.698   0.078
  125SOL    HW1 1274   3.502   2.794   0.090
  125SOL    HW2 1275   3.626   2.689   0.080
  126SOL     OW 1276   3.606   2.877   3.169
  126SOL    HW1 1277   3.688   2.932   3.187
  126SOL    HW2 1278   3.632   2.781   3.160
  127SOL     OW 1279   6.862   5.869   6.032
  127SOL    HW1 1280   6.883   5.965   6.013
  127SOL    HW2 1281   6.764   5.853   6.020
  128SOL     OW 1282   4.974   3.663   1.599
  128SOL    HW1 1283   4.879   3.681   1.621
  128SOL    HW2 1284   4.986   3.567   1.575
  129SOL     OW 1285   2.305   6.027   0.654
  129SOL    HW1 1286   2.376   6.065   0.595
  129SOL    HW2 1287   2.341   6.016   0.747
  130SOL     OW 1288   5.538   2.112   4.864
  130SOL    HW1 1289   5.471   2.119   4.790
  130SOL    HW2 1290   5.631   2.111   4.825
  131SOL     OW 1291   6.958   1.551   4.002
  131SOL    HW1 1292   6.919   1.556   4.094
  131SOL    HW2 1293   7.017   1.471   3.995
  132SOL     OW 1294   3.463   4.023   1.794
  132SOL    HW1 1295   3.561   4.003   1.786
  132SOL    HW2 1296   3.430   3.994   1.883
  133SOL     OW 1297   5.387   0.470   4.375
  133SOL    HW1 1298   5.330   0.530   4.432
  133SOL    HW2 1299   5.399   0.382   4.421
  134SOL     OW 1300   5.933   0.544   2.245
  134SOL    HW1 1301   5.984   0.477   2.299
  134SOL    HW2 1302   5.922   0.628   2.298
  135SOL     OW 1303   4.854   3.655   4.297
  135SOL    HW1 1304   4.914   3.720   4.251
  135SOL    HW2 1305   4.807   3.599   4.229
  136SOL     OW 1306   2.580   6.159   4.715
  136SOL    HW1 1307   2.582   6.163   4.616
  136SOL    HW2 1308   2.512   6.224   4.750
  137SOL     OW 1309   3.275   2.082   4.772
  137SOL    HW1 1310   3.275   2.118   4.866
  137SOL    HW2 1311   3.187   2.103   4.729
  138SOL     OW 1312   0.572   5.810   3.934
  138SOL    HW1 1313   0.671   5.815   3.924
  138SOL    HW2 1314   0.544   5.851   4.020
  139SOL     OW 1315   2.149   5.614   6.578
  139SOL    HW1 1316   2.210   5.596   6.655
  139SOL    HW2 1317   2.182   5.566   6.497
  140SOL     OW 1318   2.191   0.560   2.789
  140SOL    HW1 1319   2.182   0.591   2.695
  140SOL    HW2 1320   2.287   0.560   2.816
  141SOL     OW 1321   6.681   3.759   0.218
  141SOL    HW1 1322   6.772   3.748   0.179
  141SOL    HW2 1323   6.618   3.692   0.178
  142SOL     OW 1324   0.790   4.203   1.667
  142SOL    HW1 1325   0.874   4.252   1.692
  142SOL    HW2 1326   0.764   4.228   1.574
  143SOL     OW 1327   6.075   6.566   1.435
  143SOL    HW1 1328   6.147   6.632   1.456
  143SOL    HW2 1329   5.987   6.614   1.431
  144SOL     OW 1330   2.920   4.909   4.051
  144SOL    HW1 1331   2.852   4.892   3.979
  144SOL    HW2 1332   2.928   5.008   4.065
  145SOL     OW 1333   6.584   4.933   2.871
  145SOL    HW1 1334   6.568   5.031   2.862
  145SOL    HW2 1335   6.505   4.891   2.917
  146SOL     OW 1336   6.147   1.849   5.796
  146SOL    HW1 1337   6.206   1.822   5.720
  146SOL    HW2 1338   6.149   1.777   5.866
  147SOL     OW 1339   5.158   1.403   5.022
  147SOL    HW1 1340   5.256   1.420   5.017
  147SOL    HW2 1341   5.118   1.458   5.094
  148SOL     OW 1342   1.218   4.551   1.036
  148SOL    HW1 1343   1.173   4.522   0.952
  148SOL    HW2 1344   1.271   4.634   1.020
  149SOL     OW 1345   2.671   2.062   5.108
  149SOL    HW1 1346   2.636   2.006   5.182
  149SOL    HW2 1347   2.670   2.159   5.135
  150SOL     OW 1348   4.006   1.826   5.429
  150SOL    HW1 1349   3.915   1.866   5.422
  150SOL    HW2 1350   4.066   1.887   5.480
  151SOL     OW 1351   3.839   1.817   0.760
  151SOL    HW1 1352   3.867   1.912   0.745
  151SOL    HW2 1353   3.857   1.792   0.855
  152SOL     OW 1354   0.908   1.237   6.953
  152SOL    HW1 1355   0.965   1.309   6.914
  152SOL    HW2 1356   0.836   1.213   6.887
  153SOL     OW 1357   2.583   1.384   3.814
  153SOL    HW1 1358   2.580   1.464   3.874
  153SOL    HW2 1359   2.666   1.332   3.832
  154SOL     OW 1360   6.434   1.826   1.425
  154SOL    HW1 1361   6.508   1.770   1.462
  154SOL    HW2 1362   6.469   1.882   1.350
  155SOL     OW 1363   0.258   0.201   2.127
  155SOL    HW1 1364   0.166   0.162   2.130
  155SOL    HW2 1365   0.298   0.200   2.219
  156SOL     OW 1366   4.705   0.870   0.287
  156SOL    HW1 1367   4.766   0.941   0.322
  156SOL    HW2 1368   4.698   0.878   0.187
  157SOL     OW 1369   5.257   3.651   0.517
  157SOL    HW1 1370   5.335   3.653   0.580
  157SOL    HW2 1371   5.183   3.706   0.555
  158SOL     OW 1372   1.370   3.271   2.489
  158SOL    HW1 1373   1.391   3.181   2.527
  158SOL    HW2 1374   1.447   3.302   2.433
  159SOL     OW 1375   4.888   5.565   0.847
  159SOL    HW1 1376   4.815   5.509   0.887
  159SOL    HW2 1377   4.921   5.631   0.915
  160SOL     OW 1378   5.891   0.711   0.592
  160SOL    HW1 1379   5.969   0.773   0.596
  160SOL    HW2 1380   5.918   0.621   0.627
  161SOL     OW 1381   1.012   6.472   0.410
  161SOL    HW1 1382   1.091   6.411   0.396
  161SOL    HW2 1383   0.949   6.429   0.474
  162SOL     OW 1384   2.593   6.248   6.991
  162SOL    HW1 1385   2.520   6.241   6.922
  162SOL    HW2 1386   2.635   6.338   6.984
  163SOL     OW 1387   6.626   4.739   3.177
  163SOL    HW1 1388   6.650   4.797   3.255
  163SOL    HW2 1389   6.532   4.707   3.188
  164SOL     OW 1390   1.518   1.799   2.856
  164SOL    HW1 1391   1.521   1.837   2.949
  164SOL    HW2 1392   1.571   1.857   2.795
  165SOL     OW 1393   0.556   5.406   2.578
  165SOL    HW1 1394   0.591   5.369   2.664
  165SOL    HW2 1395   0.603   5.491   2.556
  166SOL     OW 1396   6.266   4.151   1.794
  166SOL    HW1 1397   6.331   4.223   1.820
  166SOL    HW2 1398   6.173   4.185   1.807
  167SOL     OW 1399   5.209   1.597   0.107
  167SOL    HW1 1400   5.169   1.636   0.190
  167SOL    HW2 1401   5.148   1.613   0.030
  168SOL     OW 1402   4.682   3.698   1.659
  168SOL    HW1 1403   4.597   3.663   1.619
  168SOL    HW2 1404   4.666   3.788   1.698
  169SOL     OW 1405   6.130   3.080   0.876
  169SOL    HW1 1406   6.107   3.075   0.778
  169SOL    HW2 1407   6.077   3.011   0.926
  170SOL     OW 1408   1.751   5.056   2.701
  170SOL    HW1 1409   1.804   5.101   2.773
  170SOL    HW2 1410   1.814   5.014   2.636
  171SOL     OW 1411   2.281   3.368   0.281
  171SOL    HW1 1412   2.285   3.454   0.229
  171SOL    HW2 1413   2.294   3.291   0.218
  172SOL     OW 1414   5.828   2.121   1.559
  172SOL    HW1 1415   5.910   2.160   1.519
  172SOL    HW2 1416   5.839   2.117   1.659
  173SOL     OW 1417   6.276   1.104   5.265
  173SOL    HW1 1418   6.263   1.006   5.277
  173SOL    HW2 1419   6.295   1.123   5.168
  174SOL     OW 1420   5.341   5.785   5.387
  174SOL    HW1 1421   5.334   5.687   5.405
  174SOL    HW2 1422   5.370   5.833   5.469
  175SOL     OW 1423   1.767   0.876   0.617
  175SOL    HW1 1424   1.672   0.880   0.584
  175SOL    HW2 1425   1.767   0.856   0.715
  176SOL     OW 1426   4.759   4.602   2.606
  176SOL    HW1 1427   4.764   4.701   2.595
  176SOL    HW2 1428   4.671   4.577   2.648
  177SOL     OW 1429   5.576   1.890   4.584
  177SOL    HW1 1430   5.561   1.791   4.579
  177SOL    HW2 1431   5.535   1.934   4.504
  178SOL     OW 1432   2.327   5.900   4.834
  178SOL    HW1 1433   2.393   5.833   4.868
  178SOL    HW2 1434   2.377   5.978   4.795
  179SOL     OW 1435   4.477   5.073   0.606
  179SOL    HW1 1436   4.445   5.138   0.537
  179SOL    HW2 1437   4.462   4.980   0.573
  180SOL     OW 1438   3.808   0.299   0.815
  180SOL    HW1 1439   3.835   0.316   0.720
  180SOL    HW2 1440   3.853   0.216   0.848
  181SOL     OW 1441   3.323   2.552   5.376
  181SOL    HW1 1442   3.254   2.563   5.448
  181SOL    HW2 1443   3.282   2.504   5.298
  182SOL     OW 1444   5.251   2.814   0.037
  182SOL    HW1 1445   5.153   2.816   0.016
  182SOL    HW2 1446   5.302   2.856   6.989
  183SOL     OW 1447   3.460   1.810   4.435
  183SOL    HW1 1448   3.473   1.870   4.514
  183SOL    HW2 1449   3.542   1.754   4.422
  184SOL     OW 1450   0.548   6.122   3.587
  184SOL    HW1 1451   0.553   6.222   3.596
  184SOL    HW2 1452   0.494   6.085   3.663
  185SOL     OW 1453   0.436   1.692   4.207
  185SOL    HW1 1454   0.370   1.645   4.149
  185SOL    HW2 1455   0.482   1.764   4.155
  186SOL     OW 1456   5.217   5.731   4.417
  186SOL    HW1 1457   5.306   5.710   4.378
  186SOL    HW2 1458   5.209   5.830   4.431
  187SOL     OW 1459   4.194   5.343   2.557
  187SOL    HW1 1460   4.238   5.291   2.484
  187SOL    HW2 1461   4.252   5.420   2.582
  188SOL     OW 1462   2.459   2.196   3.223
  188SOL    HW1 1463   2.478   2.286   3.262
  188SOL    HW2 1464   2.409   2.207   3.137
  189SOL     OW 1465   6.621   5.114   0.125
  189SOL    HW1 1466   6.554   5.040   0.116
  189SOL    HW2 1467   6.582   5.199   0.090
  190SOL     OW 1468   6.162   5.460   0.298
  190SOL    HW1 1469   6.074   5.419   0.323
  190SOL    HW2 1470   6.222   5.461   0.378
  191SOL     OW 1471   6.665   1.100   6.137
  191SOL    HW1 1472   6.666   1.040   6.218
  191SOL    HW2 1473   6.709   1.186   6.160
  192SOL     OW 1474   0.261   4.880   1.194
  192SOL    HW1 1475   0.353   4.870   1.158
  192SOL    HW2 1476   0.217   4.959   1.152
  193SOL     OW 1477   3.345   5.202   6.147
  193SOL    HW1 1478   3.251   5.174   6.130
  193SOL    HW2 1479   3.358   5.216   6.245
  194SOL     OW 1480   4.018   6.714   2.085
  194SOL    HW1 1481   4.114   6.692   2.065
  194SOL    HW2 1482   3.973   6.635   2.125
  195SOL     OW 1483   3.119   0.591   2.165
  195SOL    HW1 1484   3.133   0.601   2.066
  195SOL    HW2 1485   3.105   0.495   2.187
  196SOL     OW 1486   2.561   1.176   6.421
  196SOL    HW1 1487   2.652   1.216   6.423
  196SOL    HW2 1488   2.494   1.244   6.452
  197SOL     OW 1489   2.376   6.158   6.846
  197SOL    HW1 1490   2.323   6.164   6.930
  197SOL    HW2 1491   2.337   6.087   6.787
  198SOL     OW 1492   4.439   5.704   0.657
  198SOL    HW1 1493   4.482   5.785   0.618
  198SOL    HW2 1494   4.482   5.682   0.744
  199SOL     OW 1495   5.459   0.848   1.831
  199SOL    HW1 1496   5.433   0.842   1.734
  199SOL    HW2 1497   5.452   0.757   1.873
  200SOL     OW 1498   1.195   3.263   2.156
  200SOL    HW1 1499   1.170   3.296   2.247
  200SOL    HW2 1500   1.293   3.270   2.143
  201SOL     OW 1501   2.702   0.968   6.903
  201SOL    HW1 1502   2.682   0.953   6.806
  201SOL    HW2 1503   2.662   0.893   6.957
  202SOL     OW 1504   4.955   6.571   3.792
  202SOL    HW1 1505   4.899   6.493   3.819
  202SOL    HW2 1506   4.922   6.653   3.839
  203SOL     OW 1507   5.031   3.401   6.138
  203SOL    HW1 1508   4.951   3.388   6.080
  203SOL    HW2 1509   5.004   3.398   6.234
  204SOL     OW 1510   1.337   0.069   0.262
  204SOL    HW1 1511   1.379   0.037   0.177
  204SOL    HW2 1512   1.376   0.158   0.286
  205SOL     OW 1513   0.466   1.724   1.126
  205SOL    HW1 1514   0.424   1.797   1.179
  205SOL    HW2 1515   0.563   1.716   1.151
  206SOL     OW 1516   0.880   4.329   0.891
  206SOL    HW1 1517   0.849   4.424   0.896
  206SOL    HW2 1518   0.843   4.277   0.968
  207SOL     OW 1519   4.117   0.568   5.649
  207SOL    HW1 1520   4.084   0.648   5.699
  207SOL    HW2 1521   4.042   0.503   5.636
  208SOL     OW 1522   5.141   4.354   5.996
  208SOL    HW1 1523   5.209   4.378   6.066
  208SOL    HW2 1524   5.132   4.255   5.991
  209SOL     OW 1525   0.392   5.893   5.529
  209SOL    HW1 1526   0.404   5.953   5.607
  209SOL    HW2 1527   0.296   5.894   5.500
  210SOL     OW 1528   4.376   2.279   2.013
  210SOL    HW1 1529   4.311   2.331   2.069
  210SOL    HW2 1530   4.327   2.222   1.948
  211SOL     OW 1531   0.930   1.492   2.062
  211SOL    HW1 1532   0.879   1.414   2.026
  211SOL    HW2 1533   0.947   1.479   2.160
  212SOL     OW 1534   0.881   4.772   3.569
  212SOL    HW1 1535   0.823   4.793   3.490
  212SOL    HW2 1536   0.975   4.756   3.538
  213SOL     OW 1537   5.263   1.342   0.082
  213SOL    HW1 1538   5.302   1.309   0.168
  213SOL    HW2 1539   5.241   1.439   0.090
  214SOL     OW 1540   0.807   6.956   3.245
  214SOL    HW1 1541   0.797   6.877   3.183
  214SOL    HW2 1542   0.884   6.941   3.306
  215SOL     OW 1543   3.892   2.865   1.840
  215SOL    HW1 1544   3.824   2.791   1.844
  215SOL    HW2 1545   3.899   2.908   1.930
  216SOL     OW 1546   0.927   0.015   4.834
  216SOL    HW1 1547   0.932   0.003   4.933
  216SOL    HW2 1548   0.832   0.007   4.804
  217SOL     OW 1549   1.914   2.584   4.188
  217SOL    HW1 1550   1.855   2.515   4.148
  217SOL    HW2 1551   1.976   2.540   4.254
  218SOL     OW 1552   0.925   2.172   4.503
  218SOL    HW1 1553   0.969   2.162   4.592
  218SOL    HW2 1554   0.939   2.265   4.469
  219SOL     OW 1555   3.507   4.224   0.330
  219SOL    HW1 1556   3.445   4.284   0.381
  219SOL    HW2 1557   3.559   4.279   0.264
  220SOL     OW 1558   2.376   5.611   0.096
  220SOL    HW1 1559   2.432   5.635   0.176
  220SOL    HW2 1560   2.347   5.516   0.103
  221SOL     OW 1561   5.664   3.446   3.994
  221SOL    HW1 1562   5.751   3.400   3.973
  221SOL    HW2 1563   5.629   3.412   4.082
  222SOL     OW 1564   1.613   5.422   5.020
  222SOL    HW1 1565   1.525   5.464   5.001
  222SOL    HW2 1566   1.609   5.324   4.999
  223SOL     OW 1567   0.274   3.614   1.831
  223SOL    HW1 1568   0.313   3.522   1.822
  223SOL    HW2 1569   0.225   3.638   1.747
  224SOL     OW 1570   2.475   2.379   2.620
  224SOL    HW1 1571   2.436   2.430   2.697
  224SOL    HW2 1572   2.556   2.330   2.650
  225SOL     OW 1573   5.938   1.261   0.414
  225SOL    HW1 1574   6.038   1.264   0.417
  225SOL    HW2 1575   5.909   1.166   0.409
  226SOL     OW 1576   1.200   0.234   0.814
  226SOL    HW1 1577   1.194   0.257   0.717
  226SOL    HW2 1578   1.262   0.298   0.860
  227SOL     OW 1579   1.491   4.100   3.399
  227SOL    HW1 1580   1.496   4.007   3.435
  227SOL    HW2 1581   1.396   4.123   3.381
  228SOL     OW 1582   3.453   6.682   4.405
  228SOL    HW1 1583   3.538   6.632   4.389
  228SOL    HW2 1584   3.377   6.634   4.361
  229SOL     OW 1585   5.684   5.845   1.159
  229SOL    HW1 1586   5.714   5.822   1.066
  229SOL    HW2 1587   5.759   5.892   1.207
  230SOL     OW 1588   2.141   3.697   3.895
  230SOL    HW1 1589   2.122   3.603   3.867
  230SOL    HW2 1590   2.123   3.706   3.993
  231SOL     OW 1591   6.509   2.855   6.089
  231SOL    HW1 1592   6.558   2.930   6.044
  231SOL    HW2 1593   6.447   2.892   6.158
  232SOL     OW 1594   1.492   3.771   6.349
  232SOL    HW1 1595   1.584   3.807   6.364
  232SOL    HW2 1596   1.472   3.768   6.251
  233SOL     OW 1597   2.312   0.824   5.501
  233SOL    HW1 1598   2.333   0.757   5.573
  233SOL    HW2 1599   2.218   0.811   5.471
  234SOL     OW 1600   2.483   4.834   6.783
  234SOL    HW1 1601   2.553   4.767   6.809
  234SOL    HW2 1602   2.452   4.815   6.690
  235SOL     OW 1603   3.575   3.595   4.070
  235SOL    HW1 1604   3.524   3.642   3.998
  235SOL    HW2 1605   3.617   3.513   4.033
  236SOL     OW 1606   6.370   3.011   6.270
  236SOL    HW1 1607   6.287   3.031   6.218
  236SOL    HW2 1608   6.370   3.065   6.354
  237SOL     OW 1609   0.091   6.718   0.964
  237SOL    HW1 1610   0.130   6.639   0.917
  237SOL    HW2 1611   0.088   6.796   0.902
  238SOL     OW 1612   5.482   3.271   1.609
  238SOL    HW1 1613   5.563   3.312   1.569
  238SOL    HW2 1614   5.492   3.267   1.709
  239SOL     OW 1615   0.127   5.630   6.901
  239SOL    HW1 1616   0.156   5.723   6.882
  239SOL    HW2 1617   0.089   5.589   6.818
  240SOL     OW 1618   0.757   3.631   6.097
  240SOL    HW1 1619   0.659   3.647   6.097
  240SOL    HW2 1620   0.796   3.665   6.183
  241SOL     OW 1621   0.312   1.094   3.611
  241SOL    HW1 1622   0.233   1.045   3.648
  241SOL    HW2 1623   0.286   1.140   3.526
  242SOL     OW 1624   1.440   2.909   4.956
  242SOL    HW1 1625   1.498   2.904   4.875
  242SOL    HW2 1626   1.497   2.904   5.038
  243SOL     OW 1627   4.679   0.757   5.992
  243SOL    HW1 1628   4.733   0.816   5.931
  243SOL    HW2 1629   4.662   0.805   6.078
  244SOL     OW 1630   4.999   1.638   4.893
  244SOL    HW1 1631   5.001   1.603   4.987
  244SOL    HW2 1632   4.913   1.688   4.879
  245SOL     OW 1633   6.262   2.501   5.057
  245SOL    HW1 1634   6.307   2.430   5.003
  245SOL    HW2 1635   6.193   2.459   5.116
  246SOL     OW 1636   4.886   3.967   4.129
  246SOL    HW1 1637   4.974   3.963   4.082
  246SOL    HW2 1638   4.872   4.059   4.165
  247SOL     OW 1639   2.783   1.403   3.248
  247SOL    HW1 1640   2.710   1.468   3.225
  247SOL    HW2 1641   2.776   1.323   3.190
  248SOL     OW 1642   4.842   2.131   4.899
  248SOL    HW1 1643   4.800   2.134   4.808
  248SOL    HW2 1644   4.772   2.115   4.968
  249SOL     OW 1645   3.254   6.332   4.831
  249SOL    HW1 1646   3.286   6.265   4.765
  249SOL    HW2 1647   3.169   6.375   4.798
  250SOL     OW 1648   5.527   2.465   5.500
  250SOL    HW1 1649   5.578   2.550   5.513
  250SOL    HW2 1650   5.452   2.481   5.436
  251SOL     OW 1651   4.508   3.285   6.082
  251SOL    HW1 1652   4.496   3.353   6.154
  251SOL    HW2 1653   4.447   3.208   6.098
  252SOL     OW 1654   6.710   1.733   5.691
  252SOL    HW1 1655   6.726   1.821   5.736
  252SOL    HW2 1656   6.618   1.700   5.713
  253SOL     OW 1657   1.849   2.989   1.000
  253SOL    HW1 1658   1.810   2.953   1.085
  253SOL    HW2 1659   1.798   2.952   0.922
  254SOL     OW 1660   0.061   3.144   4.374
  254SOL    HW1 1661   0.155   3.171   4.397
  254SOL    HW2 1662   0.012   3.223   4.337
  255SOL     OW 1663   3.098   2.202   3.300
  255SOL    HW1 1664   3.079   2.166   3.391
  255SOL    HW2 1665   3.140   2.292   3.307
  256SOL     OW 1666   6.041   5.489   6.591
  256SOL    HW1 1667   5.953   5.521   6.625
  256SOL    HW2 1668   6.095   5.454   6.668
  257SOL     OW 1669   2.977   5.467   6.139
  257SOL    HW1 1670   2.986   5.368   6.144
  257SOL    HW2 1671   2.961   5.495   6.045
  258SOL     OW 1672   4.916   4.395   4.778
  258SOL    HW1 1673   4.908   4.469   4.712
  258SOL    HW2 1674   4.825   4.362   4.803
  259SOL     OW 1675   1.782   2.939   2.581
  259SOL    HW1 1676   1.851   2.913   2.649
  259SOL    HW2 1677   1.761   2.859   2.524
  260SOL     OW 1678   4.973   0.587   6.303
  260SOL    HW1 1679   4.985   0.663   6.366
  260SOL    HW2 1680   5.055   0.578   6.246
  261SOL     OW 1681   0.456   4.363   1.698
  261SOL    HW1 1682   0.483   4.427   1.626
  261SOL    HW2 1683   0.469   4.270   1.666
  262SOL     OW 1684   0.953   3.039   2.520
  262SOL    HW1 1685   0.977   2.952   2.477
  262SOL    HW2 1686   0.859   3.033   2.556
  263SOL     OW 1687   0.820   2.400   4.751
  263SOL    HW1 1688   0.782   2.448   4.830
  263SOL    HW2 1689   0.745   2.375   4.689
  264SOL     OW 1690   0.895   3.338   5.571
  264SOL    HW1 1691   0.804   3.379   5.566
  264SOL    HW2 1692   0.941   3.367   5.655
  265SOL     OW 1693   4.852   4.585   4.392
  265SOL    HW1 1694   4.882   4.672   4.352
  265SOL    HW2 1695   4.788   4.602   4.466
  266SOL     OW 1696   4.180   1.712   0.799
  266SOL    HW1 1697   4.277   1.708   0.826
  266SOL    HW2 1698   4.123   1.692   0.878
  267SOL     OW 1699   1.759   2.634   6.467
  267SOL    HW1 1700   1.754   2.732   6.486
  267SOL    HW2 1701   1.816   2.619   6.386
  268SOL     OW 1702   4.705   4.568   4.638
  268SOL    HW1 1703   4.633   4.606   4.697
  268SOL    HW2 1704   4.681   4.474   4.613
  269SOL     OW 1705   1.800   1.773   6.621
  269SOL    HW1 1706   1.802   1.851   6.683
  269SOL    HW2 1707   1.714   1.723   6.632
  270SOL     OW 1708   5.630   0.987   2.093
  270SOL    HW1 1709   5.553   1.047   2.114
  270SOL    HW2 1710   5.643   0.982   1.994
  271SOL     OW 1711   1.621   0.953   0.850
  271SOL    HW1 1712   1.559   0.958   0.928
  271SOL    HW2 1713   1.627   1.043   0.806
  272SOL     OW 1714   3.943   5.275   4.426
  272SOL    HW1 1715   4.027   5.221   4.431
  272SOL    HW2 1716   3.960   5.366   4.465
  273SOL     OW 1717   1.541   5.615   4.644
  273SOL    HW1 1718   1.445   5.594   4.660
  273SOL    HW2 1719   1.596   5.531   4.648
  274SOL     OW 1720   5.876   3.104   3.338
  274SOL    HW1 1721   5.780   3.106   3.364
  274SOL    HW2 1722   5.914   3.196   3.345
  275SOL     OW 1723   6.930   6.596   5.926
  275SOL    HW1 1724   6.887   6.559   6.008
  275SOL    HW2 1725   6.861   6.644   5.871
  276SOL     OW 1726   6.688   6.159   3.447
  276SOL    HW1 1727   6.700   6.062   3.426
  276SOL    HW2 1728   6.776   6.200   3.470
  277SOL     OW 1729   3.772   1.470   5.497
  277SOL    HW1 1730   3.690   1.485   5.441
  277SOL    HW2 1731   3.777   1.541   5.568
  278SOL     OW 1732   5.142   4.237   2.337
  278SOL    HW1 1733   5.102   4.311   2.391
  278SOL    HW2 1734   5.091   4.227   2.252
  279SOL     OW 1735   0.186   3.186   3.008
  279SOL    HW1 1736   0.266   3.211   3.063
  279SOL    HW2 1737   0.183   3.087   2.998
  280SOL     OW 1738   4.487   6.863   3.675
  280SOL    HW1 1739   4.439   6.930   3.732
  280SOL    HW2 1740   4.468   6.771   3.709
  281SOL     OW 1741   4.328   5.663   4.100
  281SOL    HW1 1742   4.235   5.661   4.137
  281SOL    HW2 1743   4.363   5.569   4.093
  282SOL     OW 1744   4.394   2.208   6.403
  282SOL    HW1 1745   4.436   2.273   6.467
  282SOL    HW2 1746   4.346   2.137   6.455
  283SOL     OW 1747   6.486   0.677   4.812
  283SOL    HW1 1748   6.470   0.742   4.737
  283SOL    HW2 1749   6.449   0.714   4.897
  284SOL     OW 1750   0.235   4.882   5.013
  284SOL    HW1 1751   0.159   4.847   5.067
  284SOL    HW2 1752   0.313   4.898   5.072
  285SOL     OW 1753   4.879   0.168   0.082
  285SOL    HW1 1754   4.942   0.099   0.120
  285SOL    HW2 1755   4.897   0.256   0.125
  286SOL     OW 1756   3.638   5.544   4.879
  286SOL    HW1 1757   3.712   5.512   4.819
  286SOL    HW2 1758   3.638   5.490   4.963
  287SOL     OW 1759   1.829   5.611   6.101
  287SOL    HW1 1760   1.753   5.676   6.105
  287SOL    HW2 1761   1.839   5.578   6.007
  288SOL     OW 1762   3.931   0.628   1.046
  288SOL    HW1 1763   3.873   0.701   1.008
  288SOL    HW2 1764   3.873   0.552   1.076
  289SOL     OW 1765   0.951   6.080   5.244
  289SOL    HW1 1766   1.032   6.133   5.273
  289SOL    HW2 1767   0.875   6.142   5.227
  290SOL     OW 1768   4.556   0.864   3.674
  290SOL    HW1 1769   4.581   0.818   3.589
  290SOL    HW2 1770   4.580   0.961   3.668
  291SOL     OW 1771   4.411   0.439   4.187
  291SOL    HW1 1772   4.483   0.474   4.128
  291SOL    HW2 1773   4.438   0.349   4.223
  292SOL     OW 1774   3.595   0.169   3.803
  292SOL    HW1 1775   3.616   0.131   3.893
  292SOL    HW2 1776   3.671   0.151   3.741
  293SOL     OW 1777   5.224   6.056   2.206
  293SOL    HW1 1778   5.254   6.103   2.123
  293SOL    HW2 1779   5.209   5.959   2.185
  294SOL     OW 1780   5.818   0.213   5.854
  294SOL    HW1 1781   5.908   0.250   5.831
  294SOL    HW2 1782   5.827   0.148   5.930
  295SOL     OW 1783   1.213   2.095   5.235
  295SOL    HW1 1784   1.311   2.091   5.253
  295SOL    HW2 1785   1.166   2.126   5.318
  296SOL     OW 1786   6.747   0.820   1.809
  296SOL    HW1 1787   6.712   0.872   1.887
  296SOL    HW2 1788   6.676   0.760   1.774
  297SOL     OW 1789   5.180   4.550   3.569
  297SOL    HW1 1790   5.147   4.483   3.502
  297SOL    HW2 1791   5.108   4.569   3.636
  298SOL     OW 1792   4.037   0.449   0.269
  298SOL    HW1 1793   4.070   0.438   0.175
  298SOL    HW2 1794   4.109   0.492   0.324
  299SOL     OW 1795   3.124   1.793   0.071
  299SOL    HW1 1796   3.184   1.762   0.144
  299SOL    HW2 1797   3.179   1.818   7.018
  300SOL     OW 1798   3.499   1.206   2.424
  300SOL    HW1 1799   3.410   1.226   2.383
  300SOL    HW2 1800   3.540   1.128   2.377
  301SOL     OW 1801   5.194   5.815   1.624
  301SOL    HW1 1802   5.207   5.716   1.628
  301SOL    HW2 1803   5.190   5.844   1.529
  302SOL     OW 1804   6.930   6.373   1.771
  302SOL    HW1 1805   7.018   6.420   1.781
  302SOL    HW2 1806   6.856   6.437   1.786
  303SOL     OW 1807   6.116   5.718   2.268
  303SOL    HW1 1808   6.075   5.629   2.251
  303SOL    HW2 1809   6.063   5.788   2.218
  304SOL     OW 1810   1.499   6.772   5.140
  304SOL    HW1 1811   1.543   6.734   5.059
  304SOL    HW2 1812   1.560   6.765   5.218
  305SOL     OW 1813   0.952   2.752   1.450
  305SOL    HW1 1814   1.001   2.836   1.472
  305SOL    HW2 1815   0.993   2.710   1.369
  306SOL     OW 1816   0.040   1.179   2.883
  306SOL    HW1 1817   0.055   1.089   2.924
  306SOL    HW2 1818   0.099   1.189   2.802
  307SOL     OW 1819   3.303   3.309   0.768
  307SOL    HW1 1820   3.342   3.217   0.776
  307SOL    HW2 1821   3.207   3.308   0.797
  308SOL     OW 1822   5.540   1.247   4.362
  308SOL    HW1 1823   5.617   1.277   4.306
  308SOL    HW2 1824   5.573   1.227   4.455
  309SOL     OW 1825   0.310   6.795   6.903
  309SOL    HW1 1826   0.388   6.793   6.841
  309SOL    HW2 1827   0.328   6.736   6.982
  310SOL     OW 1828   5.304   6.331   4.271
  310SOL    HW1 1829   5.260   6.300   4.187
  310SOL    HW2 1830   5.329   6.427   4.262
  311SOL     OW 1831   2.538   5.454   3.069
  311SOL    HW1 1832   2.554   5.395   3.148
  311SOL    HW2 1833   2.442   5.480   3.066
  312SOL     OW 1834   4.809   2.324   3.406
  312SOL    HW1 1835   4.887   2.309   3.345
  312SOL    HW2 1836   4.725   2.293   3.361
  313SOL     OW 1837   3.864   3.435   2.356
  313SOL    HW1 1838   3.828   3.392   2.439
  313SOL    HW2 1839   3.848   3.375   2.277
  314SOL     OW 1840   1.930   6.073   5.074
  314SOL    HW1 1841   1.884   6.008   5.013
  314SOL    HW2 1842   2.024   6.042   5.089
  315SOL     OW 1843   6.286   1.263   3.714
  315SOL    HW1 1844   6.263   1.298   3.623
  315SOL    HW2 1845   6.210   1.209   3.749
  316SOL     OW 1846   4.454   1.616   5.412
  316SOL    HW1 1847   4.358   1.588   5.399
  316SOL    HW2 1848   4.457   1.713   5.433
  317SOL     OW 1849   1.624   1.672   1.836
  317SOL    HW1 1850   1.703   1.723   1.871
  317SOL    HW2 1851   1.615   1.688   1.738
  318SOL     OW 1852   6.287   0.906   5.747
  318SOL    HW1 1853   6.354   0.979   5.758
  318SOL    HW2 1854   6.263   0.869   5.836
  319SOL     OW 1855   0.671   2.005   2.692
  319SOL    HW1 1856   0.608   1.992   2.768
  319SOL    HW2 1857   0.628   1.974   2.607
  320SOL     OW 1858   5.789   2.200   6.893
  320SOL    HW1 1859   5.819   2.146   6.815
  320SOL    HW2 1860   5.729   2.145   6.951
  321SOL     OW 1861   4.114   3.533   0.757
  321SOL    HW1 1862   4.189   3.480   0.796
  321SOL    HW2 1863   4.107   3.621   0.805
  322SOL     OW 1864   4.062   3.405   6.377
  322SOL    HW1 1865   3.989   3.425   6.443
  322SOL    HW2 1866   4.057   3.309   6.352
  323SOL     OW 1867   0.618   2.635   3.741
  323SOL    HW1 1868   0.691   2.644   3.674
  323SOL    HW2 1869   0.535   2.603   3.696
  324SOL     OW 1870   2.378   6.663   3.268
  324SOL    HW1 1871   2.313   6.732   3.300
  324SOL    HW2 1872   2.444   6.644   3.340
  325SOL     OW 1873   1.218   3.795   2.555
  325SOL    HW1 1874   1.207   3.715   2.614
  325SOL    HW2 1875   1.314   3.822   2.552
  326SOL     OW 1876   1.674   5.006   6.259
  326SOL    HW1 1877   1.634   4.942   6.324
  326SOL    HW2 1878   1.773   5.011   6.273
  327SOL     OW 1879   2.922   4.955   2.550
  327SOL    HW1 1880   2.989   4.939   2.622
  327SOL    HW2 1881   2.830   4.952   2.590
  328SOL     OW 1882   1.133   4.153   1.790
  328SOL    HW1 1883   1.107   4.061   1.818
  328SOL    HW2 1884   1.233   4.159   1.788
  329SOL     OW 1885   2.922   3.892   1.254
  329SOL    HW1 1886   2.832   3.934   1.264
  329SOL    HW2 1887   2.983   3.925   1.326
  330SOL     OW 1888   3.820   5.452   0.293
  330SOL    HW1 1889   3.767   5.534   0.314
  330SOL    HW2 1890   3.848   5.407   0.379
  331SOL     OW 1891   5.348   5.343   0.761
  331SOL    HW1 1892   5.273   5.304   0.813
  331SOL    HW2 1893   5.435   5.321   0.805
  332SOL     OW 1894   5.522   1.669   3.931
  332SOL    HW1 1895   5.561   1.718   3.853
  332SOL    HW2 1896   5.422   1.681   3.931
  333SOL     OW 1897   4.205   0.888   5.126
  333SOL    HW1 1898   4.249   0.824   5.063
  333SOL    HW2 1899   4.267   0.909   5.202
  334SOL     OW 1900   3.424   2.998   2.488
  334SOL    HW1 1901   3.517   2.960   2.489
  334SOL    HW2 1902   3.401   3.027   2.395
  335SOL     OW 1903   4.205   0.147   6.682
  335SOL    HW1 1904   4.223   0.213   6.755
  335SOL    HW2 1905   4.174   0.061   6.722
  336SOL     OW 1906   3.081   1.195   3.342
  336SOL    HW1 1907   3.098   1.220   3.247
  336SOL    HW2 1908   2.988   1.159   3.350
  337SOL     OW 1909   1.474   2.071   5.745
  337SOL    HW1 1910   1.432   2.038   5.660
  337SOL    HW2 1911   1.446   2.012   5.820
  338SOL     OW 1912   4.164   2.973   1.362
  338SOL    HW1 1913   4.065   2.966   1.350
  338SOL    HW2 1914   4.204   2.882   1.362
  339SOL     OW 1915   4.277   4.874   4.619
  339SOL    HW1 1916   4.361   4.902   4.665
  339SOL    HW2 1917   4.229   4.806   4.675
  340SOL     OW 1918   5.348   2.801   4.839
  340SOL    HW1 1919   5.256   2.826   4.808
  340SOL    HW2 1920   5.402   2.885   4.852
  341SOL     OW 1921   5.547   5.776   4.772
  341SOL    HW1 1922   5.552   5.702   4.839
  341SOL    HW2 1923   5.606   5.755   4.694
  342SOL     OW 1924   4.430   4.020   1.195
  342SOL    HW1 1925   4.360   3.956   1.166
  342SOL    HW2 1926   4.449   4.085   1.122
  343SOL     OW 1927   0.469   6.455   2.370
  343SOL    HW1 1928   0.481   6.418   2.462
  343SOL    HW2 1929   0.559   6.471   2.328
  344SOL     OW 1930   0.631   1.937   1.849
  344SOL    HW1 1931   0.642   1.932   1.948
  344SOL    HW2 1932   0.722   1.936   1.806
  345SOL     OW 1933   6.684   2.361   4.394
  345SOL    HW1 1934   6.712   2.327   4.484
  345SOL    HW2 1935   6.632   2.290   4.347
  346SOL     OW 1936   2.121   6.680   2.473
  346SOL    HW1 1937   2.134   6.624   2.391
  346SOL    HW2 1938   2.177   6.643   2.548
  347SOL     OW 1939   2.470   5.774   6.916
  347SOL    HW1 1940   2.501   5.860   6.957
  347SOL    HW2 1941   2.431   5.715   6.987
  348SOL     OW 1942   4.314   5.046   2.628
  348SOL    HW1 1943   4.262   4.982   2.685
  348SOL    HW2 1944   4.408   5.052   2.664
  349SOL     OW 1945   6.733   4.462   2.116
  349SOL    HW1 1946   6.730   4.487   2.020
  349SOL    HW2 1947   6.656   4.401   2.138
  350SOL     OW 1948   3.233   2.813   0.157
  350SOL    HW1 1949   3.295   2.852   0.226
  350SOL    HW2 1950   3.227   2.875   0.079
  351SOL     OW 1951   2.755   3.802   0.564
  351SOL    HW1 1952   2.811   3.855   0.627
  351SOL    HW2 1953   2.697   3.739   0.616
  352SOL     OW 1954   4.105   6.384   3.560
  352SOL    HW1 1955   4.041   6.452   3.524
  352SOL    HW2 1956   4.120   6.400   3.658
  353SOL     OW 1957   3.328   0.099   6.266
  353SOL    HW1 1958   3.319   0.033   6.341
  353SOL    HW2 1959   3.253   0.165   6.270
  354SOL     OW 1960   5.497   3.106   0.721
  354SOL    HW1 1961   5.465   3.179   0.780
  354SOL    HW2 1962   5.585   3.071   0.755
  355SOL     OW 1963   1.891   2.640   2.359
  355SOL    HW1 1964   1.966   2.690   2.403
  355SOL    HW2 1965   1.807   2.652   2.411
  356SOL     OW 1966   1.955   0.505   4.652
  356SOL    HW1 1967   1.918   0.432   4.595
  356SOL    HW2 1968   1.914   0.500   4.743
  357SOL     OW 1969   0.146   6.039   4.213
  357SOL    HW1 1970   0.070   6.036   4.148
  357SOL    HW2 1971   0.225   6.084   4.169
  358SOL     OW 1972   4.563   6.317   0.931
  358SOL    HW1 1973   4.493   6.380   0.965
  358SOL    HW2 1974   4.649   6.336   0.977
  359SOL     OW 1975   3.495   0.735   1.114
  359SOL    HW1 1976   3.403   0.771   1.126
  359SOL    HW2 1977   3.546   0.793   1.051
  360SOL     OW 1978   1.395   4.000   4.904
  360SOL    HW1 1979   1.299   4.020   4.922
  360SOL    HW2 1980   1.414   3.904   4.925
  361SOL     OW 1981   6.257   6.554   2.682
  361SOL    HW1 1982   6.166   6.587   2.706
  361SOL    HW2 1983   6.263   6.456   2.697
  362SOL     OW 1984   3.852   4.102   0.863
  362SOL    HW1 1985   3.786   4.045   0.911
  362SOL    HW2 1986   3.942   4.091   0.904
  363SOL     OW 1987   6.176   4.574   2.839
  363SOL    HW1 1988   6.083   4.607   2.856
  363SOL    HW2 1989   6.188   4.485   2.883
  364SOL     OW 1990   0.771   4.828   6.606
  364SOL    HW1 1991   0.706   4.824   6.530
  364SOL    HW2 1992   0.723   4.816   6.693
  365SOL     OW 1993   3.541   1.051   1.088
  365SOL    HW1 1994   3.582   1.105   1.014
  365SOL    HW2 1995   3.554   1.098   1.175
  366SOL     OW 1996   6.057   2.989   6.511
  366SOL    HW1 1997   6.012   2.902   6.529
  366SOL    HW2 1998   6.155   2.980   6.529
  367SOL     OW 1999   6.131   2.547   5.922
  367SOL    HW1 2000   6.134   2.620   5.991
  367SOL    HW2 2001   6.166   2.581   5.835
  368SOL     OW 2002   0.040   2.214   6.090
  368SOL    HW1 2003   7.011   2.293   6.115
  368SOL    HW2 2004   0.137   2.239   6.098
  369SOL     OW 2005   6.149   4.181   2.740
  369SOL    HW1 2006   6.239   4.205   2.705
  369SOL    HW2 2007   6.080   4.195   2.668
  370SOL     OW 2008   1.424   1.849   4.456
  370SOL    HW1 2009   1.400   1.856   4.359
  370SOL    HW2 2010   1.374   1.918   4.508
  371SOL     OW 2011   1.782   4.632   6.691
  371SOL    HW1 2012   1.827   4.639   6.781
  371SOL    HW2 2013   1.721   4.710   6.679
  372SOL     OW 2014   1.479   0.047   4.991
  372SOL    HW1 2015   1.425   7.010   5.045
  372SOL    HW2 2016   1.465   0.139   5.027
  373SOL     OW 2017   5.803   6.715   5.569
  373SOL    HW1 2018   5.821   6.778   5.644
  373SOL    HW2 2019   5.795   6.766   5.483
  374SOL     OW 2020   2.189   1.523   3.046
  374SOL    HW1 2021   2.100   1.562   3.026
  374SOL    HW2 2022   2.261   1.589   3.023
  375SOL     OW 2023   0.805   5.220   4.402
  375SOL    HW1 2024   0.833   5.235   4.308
  375SOL    HW2 2025   0.709   5.191   4.405
  376SOL     OW 2026   1.686   1.453   5.359
  376SOL    HW1 2027   1.761   1.487   5.302
  376SOL    HW2 2028   1.612   1.420   5.301
  377SOL     OW 2029   1.882   2.339   0.367
  377SOL    HW1 2030   1.917   2.396   0.292
  377SOL    HW2 2031   1.957   2.320   0.431
  378SOL     OW 2032   3.390   1.291   6.489
  378SOL    HW1 2033   3.371   1.360   6.418
  378SOL    HW2 2034   3.453   1.330   6.556
  379SOL     OW 2035   5.345   2.573   0.072
  379SOL    HW1 2036   5.272   2.506   0.085
  379SOL    HW2 2037   5.308   2.657   0.033
  380SOL     OW 2038   2.737   1.433   1.619
  380SOL    HW1 2039   2.814   1.394   1.569
  380SOL    HW2 2040   2.683   1.360   1.659
  381SOL     OW 2041   1.878   3.707   4.235
  381SOL    HW1 2042   1.812   3.631   4.234
  381SOL    HW2 2043   1.970   3.672   4.217
  382SOL     OW 2044   6.019   0.175   0.045
  382SOL    HW1 2045   6.103   0.125   0.026
  382SOL    HW2 2046   5.951   0.112   0.084
  383SOL     OW 2047   4.594   2.667   0.506
  383SOL    HW1 2048   4.667   2.712   0.454
  383SOL    HW2 2049   4.632   2.587   0.553
  384SOL     OW 2050   0.393   4.620   3.800
  384SOL    HW1 2051   0.469   4.592   3.860
  384SOL    HW2 2052   0.417   4.705   3.753
  385SOL     OW 2053   3.589   5.818   5.769
  385SOL    HW1 2054   3.663   5.765   5.810
  385SOL    HW2 2055   3.592   5.912   5.803
  386SOL     OW 2056   4.116   0.576   4.362
  386SOL    HW1 2057   4.148   0.657   4.314
  386SOL    HW2 2058   4.103   0.501   4.297
  387SOL     OW 2059   1.636   5.547   2.562
  387SOL    HW1 2060   1.611   5.614   2.493
  387SOL    HW2 2061   1.650   5.458   2.519
  388SOL     OW 2062   1.892   1.766   6.380
  388SOL    HW1 2063   1.826   1.769   6.454
  388SOL    HW2 2064   1.975   1.816   6.408
  389SOL     OW 2065   4.076   3.104   2.234
  389SOL    HW1 2066   4.105   3.159   2.313
  389SOL    HW2 2067   4.155   3.055   2.197
  390SOL     OW 2068   3.275   1.131   4.411
  390SOL    HW1 2069   3.263   1.212   4.353
  390SOL    HW2 2070   3.344   1.071   4.370
  391SOL     OW 2071   2.065   2.818   6.558
  391SOL    HW1 2072   2.159   2.826   6.591
  391SOL    HW2 2073   2.047   2.724   6.531
  392SOL     OW 2074   1.931   4.892   0.377
  392SOL    HW1 2075   1.937   4.857   0.283
  392SOL    HW2 2076   1.890   4.983   0.377
  393SOL     OW 2077   6.932   4.442   5.534
  393SOL    HW1 2078   6.844   4.486   5.516
  393SOL    HW2 2079   6.942   4.426   5.632
  394SOL     OW 2080   0.294   0.292   0.206
  394SOL    HW1 2081   0.342   0.244   0.279
  394SOL    HW2 2082   0.207   0.327   0.241
  395SOL     OW 2083   5.229   4.043   2.647
  395SOL    HW1 2084   5.214   4.139   2.667
  395SOL    HW2 2085   5.275   4.034   2.558
  396SOL     OW 2086   4.031   3.861   2.006
  396SOL    HW1 2087   4.052   3.951   1.967
  396SOL    HW2 2088   4.052   3.790   1.938
  397SOL     OW 2089   3.845   2.799   5.724
  397SOL    HW1 2090   3.795   2.883   5.745
  397SOL    HW2 2091   3.786   2.720   5.741
  398SOL     OW 2092   0.411   6.470   1.823
  398SOL    HW1 2093   0.405   6.373   1.799
  398SOL    HW2 2094   0.483   6.514   1.770
  399SOL     OW 2095   4.681   5.917   2.065
  399SOL    HW1 2096   4.707   5.956   1.976
  399SOL    HW2 2097   4.721   5.972   2.138
  400SOL     OW 2098   0.030   0.285   5.420
  400SOL    HW1 2099   0.035   0.267   5.322
  400SOL    HW2 2100   0.015   0.382   5.436
  401SOL     OW 2101   4.576   0.834   6.232
  401SOL    HW1 2102   4.540   0.927   6.237
  401SOL    HW2 2103   4.624   0.812   6.318
  402SOL     OW 2104   6.009   6.645   2.755
  402SOL    HW1 2105   5.946   6.638   2.678
  402SOL    HW2 2106   5.958   6.630   2.840
  403SOL     OW 2107   3.875   2.180   5.583
  403SOL    HW1 2108   3.811   2.147   5.513
  403SOL    HW2 2109   3.855   2.136   5.670
  404SOL     OW 2110   1.587   6.481   3.830
  404SOL    HW1 2111   1.548   6.522   3.912
  404SOL    HW2 2112   1.675   6.525   3.810
  405SOL     OW 2113   1.573   2.847   1.508
  405SOL    HW1 2114   1.516   2.850   1.425
  405SOL    HW2 2115   1.546   2.921   1.569
  406SOL     OW 2116   0.917   3.373   3.669
  406SOL    HW1 2117   0.970   3.371   3.754
  406SOL    HW2 2118   0.824   3.403   3.688
  407SOL     OW 2119   2.071   0.781   4.090
  407SOL    HW1 2120   2.079   0.865   4.036
  407SOL    HW2 2121   2.098   0.703   4.035
  408SOL     OW 2122   1.494   0.766   2.867
  408SOL    HW1 2123   1.473   0.678   2.824
  408SOL    HW2 2124   1.413   0.799   2.916
  409SOL     OW 2125   6.077   3.180   2.191
  409SOL    HW1 2126   6.160   3.161   2.245
  409SOL    HW2 2127   6.090   3.264   2.139
  410SOL     OW 2128   2.187   6.997   6.444
  410SOL    HW1 2129   2.109   6.943   6.475
  410SOL    HW2 2130   2.248   6.939   6.390
  411SOL     OW 2131   6.106   6.828   7.020
  411SOL    HW1 2132   6.125   6.767   0.069
  411SOL    HW2 2133   6.043   6.785   6.957
  412SOL     OW 2134   4.608   6.597   3.563
  412SOL    HW1 2135   4.529   6.567   3.510
  412SOL    HW2 2136   4.615   6.543   3.646
  413SOL     OW 2137   5.292   5.043   1.419
  413SOL    HW1 2138   5.380   5.082   1.392
  413SOL    HW2 2139   5.304   4.947   1.444
  414SOL     OW 2140   3.529   4.950   3.351
  414SOL    HW1 2141   3.598   5.013   3.316
  414SOL    HW2 2142   3.473   4.916   3.276
  415SOL     OW 2143   0.802   5.910   6.696
  415SOL    HW1 2144   0.771   5.947   6.608
  415SOL    HW2 2145   0.751   5.954   6.769
  416SOL     OW 2146   4.785   5.119   5.234
  416SOL    HW1 2147   4.754   5.193   5.175
  416SOL    HW2 2148   4.707   5.079   5.283
  417SOL     OW 2149   2.911   5.945   0.915
  417SOL    HW1 2150   2.836   6.003   0.946
  417SOL    HW2 2151   2.892   5.850   0.939
  418SOL     OW 2152   4.155   6.268   1.236
  418SOL    HW1 2153   4.250   6.243   1.254
  418SOL    HW2 2154   4.108   6.190   1.195
  419SOL     OW 2155   1.745   0.455   1.529
  419SOL    HW1 2156   1.805   0.535   1.536
  419SOL    HW2 2157   1.653   0.479   1.562
  420SOL     OW 2158   6.463   2.980   1.622
  420SOL    HW1 2159   6.528   3.050   1.593
  420SOL    HW2 2160   6.484   2.953   1.716
  421SOL     OW 2161   0.262   4.904   6.075
  421SOL    HW1 2162   0.291   4.936   5.985
  421SOL    HW2 2163   0.276   4.976   6.143
  422SOL     OW 2164   6.210   4.380   0.222
  422SOL    HW1 2165   6.274   4.443   0.264
  422SOL    HW2 2166   6.208   4.295   0.275
  423SOL     OW 2167   0.638   2.939   6.760
  423SOL    HW1 2168   0.647   2.858   6.701
  423SOL    HW2 2169   0.728   2.979   6.775
  424SOL     OW 2170   2.919   3.629   1.158
  424SOL    HW1 2171   3.014   3.598   1.155
  424SOL    HW2 2172   2.916   3.721   1.196
  425SOL     OW 2173   5.959   0.992   2.387
  425SOL    HW1 2174   5.883   1.039   2.342
  425SOL    HW2 2175   6.037   0.988   2.325
  426SOL     OW 2176   5.330   2.252   4.306
  426SOL    HW1 2177   5.410   2.281   4.357
  426SOL    HW2 2178   5.256   2.230   4.369
  427SOL     OW 2179   5.739   4.719   2.287
  427SOL    HW1 2180   5.658   4.738   2.343
  427SOL    HW2 2181   5.788   4.641   2.324
  428SOL     OW 2182   4.490   6.872   4.504
  428SOL    HW1 2183   4.573   6.896   4.555
  428SOL    HW2 2184   4.463   6.948   4.446
  429SOL     OW 2185   2.444   4.198   1.695
  429SOL    HW1 2186   2.539   4.229   1.702
  429SOL    HW2 2187   2.412   4.209   1.601
  430SOL     OW 2188   0.669   0.410   4.367
  430SOL    HW1 2189   0.619   0.369   4.444
  430SOL    HW2 2190   0.757   0.364   4.357
  431SOL     OW 2191   3.129   0.272   0.304
  431SOL    HW1 2192   3.076   0.345   0.347
  431SOL    HW2 2193   3.070   0.194   0.284
  432SOL     OW 2194   6.537   2.608   2.165
  432SOL    HW1 2195   6.500   2.540   2.228
  432SOL    HW2 2196   6.468   2.678   2.146
  433SOL     OW 2197   3.192   6.176   4.413
  433SOL    HW1 2198   3.190   6.115   4.333
  433SOL    HW2 2199   3.113   6.156   4.472
  434SOL     OW 2200   4.229   4.984   1.809
  434SOL    HW1 2201   4.268   4.959   1.898
  434SOL    HW2 2202   4.137   4.946   1.801
  435SOL     OW 2203   3.685   1.894   5.170
  435SOL    HW1 2204   3.615   1.887   5.098
  435SOL    HW2 2205   3.762   1.834   5.147
  436SOL     OW 2206   3.181   6.108   0.659
  436SOL    HW1 2207   3.257   6.043   0.665
  436SOL    HW2 2208   3.123   6.099   0.740
  437SOL     OW 2209   1.175   6.629   6.712
  437SOL    HW1 2210   1.258   6.579   6.685
  437SOL    HW2 2211   1.175   6.719   6.667
  438SOL     OW 2212   1.842   2.748   2.112
  438SOL    HW1 2213   1.872   2.693   2.190
  438SOL    HW2 2214   1.840   2.691   2.030
  439SOL     OW 2215   6.383   4.525   3.472
  439SOL    HW1 2216   6.291   4.563   3.472
  439SOL    HW2 2217   6.384   4.440   3.524
  440SOL     OW 2218   1.289   2.008   4.918
  440SOL    HW1 2219   1.263   1.959   5.001
  440SOL    HW2 2220   1.303   2.105   4.940
  441SOL     OW 2221   0.746   1.990   3.619
  441SOL    HW1 2222   0.653   1.984   3.654
  441SOL    HW2 2223   0.792   2.070   3.659
  442SOL     OW 2224   2.316   5.099   6.769
  442SOL    HW1 2225   2.308   5.023   6.704
  442SOL    HW2 2226   2.355   5.065   6.854
  443SOL     OW 2227   0.727   3.710   4.691
  443SOL    HW1 2228   0.694   3.732   4.783
  443SOL    HW2 2229   0.826   3.726   4.686
  444SOL     OW 2230   5.153   2.184   6.113
  444SOL    HW1 2231   5.109   2.273   6.103
  444SOL    HW2 2232   5.248   2.198   6.142
  445SOL     OW 2233   1.339   5.838   3.237
  445SOL    HW1 2234   1.373   5.850   3.330
  445SOL    HW2 2235   1.409   5.793   3.181
  446SOL     OW 2236   4.118   4.963   4.216
  446SOL    HW1 2237   4.146   4.975   4.311
  446SOL    HW2 2238   4.148   4.873   4.184
  447SOL     OW 2239   0.979   2.790   0.011
  447SOL    HW1 2240   0.988   2.839   0.097
  447SOL    HW2 2241   0.887   2.752   0.003
  448SOL     OW 2242   2.582   0.847   4.486
  448SOL    HW1 2243   2.676   0.879   4.488
  448SOL    HW2 2244   2.581   0.747   4.481
  449SOL     OW 2245   4.109   0.499   4.830
  449SOL    HW1 2246   4.183   0.441   4.795
  449SOL    HW2 2247   4.143   0.554   4.907
  450SOL     OW 2248   1.566   6.152   3.769
  450SOL    HW1 2249   1.576   6.251   3.776
  450SOL    HW2 2250   1.543   6.115   3.859
  451SOL     OW 2251   1.855   1.971   3.375
  451SOL    HW1 2252   1.835   1.957   3.278
  451SOL    HW2 2253   1.941   1.924   3.398
  452SOL     OW 2254   6.314   6.074   1.209
  452SOL    HW1 2255   6.367   6.159   1.217
  452SOL    HW2 2256   6.347   6.008   1.276
  453SOL     OW 2257   3.361   0.504   4.564
  453SOL    HW1 2258   3.303   0.457   4.498
  453SOL    HW2 2259   3.307   0.533   4.642
  454SOL     OW 2260   0.289   5.034   6.313
  454SOL    HW1 2261   0.257   4.954   6.364
  454SOL    HW2 2262   0.387   5.045   6.327
  455SOL     OW 2263   6.633   1.896   3.547
  455SOL    HW1 2264   6.717   1.918   3.597
  455SOL    HW2 2265   6.654   1.833   3.473
  456SOL     OW 2266   5.098   5.510   4.568
  456SOL    HW1 2267   5.148   5.584   4.521
  456SOL    HW2 2268   5.098   5.527   4.666
  457SOL     OW 2269   1.931   3.415   3.387
  457SOL    HW1 2270   1.874   3.335   3.408
  457SOL    HW2 2271   1.962   3.457   3.472
  458SOL     OW 2272   4.663   5.863   3.806
  458SOL    HW1 2273   4.696   5.929   3.874
  458SOL    HW2 2274   4.677   5.771   3.840
  459SOL     OW 2275   2.084   6.465   4.330
  459SOL    HW1 2276   2.149   6.469   4.254
  459SOL    HW2 2277   1.991   6.470   4.295
  460SOL     OW 2278   1.718   0.244   3.651
  460SOL    HW1 2279   1.799   0.186   3.646
  460SOL    HW2 2280   1.736   0.331   3.605
  461SOL     OW 2281   6.073   0.134   5.342
  461SOL    HW1 2282   6.097   0.217   5.291
  461SOL    HW2 2283   6.156   0.084   5.366
  462SOL     OW 2284   3.993   2.808   5.980
  462SOL    HW1 2285   3.958   2.803   5.887
  462SOL    HW2 2286   3.982   2.719   6.025
  463SOL     OW 2287   6.834   5.535   3.445
  463SOL    HW1 2288   6.742   5.502   3.465
  463SOL    HW2 2289   6.901   5.471   3.483
  464SOL     OW 2290   2.611   2.601   6.769
  464SOL    HW1 2291   2.692   2.548   6.747
  464SOL    HW2 2292   2.530   2.553   6.737
  465SOL     OW 2293   1.093   2.602   4.198
  465SOL    HW1 2294   1.010   2.610   4.142
  465SOL    HW2 2295   1.068   2.602   4.295
  466SOL     OW 2296   1.588   4.775   3.104
  466SOL    HW1 2297   1.634   4.864   3.097
  466SOL    HW2 2298   1.489   4.788   3.108
  467SOL     OW 2299   1.122   0.955   0.071
  467SOL    HW1 2300   1.138   1.041   0.022
  467SOL    HW2 2301   1.032   0.959   0.116
  468SOL     OW 2302   3.794   6.255   6.818
  468SOL    HW1 2303   3.699   6.228   6.834
  468SOL    HW2 2304   3.809   6.347   6.857
  469SOL     OW 2305   3.041   4.478   0.629
  469SOL    HW1 2306   3.097   4.399   0.655
  469SOL    HW2 2307   3.036   4.542   0.706
  470SOL     OW 2308   4.057   0.306   2.561
  470SOL    HW1 2309   4.088   0.337   2.472
  470SOL    HW2 2310   3.999   0.225   2.549
  471SOL     OW 2311   1.727   2.407   4.088
  471SOL    HW1 2312   1.728   2.348   4.169
  471SOL    HW2 2313   1.717   2.351   4.006
  472SOL     OW 2314   5.248   4.006   6.688
  472SOL    HW1 2315   5.282   4.090   6.647
  472SOL    HW2 2316   5.317   3.970   6.752
  473SOL     OW 2317   0.713   3.078   2.192
  473SOL    HW1 2318   0.704   3.076   2.292
  473SOL    HW2 2319   0.799   3.124   2.168
  474SOL     OW 2320   4.896   4.899   3.629
  474SOL    HW1 2321   4.810   4.863   3.594
  474SOL    HW2 2322   4.925   4.977   3.573
  475SOL     OW 2323   5.362   1.061   6.047
  475SOL    HW1 2324   5.350   1.019   5.957
  475SOL    HW2 2325   5.275   1.101   6.076
  476SOL     OW 2326   6.986   4.323   2.558
  476SOL    HW1 2327   6.984   4.299   2.656
  476SOL    HW2 2328   0.035   4.276   2.514
  477SOL     OW 2329   1.552   4.266   4.934
  477SOL    HW1 2330   1.483   4.200   4.963
  477SOL    HW2 2331   1.597   4.233   4.850
  478SOL     OW 2332   3.440   6.778   2.379
  478SOL    HW1 2333   3.387   6.759   2.297
  478SOL    HW2 2334   3.472   6.873   2.377
  479SOL     OW 2335   4.154   2.126   7.018
  479SOL    HW1 2336   4.081   2.060   7.000
  479SOL    HW2 2337   4.225   2.116   6.949
  480SOL     OW 2338   2.259   1.686   0.059
  480SOL    HW1 2339   2.260   1.764   0.121
  480SOL    HW2 2340   2.293   1.605   0.107
  481SOL     OW 2341   1.811   0.544   0.539
  481SOL    HW1 2342   1.854   0.625   0.500
  481SOL    HW2 2343   1.743   0.507   0.475
  482SOL     OW 2344   4.915   5.000   3.069
  482SOL    HW1 2345   4.895   4.915   3.020
  482SOL    HW2 2346   4.965   5.063   3.009
  483SOL     OW 2347   6.982   1.644   1.793
  483SOL    HW1 2348   6.989   1.549   1.823
  483SOL    HW2 2349   6.945   1.647   1.700
  484SOL     OW 2350   1.168   2.980   4.924
  484SOL    HW1 2351   1.157   2.892   4.879
  484SOL    HW2 2352   1.264   2.993   4.949
  485SOL     OW 2353   3.957   5.228   2.561
  485SOL    HW1 2354   3.972   5.146   2.505
  485SOL    HW2 2355   4.045   5.267   2.587
  486SOL     OW 2356   6.358   1.812   0.878
  486SOL    HW1 2357   6.333   1.901   0.840
  486SOL    HW2 2358   6.387   1.750   0.805
  487SOL     OW 2359   1.376   1.842   1.155
  487SOL    HW1 2360   1.450   1.896   1.116
  487SOL    HW2 2361   1.324   1.898   1.219
  488SOL     OW 2362   0.674   1.878   1.573
  488SOL    HW1 2363   0.589   1.907   1.616
  488SOL    HW2 2364   0.728   1.959   1.548
  489SOL     OW 2365   3.335   6.282   6.405
  489SOL    HW1 2366   3.324   6.189   6.439
  489SOL    HW2 2367   3.246   6.327   6.401
  490SOL     OW 2368   0.006   6.179   3.245
  490SOL    HW1 2369   0.046   6.148   3.332
  490SOL    HW2 2370   6.989   6.267   3.259
  491SOL     OW 2371   0.436   2.965   2.293
  491SOL    HW1 2372   0.476   2.925   2.211
  491SOL    HW2 2373   0.468   3.059   2.305
  492SOL     OW 2374   2.384   7.027   5.258
  492SOL    HW1 2375   2.320   6.954   5.280
  492SOL    HW2 2376   2.421   7.012   5.166
  493SOL     OW 2377   5.072   6.773   5.761
  493SOL    HW1 2378   5.036   6.823   5.683
  493SOL    HW2 2379   4.995   6.742   5.818
  494SOL     OW 2380   6.689   0.689   6.530
  494SOL    HW1 2381   6.715   0.650   6.618
  494SOL    HW2 2382   6.724   0.631   6.456
  495SOL     OW 2383   4.745   6.075   3.526
  495SOL    HW1 2384   4.661   6.114   3.564
  495SOL    HW2 2385   4.730   5.978   3.505
  496SOL     OW 2386   5.524   3.519   2.160
  496SOL    HW1 2387   5.465   3.440   2.179
  496SOL    HW2 2388   5.494   3.597   2.213
  497SOL     OW 2389   3.467   1.011   4.665
  497SOL    HW1 2390   3.513   0.986   4.580
  497SOL    HW2 2391   3.478   0.938   4.732
  498SOL     OW 2392   1.682   4.430   1.655
  498SOL    HW1 2393   1.598   4.460   1.700
  498SOL    HW2 2394   1.662   4.405   1.561
  499SOL     OW 2395   2.708   0.508   4.053
  499SOL    HW1 2396   2.796   0.489   4.011
  499SOL    HW2 2397   2.698   0.607   4.068
  500SOL     OW 2398   0.502   3.494   3.425
  500SOL    HW1 2399   0.531   3.584   3.391
  500SOL    HW2 2400   0.538   3.423   3.364
  501SOL     OW 2401   2.766   6.116   0.264
  501SOL    HW1 2402   2.855   6.106   0.308
  501SOL    HW2 2403   2.750   6.212   0.241
  502SOL     OW 2404   6.749   4.126   0.008
  502SOL    HW1 2405   6.801   4.042   0.024
  502SOL    HW2 2406   6.660   4.104   6.996
  503SOL     OW 2407   5.773   5.608   5.903
  503SOL    HW1 2408   5.855   5.552   5.892
  503SOL    HW2 2409   5.760   5.630   5.999
  504SOL     OW 2410   1.842   5.581   3.121
  504SOL    HW1 2411   1.837   5.670   3.075
  504SOL    HW2 2412   1.877   5.593   3.214
  505SOL     OW 2413   3.335   5.911   4.893
  505SOL    HW1 2414   3.358   5.955   4.980
  505SOL    HW2 2415   3.302   5.981   4.829
  506SOL     OW 2416   1.982   5.675   4.954
  506SOL    HW1 2417   1.912   5.655   5.022
  506SOL    HW2 2418   1.953   5.754   4.899
  507SOL     OW 2419   3.925   0.689   3.461
  507SOL    HW1 2420   3.925   0.770   3.520
  507SOL    HW2 2421   4.017   0.652   3.454
  508SOL     OW 2422   6.589   3.817   2.355
  508SOL    HW1 2423   6.560   3.900   2.307
  508SOL    HW2 2424   6.652   3.766   2.296
  509SOL     OW 2425   3.444   1.100   2.037
  509SOL    HW1 2426   3.357   1.124   1.994
  509SOL    HW2 2427   3.517   1.104   1.969
  510SOL     OW 2428   6.407   5.075   6.800
  510SOL    HW1 2429   6.448   4.992   6.838
  510SOL    HW2 2430   6.308   5.072   6.814
  511SOL     OW 2431   0.187   1.295   6.193
  511SOL    HW1 2432   0.158   1.389   6.210
  511SOL    HW2 2433   0.114   1.232   6.221
  512SOL     OW 2434   6.914   2.844   0.031
  512SOL    HW1 2435   6.961   2.789   0.099
  512SOL    HW2 2436   6.845   2.788   7.011
  513SOL     OW 2437   6.126   6.005   2.884
  513SOL    HW1 2438   6.036   6.031   2.921
  513SOL    HW2 2439   6.133   5.905   2.880
  514SOL     OW 2440   6.800   2.714   4.012
  514SOL    HW1 2441   6.864   2.709   4.088
  514SOL    HW2 2442   6.724   2.775   4.036
  515SOL     OW 2443   2.254   0.811   6.882
  515SOL    HW1 2444   2.163   0.850   6.875
  515SOL    HW2 2445   2.305   0.828   6.798
  516SOL     OW 2446   2.604   4.579   1.802
  516SOL    HW1 2447   2.615   4.480   1.795
  516SOL    HW2 2448   2.687   4.619   1.841
  517SOL     OW 2449   5.012   5.225   2.263
  517SOL    HW1 2450   4.996   5.261   2.172
  517SOL    HW2 2451   4.995   5.297   2.331
  518SOL     OW 2452   2.169   2.503   2.483
  518SOL    HW1 2453   2.254   2.556   2.477
  518SOL    HW2 2454   2.143   2.471   2.392
  519SOL     OW 2455   0.608   1.033   4.496
  519SOL    HW1 2456   0.700   1.061   4.469
  519SOL    HW2 2457   0.605   1.016   4.594
  520SOL     OW 2458   6.475   4.317   0.060
  520SOL    HW1 2459   6.516   4.405   0.038
  520SOL    HW2 2460   6.509   4.285   0.149
  521SOL     OW 2461   6.808   3.737   6.231
  521SOL    HW1 2462   6.838   3.753   6.325
  521SOL    HW2 2463   6.712   3.709   6.232
  522SOL     OW 2464   3.432   4.219   5.662
  522SOL    HW1 2465   3.496   4.293   5.639
  522SOL    HW2 2466   3.343   4.237   5.620
  523SOL     OW 2467   0.820   4.991   1.337
  523SOL    HW1 2468   0.887   4.925   1.370
  523SOL    HW2 2469   0.737   4.986   1.392
  524SOL     OW 2470   1.386   1.518   0.758
  524SOL    HW1 2471   1.349   1.500   0.667
  524SOL    HW2 2472   1.339   1.462   0.825
  525SOL     OW 2473   2.298   3.474   6.831
  525SOL    HW1 2474   2.315   3.424   6.746
  525SOL    HW2 2475   2.199   3.487   6.842
  526SOL     OW 2476   4.122   6.871   4.141
  526SOL    HW1 2477   4.156   6.928   4.066
  526SOL    HW2 2478   4.030   6.839   4.120
  527SOL     OW 2479   6.709   3.221   6.584
  527SOL    HW1 2480   6.670   3.278   6.512
  527SOL    HW2 2481   6.719   3.127   6.551
  528SOL     OW 2482   1.012   1.321   3.583
  528SOL    HW1 2483   1.060   1.235   3.602
  528SOL    HW2 2484   0.914   1.309   3.603
  529SOL     OW 2485   1.110   6.488   4.074
  529SOL    HW1 2486   1.186   6.522   4.129
  529SOL    HW2 2487   1.142   6.472   3.980
  530SOL     OW 2488   3.198   3.075   5.561
  530SOL    HW1 2489   3.125   3.105   5.499
  530SOL    HW2 2490   3.284   3.067   5.510
  531SOL     OW 2491   0.259   0.308   2.407
  531SOL    HW1 2492   0.232   0.349   2.494
  531SOL    HW2 2493   0.238   0.371   2.332
  532SOL     OW 2494   1.770   1.976   0.038
  532SOL    HW1 2495   1.841   2.021   0.092
  532SOL    HW2 2496   1.708   1.927   0.099
  533SOL     OW 2497   3.924   6.651   3.746
  533SOL    HW1 2498   3.951   6.738   3.706
  533SOL    HW2 2499   4.005   6.599   3.770
  534SOL     OW 2500   5.319   5.677   3.381
  534SOL    HW1 2501   5.259   5.609   3.423
  534SOL    HW2 2502   5.380   5.632   3.315
  535SOL     OW 2503   0.298   3.587   4.672
  535SOL    HW1 2504   0.246   3.502   4.677
  535SOL    HW2 2505   0.253   3.650   4.608
  536SOL     OW 2506   0.262   5.259   1.971
  536SOL    HW1 2507   0.350   5.275   2.017
  536SOL    HW2 2508   0.221   5.175   2.006
  537SOL     OW 2509   2.090   6.676   3.765
  537SOL    HW1 2510   2.021   6.679   3.837
  537SOL    HW2 2511   2.169   6.623   3.796
  538SOL     OW 2512   1.109   4.095   3.042
  538SOL    HW1 2513   1.013   4.076   3.024
  538SOL    HW2 2514   1.165   4.017   3.013
  539SOL     OW 2515   0.952   6.170   0.159
  539SOL    HW1 2516   0.871   6.211   0.201
  539SOL    HW2 2517   0.936   6.072   0.147
  540SOL     OW 2518   0.232   1.269   2.136
  540SOL    HW1 2519   0.202   1.351   2.186
  540SOL    HW2 2520   0.255   1.295   2.042
  541SOL     OW 2521   3.270   6.231   3.656
  541SOL    HW1 2522   3.326   6.284   3.719
  541SOL    HW2 2523   3.204   6.178   3.708
  542SOL     OW 2524   6.794   0.035   0.206
  542SOL    HW1 2525   6.695   0.021   0.195
  542SOL    HW2 2526   6.824   0.110   0.147
  543SOL     OW 2527   1.212   5.012   5.442
  543SOL    HW1 2528   1.306   4.978   5.447
  543SOL    HW2 2529   1.209   5.092   5.382
  544SOL     OW 2530   1.829   4.259   1.394
  544SOL    HW1 2531   1.849   4.357   1.389
  544SOL    HW2 2532   1.739   4.245   1.435
  545SOL     OW 2533   3.473   0.711   3.163
  545SOL    HW1 2534   3.573   0.714   3.163
  545SOL    HW2 2535   3.441   0.679   3.253
  546SOL     OW 2536   1.967   3.243   0.274
  546SOL    HW1 2537   2.024   3.319   0.244
  546SOL    HW2 2538   2.016   3.157   0.260
  547SOL     OW 2539   2.798   1.767   6.884
  547SOL    HW1 2540   2.893   1.792   6.899
  547SOL    HW2 2541   2.780   1.762   6.786
  548SOL     OW 2542   3.871   2.943   2.080
  548SOL    HW1 2543   3.787   2.890   2.086
  548SOL    HW2 2544   3.896   2.976   2.171
  549SOL     OW 2545   4.597   3.088   1.306
  549SOL    HW1 2546   4.644   3.002   1.324
  549SOL    HW2 2547   4.559   3.124   1.392
  550SOL     OW 2548   6.373   4.668   3.232
  550SOL    HW1 2549   6.281   4.653   3.197
  550SOL    HW2 2550   6.384   4.621   3.319
  551SOL     OW 2551   0.670   0.456   1.116
  551SOL    HW1 2552   0.703   0.433   1.208
  551SOL    HW2 2553   0.748   0.457   1.053
  552SOL     OW 2554   4.548   5.310   0.711
  552SOL    HW1 2555   4.459   5.356   0.712
  552SOL    HW2 2556   4.534   5.212   0.696
  553SOL     OW 2557   2.657   6.768   1.961
  553SOL    HW1 2558   2.634   6.764   2.058
  553SOL    HW2 2559   2.747   6.809   1.949
  554SOL     OW 2560   5.552   6.431   5.611
  554SOL    HW1 2561   5.533   6.434   5.513
  554SOL    HW2 2562   5.540   6.523   5.650
  555SOL     OW 2563   2.034   5.172   3.490
  555SOL    HW1 2564   2.071   5.116   3.417
  555SOL    HW2 2565   2.103   5.185   3.561
  556SOL     OW 2566   5.774   2.239   4.146
  556SOL    HW1 2567   5.816   2.323   4.113
  556SOL    HW2 2568   5.702   2.210   4.083
  557SOL     OW 2569   0.393   4.880   0.460
  557SOL    HW1 2570   0.424   4.907   0.368
  557SOL    HW2 2571   0.455   4.811   0.497
  558SOL     OW 2572   3.234   4.146   5.048
  558SOL    HW1 2573   3.180   4.142   5.132
  558SOL    HW2 2574   3.211   4.229   4.998
  559SOL     OW 2575   6.334   5.999   6.567
  559SOL    HW1 2576   6.273   5.990   6.646
  559SOL    HW2 2577   6.422   5.955   6.587
  560SOL     OW 2578   3.910   5.493   0.011
  560SOL    HW1 2579   3.853   5.462   6.963
  560SOL    HW2 2580   3.871   5.461   0.097
  561SOL     OW 2581   6.123   1.180   6.970
  561SOL    HW1 2582   6.217   1.177   6.938
  561SOL    HW2 2583   6.061   1.182   6.891
  562SOL     OW 2584   4.369   0.772   5.929
  562SOL    HW1 2585   4.363   0.745   6.025
  562SOL    HW2 2586   4.291   0.830   5.906
  563SOL     OW 2587   2.262   0.044   3.473
  563SOL    HW1 2588   2.212   7.000   3.425
  563SOL    HW2 2589   2.293   0.113   3.408
  564SOL     OW 2590   2.688   1.749   6.630
  564SOL    HW1 2591   2.636   1.688   6.571
  564SOL    HW2 2592   2.633   1.829   6.654
  565SOL     OW 2593   4.171   3.364   5.839
  565SOL    HW1 2594   4.167   3.436   5.908
  565SOL    HW2 2595   4.171   3.405   5.748
  566SOL     OW 2596   6.043   3.790   3.560
  566SOL    HW1 2597   5.975   3.821   3.494
  566SOL    HW2 2598   6.108   3.863   3.579
  567SOL     OW 2599   3.637   4.039   3.688
  567SOL    HW1 2600   3.595   4.057   3.777
  567SOL    HW2 2601   3.717   3.981   3.701
  568SOL     OW 2602   3.451   2.535   0.314
  568SOL    HW1 2603   3.440   2.581   0.226
  568SOL    HW2 2604   3.364   2.537   0.364
  569SOL     OW 2605   1.817   3.505   0.253
  569SOL    HW1 2606   1.839   3.429   0.314
  569SOL    HW2 2607   1.898   3.561   0.238
  570SOL     OW 2608   2.088   6.298   6.050
  570SOL    HW1 2609   2.164   6.298   6.116
  570SOL    HW2 2610   2.114   6.351   5.969
  571SOL     OW 2611   3.730   0.234   2.959
  571SOL    HW1 2612   3.788   0.315   2.958
  571SOL    HW2 2613   3.738   0.187   3.047
  572SOL     OW 2614   2.530   4.881   5.617
  572SOL    HW1 2615   2.461   4.951   5.599
  572SOL    HW2 2616   2.578   4.859   5.533
  573SOL     OW 2617   4.251   1.491   5.009
  573SOL    HW1 2618   4.155   1.482   5.037
  573SOL    HW2 2619   4.298   1.553   5.072
  574SOL     OW 2620   2.181   2.293   3.645
  574SOL    HW1 2621   2.138   2.379   3.620
  574SOL    HW2 2622   2.229   2.256   3.565
  575SOL     OW 2623   6.324   3.593   6.067
  575SOL    HW1 2624   6.378   3.633   5.993
  575SOL    HW2 2625   6.313   3.495   6.051
  576SOL     OW 2626   1.405   2.081   1.965
  576SOL    HW1 2627   1.468   2.154   1.989
  576SOL    HW2 2628   1.341   2.065   2.040
  577SOL     OW 2629   1.821   0.817   3.308
  577SOL    HW1 2630   1.770   0.785   3.228
  577SOL    HW2 2631   1.890   0.749   3.332
  578SOL     OW 2632   6.587   3.607   3.409
  578SOL    HW1 2633   6.660   3.555   3.365
  578SOL    HW2 2634   6.618   3.639   3.499
  579SOL     OW 2635   3.191   2.338   1.128
  579SOL    HW1 2636   3.151   2.257   1.172
  579SOL    HW2 2637   3.130   2.416   1.139
  580SOL     OW 2638   0.349   4.281   6.745
  580SOL    HW1 2639   0.448   4.293   6.740
  580SOL    HW2 2640   0.320   4.218   6.672
  581SOL     OW 2641   3.413   3.249   3.073
  581SOL    HW1 2642   3.358   3.329   3.095
  581SOL    HW2 2643   3.360   3.187   3.015
  582SOL     OW 2644   5.326   5.193   2.910
  582SOL    HW1 2645   5.420   5.166   2.894
  582SOL    HW2 2646   5.309   5.200   3.009
  583SOL     OW 2647   2.639   5.054   6.426
  583SOL    HW1 2648   2.546   5.071   6.396
  583SOL    HW2 2649   2.650   4.957   6.449
  584SOL     OW 2650   1.121   5.303   5.392
  584SOL    HW1 2651   1.117   5.372   5.320
  584SOL    HW2 2652   1.028   5.270   5.411
  585SOL     OW 2653   6.251   2.708   6.108
  585SOL    HW1 2654   6.201   2.794   6.101
  585SOL    HW2 2655   6.343   2.719   6.071
  586SOL     OW 2656   3.076   0.569   6.744
  586SOL    HW1 2657   3.051   0.492   6.803
  586SOL    HW2 2658   3.133   0.536   6.669
  587SOL     OW 2659   2.776   2.331   5.165
  587SOL    HW1 2660   2.849   2.356   5.228
  587SOL    HW2 2661   2.809   2.338   5.071
  588SOL     OW 2662   2.430   5.691   0.658
  588SOL    HW1 2663   2.463   5.611   0.607
  588SOL    HW2 2664   2.352   5.663   0.715
  589SOL     OW 2665   3.922   5.019   1.736
  589SOL    HW1 2666   3.898   4.969   1.652
  589SOL    HW2 2667   3.978   5.099   1.713
  590SOL     OW 2668   6.217   2.821   1.586
  590SOL    HW1 2669   6.282   2.881   1.632
  590SOL    HW2 2670   6.205   2.850   1.491
  591SOL     OW 2671   4.143   6.491   3.823
  591SOL    HW1 2672   4.234   6.533   3.833
  591SOL    HW2 2673   4.128   6.425   3.896
  592SOL     OW 2674   4.214   0.025   1.148
  592SOL    HW1 2675   4.218   6.954   1.135
  592SOL    HW2 2676   4.298   0.056   1.194
  593SOL     OW 2677   4.043   2.134   3.674
  593SOL    HW1 2678   4.064   2.067   3.744
  593SOL    HW2 2679   4.117   2.201   3.668
  594SOL     OW 2680   4.616   2.562   6.421
  594SOL    HW1 2681   4.627   2.465   6.443
  594SOL    HW2 2682   4.698   2.612   6.447
  595SOL     OW 2683   4.874   6.479   3.406
  595SOL    HW1 2684   4.777   6.503   3.404
  595SOL    HW2 2685   4.929   6.560   3.427
  596SOL     OW 2686   0.952   3.014   1.583
  596SOL    HW1 2687   0.960   2.986   1.679
  596SOL    HW2 2688   0.898   3.098   1.577
  597SOL     OW 2689   4.835   0.331   5.229
  597SOL    HW1 2690   4.914   0.270   5.230
  597SOL    HW2 2691   4.772   0.306   5.302
  598SOL     OW 2692   3.669   4.132   6.878
  598SOL    HW1 2693   3.743   4.170   6.934
  598SOL    HW2 2694   3.695   4.136   6.781
  599SOL     OW 2695   1.188   0.060   2.962
  599SOL    HW1 2696   1.237   0.065   2.875
  599SOL    HW2 2697   1.145   0.148   2.981
  600SOL     OW 2698   1.541   0.841   1.179
  600SOL    HW1 2699   1.590   0.786   1.111
  600SOL    HW2 2700   1.503   0.782   1.249
  601SOL     OW 2701   2.856   5.813   3.896
  601SOL    HW1 2702   2.952   5.836   3.878
  601SOL    HW2 2703   2.829   5.849   3.985
  602SOL     OW 2704   1.547   2.144   0.023
  602SOL    HW1 2705   1.632   2.093   0.012
  602SOL    HW2 2706   1.473   2.097   7.001
  603SOL     OW 2707   4.441   2.052   4.017
  603SOL    HW1 2708   4.402   2.041   4.108
  603SOL    HW2 2709   4.427   2.146   3.986
  604SOL     OW 2710   0.515   3.882   1.220
  604SOL    HW1 2711   0.436   3.831   1.253
  604SOL    HW2 2712   0.581   3.894   1.294
  605SOL     OW 2713   6.816   5.232   2.849
  605SOL    HW1 2714   6.798   5.329   2.866
  605SOL    HW2 2715   6.807   5.181   2.934
  606SOL     OW 2716   5.016   0.519   5.780
  606SOL    HW1 2717   4.942   0.521   5.713
  606SOL    HW2 2718   4.999   0.444   5.845
  607SOL     OW 2719   5.118   0.400   5.008
  607SOL    HW1 2720   5.122   0.312   5.056
  607SOL    HW2 2721   5.024   0.435   5.010
  608SOL     OW 2722   3.754   6.643   0.311
  608SOL    HW1 2723   3.695   6.572   0.271
  608SOL    HW2 2724   3.699   6.707   0.364
  609SOL     OW 2725   3.295   3.388   4.551
  609SOL    HW1 2726   3.348   3.307   4.575
  609SOL    HW2 2727   3.202   3.362   4.525
  610SOL     OW 2728   5.690   2.446   3.275
  610SOL    HW1 2729   5.728   2.388   3.347
  610SOL    HW2 2730   5.698   2.542   3.301
  611SOL     OW 2731   1.232   0.264   6.767
  611SOL    HW1 2732   1.234   0.363   6.763
  611SOL    HW2 2733   1.182   0.228   6.688
  612SOL     OW 2734   3.507   5.633   5.982
  612SOL    HW1 2735   3.577   5.696   5.949
  612SOL    HW2 2736   3.440   5.617   5.909
  613SOL     OW 2737   5.030   6.950   5.540
  613SOL    HW1 2738   4.950   6.890   5.530
  613SOL    HW2 2739   5.001   0.018   5.535
  614SOL     OW 2740   6.350   4.458   0.702
  614SOL    HW1 2741   6.321   4.370   0.663
  614SOL    HW2 2742   6.342   4.455   0.801
  615SOL     OW 2743   0.850   1.635   0.742
  615SOL    HW1 2744   0.858   1.537   0.728
  615SOL    HW2 2745   0.872   1.656   0.838
  616SOL     OW 2746   5.789   1.832   3.402
  616SOL    HW1 2747   5.814   1.788   3.488
  616SOL    HW2 2748   5.694   1.811   3.380
  617SOL     OW 2749   0.229   3.471   6.854
  617SOL    HW1 2750   0.246   3.562   6.814
  617SOL    HW2 2751   0.137   3.441   6.830
  618SOL     OW 2752   6.291   3.451   0.952
  618SOL    HW1 2753   6.337   3.367   0.978
  618SOL    HW2 2754   6.235   3.435   0.871
  619SOL     OW 2755   3.789   6.890   6.521
  619SOL    HW1 2756   3.833   6.808   6.485
  619SOL    HW2 2757   3.852   6.967   6.517
  620SOL     OW 2758   5.997   2.954   1.089
  620SOL    HW1 2759   5.923   2.951   1.021
  620SOL    HW2 2760   5.966   2.907   1.172
  621SOL     OW 2761   2.062   0.147   5.300
  621SOL    HW1 2762   2.068   0.060   5.252
  621SOL    HW2 2763   1.991   0.204   5.258
  622SOL     OW 2764   0.584   2.167   5.184
  622SOL    HW1 2765   0.502   2.224   5.186
  622SOL    HW2 2766   0.665   2.226   5.179
  623SOL     OW 2767   0.205   0.254   4.914
  623SOL    HW1 2768   0.202   0.353   4.920
  623SOL    HW2 2769   0.153   0.214   4.989
  624SOL     OW 2770   6.380   1.238   6.927
  624SOL    HW1 2771   6.376   1.331   6.892
  624SOL    HW2 2772   6.475   1.214   6.948
  625SOL     OW 2773   1.479   1.755   0.818
  625SOL    HW1 2774   1.438   1.665   0.799
  625SOL    HW2 2775   1.578   1.745   0.826
  626SOL     OW 2776   1.093   5.433   2.802
  626SOL    HW1 2777   1.142   5.454   2.886
  626SOL    HW2 2778   1.153   5.450   2.724
  627SOL     OW 2779   6.391   6.499   0.016
  627SOL    HW1 2780   6.411   6.557   6.964
  627SOL    HW2 2781   6.475   6.454   0.046
  628SOL     OW 2782   5.856   3.978   4.910
  628SOL    HW1 2783   5.872   4.035   4.991
  628SOL    HW2 2784   5.943   3.962   4.863
  629SOL     OW 2785   0.544   0.659   6.911
  629SOL    HW1 2786   0.561   0.588   6.979
  629SOL    HW2 2787   0.516   0.617   6.825
  630SOL     OW 2788   0.417   2.085   0.387
  630SOL    HW1 2789   0.323   2.051   0.381
  630SOL    HW2 2790   0.479   2.008   0.404
  631SOL     OW 2791   3.729   1.655   4.435
  631SOL    HW1 2792   3.779   1.742   4.430
  631SOL    HW2 2793   3.790   1.580   4.410
  632SOL     OW 2794   3.962   2.798   0.958
  632SOL    HW1 2795   3.954   2.887   1.003
  632SOL    HW2 2796   3.950   2.810   0.859
  633SOL     OW 2797   2.690   4.194   0.098
  633SOL    HW1 2798   2.612   4.252   0.076
  633SOL    HW2 2799   2.741   4.235   0.174
  634SOL     OW 2800   3.970   3.473   3.336
  634SOL    HW1 2801   3.897   3.489   3.269
  634SOL    HW2 2802   4.037   3.409   3.298
  635SOL     OW 2803   5.170   6.894   6.929
  635SOL    HW1 2804   5.198   6.811   6.880
  635SOL    HW2 2805   5.082   6.878   6.974
  636SOL     OW 2806   3.182   0.116   5.938
  636SOL    HW1 2807   3.151   0.180   5.868
  636SOL    HW2 2808   3.111   0.049   5.956
  637SOL     OW 2809   5.748   2.192   2.821
  637SOL    HW1 2810   5.751   2.253   2.743
  637SOL    HW2 2811   5.718   2.242   2.902
  638SOL     OW 2812   5.796   3.699   3.996
  638SOL    HW1 2813   5.722   3.632   3.990
  638SOL    HW2 2814   5.757   3.791   4.008
  639SOL     OW 2815   5.695   4.283   3.888
  639SOL    HW1 2816   5.608   4.326   3.911
  639SOL    HW2 2817   5.738   4.332   3.811
  640SOL     OW 2818   6.814   4.703   3.531
  640SOL    HW1 2819   6.764   4.618   3.548
  640SOL    HW2 2820   6.897   4.684   3.480
  641SOL     OW 2821   0.942   4.611   4.772
  641SOL    HW1 2822   0.920   4.617   4.675
  641SOL    HW2 2823   0.978   4.698   4.805
  642SOL     OW 2824   1.252   2.530   4.441
  642SOL    HW1 2825   1.279   2.596   4.512
  642SOL    HW2 2826   1.293   2.441   4.462
  643SOL     OW 2827   6.175   0.583   6.677
  643SOL    HW1 2828   6.252   0.519   6.683
  643SOL    HW2 2829   6.129   0.571   6.589
  644SOL     OW 2830   1.659   0.562   4.575
  644SOL    HW1 2831   1.607   0.574   4.491
  644SOL    HW2 2832   1.672   0.650   4.620
  645SOL     OW 2833   3.331   5.148   4.134
  645SOL    HW1 2834   3.381   5.220   4.183
  645SOL    HW2 2835   3.288   5.187   4.053
  646SOL     OW 2836   3.612   0.663   4.362
  646SOL    HW1 2837   3.693   0.715   4.388
  646SOL    HW2 2838   3.604   0.581   4.419
  647SOL     OW 2839   5.796   1.562   5.106
  647SOL    HW1 2840   5.731   1.600   5.171
  647SOL    HW2 2841   5.766   1.584   5.013
  648SOL     OW 2842   6.874   3.388   3.400
  648SOL    HW1 2843   6.801   3.426   3.342
  648SOL    HW2 2844   6.941   3.342   3.342
  649SOL     OW 2845   2.156   3.903   0.827
  649SOL    HW1 2846   2.070   3.853   0.833
  649SOL    HW2 2847   2.222   3.851   0.773
  650SOL     OW 2848   6.905   5.306   0.645
  650SOL    HW1 2849   6.927   5.209   0.652
  650SOL    HW2 2850   6.939   5.342   0.558
  651SOL     OW 2851   1.640   0.374   5.695
  651SOL    HW1 2852   1.705   0.440   5.734
  651SOL    HW2 2853   1.557   0.372   5.751
  652SOL     OW 2854   4.573   6.942   1.996
  652SOL    HW1 2855   4.591   6.857   2.045
  652SOL    HW2 2856   4.498   6.929   1.932
  653SOL     OW 2857   0.588   6.426   0.583
  653SOL    HW1 2858   0.535   6.488   0.525
  653SOL    HW2 2859   0.525   6.373   0.640
  654SOL     OW 2860   6.639   6.608   6.139
  654SOL    HW1 2861   6.712   6.540   6.143
  654SOL    HW2 2862   6.561   6.576   6.192
  655SOL     OW 2863   6.744   5.462   1.936
  655SOL    HW1 2864   6.843   5.472   1.948
  655SOL    HW2 2865   6.712   5.531   1.871
  656SOL     OW 2866   2.528   6.445   0.432
  656SOL    HW1 2867   2.624   6.430   0.454
  656SOL    HW2 2868   2.517   6.448   0.332
  657SOL     OW 2869   3.519   4.011   0.710
  657SOL    HW1 2870   3.443   3.989   0.649
  657SOL    HW2 2871   3.521   4.109   0.728
  658SOL     OW 2872   1.464   4.058   5.759
  658SOL    HW1 2873   1.553   4.024   5.729
  658SOL    HW2 2874   1.463   4.158   5.754
  659SOL     OW 2875   2.724   5.544   4.288
  659SOL    HW1 2876   2.806   5.599   4.298
  659SOL    HW2 2877   2.692   5.548   4.193
  660SOL     OW 2878   4.374   4.703   2.484
  660SOL    HW1 2879   4.405   4.772   2.551
  660SOL    HW2 2880   4.424   4.716   2.398
  661SOL     OW 2881   4.743   4.319   4.447
  661SOL    HW1 2882   4.824   4.376   4.435
  661SOL    HW2 2883   4.752   4.236   4.392
  662SOL     OW 2884   4.437   1.223   6.679
  662SOL    HW1 2885   4.375   1.181   6.612
  662SOL    HW2 2886   4.517   1.259   6.632
  663SOL     OW 2887   0.401   4.689   6.983
  663SOL    HW1 2888   0.401   4.789   6.982
  663SOL    HW2 2889   0.358   4.656   0.040
  664SOL     OW 2890   1.379   5.449   6.565
  664SOL    HW1 2891   1.352   5.520   6.499
  664SOL    HW2 2892   1.456   5.397   6.529
  665SOL     OW 2893   4.032   5.548   0.800
  665SOL    HW1 2894   4.002   5.454   0.811
  665SOL    HW2 2895   4.103   5.569   0.867
  666SOL     OW 2896   4.223   2.261   0.923
  666SOL    HW1 2897   4.183   2.170   0.929
  666SOL    HW2 2898   4.267   2.285   1.009
  667SOL     OW 2899   0.676   3.686   3.882
  667SOL    HW1 2900   0.770   3.660   3.902
  667SOL    HW2 2901   0.661   3.687   3.783
  668SOL     OW 2902   4.712   5.480   0.216
  668SOL    HW1 2903   4.667   5.541   0.151
  668SOL    HW2 2904   4.710   5.522   0.307
  669SOL     OW 2905   2.338   5.865   2.976
  669SOL    HW1 2906   2.251   5.898   2.940
  669SOL    HW2 2907   2.323   5.828   3.068
  670SOL     OW 2908   3.572   3.768   2.445
  670SOL    HW1 2909   3.540   3.852   2.490
  670SOL    HW2 2910   3.503   3.735   2.381
  671SOL     OW 2911   2.717   5.807   6.047
  671SOL    HW1 2912   2.776   5.883   6.023
  671SOL    HW2 2913   2.749   5.764   6.131
  672SOL     OW 2914   0.689   3.803   2.452
  672SOL    HW1 2915   0.709   3.889   2.498
  672SOL    HW2 2916   0.741   3.798   2.366
  673SOL     OW 2917   4.546   0.321   0.957
  673SOL    HW1 2918   4.538   0.415   0.990
  673SOL    HW2 2919   4.615   0.273   1.011
  674SOL     OW 2920   0.344   3.263   4.209
  674SOL    HW1 2921   0.371   3.334   4.274
  674SOL    HW2 2922   0.344   3.300   4.116
  675SOL     OW 2923   0.752   1.422   5.065
  675SOL    HW1 2924   0.787   1.338   5.107
  675SOL    HW2 2925   0.654   1.411   5.047
  676SOL     OW 2926   3.157   5.213   3.110
  676SOL    HW1 2927   3.057   5.220   3.117
  676SOL    HW2 2928   3.198   5.299   3.137
  677SOL     OW 2929   5.596   1.373   6.379
  677SOL    HW1 2930   5.630   1.368   6.285
  677SOL    HW2 2931   5.560   1.464   6.397
  678SOL     OW 2932   2.185   1.594   5.305
  678SOL    HW1 2933   2.171   1.505   5.261
  678SOL    HW2 2934   2.261   1.641   5.260
  679SOL     OW 2935   4.126   0.869   4.653
  679SOL    HW1 2936   4.095   0.775   4.663
  679SOL    HW2 2937   4.125   0.915   4.742
  680SOL     OW 2938   6.119   4.996   6.073
  680SOL    HW1 2939   6.022   5.002   6.094
  680SOL    HW2 2940   6.146   5.073   6.015
  681SOL     OW 2941   6.283   0.358   1.010
  681SOL    HW1 2942   6.223   0.311   1.075
  681SOL    HW2 2943   6.311   0.294   0.938
  682SOL     OW 2944   1.932   6.460   7.001
  682SOL    HW1 2945   1.927   6.485   0.070
  682SOL    HW2 2946   2.022   6.481   6.965
  683SOL     OW 2947   3.203   0.381   6.093
  683SOL    HW1 2948   3.169   0.330   6.014
  683SOL    HW2 2949   3.126   0.412   6.149
  684SOL     OW 2950   6.180   1.740   6.252
  684SOL    HW1 2951   6.177   1.691   6.164
  684SOL    HW2 2952   6.228   1.685   6.319
  685SOL     OW 2953   4.919   0.163   5.614
  685SOL    HW1 2954   4.853   0.225   5.573
  685SOL    HW2 2955   5.009   0.206   5.616
  686SOL     OW 2956   5.409   2.941   3.424
  686SOL    HW1 2957   5.355   2.972   3.346
  686SOL    HW2 2958   5.483   3.006   3.441
  687SOL     OW 2959   6.816   2.689   5.413
  687SOL    HW1 2960   6.880   2.614   5.430
  687SOL    HW2 2961   6.729   2.670   5.459
  688SOL     OW 2962   1.873   4.194   6.994
  688SOL    HW1 2963   1.856   4.120   6.929
  688SOL    HW2 2964   1.868   4.282   6.946
  689SOL     OW 2965   0.589   4.591   5.216
  689SOL    HW1 2966   0.504   4.644   5.216
  689SOL    HW2 2967   0.623   4.583   5.123
  690SOL     OW 2968   0.386   3.781   3.067
  690SOL    HW1 2969   0.367   3.684   3.080
  690SOL    HW2 2970   0.315   3.821   3.008
  691SOL     OW 2971   2.335   1.632   6.606
  691SOL    HW1 2972   2.346   1.619   6.704
  691SOL    HW2 2973   2.242   1.662   6.586
  692SOL     OW 2974   3.377   6.807   3.910
  692SOL    HW1 2975   3.383   6.889   3.852
  692SOL    HW2 2976   3.303   6.749   3.877
  693SOL     OW 2977   6.519   1.599   3.583
  693SOL    HW1 2978   6.523   1.519   3.643
  693SOL    HW2 2979   6.483   1.677   3.633
  694SOL     OW 2980   3.358   5.680   2.265
  694SOL    HW1 2981   3.314   5.707   2.179
  694SOL    HW2 2982   3.293   5.689   2.340
  695SOL     OW 2983   5.548   4.607   5.809
  695SOL    HW1 2984   5.584   4.630   5.899
  695SOL    HW2 2985   5.550   4.689   5.751
  696SOL     OW 2986   3.391   5.131   1.849
  696SOL    HW1 2987   3.477   5.162   1.889
  696SOL    HW2 2988   3.343   5.072   1.914
  697SOL     OW 2989   1.234   2.791   5.541
  697SOL    HW1 2990   1.135   2.781   5.538
  697SOL    HW2 2991   1.272   2.783   5.449
  698SOL     OW 2992   5.876   0.101   5.084
  698SOL    HW1 2993   5.825   0.186   5.071
  698SOL    HW2 2994   5.941   0.113   5.159
  699SOL     OW 2995   0.853   4.237   0.031
  699SOL    HW1 2996   0.896   4.147   0.035
  699SOL    HW2 2997   0.922   4.307   0.053
  700SOL     OW 2998   3.287   1.894   3.360
  700SOL    HW1 2999   3.341   1.852   3.432
  700SOL    HW2 3000   3.337   1.972   3.322
  701SOL     OW 3001   0.736   4.537   6.286
  701SOL    HW1 3002   0.752   4.467   6.217
  701SOL    HW2 3003   0.773   4.624   6.253
  702SOL     OW 3004   5.738   6.159   6.471
  702SOL    HW1 3005   5.713   6.140   6.567
  702SOL    HW2 3006   5.741   6.258   6.457
  703SOL     OW 3007   4.542   3.389   6.671
  703SOL    HW1 3008   4.447   3.377   6.700
  703SOL    HW2 3009   4.545   3.433   6.582
  704SOL     OW 3010   1.933   1.601   6.142
  704SOL    HW1 3011   1.837   1.607   6.116
  704SOL    HW2 3012   1.945   1.641   6.234
  705SOL     OW 3013   5.170   6.983   3.896
  705SOL    HW1 3014   5.209   0.041   3.861
  705SOL    HW2 3015   5.194   6.908   3.835
  706SOL     OW 3016   3.829   2.097   3.523
  706SOL    HW1 3017   3.911   2.095   3.581
  706SOL    HW2 3018   3.748   2.102   3.582
  707SOL     OW 3019   4.402   0.091   2.595
  707SOL    HW1 3020   4.476   0.040   2.552
  707SOL    HW2 3021   4.441   0.169   2.645
  708SOL     OW 3022   4.210   0.354   0.798
  708SOL    HW1 3023   4.158   0.374   0.881
  708SOL    HW2 3024   4.250   0.263   0.805
  709SOL     OW 3025   1.256   5.484   0.447
  709SOL    HW1 3026   1.343   5.515   0.410
  709SOL    HW2 3027   1.230   5.542   0.524
  710SOL     OW 3028   4.108   3.547   2.458
  710SOL    HW1 3029   4.073   3.543   2.551
  710SOL    HW2 3030   4.036   3.519   2.394
  711SOL     OW 3031   0.845   1.824   6.108
  711SOL    HW1 3032   0.785   1.855   6.035
  711SOL    HW2 3033   0.836   1.886   6.187
  712SOL     OW 3034   1.997   4.238   1.090
  712SOL    HW1 3035   1.945   4.213   1.171
  712SOL    HW2 3036   1.938   4.289   1.027
  713SOL     OW 3037   3.123   3.886   0.722
  713SOL    HW1 3038   3.090   3.792   0.734
  713SOL    HW2 3039   3.197   3.904   0.787
  714SOL     OW 3040   6.198   4.608   5.070
  714SOL    HW1 3041   6.218   4.701   5.039
  714SOL    HW2 3042   6.116   4.610   5.128
  715SOL     OW 3043   4.725   6.097   0.464
  715SOL    HW1 3044   4.662   6.020   0.472
  715SOL    HW2 3045   4.741   6.137   0.554
  716SOL     OW 3046   1.085   6.181   0.753
  716SOL    HW1 3047   1.044   6.096   0.787
  716SOL    HW2 3048   1.119   6.166   0.660
  717SOL     OW 3049   5.814   5.065   6.364
  717SOL    HW1 3050   5.748   5.134   6.390
  717SOL    HW2 3051   5.893   5.070   6.425
  718SOL     OW 3052   4.000   2.105   6.083
  718SOL    HW1 3053   4.005   2.071   6.177
  718SOL    HW2 3054   4.084   2.153   6.060
  719SOL     OW 3055   5.870   2.536   1.763
  719SOL    HW1 3056   5.949   2.476   1.777
  719SOL    HW2 3057   5.891   2.627   1.798
  720SOL     OW 3058   3.013   1.023   6.072
  720SOL    HW1 3059   3.009   1.122   6.061
  720SOL    HW2 3060   2.991   0.979   5.985
  721SOL     OW 3061   1.463   0.116   4.722
  721SOL    HW1 3062   1.537   0.182   4.734
  721SOL    HW2 3063   1.404   0.116   4.803
  722SOL     OW 3064   3.369   6.705   5.195
  722SOL    HW1 3065   3.295   6.770   5.183
  722SOL    HW2 3066   3.446   6.749   5.242
  723SOL     OW 3067   2.153   2.950   2.094
  723SOL    HW1 3068   2.170   3.045   2.066
  723SOL    HW2 3069   2.148   2.945   2.194
  724SOL     OW 3070   1.077   1.320   4.542
  724SOL    HW1 3071   1.009   1.389   4.521
  724SOL    HW2 3072   1.168   1.354   4.516
  725SOL     OW 3073   2.841   4.990   1.606
  725SOL    HW1 3074   2.930   4.954   1.636
  725SOL    HW2 3075   2.774   4.976   1.679
  726SOL     OW 3076   4.172   4.777   0.928
  726SOL    HW1 3077   4.162   4.824   1.016
  726SOL    HW2 3078   4.102   4.706   0.920
  727SOL     OW 3079   4.076   6.042   4.983
  727SOL    HW1 3080   4.069   6.089   4.895
  727SOL    HW2 3081   4.154   5.980   4.982
  728SOL     OW 3082   0.457   4.131   5.229
  728SOL    HW1 3083   0.539   4.120   5.172
  728SOL    HW2 3084   0.468   4.213   5.285
  729SOL     OW 3085   2.344   0.661   0.455
  729SOL    HW1 3086   2.342   0.740   0.516
  729SOL    HW2 3087   2.439   0.642   0.429
  730SOL     OW 3088   5.324   0.118   3.711
  730SOL    HW1 3089   5.354   0.138   3.618
  730SOL    HW2 3090   5.400   0.131   3.775
  731SOL     OW 3091   5.527   3.706   5.906
  731SOL    HW1 3092   5.625   3.727   5.904
  731SOL    HW2 3093   5.496   3.699   6.001
  732SOL     OW 3094   0.403   3.687   0.701
  732SOL    HW1 3095   0.325   3.730   0.746
  732SOL    HW2 3096   0.403   3.589   0.719
  733SOL     OW 3097   5.792   4.735   4.634
  733SOL    HW1 3098   5.698   4.769   4.646
  733SOL    HW2 3099   5.791   4.652   4.578
  734SOL     OW 3100   6.311   4.770   2.619
  734SOL    HW1 3101   6.361   4.827   2.553
  734SOL    HW2 3102   6.353   4.679   2.621
  735SOL     OW 3103   3.440   2.379   1.036
  735SOL    HW1 3104   3.460   2.314   0.963
  735SOL    HW2 3105   3.343   2.373   1.061
  736SOL     OW 3106   6.309   6.204   2.461
  736SOL    HW1 3107   6.317   6.210   2.560
  736SOL    HW2 3108   6.366   6.273   2.418
  737SOL     OW 3109   4.577   3.029   0.556
  737SOL    HW1 3110   4.641   2.995   0.624
  737SOL    HW2 3111   4.530   2.952   0.513
  738SOL     OW 3112   1.831   4.824   3.302
  738SOL    HW1 3113   1.877   4.819   3.213
  738SOL    HW2 3114   1.890   4.783   3.372
  739SOL     OW 3115   4.812   6.232   5.269
  739SOL    HW1 3116   4.838   6.136   5.277
  739SOL    HW2 3117   4.869   6.277   5.201
  740SOL     OW 3118   5.356   0.625   0.763
  740SOL    HW1 3119   5.283   0.559   0.746
  740SOL    HW2 3120   5.322   0.699   0.820
  741SOL     OW 3121   2.287   6.557   3.030
  741SOL    HW1 3122   2.319   6.590   3.118
  741SOL    HW2 3123   2.240   6.469   3.042
  742SOL     OW 3124   2.555   6.609   1.755
  742SOL    HW1 3125   2.592   6.665   1.681
  742SOL    HW2 3126   2.507   6.667   1.821
  743SOL     OW 3127   1.892   3.757   4.642
  743SOL    HW1 3128   1.886   3.854   4.663
  743SOL    HW2 3129   1.832   3.706   4.705
  744SOL     OW 3130   6.232   0.014   7.003
  744SOL    HW1 3131   6.321   7.021   6.961
  744SOL    HW2 3132   6.183   6.956   7.018
  745SOL     OW 3133   0.851   5.262   4.107
  745SOL    HW1 3134   0.829   5.360   4.115
  745SOL    HW2 3135   0.945   5.252   4.073
  746SOL     OW 3136   0.735   6.227   5.186
  746SOL    HW1 3137   0.694   6.310   5.149
  746SOL    HW2 3138   0.688   6.147   5.148
  747SOL     OW 3139   4.764   4.786   4.816
  747SOL    HW1 3140   4.791   4.705   4.765
  747SOL    HW2 3141   4.842   4.848   4.824
  748SOL     OW 3142   3.695   5.239   2.809
  748SOL    HW1 3143   3.753   5.293   2.870
  748SOL    HW2 3144   3.618   5.201   2.861
  749SOL     OW 3145   6.229   3.744   4.787
  749SOL    HW1 3146   6.250   3.743   4.885
  749SOL    HW2 3147   6.309   3.710   4.736
  750SOL     OW 3148   1.730   3.557   0.644
  750SOL    HW1 3149   1.802   3.503   0.599
  750SOL    HW2 3150   1.694   3.625   0.580
  751SOL     OW 3151   4.134   1.729   6.638
  751SOL    HW1 3152   4.039   1.729   6.605
  751SOL    HW2 3153   4.168   1.636   6.640
  752SOL     OW 3154   4.519   2.487   1.427
  752SOL    HW1 3155   4.536   2.389   1.412
  752SOL    HW2 3156   4.530   2.509   1.523
  753SOL     OW 3157   1.702   2.812   4.025
  753SOL    HW1 3158   1.626   2.752   4.051
  753SOL    HW2 3159   1.770   2.813   4.098
  754SOL     OW 3160   5.889   3.217   6.490
  754SOL    HW1 3161   5.928   3.306   6.514
  754SOL    HW2 3162   5.953   3.144   6.514
  755SOL     OW 3163   1.496   5.950   6.707
  755SOL    HW1 3164   1.506   5.933   6.804
  755SOL    HW2 3165   1.504   5.864   6.656
  756SOL     OW 3166   4.626   6.397   1.327
  756SOL    HW1 3167   4.697   6.442   1.274
  756SOL    HW2 3168   4.638   6.418   1.424
  757SOL     OW 3169   0.330   6.247   2.977
  757SOL    HW1 3170   0.394   6.318   3.006
  757SOL    HW2 3171   0.301   6.193   3.057
  758SOL     OW 3172   3.696   0.991   1.358
  758SOL    HW1 3173   3.747   1.075   1.375
  758SOL    HW2 3174   3.610   0.993   1.410
  759SOL     OW 3175   0.616   0.989   0.585
  759SOL    HW1 3176   0.594   1.011   0.680
  759SOL    HW2 3177   0.547   1.028   0.525
  760SOL     OW 3178   4.328   0.791   6.494
  760SOL    HW1 3179   4.243   0.763   6.538
  760SOL    HW2 3180   4.350   0.885   6.520
  761SOL     OW 3181   5.747   3.707   5.577
  761SOL    HW1 3182   5.788   3.795   5.554
  761SOL    HW2 3183   5.767   3.685   5.672
  762SOL     OW 3184   2.490   6.949   3.918
  762SOL    HW1 3185   2.551   6.918   3.992
  762SOL    HW2 3186   2.485   6.879   3.847
  763SOL     OW 3187   4.031   5.011   6.228
  763SOL    HW1 3188   4.086   5.039   6.307
  763SOL    HW2 3189   4.085   4.950   6.170
  764SOL     OW 3190   4.505   0.663   3.885
  764SOL    HW1 3191   4.494   0.715   3.970
  764SOL    HW2 3192   4.501   0.725   3.807
  765SOL     OW 3193   1.446   6.362   1.432
  765SOL    HW1 3194   1.474   6.420   1.508
  765SOL    HW2 3195   1.448   6.415   1.347
  766SOL     OW 3196   0.895   1.921   0.699
  766SOL    HW1 3197   0.975   1.911   0.757
  766SOL    HW2 3198   0.904   1.861   0.619
  767SOL     OW 3199   0.042   5.985   2.461
  767SOL    HW1 3200   0.128   5.957   2.417
  767SOL    HW2 3201   6.993   5.940   2.415
  768SOL     OW 3202   2.745   6.965   2.240
  768SOL    HW1 3203   2.800   6.883   2.255
  768SOL    HW2 3204   2.793   7.027   2.178
  769SOL     OW 3205   2.948   0.483   3.915
  769SOL    HW1 3206   2.984   0.574   3.934
  769SOL    HW2 3207   2.997   0.416   3.971
  770SOL     OW 3208   1.437   4.434   2.834
  770SOL    HW1 3209   1.530   4.445   2.867
  770SOL    HW2 3210   1.438   4.412   2.736
  771SOL     OW 3211   2.177   5.423   2.790
  771SOL    HW1 3212   2.086   5.461   2.773
  771SOL    HW2 3213   2.178   5.327   2.761
  772SOL     OW 3214   6.723   5.304   0.897
  772SOL    HW1 3215   6.746   5.331   0.803
  772SOL    HW2 3216   6.634   5.257   0.896
  773SOL     OW 3217   0.304   4.271   3.732
  773SOL    HW1 3218   0.279   4.361   3.697
  773SOL    HW2 3219   0.337   4.214   3.656
  774SOL     OW 3220   0.964   1.512   2.367
  774SOL    HW1 3221   0.879   1.556   2.338
  774SOL    HW2 3222   1.042   1.569   2.341
  775SOL     OW 3223   0.605   1.699   3.309
  775SOL    HW1 3224   0.610   1.643   3.393
  775SOL    HW2 3225   0.634   1.644   3.231
  776SOL     OW 3226   6.937   1.190   5.941
  776SOL    HW1 3227   6.864   1.122   5.935
  776SOL    HW2 3228   7.007   1.170   5.873
  777SOL     OW 3229   3.167   6.434   0.833
  777SOL    HW1 3230   3.208   6.459   0.745
  777SOL    HW2 3231   3.104   6.357   0.819
  778SOL     OW 3232   3.645   1.296   3.805
  778SOL    HW1 3233   3.647   1.355   3.886
  778SOL    HW2 3234   3.672   1.349   3.724
  779SOL     OW 3235   0.669   1.680   2.697
  779SOL    HW1 3236   0.717   1.768   2.698
  779SOL    HW2 3237   0.728   1.611   2.655
  780SOL     OW 3238   6.602   4.014   4.276
  780SOL    HW1 3239   6.590   4.066   4.191
  780SOL    HW2 3240   6.628   3.920   4.253
  781SOL     OW 3241   5.562   1.311   6.637
  781SOL    HW1 3242   5.501   1.233   6.655
  781SOL    HW2 3243   5.585   1.313   6.540
  782SOL     OW 3244   0.853   3.550   0.008
  782SOL    HW1 3245   0.808   3.571   6.949
  782SOL    HW2 3246   0.940   3.503   7.017
  783SOL     OW 3247   3.771   4.980   0.896
  783SOL    HW1 3248   3.834   4.999   0.971
  783SOL    HW2 3249   3.818   4.925   0.827
  784SOL     OW 3250   5.025   6.882   6.185
  784SOL    HW1 3251   4.960   6.956   6.205
  784SOL    HW2 3252   5.087   6.911   6.112
  785SOL     OW 3253   7.023   1.992   3.623
  785SOL    HW1 3254   6.988   1.904   3.657
  785SOL    HW2 3255   0.060   2.029   3.689
  786SOL     OW 3256   1.649   1.235   0.750
  786SOL    HW1 3257   1.573   1.224   0.685
  786SOL    HW2 3258   1.725   1.281   0.704
  787SOL     OW 3259   3.091   1.942   6.274
  787SOL    HW1 3260   3.088   1.846   6.299
  787SOL    HW2 3261   3.116   1.997   6.354
  788SOL     OW 3262   2.265   2.428   4.713
  788SOL    HW1 3263   2.361   2.404   4.699
  788SOL    HW2 3264   2.241   2.418   4.810
  789SOL     OW 3265   5.530   4.066   1.060
  789SOL    HW1 3266   5.456   4.000   1.075
  789SOL    HW2 3267   5.503   4.155   1.095
  790SOL     OW 3268   2.701   1.334   4.476
  790SOL    HW1 3269   2.786   1.296   4.440
  790SOL    HW2 3270   2.720   1.422   4.520
  791SOL     OW 3271   3.734   0.115   3.211
  791SOL    HW1 3272   3.776   0.026   3.193
  791SOL    HW2 3273   3.797   0.172   3.263
  792SOL     OW 3274   0.194   0.460   1.868
  792SOL    HW1 3275   0.146   0.387   1.820
  792SOL    HW2 3276   0.279   0.425   1.907
  793SOL     OW 3277   4.197   6.423   2.249
  793SOL    HW1 3278   4.209   6.512   2.294
  793SOL    HW2 3279   4.268   6.410   2.180
  794SOL     OW 3280   2.807   3.293   5.390
  794SOL    HW1 3281   2.730   3.232   5.371
  794SOL    HW2 3282   2.862   3.256   5.464
  795SOL     OW 3283   3.330   5.293   5.161
  795SOL    HW1 3284   3.302   5.315   5.068
  795SOL    HW2 3285   3.428   5.310   5.171
  796SOL     OW 3286   1.319   2.182   6.475
  796SOL    HW1 3287   1.346   2.114   6.406
  796SOL    HW2 3288   1.343   2.273   6.443
  797SOL     OW 3289   5.092   2.615   2.445
  797SOL    HW1 3290   5.038   2.612   2.361
  797SOL    HW2 3291   5.091   2.707   2.483
  798SOL     OW 3292   5.231   0.373   1.189
  798SOL    HW1 3293   5.279   0.449   1.146
  798SOL    HW2 3294   5.171   0.407   1.261
  799SOL     OW 3295   6.062   1.488   4.340
  799SOL    HW1 3296   5.976   1.462   4.296
  799SOL    HW2 3297   6.053   1.481   4.439
  800SOL     OW 3298   5.495   1.203   2.547
  800SOL    HW1 3299   5.398   1.196   2.525
  800SOL    HW2 3300   5.535   1.281   2.499
  801SOL     OW 3301   1.670   3.515   3.124
  801SOL    HW1 3302   1.731   3.523   3.202
  801SOL    HW2 3303   1.712   3.557   3.044
  802SOL     OW 3304   4.029   0.149   0.290
  802SOL    HW1 3305   4.031   0.245   0.260
  802SOL    HW2 3306   4.053   0.090   0.212
  803SOL     OW 3307   0.314   5.286   5.178
  803SOL    HW1 3308   0.295   5.254   5.086
  803SOL    HW2 3309   0.292   5.383   5.185
  804SOL     OW 3310   5.880   6.129   7.014
  804SOL    HW1 3311   5.896   6.145   6.916
  804SOL    HW2 3312   5.965   6.100   0.030
  805SOL     OW 3313   3.385   2.296   5.535
  805SOL    HW1 3314   3.357   2.381   5.490
  805SOL    HW2 3315   3.304   2.241   5.555
  806SOL     OW 3316   4.543   1.222   4.838
  806SOL    HW1 3317   4.605   1.148   4.864
  806SOL    HW2 3318   4.463   1.222   4.899
  807SOL     OW 3319   0.890   1.614   3.786
  807SOL    HW1 3320   0.924   1.690   3.841
  807SOL    HW2 3321   0.932   1.618   3.695
  808SOL     OW 3322   4.804   3.681   6.411
  808SOL    HW1 3323   4.744   3.640   6.342
  808SOL    HW2 3324   4.880   3.727   6.365
  809SOL     OW 3325   0.866   4.587   1.549
  809SOL    HW1 3326   0.835   4.516   1.486
  809SOL    HW2 3327   0.888   4.545   1.637
  810SOL     OW 3328   3.921   2.852   1.376
  810SOL    HW1 3329   3.862   2.904   1.314
  810SOL    HW2 3330   3.864   2.798   1.438
  811SOL     OW 3331   4.706   5.557   4.107
  811SOL    HW1 3332   4.617   5.512   4.120
  811SOL    HW2 3333   4.776   5.506   4.157
  812SOL     OW 3334   0.386   1.736   2.158
  812SOL    HW1 3335   0.310   1.779   2.207
  812SOL    HW2 3336   0.406   1.647   2.200
  813SOL     OW 3337   3.915   4.916   4.490
  813SOL    HW1 3338   3.888   4.823   4.466
  813SOL    HW2 3339   3.839   4.978   4.472
  814SOL     OW 3340   5.455   6.171   3.393
  814SOL    HW1 3341   5.358   6.161   3.373
  814SOL    HW2 3342   5.470   6.164   3.491
  815SOL     OW 3343   0.158   3.079   2.594
  815SOL    HW1 3344   0.224   3.140   2.638
  815SOL    HW2 3345   0.148   3.104   2.498
  816SOL     OW 3346   6.812   6.785   0.094
  816SOL    HW1 3347   6.844   6.860   0.152
  816SOL    HW2 3348   6.795   6.819   0.001
  817SOL     OW 3349   2.143   3.911   2.315
  817SOL    HW1 3350   2.212   3.978   2.289
  817SOL    HW2 3351   2.142   3.837   2.249
  818SOL     OW 3352   6.528   3.313   1.759
  818SOL    HW1 3353   6.570   3.237   1.710
  818SOL    HW2 3354   6.472   3.367   1.695
  819SOL     OW 3355   5.635   3.297   3.609
  819SOL    HW1 3356   5.667   3.239   3.685
  819SOL    HW2 3357   5.587   3.377   3.646
  820SOL     OW 3358   1.712   2.891   6.537
  820SOL    HW1 3359   1.742   2.983   6.511
  820SOL    HW2 3360   1.682   2.891   6.632
  821SOL     OW 3361   2.015   4.891   0.921
  821SOL    HW1 3362   2.031   4.989   0.907
  821SOL    HW2 3363   1.994   4.874   1.017
  822SOL     OW 3364   0.888   4.746   4.276
  822SOL    HW1 3365   0.884   4.828   4.219
  822SOL    HW2 3366   0.855   4.668   4.222
  823SOL     OW 3367   5.086   4.112   6.955
  823SOL    HW1 3368   5.115   4.020   6.982
  823SOL    HW2 3369   5.165   4.173   6.953
  824SOL     OW 3370   5.405   1.109   5.419
  824SOL    HW1 3371   5.420   1.010   5.422
  824SOL    HW2 3372   5.410   1.146   5.512
  825SOL     OW 3373   1.406   4.182   1.799
  825SOL    HW1 3374   1.484   4.195   1.861
  825SOL    HW2 3375   1.430   4.114   1.730
  826SOL     OW 3376   6.154   3.444   0.716
  826SOL    HW1 3377   6.233   3.415   0.662
  826SOL    HW2 3378   6.078   3.464   0.655
  827SOL     OW 3379   3.284   5.653   6.171
  827SOL    HW1 3380   3.237   5.710   6.104
  827SOL    HW2 3381   3.382   5.656   6.154
  828SOL     OW 3382   6.118   6.856   5.645
  828SOL    HW1 3383   6.022   6.871   5.668
  828SOL    HW2 3384   6.135   6.880   5.550
  829SOL     OW 3385   2.966   3.748   4.418
  829SOL    HW1 3386   2.943   3.758   4.515
  829SOL    HW2 3387   2.950   3.654   4.390
  830SOL     OW 3388   4.934   4.740   6.244
  830SOL    HW1 3389   4.878   4.677   6.297
  830SOL    HW2 3390   4.880   4.819   6.216
  831SOL     OW 3391   6.722   0.324   5.573
  831SOL    HW1 3392   6.647   0.299   5.512
  831SOL    HW2 3393   6.770   0.403   5.537
  832SOL     OW 3394   1.890   1.066   0.470
  832SOL    HW1 3395   1.840   0.997   0.523
  832SOL    HW2 3396   1.827   1.135   0.436
  833SOL     OW 3397   0.483   5.308   6.021
  833SOL    HW1 3398   0.394   5.324   6.064
  833SOL    HW2 3399   0.471   5.282   5.926
  834SOL     OW 3400   3.501   4.004   1.294
  834SOL    HW1 3401   3.463   4.092   1.321
  834SOL    HW2 3402   3.567   3.974   1.363
  835SOL     OW 3403   3.251   6.898   4.169
  835SOL    HW1 3404   3.290   6.841   4.241
  835SOL    HW2 3405   3.291   6.873   4.081
  836SOL     OW 3406   3.598   6.633   6.930
  836SOL    HW1 3407   3.687   6.591   6.948
  836SOL    HW2 3408   3.576   6.625   6.833
  837SOL     OW 3409   4.982   6.542   6.561
  837SOL    HW1 3410   5.047   6.597   6.508
  837SOL    HW2 3411   4.894   6.589   6.565
  838SOL     OW 3412   1.081   0.691   5.034
  838SOL    HW1 3413   1.045   0.667   5.124
  838SOL    HW2 3414   1.005   0.707   4.971
  839SOL     OW 3415   2.698   2.272   2.146
  839SOL    HW1 3416   2.712   2.248   2.242
  839SOL    HW2 3417   2.786   2.278   2.100
  840SOL     OW 3418   6.158   0.498   5.988
  840SOL    HW1 3419   6.080   0.533   6.040
  840SOL    HW2 3420   6.198   0.573   5.935
  841SOL     OW 3421   6.028   4.542   0.537
  841SOL    HW1 3422   6.113   4.593   0.523
  841SOL    HW2 3423   6.048   4.444   0.534
  842SOL     OW 3424   4.510   5.178   4.678
  842SOL    HW1 3425   4.442   5.227   4.733
  842SOL    HW2 3426   4.598   5.180   4.724
  843SOL     OW 3427   4.155   2.616   6.916
  843SOL    HW1 3428   4.151   2.681   6.991
  843SOL    HW2 3429   4.116   2.657   6.834
  844SOL     OW 3430   4.297   6.842   0.905
  844SOL    HW1 3431   4.319   6.894   0.823
  844SOL    HW2 3432   4.375   6.784   0.930
  845SOL     OW 3433   6.312   3.700   4.131
  845SOL    HW1 3434   6.340   3.786   4.089
  845SOL    HW2 3435   6.278   3.717   4.223
  846SOL     OW 3436   5.084   1.810   6.879
  846SOL    HW1 3437   5.017   1.741   6.906
  846SOL    HW2 3438   5.130   1.780   6.795
  847SOL     OW 3439   6.724   3.339   0.068
  847SOL    HW1 3440   6.691   3.280   7.021
  847SOL    HW2 3441   6.652   3.402   0.096
  848SOL     OW 3442   6.475   1.987   6.494
  848SOL    HW1 3443   6.418   1.937   6.559
  848SOL    HW2 3444   6.432   1.984   6.403
  849SOL     OW 3445   0.965   5.175   5.720
  849SOL    HW1 3446   1.051   5.128   5.738
  849SOL    HW2 3447   0.948   5.177   5.622
  850SOL     OW 3448   5.254   0.558   3.220
  850SOL    HW1 3449   5.237   0.461   3.204
  850SOL    HW2 3450   5.320   0.569   3.294
  851SOL     OW 3451   0.385   1.671   1.528
  851SOL    HW1 3452   0.341   1.602   1.471
  851SOL    HW2 3453   0.322   1.698   1.601
  852SOL     OW 3454   3.195   2.532   0.106
  852SOL    HW1 3455   3.221   2.627   0.126
  852SOL    HW2 3456   3.124   2.503   0.170
  853SOL     OW 3457   0.978   3.940   2.585
  853SOL    HW1 3458   1.052   3.875   2.569
  853SOL    HW2 3459   1.004   4.029   2.547
  854SOL     OW 3460   4.479   5.742   2.023
  854SOL    HW1 3461   4.539   5.822   2.026
  854SOL    HW2 3462   4.493   5.686   2.104
  855SOL     OW 3463   6.184   6.760   1.111
  855SOL    HW1 3464   6.283   6.756   1.130
  855SOL    HW2 3465   6.170   6.767   1.012
  856SOL     OW 3466   1.983   1.758   4.900
  856SOL    HW1 3467   1.971   1.783   4.996
  856SOL    HW2 3468   1.900   1.715   4.866
  857SOL     OW 3469   6.023   5.629   0.988
  857SOL    HW1 3470   6.020   5.627   1.088
  857SOL    HW2 3471   6.116   5.612   0.957
  858SOL     OW 3472   2.110   4.308   1.948
  858SOL    HW1 3473   2.022   4.282   1.908
  858SOL    HW2 3474   2.097   4.332   2.044
  859SOL     OW 3475   5.220   5.240   6.963
  859SOL    HW1 3476   5.168   5.197   6.888
  859SOL    HW2 3477   5.190   5.200   0.023
  860SOL     OW 3478   4.506   4.202   0.987
  860SOL    HW1 3479   4.574   4.273   1.008
  860SOL    HW2 3480   4.514   4.175   0.891
  861SOL     OW 3481   1.782   0.091   4.912
  861SOL    HW1 3482   1.783   0.100   4.812
  861SOL    HW2 3483   1.708   0.028   4.939
  862SOL     OW 3484   6.074   4.666   5.485
  862SOL    HW1 3485   6.107   4.624   5.570
  862SOL    HW2 3486   6.149   4.714   5.440
  863SOL     OW 3487   1.178   0.304   0.560
  863SOL    HW1 3488   1.111   0.269   0.495
  863SOL    HW2 3489   1.258   0.338   0.511
  864SOL     OW 3490   4.961   4.644   3.697
  864SOL    HW1 3491   4.906   4.596   3.628
  864SOL    HW2 3492   4.951   4.743   3.683
  865SOL     OW 3493   1.470   6.422   5.706
  865SOL    HW1 3494   1.481   6.334   5.751
  865SOL    HW2 3495   1.374   6.437   5.684
  866SOL     OW 3496   1.922   2.346   1.555
  866SOL    HW1 3497   1.952   2.263   1.602
  866SOL    HW2 3498   2.001   2.397   1.523
  867SOL     OW 3499   3.667   2.867   0.788
  867SOL    HW1 3500   3.674   2.932   0.864
  867SOL    HW2 3501   3.758   2.844   0.755
  868SOL     OW 3502   6.689   6.474   0.937
  868SOL    HW1 3503   6.736   6.550   0.982
  868SOL    HW2 3504   6.606   6.451   0.989
  869SOL     OW 3505   6.550   5.202   2.754
  869SOL    HW1 3506   6.521   5.226   2.661
  869SOL    HW2 3507   6.627   5.259   2.781
  870SOL     OW 3508   6.199   3.860   0.530
  870SOL    HW1 3509   6.215   3.767   0.496
  870SOL    HW2 3510   6.270   3.884   0.596
  871SOL     OW 3511   6.522   2.978   2.240
  871SOL    HW1 3512   6.493   2.895   2.193
  871SOL    HW2 3513   6.570   3.037   2.175
  872SOL     OW 3514   6.431   4.079   3.754
  872SOL    HW1 3515   6.512   4.028   3.723
  872SOL    HW2 3516   6.440   4.098   3.852
  873SOL     OW 3517   4.291   0.190   3.134
  873SOL    HW1 3518   4.365   0.123   3.129
  873SOL    HW2 3519   4.296   0.239   3.221
  874SOL     OW 3520   1.775   3.712   5.659
  874SOL    HW1 3521   1.737   3.793   5.614
  874SOL    HW2 3522   1.864   3.690   5.619
  875SOL     OW 3523   5.313   3.931   1.101
  875SOL    HW1 3524   5.266   3.915   1.014
  875SOL    HW2 3525   5.249   3.968   1.167
  876SOL     OW 3526   0.171   4.870   3.343
  876SOL    HW1 3527   0.146   4.806   3.270
  876SOL    HW2 3528   0.103   4.943   3.348
  877SOL     OW 3529   4.499   4.272   6.839
  877SOL    HW1 3530   4.595   4.288   6.863
  877SOL    HW2 3531   4.487   4.176   6.812
  878SOL     OW 3532   4.047   5.699   6.417
  878SOL    HW1 3533   3.982   5.637   6.462
  878SOL    HW2 3534   4.060   5.670   6.322
  879SOL     OW 3535   3.840   2.036   2.133
  879SOL    HW1 3536   3.793   2.079   2.056
  879SOL    HW2 3537   3.777   2.030   2.211
  880SOL     OW 3538   2.886   4.525   0.080
  880SOL    HW1 3539   2.899   4.488   7.016
  880SOL    HW2 3540   2.975   4.535   0.125
  881SOL     OW 3541   4.213   4.611   5.306
  881SOL    HW1 3542   4.259   4.534   5.262
  881SOL    HW2 3543   4.189   4.680   5.238
  882SOL     OW 3544   2.059   1.558   4.102
  882SOL    HW1 3545   2.149   1.516   4.092
  882SOL    HW2 3546   1.988   1.490   4.082
  883SOL     OW 3547   4.447   5.483   5.082
  883SOL    HW1 3548   4.463   5.579   5.108
  883SOL    HW2 3549   4.370   5.447   5.135
  884SOL     OW 3550   6.843   3.794   1.928
  884SOL    HW1 3551   6.766   3.846   1.965
  884SOL    HW2 3552   6.918   3.796   1.994
  885SOL     OW 3553   5.410   5.924   6.815
  885SOL    HW1 3554   5.334   5.987   6.829
  885SOL    HW2 3555   5.487   5.973   6.773
  886SOL     OW 3556   4.463   0.425   0.283
  886SOL    HW1 3557   4.549   0.475   0.289
  886SOL    HW2 3558   4.391   0.477   0.329
  887SOL     OW 3559   4.333   6.296   5.531
  887SOL    HW1 3560   4.337   6.199   5.504
  887SOL    HW2 3561   4.425   6.328   5.553
  888SOL     OW 3562   6.661   6.661   2.856
  888SOL    HW1 3563   6.563   6.676   2.869
  888SOL    HW2 3564   6.679   6.563   2.844
  889SOL     OW 3565   0.163   6.650   5.891
  889SOL    HW1 3566   0.065   6.628   5.891
  889SOL    HW2 3567   0.179   6.732   5.836
  890SOL     OW 3568   2.723   4.742   2.176
  890SOL    HW1 3569   2.651   4.684   2.213
  890SOL    HW2 3570   2.751   4.707   2.086
  891SOL     OW 3571   5.701   3.805   1.365
  891SOL    HW1 3572   5.701   3.896   1.407
  891SOL    HW2 3573   5.694   3.735   1.437
  892SOL     OW 3574   4.233   3.948   0.685
  892SOL    HW1 3575   4.283   4.025   0.646
  892SOL    HW2 3576   4.166   3.915   0.619
  893SOL     OW 3577   1.883   0.611   1.195
  893SOL    HW1 3578   1.918   0.537   1.137
  893SOL    HW2 3579   1.938   0.617   1.278
  894SOL     OW 3580   1.995   3.939   3.745
  894SOL    HW1 3581   1.937   3.973   3.819
  894SOL    HW2 3582   2.058   3.871   3.782
  895SOL     OW 3583   2.048   6.584   4.570
  895SOL    HW1 3584   1.998   6.529   4.638
  895SOL    HW2 3585   2.080   6.524   4.497
  896SOL     OW 3586   5.480   5.664   3.859
  896SOL    HW1 3587   5.564   5.715   3.841
  896SOL    HW2 3588   5.405   5.702   3.806
  897SOL     OW 3589   4.797   1.264   0.255
  897SOL    HW1 3590   4.797   1.248   0.353
  897SOL    HW2 3591   4.704   1.255   0.219
  898SOL     OW 3592   4.088   6.051   3.869
  898SOL    HW1 3593   4.147   6.129   3.890
  898SOL    HW2 3594   4.043   6.066   3.781
  899SOL     OW 3595   0.321   5.179   0.275
  899SOL    HW1 3596   0.322   5.174   0.175
  899SOL    HW2 3597   0.326   5.087   0.313
  900SOL     OW 3598   5.680   6.037   1.669
  900SOL    HW1 3599   5.637   5.963   1.721
  900SOL    HW2 3600   5.712   6.108   1.731
  901SOL     OW 3601   0.190   1.500   4.649
  901SOL    HW1 3602   0.104   1.511   4.699
  901SOL    HW2 3603   0.181   1.426   4.583
  902SOL     OW 3604   0.024   1.233   6.561
  902SOL    HW1 3605   7.023   1.271   6.473
  902SOL    HW2 3606   0.014   1.133   6.558
  903SOL     OW 3607   6.692   4.526   6.945
  903SOL    HW1 3608   6.790   4.525   6.964
  903SOL    HW2 3609   6.676   4.501   6.850
  904SOL     OW 3610   1.374   1.865   4.197
  904SOL    HW1 3611   1.440   1.916   4.142
  904SOL    HW2 3612   1.284   1.868   4.152
  905SOL     OW 3613   5.191   2.585   6.573
  905SOL    HW1 3614   5.160   2.514   6.636
  905SOL    HW2 3615   5.156   2.674   6.602
  906SOL     OW 3616   0.382   3.708   6.874
  906SOL    HW1 3617   0.384   3.700   6.973
  906SOL    HW2 3618   0.308   3.770   6.847
  907SOL     OW 3619   5.876   2.980   3.102
  907SOL    HW1 3620   5.783   2.986   3.067
  907SOL    HW2 3621   5.878   3.013   3.197
  908SOL     OW 3622   1.117   0.366   4.312
  908SOL    HW1 3623   1.122   0.298   4.238
  908SOL    HW2 3624   1.079   0.451   4.275
  909SOL     OW 3625   2.654   0.926   1.084
  909SOL    HW1 3626   2.679   0.856   1.016
  909SOL    HW2 3627   2.714   0.917   1.163
  910SOL     OW 3628   1.953   0.542   0.911
  910SOL    HW1 3629   1.863   0.525   0.870
  910SOL    HW2 3630   1.970   0.641   0.915
  911SOL     OW 3631   0.524   4.776   1.176
  911SOL    HW1 3632   0.622   4.755   1.172
  911SOL    HW2 3633   0.471   4.693   1.157
  912SOL     OW 3634   0.327   1.626   5.601
  912SOL    HW1 3635   0.234   1.659   5.587
  912SOL    HW2 3636   0.335   1.584   5.691
  913SOL     OW 3637   2.460   0.632   3.405
  913SOL    HW1 3638   2.513   0.581   3.473
  913SOL    HW2 3639   2.378   0.670   3.447
  914SOL     OW 3640   2.354   5.639   5.137
  914SOL    HW1 3641   2.402   5.583   5.205
  914SOL    HW2 3642   2.278   5.687   5.181
  915SOL     OW 3643   0.276   3.161   0.851
  915SOL    HW1 3644   0.194   3.119   0.889
  915SOL    HW2 3645   0.331   3.092   0.803
  916SOL     OW 3646   1.898   1.957   2.077
  916SOL    HW1 3647   1.845   1.905   2.143
  916SOL    HW2 3648   1.848   2.039   2.050
  917SOL     OW 3649   3.814   1.233   1.439
  917SOL    HW1 3650   3.761   1.314   1.464
  917SOL    HW2 3651   3.886   1.218   1.506
  918SOL     OW 3652   3.322   6.033   6.932
  918SOL    HW1 3653   3.288   5.951   6.886
  918SOL    HW2 3654   3.298   6.114   6.878
  919SOL     OW 3655   1.775   6.554   1.783
  919SOL    HW1 3656   1.829   6.472   1.764
  919SOL    HW2 3657   1.720   6.577   1.703
  920SOL     OW 3658   2.148   0.396   3.179
  920SOL    HW1 3659   2.191   0.486   3.180
  920SOL    HW2 3660   2.164   0.352   3.090
  921SOL     OW 3661   5.193   4.807   3.448
  921SOL    HW1 3662   5.259   4.874   3.483
  921SOL    HW2 3663   5.176   4.738   3.519
  922SOL     OW 3664   3.348   3.067   6.608
  922SOL    HW1 3665   3.380   2.988   6.660
  922SOL    HW2 3666   3.392   3.150   6.642
  923SOL     OW 3667   3.009   6.076   0.387
  923SOL    HW1 3668   3.086   6.078   0.323
  923SOL    HW2 3669   3.008   5.990   0.436
  924SOL     OW 3670   5.371   3.439   2.614
  924SOL    HW1 3671   5.411   3.413   2.526
  924SOL    HW2 3672   5.295   3.378   2.635
  925SOL     OW 3673   6.705   2.201   5.387
  925SOL    HW1 3674   6.774   2.155   5.331
  925SOL    HW2 3675   6.615   2.185   5.347
  926SOL     OW 3676   5.641   0.959   0.205
  926SOL    HW1 3677   5.717   1.001   0.253
  926SOL    HW2 3678   5.610   0.878   0.255
  927SOL     OW 3679   4.991   4.481   4.184
  927SOL    HW1 3680   4.957   4.529   4.103
  927SOL    HW2 3681   4.957   4.526   4.266
  928SOL     OW 3682   1.695   0.543   0.808
  928SOL    HW1 3683   1.652   0.453   0.794
  928SOL    HW2 3684   1.729   0.577   0.721
  929SOL     OW 3685   6.589   2.275   2.060
  929SOL    HW1 3686   6.661   2.335   2.026
  929SOL    HW2 3687   6.570   2.297   2.156
  930SOL     OW 3688   6.642   5.179   4.514
  930SOL    HW1 3689   6.698   5.098   4.529
  930SOL    HW2 3690   6.546   5.152   4.502
  931SOL     OW 3691   0.322   3.770   3.408
  931SOL    HW1 3692   0.296   3.828   3.330
  931SOL    HW2 3693   0.273   3.683   3.402
  932SOL     OW 3694   3.657   6.249   1.695
  932SOL    HW1 3695   3.687   6.241   1.600
  932SOL    HW2 3696   3.561   6.221   1.702
  933SOL     OW 3697   0.952   4.850   2.372
  933SOL    HW1 3698   1.029   4.833   2.433
  933SOL    HW2 3699   0.924   4.946   2.379
  934SOL     OW 3700   2.747   1.538   4.640
  934SOL    HW1 3701   2.769   1.631   4.609
  934SOL    HW2 3702   2.824   1.502   4.693
  935SOL     OW 3703   4.555   3.765   5.877
  935SOL    HW1 3704   4.558   3.853   5.926
  935SOL    HW2 3705   4.643   3.748   5.833
  936SOL     OW 3706   0.664   6.745   0.316
  936SOL    HW1 3707   0.655   6.835   0.273
  936SOL    HW2 3708   0.760   6.715   0.312
  937SOL     OW 3709   4.282   1.948   4.970
  937SOL    HW1 3710   4.188   1.934   4.939
  937SOL    HW2 3711   4.305   2.045   4.965
  938SOL     OW 3712   7.008   4.187   6.172
  938SOL    HW1 3713   0.026   4.099   6.153
  938SOL    HW2 3714   0.023   4.259   6.117
  939SOL     OW 3715   5.120   1.537   5.929
  939SOL    HW1 3716   5.024   1.565   5.922
  939SOL    HW2 3717   5.179   1.612   5.898
  940SOL     OW 3718   6.663   1.827   3.075
  940SOL    HW1 3719   6.690   1.895   3.007
  940SOL    HW2 3720   6.583   1.860   3.125
  941SOL     OW 3721   5.988   0.962   4.101
  941SOL    HW1 3722   5.999   0.968   4.200
  941SOL    HW2 3723   5.891   0.969   4.078
  942SOL     OW 3724   4.867   0.046   4.986
  942SOL    HW1 3725   4.799   0.113   4.954
  942SOL    HW2 3726   4.928   0.023   4.911
  943SOL     OW 3727   0.322   3.258   2.746
  943SOL    HW1 3728   0.346   3.338   2.691
  943SOL    HW2 3729   0.246   3.282   2.808
  944SOL     OW 3730   6.152   3.153   5.699
  944SOL    HW1 3731   6.107   3.242   5.707
  944SOL    HW2 3732   6.185   3.140   5.605
  945SOL     OW 3733   5.057   4.841   4.608
  945SOL    HW1 3734   5.055   4.921   4.667
  945SOL    HW2 3735   5.029   4.760   4.659
  946SOL     OW 3736   5.669   2.773   6.526
  946SOL    HW1 3737   5.758   2.727   6.525
  946SOL    HW2 3738   5.673   2.855   6.470
  947SOL     OW 3739   2.907   3.186   5.620
  947SOL    HW1 3740   2.819   3.188   5.667
  947SOL    HW2 3741   2.979   3.166   5.686
  948SOL     OW 3742   4.123   0.907   1.043
  948SOL    HW1 3743   4.124   1.000   1.006
  948SOL    HW2 3744   4.035   0.890   1.087
  949SOL     OW 3745   6.670   6.244   5.860
  949SOL    HW1 3746   6.765   6.215   5.857
  949SOL    HW2 3747   6.665   6.343   5.870
  950SOL     OW 3748   4.181   4.812   2.755
  950SOL    HW1 3749   4.114   4.801   2.681
  950SOL    HW2 3750   4.132   4.825   2.841
  951SOL     OW 3751   1.580   0.213   2.172
  951SOL    HW1 3752   1.556   0.307   2.193
  951SOL    HW2 3753   1.499   0.164   2.140
  952SOL     OW 3754   5.928   2.043   2.450
  952SOL    HW1 3755   5.923   2.132   2.404
  952SOL    HW2 3756   5.853   1.985   2.417
  953SOL     OW 3757   4.706   5.678   5.502
  953SOL    HW1 3758   4.748   5.723   5.581
  953SOL    HW2 3759   4.725   5.580   5.506
  954SOL     OW 3760   5.624   0.203   0.546
  954SOL    HW1 3761   5.634   0.286   0.491
  954SOL    HW2 3762   5.693   0.202   0.618
  955SOL     OW 3763   1.001   4.990   3.899
  955SOL    HW1 3764   0.974   4.895   3.911
  955SOL    HW2 3765   1.098   5.001   3.922
  956SOL     OW 3766   0.964   1.809   1.541
  956SOL    HW1 3767   0.944   1.849   1.631
  956SOL    HW2 3768   0.928   1.869   1.469
  957SOL     OW 3769   1.020   4.839   4.898
  957SOL    HW1 3770   1.104   4.893   4.904
  957SOL    HW2 3771   0.974   4.839   4.986
  958SOL     OW 3772   4.937   1.830   1.124
  958SOL    HW1 3773   4.997   1.752   1.143
  958SOL    HW2 3774   4.989   1.915   1.131
  959SOL     OW 3775   3.054   4.845   3.241
  959SOL    HW1 3776   3.063   4.760   3.189
  959SOL    HW2 3777   3.035   4.825   3.336
  960SOL     OW 3778   1.090   5.898   3.822
  960SOL    HW1 3779   1.085   5.998   3.814
  960SOL    HW2 3780   1.181   5.872   3.854
  961SOL     OW 3781   4.474   6.657   2.578
  961SOL    HW1 3782   4.551   6.714   2.549
  961SOL    HW2 3783   4.498   6.608   2.662
  962SOL     OW 3784   1.498   1.376   3.591
  962SOL    HW1 3785   1.457   1.395   3.680
  962SOL    HW2 3786   1.597   1.385   3.598
  963SOL     OW 3787   5.887   0.336   0.442
  963SOL    HW1 3788   5.973   0.386   0.437
  963SOL    HW2 3789   5.814   0.392   0.403
  964SOL     OW 3790   6.036   3.257   1.120
  964SOL    HW1 3791   6.087   3.220   1.043
  964SOL    HW2 3792   5.965   3.320   1.086
  965SOL     OW 3793   6.081   1.840   1.118
  965SOL    HW1 3794   6.141   1.765   1.090
  965SOL    HW2 3795   6.023   1.867   1.041
  966SOL     OW 3796   5.894   1.477   2.357
  966SOL    HW1 3797   5.885   1.447   2.452
  966SOL    HW2 3798   5.826   1.546   2.337
  967SOL     OW 3799   1.360   5.051   0.290
  967SOL    HW1 3800   1.364   4.952   0.303
  967SOL    HW2 3801   1.379   5.073   0.194
  968SOL     OW 3802   4.634   2.406   2.233
  968SOL    HW1 3803   4.672   2.472   2.169
  968SOL    HW2 3804   4.584   2.454   2.305
  969SOL     OW 3805   3.440   5.949   5.401
  969SOL    HW1 3806   3.519   5.943   5.462
  969SOL    HW2 3807   3.361   5.981   5.452
  970SOL     OW 3808   4.730   1.593   5.337
  970SOL    HW1 3809   4.631   1.606   5.340
  970SOL    HW2 3810   4.752   1.496   5.340
  971SOL     OW 3811   0.350   1.429   3.062
  971SOL    HW1 3812   0.403   1.440   2.977
  971SOL    HW2 3813   0.392   1.357   3.117
  972SOL     OW 3814   5.929   4.058   0.786
  972SOL    HW1 3815   5.855   4.080   0.850
  972SOL    HW2 3816   5.925   3.961   0.762
  973SOL     OW 3817   0.563   5.041   6.375
  973SOL    HW1 3818   0.620   5.089   6.309
  973SOL    HW2 3819   0.587   5.070   6.467
  974SOL     OW 3820   3.964   0.621   2.132
  974SOL    HW1 3821   4.004   0.692   2.073
  974SOL    HW2 3822   4.003   0.532   2.109
  975SOL     OW 3823   2.549   6.154   6.585
  975SOL    HW1 3824   2.495   6.123   6.664
  975SOL    HW2 3825   2.628   6.206   6.617
  976SOL     OW 3826   6.532   2.927   2.778
  976SOL    HW1 3827   6.445   2.956   2.738
  976SOL    HW2 3828   6.604   2.929   2.709
  977SOL     OW 3829   2.137   1.404   4.380
  977SOL    HW1 3830   2.060   1.342   4.367
  977SOL    HW2 3831   2.106   1.498   4.367
  978SOL     OW 3832   5.272   3.986   4.871
  978SOL    HW1 3833   5.208   4.061   4.855
  978SOL    HW2 3834   5.340   3.983   4.797
  979SOL     OW 3835   6.083   1.466   2.910
  979SOL    HW1 3836   6.021   1.529   2.863
  979SOL    HW2 3837   6.167   1.514   2.935
  980SOL     OW 3838   5.596   1.852   3.745
  980SOL    HW1 3839   5.610   1.931   3.806
  980SOL    HW2 3840   5.534   1.877   3.672
  981SOL     OW 3841   1.272   1.974   4.640
  981SOL    HW1 3842   1.269   1.993   4.738
  981SOL    HW2 3843   1.185   1.934   4.611
  982SOL     OW 3844   1.803   2.710   2.903
  982SOL    HW1 3845   1.720   2.743   2.948
  982SOL    HW2 3846   1.843   2.636   2.957
  983SOL     OW 3847   5.823   2.901   3.614
  983SOL    HW1 3848   5.732   2.859   3.617
  983SOL    HW2 3849   5.845   2.940   3.703
  984SOL     OW 3850   3.188   0.621   5.038
  984SOL    HW1 3851   3.226   0.546   4.984
  984SOL    HW2 3852   3.160   0.695   4.977
  985SOL     OW 3853   5.142   4.657   6.683
  985SOL    HW1 3854   5.157   4.642   6.781
  985SOL    HW2 3855   5.048   4.686   6.668
  986SOL     OW 3856   5.247   5.269   0.258
  986SOL    HW1 3857   5.333   5.272   0.308
  986SOL    HW2 3858   5.220   5.361   0.231
  987SOL     OW 3859   3.937   6.720   1.074
  987SOL    HW1 3860   3.939   6.680   1.166
  987SOL    HW2 3861   3.943   6.647   1.006
  988SOL     OW 3862   4.107   2.589   1.323
  988SOL    HW1 3863   4.188   2.643   1.344
  988SOL    HW2 3864   4.025   2.645   1.337
  989SOL     OW 3865   0.161   0.869   6.020
  989SOL    HW1 3866   0.161   0.912   5.930
  989SOL    HW2 3867   0.236   0.803   6.027
  990SOL     OW 3868   4.944   0.233   3.750
  990SOL    HW1 3869   4.962   0.154   3.691
  990SOL    HW2 3870   4.939   0.203   3.845
  991SOL     OW 3871   1.617   1.665   4.833
  991SOL    HW1 3872   1.630   1.734   4.904
  991SOL    HW2 3873   1.529   1.679   4.789
  992SOL     OW 3874   0.756   3.024   0.459
  992SOL    HW1 3875   0.709   2.983   0.381
  992SOL    HW2 3876   0.836   3.074   0.427
  993SOL     OW 3877   2.179   5.398   2.353
  993SOL    HW1 3878   2.083   5.376   2.339
  993SOL    HW2 3879   2.188   5.462   2.429
  994SOL     OW 3880   3.798   3.461   2.632
  994SOL    HW1 3881   3.785   3.539   2.693
  994SOL    HW2 3882   3.842   3.386   2.682
  995SOL     OW 3883   2.523   2.276   6.489
  995SOL    HW1 3884   2.495   2.283   6.393
  995SOL    HW2 3885   2.482   2.194   6.529
  996SOL     OW 3886   1.799   4.007   3.946
  996SOL    HW1 3887   1.808   3.976   4.040
  996SOL    HW2 3888   1.824   4.104   3.940
  997SOL     OW 3889   6.860   6.844   1.207
  997SOL    HW1 3890   6.932   6.896   1.161
  997SOL    HW2 3891   6.882   6.746   1.205
  998SOL     OW 3892   4.628   0.028   3.447
  998SOL    HW1 3893   4.559   0.078   3.498
  998SOL    HW2 3894   4.694   0.092   3.408
  999SOL     OW 3895   5.406   5.310   1.335
  999SOL    HW1 3896   5.477   5.347   1.275
  999SOL    HW2 3897   5.442   5.303   1.428
 1000SOL     OW 3898   0.693   0.871   2.406
 1000SOL    HW1 3899   0.722   0.912   2.492
 1000SOL    HW2 3900   0.773   0.855   2.348
 1001SOL     OW 3901   4.483   6.734   6.543
 1001SOL    HW1 3902   4.422   6.654   6.535
 1001SOL    HW2 3903   4.445   6.809   6.489
 1002SOL     OW 3904   5.312   1.866   6.494
 1002SOL    HW1 3905   5.252   1.933   6.449
 1002SOL    HW2 3906   5.260   1.814   6.561
 1003SOL     OW 3907   2.945   0.021   1.747
 1003SOL    HW1 3908   3.028   0.039   1.694
 1003SOL    HW2 3909   2.921   6.952   1.740
 1004SOL     OW 3910   6.817   0.587   0.678
 1004SOL    HW1 3911   6.847   0.569   0.772
 1004SOL    HW2 3912   6.719   0.608   0.678
 1005SOL     OW 3913   6.911   1.097   3.194
 1005SOL    HW1 3914   6.878   1.021   3.138
 1005SOL    HW2 3915   6.930   1.176   3.136
 1006SOL     OW 3916   2.487   6.191   1.730
 1006SOL    HW1 3917   2.522   6.171   1.822
 1006SOL    HW2 3918   2.548   6.255   1.684
 1007SOL     OW 3919   6.140   6.831   3.807
 1007SOL    HW1 3920   6.099   6.745   3.837
 1007SOL    HW2 3921   6.119   6.845   3.710
 1008SOL     OW 3922   1.975   2.951   4.505
 1008SOL    HW1 3923   2.027   3.036   4.510
 1008SOL    HW2 3924   1.930   2.945   4.416
 1009SOL     OW 3925   0.122   5.684   4.080
 1009SOL    HW1 3926   0.114   5.759   4.014
 1009SOL    HW2 3927   0.073   5.604   4.045
 1010SOL     OW 3928   3.714   2.913   0.007
 1010SOL    HW1 3929   3.625   2.946   7.004
 1010SOL    HW2 3930   3.786   2.951   6.976
 1011SOL     OW 3931   2.796   5.514   2.665
 1011SOL    HW1 3932   2.858   5.567   2.723
 1011SOL    HW2 3933   2.741   5.452   2.721
 1012SOL     OW 3934   6.604   5.492   0.286
 1012SOL    HW1 3935   6.596   5.460   0.380
 1012SOL    HW2 3936   6.695   5.469   0.250
 1013SOL     OW 3937   0.262   1.052   6.619
 1013SOL    HW1 3938   0.199   0.993   6.568
 1013SOL    HW2 3939   0.289   1.129   6.561
 1014SOL     OW 3940   5.294   5.795   0.081
 1014SOL    HW1 3941   5.285   5.851   0.163
 1014SOL    HW2 3942   5.220   5.815   0.018
 1015SOL     OW 3943   2.608   0.096   5.383
 1015SOL    HW1 3944   2.510   0.085   5.366
 1015SOL    HW2 3945   2.659   0.036   5.321
 1016SOL     OW 3946   2.125   2.958   0.906
 1016SOL    HW1 3947   2.069   2.973   0.988
 1016SOL    HW2 3948   2.066   2.934   0.829
 1017SOL     OW 3949   4.387   2.788   0.640
 1017SOL    HW1 3950   4.455   2.733   0.592
 1017SOL    HW2 3951   4.426   2.822   0.725
 1018SOL     OW 3952   1.816   3.475   3.873
 1018SOL    HW1 3953   1.815   3.520   3.784
 1018SOL    HW2 3954   1.909   3.445   3.894
 1019SOL     OW 3955   0.833   0.628   0.738
 1019SOL    HW1 3956   0.894   0.588   0.670
 1019SOL    HW2 3957   0.755   0.671   0.692
 1020SOL     OW 3958   1.935   6.636   1.197
 1020SOL    HW1 3959   2.010   6.688   1.238
 1020SOL    HW2 3960   1.898   6.686   1.119
 1021SOL     OW 3961   6.369   0.911   0.405
 1021SOL    HW1 3962   6.310   0.983   0.369
 1021SOL    HW2 3963   6.406   0.940   0.493
 1022SOL     OW 3964   4.167   4.629   6.250
 1022SOL    HW1 3965   4.071   4.603   6.262
 1022SOL    HW2 3966   4.215   4.559   6.198
 1023SOL     OW 3967   6.089   0.417   2.735
 1023SOL    HW1 3968   6.057   0.499   2.782
 1023SOL    HW2 3969   6.095   0.341   2.800
 1024SOL     OW 3970   6.588   2.864   4.118
 1024SOL    HW1 3971   6.509   2.804   4.130
 1024SOL    HW2 3972   6.575   2.947   4.172
 1025SOL     OW 3973   3.369   4.425   0.468
 1025SOL    HW1 3974   3.276   4.453   0.444
 1025SOL    HW2 3975   3.385   4.442   0.565
 1026SOL     OW 3976   1.117   1.855   0.869
 1026SOL    HW1 3977   1.137   1.934   0.927
 1026SOL    HW2 3978   1.149   1.772   0.914
 1027SOL     OW 3979   3.057   6.063   1.150
 1027SOL    HW1 3980   3.054   5.985   1.212
 1027SOL    HW2 3981   2.995   6.047   1.073
 1028SOL     OW 3982   3.324   5.789   6.819
 1028SOL    HW1 3983   3.237   5.760   6.777
 1028SOL    HW2 3984   3.355   5.719   6.883
 1029SOL     OW 3985   2.085   0.491   0.122
 1029SOL    HW1 3986   2.158   0.428   0.095
 1029SOL    HW2 3987   2.125   0.572   0.165
 1030SOL     OW 3988   3.386   3.144   2.728
 1030SOL    HW1 3989   3.411   3.093   2.645
 1030SOL    HW2 3990   3.395   3.242   2.710
 1031SOL     OW 3991   4.787   4.858   0.929
 1031SOL    HW1 3992   4.783   4.922   0.853
 1031SOL    HW2 3993   4.719   4.785   0.917
 1032SOL     OW 3994   1.358   1.677   4.714
 1032SOL    HW1 3995   1.305   1.599   4.748
 1032SOL    HW2 3996   1.300   1.736   4.659
 1033SOL     OW 3997   1.265   6.959   1.127
 1033SOL    HW1 3998   1.260   6.893   1.052
 1033SOL    HW2 3999   1.289   0.022   1.090
 1034SOL     OW 4000   1.628   6.499   4.521
 1034SOL    HW1 4001   1.537   6.542   4.521
 1034SOL    HW2 4002   1.699   6.569   4.524
 1035SOL     OW 4003   3.023   1.795   3.346
 1035SOL    HW1 4004   3.117   1.814   3.375
 1035SOL    HW2 4005   3.019   1.788   3.247
 1036SOL     OW 4006   2.881   0.512   0.874
 1036SOL    HW1 4007   2.879   0.519   0.974
 1036SOL    HW2 4008   2.896   0.416   0.848
 1037SOL     OW 4009   1.292   1.219   1.330
 1037SOL    HW1 4010   1.221   1.230   1.400
 1037SOL    HW2 4011   1.341   1.305   1.318
 1038SOL     OW 4012   1.196   0.738   5.907
 1038SOL    HW1 4013   1.277   0.772   5.860
 1038SOL    HW2 4014   1.125   0.807   5.905
 1039SOL     OW 4015   4.403   2.524   5.834
 1039SOL    HW1 4016   4.316   2.522   5.784
 1039SOL    HW2 4017   4.458   2.444   5.808
 1040SOL     OW 4018   5.385   3.337   3.110
 1040SOL    HW1 4019   5.369   3.432   3.083
 1040SOL    HW2 4020   5.479   3.311   3.087
 1041SOL     OW 4021   6.512   6.974   4.123
 1041SOL    HW1 4022   6.464   0.021   4.077
 1041SOL    HW2 4023   6.579   6.934   4.060
 1042SOL     OW 4024   3.260   4.903   2.354
 1042SOL    HW1 4025   3.192   4.835   2.328
 1042SOL    HW2 4026   3.264   4.909   2.454
 1043SOL     OW 4027   4.344   1.157   5.936
 1043SOL    HW1 4028   4.415   1.091   5.911
 1043SOL    HW2 4029   4.374   1.249   5.911
 1044SOL     OW 4030   4.431   2.546   1.693
 1044SOL    HW1 4031   4.343   2.503   1.711
 1044SOL    HW2 4032   4.425   2.644   1.715
 1045SOL     OW 4033   2.873   6.935   1.450
 1045SOL    HW1 4034   2.908   6.850   1.409
 1045SOL    HW2 4035   2.950   6.990   1.482
 1046SOL     OW 4036   2.080   6.785   6.695
 1046SOL    HW1 4037   2.175   6.796   6.725
 1046SOL    HW2 4038   2.078   6.760   6.598
 1047SOL     OW 4039   1.631   5.315   2.831
 1047SOL    HW1 4040   1.569   5.385   2.795
 1047SOL    HW2 4041   1.610   5.228   2.787
 1048SOL     OW 4042   4.371   5.457   5.657
 1048SOL    HW1 4043   4.427   5.410   5.589
 1048SOL    HW2 4044   4.412   5.444   5.748
 1049SOL     OW 4045   0.087   4.210   4.789
 1049SOL    HW1 4046   0.102   4.112   4.771
 1049SOL    HW2 4047   0.135   4.237   4.872
 1050SOL     OW 4048   2.850   5.323   1.091
 1050SOL    HW1 4049   2.873   5.375   1.009
 1050SOL    HW2 4050   2.839   5.386   1.168
 1051SOL     OW 4051   3.532   4.530   0.241
 1051SOL    HW1 4052   3.490   4.471   0.310
 1051SOL    HW2 4053   3.465   4.596   0.207
 1052SOL     OW 4054   4.563   0.383   3.868
 1052SOL    HW1 4055   4.621   0.402   3.789
 1052SOL    HW2 4056   4.539   0.469   3.913
 1053SOL     OW 4057   5.496   5.928   3.311
 1053SOL    HW1 4058   5.460   5.873   3.385
 1053SOL    HW2 4059   5.487   6.025   3.333
 1054SOL     OW 4060   2.348   4.778   5.249
 1054SOL    HW1 4061   2.378   4.871   5.229
 1054SOL    HW2 4062   2.428   4.718   5.257
 1055SOL     OW 4063   5.380   6.657   4.333
 1055SOL    HW1 4064   5.390   6.625   4.427
 1055SOL    HW2 4065   5.414   6.751   4.325
 1056SOL     OW 4066   1.570   5.898   5.320
 1056SOL    HW1 4067   1.517   5.920   5.238
 1056SOL    HW2 4068   1.664   5.931   5.309
 1057SOL     OW 4069   3.432   4.132   3.400
 1057SOL    HW1 4070   3.369   4.069   3.354
 1057SOL    HW2 4071   3.522   4.127   3.357
 1058SOL     OW 4072   4.817   1.474   2.518
 1058SOL    HW1 4073   4.840   1.568   2.494
 1058SOL    HW2 4074   4.717   1.465   2.524
 1059SOL     OW 4075   3.196   0.283   1.723
 1059SOL    HW1 4076   3.279   0.338   1.717
 1059SOL    HW2 4077   3.211   0.208   1.788
 1060SOL     OW 4078   6.851   3.776   5.183
 1060SOL    HW1 4079   6.884   3.762   5.276
 1060SOL    HW2 4080   6.816   3.869   5.174
 1061SOL     OW 4081   4.821   4.384   1.521
 1061SOL    HW1 4082   4.763   4.399   1.441
 1061SOL    HW2 4083   4.766   4.350   1.597
 1062SOL     OW 4084   6.596   5.911   6.016
 1062SOL    HW1 4085   6.558   6.001   6.034
 1062SOL    HW2 4086   6.525   5.841   6.030
 1063SOL     OW 4087   1.122   4.155   1.135
 1063SOL    HW1 4088   1.168   4.086   1.191
 1063SOL    HW2 4089   1.183   4.234   1.124
 1064SOL     OW 4090   1.016   4.181   2.470
 1064SOL    HW1 4091   1.043   4.258   2.528
 1064SOL    HW2 4092   1.020   4.208   2.374
 1065SOL     OW 4093   4.750   0.988   5.128
 1065SOL    HW1 4094   4.735   1.022   5.220
 1065SOL    HW2 4095   4.759   0.889   5.130
 1066SOL     OW 4096   5.446   0.620   4.128
 1066SOL    HW1 4097   5.364   0.613   4.072
 1066SOL    HW2 4098   5.441   0.555   4.204
 1067SOL     OW 4099   1.607   3.087   0.430
 1067SOL    HW1 4100   1.577   2.992   0.421
 1067SOL    HW2 4101   1.550   3.146   0.373
 1068SOL     OW 4102   5.592   3.938   1.763
 1068SOL    HW1 4103   5.520   3.892   1.711
 1068SOL    HW2 4104   5.553   3.979   1.846
 1069SOL     OW 4105   5.083   5.149   1.582
 1069SOL    HW1 4106   5.165   5.123   1.531
 1069SOL    HW2 4107   5.010   5.082   1.565
 1070SOL     OW 4108   0.736   1.096   6.784
 1070SOL    HW1 4109   0.744   1.017   6.845
 1070SOL    HW2 4110   0.755   1.068   6.690
 1071SOL     OW 4111   4.195   0.692   3.393
 1071SOL    HW1 4112   4.238   0.751   3.460
 1071SOL    HW2 4113   4.265   0.649   3.335
 1072SOL     OW 4114   2.007   6.305   2.420
 1072SOL    HW1 4115   1.983   6.396   2.453
 1072SOL    HW2 4116   1.924   6.260   2.384
 1073SOL     OW 4117   3.789   5.658   2.426
 1073SOL    HW1 4118   3.732   5.605   2.489
 1073SOL    HW2 4119   3.750   5.654   2.334
 1074SOL     OW 4120   2.033   5.732   1.796
 1074SOL    HW1 4121   2.004   5.671   1.870
 1074SOL    HW2 4122   2.130   5.754   1.806
 1075SOL     OW 4123   4.676   5.097   3.334
 1075SOL    HW1 4124   4.634   5.006   3.326
 1075SOL    HW2 4125   4.668   5.129   3.428
 1076SOL     OW 4126   0.488   4.343   4.900
 1076SOL    HW1 4127   0.474   4.289   4.817
 1076SOL    HW2 4128   0.548   4.420   4.881
 1077SOL     OW 4129   5.862   0.021   0.254
 1077SOL    HW1 4130   5.924   6.983   0.297
 1077SOL    HW2 4131   5.840   0.094   0.319
 1078SOL     OW 4132   1.697   1.181   2.064
 1078SOL    HW1 4133   1.777   1.229   2.029
 1078SOL    HW2 4134   1.656   1.234   2.138
 1079SOL     OW 4135   1.668   5.086   3.226
 1079SOL    HW1 4136   1.693   5.183   3.227
 1079SOL    HW2 4137   1.739   5.033   3.179
 1080SOL     OW 4138   1.945   4.335   3.637
 1080SOL    HW1 4139   1.860   4.379   3.663
 1080SOL    HW2 4140   1.927   4.242   3.606
 1081SOL     OW 4141   0.182   1.341   5.485
 1081SOL    HW1 4142   0.281   1.350   5.471
 1081SOL    HW2 4143   0.140   1.432   5.483
 1082SOL     OW 4144   1.641   0.369   6.010
 1082SOL    HW1 4145   1.544   0.395   6.005
 1082SOL    HW2 4146   1.672   0.378   6.104
 1083SOL     OW 4147   3.467   4.159   2.215
 1083SOL    HW1 4148   3.427   4.250   2.229
 1083SOL    HW2 4149   3.539   4.165   2.146
 1084SOL     OW 4150   6.285   5.620   0.918
 1084SOL    HW1 4151   6.288   5.584   0.825
 1084SOL    HW2 4152   6.344   5.566   0.977
 1085SOL     OW 4153   1.889   3.684   3.253
 1085SOL    HW1 4154   1.933   3.597   3.230
 1085SOL    HW2 4155   1.946   3.734   3.319
 1086SOL     OW 4156   6.140   5.734   2.843
 1086SOL    HW1 4157   6.198   5.711   2.765
 1086SOL    HW2 4158   6.057   5.679   2.841
 1087SOL     OW 4159   5.426   3.058   5.623
 1087SOL    HW1 4160   5.385   3.095   5.539
 1087SOL    HW2 4161   5.445   3.133   5.686
 1088SOL     OW 4162   6.163   4.904   3.392
 1088SOL    HW1 4163   6.174   4.945   3.482
 1088SOL    HW2 4164   6.233   4.940   3.330
 1089SOL     OW 4165   0.880   0.659   4.658
 1089SOL    HW1 4166   0.959   0.685   4.603
 1089SOL    HW2 4167   0.887   0.700   4.749
 1090SOL     OW 4168   2.983   1.428   4.222
 1090SOL    HW1 4169   3.049   1.499   4.198
 1090SOL    HW2 4170   2.894   1.470   4.239
 1091SOL     OW 4171   1.857   1.908   4.104
 1091SOL    HW1 4172   1.839   1.884   4.009
 1091SOL    HW2 4173   1.811   1.843   4.165
 1092SOL     OW 4174   2.345   3.463   1.210
 1092SOL    HW1 4175   2.268   3.491   1.268
 1092SOL    HW2 4176   2.397   3.544   1.183
 1093SOL     OW 4177   2.165   1.095   3.088
 1093SOL    HW1 4178   2.090   1.082   3.153
 1093SOL    HW2 4179   2.138   1.163   3.020
 1094SOL     OW 4180   6.978   6.662   2.276
 1094SOL    HW1 4181   7.005   6.745   2.325
 1094SOL    HW2 4182   0.014   6.588   2.296
 1095SOL     OW 4183   6.561   2.208   5.857
 1095SOL    HW1 4184   6.592   2.207   5.952
 1095SOL    HW2 4185   6.506   2.126   5.840
 1096SOL     OW 4186   3.514   4.576   1.262
 1096SOL    HW1 4187   3.423   4.551   1.229
 1096SOL    HW2 4188   3.546   4.506   1.327
 1097SOL     OW 4189   0.919   4.341   4.497
 1097SOL    HW1 4190   0.973   4.325   4.414
 1097SOL    HW2 4191   0.908   4.440   4.510
 1098SOL     OW 4192   5.547   2.870   1.016
 1098SOL    HW1 4193   5.468   2.835   0.964
 1098SOL    HW2 4194   5.514   2.931   1.088
 1099SOL     OW 4195   4.175   1.239   4.760
 1099SOL    HW1 4196   4.271   1.217   4.739
 1099SOL    HW2 4197   4.157   1.334   4.733
 1100SOL     OW 4198   1.644   1.645   6.048
 1100SOL    HW1 4199   1.590   1.604   6.122
 1100SOL    HW2 4200   1.583   1.667   5.971
 1101SOL     OW 4201   5.315   2.703   1.250
 1101SOL    HW1 4202   5.348   2.689   1.344
 1101SOL    HW2 4203   5.352   2.788   1.213
 1102SOL     OW 4204   1.604   4.812   3.429
 1102SOL    HW1 4205   1.628   4.794   3.524
 1102SOL    HW2 4206   1.687   4.829   3.376
 1103SOL     OW 4207   2.250   0.573   1.096
 1103SOL    HW1 4208   2.246   0.529   1.007
 1103SOL    HW2 4209   2.264   0.672   1.084
 1104SOL     OW 4210   1.662   4.079   6.135
 1104SOL    HW1 4211   1.647   4.011   6.206
 1104SOL    HW2 4212   1.756   4.071   6.100
 1105SOL     OW 4213   5.008   3.804   5.921
 1105SOL    HW1 4214   4.960   3.760   5.996
 1105SOL    HW2 4215   5.105   3.777   5.923
 1106SOL     OW 4216   1.312   1.666   0.373
 1106SOL    HW1 4217   1.336   1.737   0.439
 1106SOL    HW2 4218   1.218   1.681   0.341
 1107SOL     OW 4219   0.715   0.119   6.840
 1107SOL    HW1 4220   0.753   0.065   6.765
 1107SOL    HW2 4221   0.745   0.081   6.927
 1108SOL     OW 4222   2.578   0.203   5.943
 1108SOL    HW1 4223   2.491   0.218   5.991
 1108SOL    HW2 4224   2.561   0.196   5.845
 1109SOL     OW 4225   4.169   5.764   4.852
 1109SOL    HW1 4226   4.128   5.791   4.765
 1109SOL    HW2 4227   4.261   5.803   4.859
 1110SOL     OW 4228   3.320   1.753   2.191
 1110SOL    HW1 4229   3.330   1.832   2.130
 1110SOL    HW2 4230   3.255   1.776   2.263
 1111SOL     OW 4231   5.489   6.195   0.214
 1111SOL    HW1 4232   5.470   6.220   0.309
 1111SOL    HW2 4233   5.581   6.226   0.190
 1112SOL     OW 4234   6.193   1.167   2.699
 1112SOL    HW1 4235   6.166   1.249   2.648
 1112SOL    HW2 4236   6.114   1.105   2.706
 1113SOL     OW 4237   6.304   3.011   2.631
 1113SOL    HW1 4238   6.388   3.033   2.582
 1113SOL    HW2 4239   6.277   3.089   2.688
 1114SOL     OW 4240   4.713   0.775   6.477
 1114SOL    HW1 4241   4.694   0.729   6.564
 1114SOL    HW2 4242   4.809   0.803   6.475
 1115SOL     OW 4243   4.699   3.212   0.282
 1115SOL    HW1 4244   4.621   3.225   0.344
 1115SOL    HW2 4245   4.676   3.142   0.215
 1116SOL     OW 4246   5.124   5.595   4.172
 1116SOL    HW1 4247   5.078   5.666   4.119
 1116SOL    HW2 4248   5.154   5.633   4.259
 1117SOL     OW 4249   2.750   2.575   1.469
 1117SOL    HW1 4250   2.817   2.508   1.501
 1117SOL    HW2 4251   2.673   2.576   1.533
 1118SOL     OW 4252   1.251   5.124   2.291
 1118SOL    HW1 4253   1.294   5.138   2.380
 1118SOL    HW2 4254   1.234   5.213   2.248
 1119SOL     OW 4255   3.673   4.005   1.050
 1119SOL    HW1 4256   3.638   3.995   1.143
 1119SOL    HW2 4257   3.599   3.989   0.985
 1120SOL     OW 4258   5.330   6.623   5.919
 1120SOL    HW1 4259   5.322   6.534   5.875
 1120SOL    HW2 4260   5.376   6.687   5.858
 1121SOL     OW 4261   5.174   3.295   2.737
 1121SOL    HW1 4262   5.121   3.374   2.768
 1121SOL    HW2 4263   5.149   3.214   2.790
 1122SOL     OW 4264   5.046   2.880   5.797
 1122SOL    HW1 4265   5.124   2.873   5.859
 1122SOL    HW2 4266   5.031   2.793   5.751
 1123SOL     OW 4267   4.813   1.731   2.402
 1123SOL    HW1 4268   4.762   1.704   2.320
 1123SOL    HW2 4269   4.866   1.814   2.383
 1124SOL     OW 4270   0.125   4.258   5.070
 1124SOL    HW1 4271   0.165   4.167   5.061
 1124SOL    HW2 4272   0.117   4.282   5.167
 1125SOL     OW 4273   2.760   2.020   4.856
 1125SOL    HW1 4274   2.726   2.031   4.950
 1125SOL    HW2 4275   2.683   1.999   4.796
 1126SOL     OW 4276   5.020   0.049   6.703
 1126SOL    HW1 4277   5.091   0.003   6.757
 1126SOL    HW2 4278   4.977   0.121   6.757
 1127SOL     OW 4279   3.432   5.140   5.540
 1127SOL    HW1 4280   3.332   5.136   5.528
 1127SOL    HW2 4281   3.454   5.205   5.612
 1128SOL     OW 4282   4.522   2.403   4.674
 1128SOL    HW1 4283   4.556   2.482   4.623
 1128SOL    HW2 4284   4.478   2.434   4.758
 1129SOL     OW 4285   3.558   0.036   0.063
 1129SOL    HW1 4286   3.644   0.086   0.048
 1129SOL    HW2 4287   3.536   0.037   0.161
 1130SOL     OW 4288   1.521   4.224   0.323
 1130SOL    HW1 4289   1.607   4.231   0.372
 1130SOL    HW2 4290   1.538   4.218   0.225
 1131SOL     OW 4291   0.353   6.090   5.712
 1131SOL    HW1 4292   0.295   6.087   5.793
 1131SOL    HW2 4293   0.322   6.163   5.651
 1132SOL     OW 4294   4.589   0.280   6.900
 1132SOL    HW1 4295   4.573   0.226   6.818
 1132SOL    HW2 4296   4.595   0.220   6.980
 1133SOL     OW 4297   6.756   2.472   1.075
 1133SOL    HW1 4298   6.761   2.383   1.030
 1133SOL    HW2 4299   6.726   2.541   1.009
 1134SOL     OW 4300   5.653   2.253   0.287
 1134SOL    HW1 4301   5.616   2.344   0.271
 1134SOL    HW2 4302   5.625   2.192   0.212
 1135SOL     OW 4303   3.095   1.918   2.686
 1135SOL    HW1 4304   3.162   1.983   2.722
 1135SOL    HW2 4305   3.021   1.967   2.640
 1136SOL     OW 4306   3.185   4.932   4.445
 1136SOL    HW1 4307   3.268   4.973   4.407
 1136SOL    HW2 4308   3.198   4.917   4.543
 1137SOL     OW 4309   1.121   3.042   0.131
 1137SOL    HW1 4310   1.033   3.083   0.106
 1137SOL    HW2 4311   1.106   2.966   0.194
 1138SOL     OW 4312   1.803   1.894   6.063
 1138SOL    HW1 4313   1.812   1.801   6.099
 1138SOL    HW2 4314   1.760   1.891   5.973
 1139SOL     OW 4315   2.618   6.673   2.545
 1139SOL    HW1 4316   2.613   6.771   2.526
 1139SOL    HW2 4317   2.678   6.657   2.623
 1140SOL     OW 4318   4.067   2.163   2.169
 1140SOL    HW1 4319   4.035   2.246   2.123
 1140SOL    HW2 4320   4.005   2.087   2.146
 1141SOL     OW 4321   6.271   5.879   5.808
 1141SOL    HW1 4322   6.295   5.782   5.801
 1141SOL    HW2 4323   6.222   5.894   5.894
 1142SOL     OW 4324   4.844   0.519   5.006
 1142SOL    HW1 4325   4.817   0.473   5.090
 1142SOL    HW2 4326   4.766   0.521   4.943
 1143SOL     OW 4327   3.704   2.140   2.598
 1143SOL    HW1 4328   3.769   2.148   2.522
 1143SOL    HW2 4329   3.612   2.124   2.562
 1144SOL     OW 4330   6.890   4.006   4.604
 1144SOL    HW1 4331   6.822   4.080   4.599
 1144SOL    HW2 4332   6.878   3.955   4.689
 1145SOL     OW 4333   0.237   5.164   3.443
 1145SOL    HW1 4334   0.223   5.237   3.511
 1145SOL    HW2 4335   0.329   5.171   3.406
 1146SOL     OW 4336   5.436   1.077   1.381
 1146SOL    HW1 4337   5.532   1.097   1.363
 1146SOL    HW2 4338   5.380   1.113   1.306
 1147SOL     OW 4339   1.054   4.077   0.891
 1147SOL    HW1 4340   1.039   4.110   0.984
 1147SOL    HW2 4341   1.060   4.155   0.828
 1148SOL     OW 4342   2.665   6.517   6.925
 1148SOL    HW1 4343   2.736   6.487   6.860
 1148SOL    HW2 4344   2.599   6.575   6.878
 1149SOL     OW 4345   5.351   3.592   3.045
 1149SOL    HW1 4346   5.379   3.684   3.073
 1149SOL    HW2 4347   5.259   3.595   3.007
 1150SOL     OW 4348   2.030   4.109   1.490
 1150SOL    HW1 4349   2.045   4.191   1.545
 1150SOL    HW2 4350   1.968   4.131   1.414
 1151SOL     OW 4351   5.239   5.719   6.709
 1151SOL    HW1 4352   5.238   5.819   6.705
 1151SOL    HW2 4353   5.329   5.685   6.683
 1152SOL     OW 4354   0.964   0.017   5.094
 1152SOL    HW1 4355   0.929   0.083   5.160
 1152SOL    HW2 4356   1.062   0.004   5.108
 1153SOL     OW 4357   3.138   6.806   2.468
 1153SOL    HW1 4358   3.229   6.783   2.432
 1153SOL    HW2 4359   3.146   6.884   2.530
 1154SOL     OW 4360   0.390   3.356   1.685
 1154SOL    HW1 4361   0.307   3.360   1.630
 1154SOL    HW2 4362   0.400   3.264   1.723
 1155SOL     OW 4363   3.610   5.343   6.519
 1155SOL    HW1 4364   3.659   5.312   6.600
 1155SOL    HW2 4365   3.677   5.366   6.447
 1156SOL     OW 4366   2.324   0.613   4.256
 1156SOL    HW1 4367   2.342   0.629   4.159
 1156SOL    HW2 4368   2.282   0.695   4.295
 1157SOL     OW 4369   6.493   2.027   4.507
 1157SOL    HW1 4370   6.498   2.086   4.426
 1157SOL    HW2 4371   6.421   1.958   4.494
 1158SOL     OW 4372   6.387   5.354   5.687
 1158SOL    HW1 4373   6.299   5.402   5.691
 1158SOL    HW2 4374   6.397   5.311   5.598
 1159SOL     OW 4375   4.696   0.802   2.659
 1159SOL    HW1 4376   4.672   0.876   2.722
 1159SOL    HW2 4377   4.794   0.808   2.636
 1160SOL     OW 4378   3.413   3.690   1.522
 1160SOL    HW1 4379   3.506   3.655   1.519
 1160SOL    HW2 4380   3.377   3.697   1.429
 1161SOL     OW 4381   5.050   0.173   5.150
 1161SOL    HW1 4382   5.115   0.113   5.196
 1161SOL    HW2 4383   4.995   0.121   5.086
 1162SOL     OW 4384   3.942   3.114   0.918
 1162SOL    HW1 4385   3.889   3.186   0.874
 1162SOL    HW2 4386   4.034   3.111   0.879
 1163SOL     OW 4387   5.231   2.712   2.002
 1163SOL    HW1 4388   5.252   2.777   2.075
 1163SOL    HW2 4389   5.246   2.619   2.036
 1164SOL     OW 4390   5.742   2.817   3.903
 1164SOL    HW1 4391   5.759   2.911   3.930
 1164SOL    HW2 4392   5.658   2.784   3.946
 1165SOL     OW 4393   2.150   3.997   3.511
 1165SOL    HW1 4394   2.064   3.987   3.561
 1165SOL    HW2 4395   2.203   4.072   3.551
 1166SOL     OW 4396   3.714   0.885   6.845
 1166SOL    HW1 4397   3.738   0.959   6.908
 1166SOL    HW2 4398   3.671   0.923   6.763
 1167SOL     OW 4399   2.856   0.276   6.018
 1167SOL    HW1 4400   2.893   0.363   5.988
 1167SOL    HW2 4401   2.775   0.254   5.963
 1168SOL     OW 4402   5.922   0.035   2.523
 1168SOL    HW1 4403   5.985   0.000   2.592
 1168SOL    HW2 4404   5.912   6.995   2.450
 1169SOL     OW 4405   0.348   3.129   0.486
 1169SOL    HW1 4406   0.427   3.165   0.536
 1169SOL    HW2 4407   0.349   3.165   0.392
 1170SOL     OW 4408   4.114   0.813   2.020
 1170SOL    HW1 4409   4.130   0.862   2.105
 1170SOL    HW2 4410   4.073   0.874   1.953
 1171SOL     OW 4411   2.660   5.884   0.328
 1171SOL    HW1 4412   2.683   5.974   0.292
 1171SOL    HW2 4413   2.707   5.871   0.416
 1172SOL     OW 4414   3.135   4.024   3.801
 1172SOL    HW1 4415   3.089   3.941   3.770
 1172SOL    HW2 4416   3.187   4.063   3.725
 1173SOL     OW 4417   3.591   6.831   5.794
 1173SOL    HW1 4418   3.532   6.828   5.713
 1173SOL    HW2 4419   3.685   6.807   5.767
 1174SOL     OW 4420   2.966   5.722   1.053
 1174SOL    HW1 4421   2.891   5.677   1.005
 1174SOL    HW2 4422   2.986   5.671   1.138
 1175SOL     OW 4423   5.181   3.859   7.001
 1175SOL    HW1 4424   5.184   3.762   7.022
 1175SOL    HW2 4425   5.261   3.884   6.946
 1176SOL     OW 4426   6.359   4.579   0.338
 1176SOL    HW1 4427   6.338   4.654   0.401
 1176SOL    HW2 4428   6.458   4.569   0.331
 1177SOL     OW 4429   0.337   2.277   5.183
 1177SOL    HW1 4430   0.277   2.240   5.254
 1177SOL    HW2 4431   0.296   2.264   5.093
 1178SOL     OW 4432   4.610   3.951   1.728
 1178SOL    HW1 4433   4.658   4.012   1.792
 1178SOL    HW2 4434   4.578   4.004   1.650
 1179SOL     OW 4435   2.472   4.734   0.443
 1179SOL    HW1 4436   2.424   4.735   0.530
 1179SOL    HW2 4437   2.570   4.750   0.459
 1180SOL     OW 4438   2.776   0.878   4.039
 1180SOL    HW1 4439   2.679   0.888   4.061
 1180SOL    HW2 4440   2.789   0.889   3.940
 1181SOL     OW 4441   1.018   3.111   4.357
 1181SOL    HW1 4442   1.065   3.199   4.357
 1181SOL    HW2 4443   1.038   3.063   4.442
 1182SOL     OW 4444   2.141   4.738   3.224
 1182SOL    HW1 4445   2.165   4.642   3.237
 1182SOL    HW2 4446   2.218   4.787   3.183
 1183SOL     OW 4447   4.216   5.133   2.376
 1183SOL    HW1 4448   4.225   5.087   2.464
 1183SOL    HW2 4449   4.147   5.086   2.321
 1184SOL     OW 4450   3.720   2.363   5.371
 1184SOL    HW1 4451   3.659   2.439   5.394
 1184SOL    HW2 4452   3.762   2.328   5.454
 1185SOL     OW 4453   2.341   0.412   0.610
 1185SOL    HW1 4454   2.410   0.341   0.597
 1185SOL    HW2 4455   2.356   0.485   0.543
 1186SOL     OW 4456   6.142   0.326   6.205
 1186SOL    HW1 4457   6.145   0.374   6.117
 1186SOL    HW2 4458   6.050   0.292   6.221
 1187SOL     OW 4459   5.317   6.213   5.370
 1187SOL    HW1 4460   5.380   6.178   5.439
 1187SOL    HW2 4461   5.309   6.312   5.379
 1188SOL     OW 4462   3.369   6.638   6.475
 1188SOL    HW1 4463   3.287   6.584   6.455
 1188SOL    HW2 4464   3.414   6.663   6.390
 1189SOL     OW 4465   5.161   1.404   2.052
 1189SOL    HW1 4466   5.100   1.434   2.125
 1189SOL    HW2 4467   5.139   1.309   2.027
 1190SOL     OW 4468   4.140   5.054   4.465
 1190SOL    HW1 4469   4.052   5.010   4.450
 1190SOL    HW2 4470   4.194   5.001   4.530
 1191SOL     OW 4471   3.449   5.309   5.774
 1191SOL    HW1 4472   3.366   5.328   5.826
 1191SOL    HW2 4473   3.515   5.262   5.832
 1192SOL     OW 4474   5.543   4.591   3.028
 1192SOL    HW1 4475   5.507   4.560   3.116
 1192SOL    HW2 4476   5.624   4.537   3.005
 1193SOL     OW 4477   6.545   0.293   4.334
 1193SOL    HW1 4478   6.582   0.202   4.314
 1193SOL    HW2 4479   6.620   0.360   4.333
 1194SOL     OW 4480   0.367   1.223   0.630
 1194SOL    HW1 4481   0.331   1.172   0.551
 1194SOL    HW2 4482   0.426   1.297   0.598
 1195SOL     OW 4483   6.305   1.846   0.554
 1195SOL    HW1 4484   6.212   1.831   0.588
 1195SOL    HW2 4485   6.316   1.943   0.530
 1196SOL     OW 4486   7.012   5.014   1.974
 1196SOL    HW1 4487   7.022   4.987   1.879
 1196SOL    HW2 4488   6.927   4.977   2.011
 1197SOL     OW 4489   3.977   5.952   5.742
 1197SOL    HW1 4490   4.070   5.959   5.706
 1197SOL    HW2 4491   3.943   6.043   5.763
 1198SOL     OW 4492   2.318   2.815   2.355
 1198SOL    HW1 4493   2.360   2.765   2.431
 1198SOL    HW2 4494   2.377   2.809   2.274
 1199SOL     OW 4495   4.058   3.385   2.974
 1199SOL    HW1 4496   4.057   3.481   2.946
 1199SOL    HW2 4497   4.107   3.377   3.061
 1200SOL     OW 4498   4.296   3.540   5.152
 1200SOL    HW1 4499   4.364   3.524   5.079
 1200SOL    HW2 4500   4.325   3.493   5.235
 1201SOL     OW 4501   0.464   1.198   4.332
 1201SOL    HW1 4502   0.518   1.137   4.389
 1201SOL    HW2 4503   0.509   1.288   4.327
 1202SOL     OW 4504   5.892   0.870   5.774
 1202SOL    HW1 4505   5.930   0.913   5.857
 1202SOL    HW2 4506   5.909   0.772   5.777
 1203SOL     OW 4507   5.720   6.890   1.092
 1203SOL    HW1 4508   5.668   6.821   1.142
 1203SOL    HW2 4509   5.695   6.981   1.124
 1204SOL     OW 4510   3.875   1.443   0.147
 1204SOL    HW1 4511   3.878   1.361   0.205
 1204SOL    HW2 4512   3.789   1.444   0.095
 1205SOL     OW 4513   5.232   3.159   6.657
 1205SOL    HW1 4514   5.206   3.143   6.562
 1205SOL    HW2 4515   5.153   3.147   6.716
 1206SOL     OW 4516   1.706   1.441   4.939
 1206SOL    HW1 4517   1.680   1.370   4.873
 1206SOL    HW2 4518   1.672   1.529   4.907
 1207SOL     OW 4519   6.945   6.571   1.134
 1207SOL    HW1 4520   6.936   6.481   1.093
 1207SOL    HW2 4521   7.019   6.621   1.090
 1208SOL     OW 4522   3.811   3.896   2.669
 1208SOL    HW1 4523   3.883   3.952   2.709
 1208SOL    HW2 4524   3.745   3.955   2.622
 1209SOL     OW 4525   5.868   6.489   4.894
 1209SOL    HW1 4526   5.904   6.431   4.967
 1209SOL    HW2 4527   5.938   6.501   4.824
 1210SOL     OW 4528   4.243   6.778   2.714
 1210SOL    HW1 4529   4.333   6.741   2.689
 1210SOL    HW2 4530   4.239   6.790   2.813
 1211SOL     OW 4531   1.532   3.470   3.737
 1211SOL    HW1 4532   1.436   3.455   3.762
 1211SOL    HW2 4533   1.578   3.520   3.810
 1212SOL     OW 4534   0.535   2.794   5.289
 1212SOL    HW1 4535   0.557   2.863   5.358
 1212SOL    HW2 4536   0.526   2.838   5.200
 1213SOL     OW 4537   6.106   2.615   4.816
 1213SOL    HW1 4538   6.091   2.517   4.803
 1213SOL    HW2 4539   6.184   2.630   4.876
 1214SOL     OW 4540   1.384   3.174   3.981
 1214SOL    HW1 4541   1.463   3.120   3.951
 1214SOL    HW2 4542   1.370   3.160   4.079
 1215SOL     OW 4543   1.802   4.546   2.229
 1215SOL    HW1 4544   1.741   4.555   2.150
 1215SOL    HW2 4545   1.897   4.544   2.199
 1216SOL     OW 4546   0.151   7.012   1.436
 1216SOL    HW1 4547   0.213   6.952   1.487
 1216SOL    HW2 4548   0.169   7.004   1.338
 1217SOL     OW 4549   1.555   6.666   0.994
 1217SOL    HW1 4550   1.593   6.598   0.931
 1217SOL    HW2 4551   1.564   6.633   1.088
 1218SOL     OW 4552   1.027   2.728   5.042
 1218SOL    HW1 4553   0.957   2.787   5.084
 1218SOL    HW2 4554   1.070   2.672   5.113
 1219SOL     OW 4555   4.201   4.978   1.129
 1219SOL    HW1 4556   4.268   4.982   1.203
 1219SOL    HW2 4557   4.221   5.049   1.062
 1220SOL     OW 4558   5.311   4.026   2.390
 1220SOL    HW1 4559   5.264   4.114   2.387
 1220SOL    HW2 4560   5.371   4.018   2.310
 1221SOL     OW 4561   6.216   3.480   6.915
 1221SOL    HW1 4562   6.278   3.402   6.915
 1221SOL    HW2 4563   6.219   3.526   6.826
 1222SOL     OW 4564   6.915   0.364   0.906
 1222SOL    HW1 4565   7.003   0.399   0.875
 1222SOL    HW2 4566   6.862   0.438   0.946
 1223SOL     OW 4567   5.345   1.022   0.773
 1223SOL    HW1 4568   5.381   1.036   0.680
 1223SOL    HW2 4569   5.403   0.957   0.822
 1224SOL     OW 4570   3.609   6.096   6.971
 1224SOL    HW1 4571   3.649   6.004   6.970
 1224SOL    HW2 4572   3.512   6.090   6.948
 1225SOL     OW 4573   3.915   2.016   1.086
 1225SOL    HW1 4574   3.881   2.085   1.022
 1225SOL    HW2 4575   3.995   1.971   1.046
 1226SOL     OW 4576   5.732   6.657   0.888
 1226SOL    HW1 4577   5.741   6.722   0.963
 1226SOL    HW2 4578   5.810   6.594   0.889
 1227SOL     OW 4579   6.166   5.063   5.687
 1227SOL    HW1 4580   6.103   4.986   5.701
 1227SOL    HW2 4581   6.259   5.028   5.679
 1228SOL     OW 4582   3.820   3.061   1.175
 1228SOL    HW1 4583   3.884   3.064   1.099
 1228SOL    HW2 4584   3.752   3.134   1.165
 1229SOL     OW 4585   1.836   0.116   2.132
 1229SOL    HW1 4586   1.829   0.078   2.040
 1229SOL    HW2 4587   1.744   0.136   2.166
 1230SOL     OW 4588   5.217   5.662   3.033
 1230SOL    HW1 4589   5.122   5.685   3.056
 1230SOL    HW2 4590   5.244   5.578   3.080
 1231SOL     OW 4591   1.528   2.988   6.011
 1231SOL    HW1 4592   1.538   2.892   5.985
 1231SOL    HW2 4593   1.431   3.010   6.022
 1232SOL     OW 4594   4.314   1.102   5.367
 1232SOL    HW1 4595   4.322   1.113   5.268
 1232SOL    HW2 4596   4.348   1.184   5.412
 1233SOL     OW 4597   0.698   5.255   3.503
 1233SOL    HW1 4598   0.743   5.181   3.452
 1233SOL    HW2 4599   0.764   5.296   3.566
 1234SOL     OW 4600   0.290   2.868   6.739
 1234SOL    HW1 4601   0.366   2.909   6.789
 1234SOL    HW2 4602   0.270   2.922   6.657
 1235SOL     OW 4603   6.267   5.439   6.739
 1235SOL    HW1 4604   6.246   5.522   6.791
 1235SOL    HW2 4605   6.251   5.359   6.796
 1236SOL     OW 4606   3.300   1.679   0.239
 1236SOL    HW1 4607   3.348   1.636   0.163
 1236SOL    HW2 4608   3.332   1.641   0.326
 1237SOL     OW 4609   1.584   6.686   4.891
 1237SOL    HW1 4610   1.567   6.751   4.817
 1237SOL    HW2 4611   1.545   6.597   4.867
 1238SOL     OW 4612   0.384   6.651   3.371
 1238SOL    HW1 4613   0.421   6.698   3.290
 1238SOL    HW2 4614   0.460   6.622   3.429
 1239SOL     OW 4615   6.872   5.125   4.831
 1239SOL    HW1 4616   6.941   5.059   4.803
 1239SOL    HW2 4617   6.782   5.093   4.801
 1240SOL     OW 4618   5.734   5.719   2.191
 1240SOL    HW1 4619   5.678   5.699   2.271
 1240SOL    HW2 4620   5.716   5.650   2.121
 1241SOL     OW 4621   6.765   4.787   4.774
 1241SOL    HW1 4622   6.717   4.867   4.810
 1241SOL    HW2 4623   6.759   4.787   4.674
 1242SOL     OW 4624   1.892   4.300   0.225
 1242SOL    HW1 4625   1.990   4.313   0.240
 1242SOL    HW2 4626   1.878   4.258   0.136
 1243SOL     OW 4627   0.325   2.111   4.965
 1243SOL    HW1 4628   0.354   2.017   4.984
 1243SOL    HW2 4629   0.393   2.156   4.907
 1244SOL     OW 4630   5.222   7.027   5.317
 1244SOL    HW1 4631   5.300   6.965   5.330
 1244SOL    HW2 4632   5.142   6.992   5.366
 1245SOL     OW 4633   5.236   5.693   0.908
 1245SOL    HW1 4634   5.151   5.687   0.960
 1245SOL    HW2 4635   5.234   5.774   0.850
 1246SOL     OW 4636   4.277   1.382   1.990
 1246SOL    HW1 4637   4.249   1.388   2.086
 1246SOL    HW2 4638   4.345   1.310   1.979
 1247SOL     OW 4639   6.369   6.819   4.662
 1247SOL    HW1 4640   6.347   6.804   4.566
 1247SOL    HW2 4641   6.325   6.903   4.694
 1248SOL     OW 4642   0.783   6.102   3.961
 1248SOL    HW1 4643   0.832   6.189   3.954
 1248SOL    HW2 4644   0.684   6.119   3.962
 1249SOL     OW 4645   6.787   4.176   1.509
 1249SOL    HW1 4646   6.695   4.209   1.528
 1249SOL    HW2 4647   6.795   4.080   1.535
 1250SOL     OW 4648   6.360   3.242   5.471
 1250SOL    HW1 4649   6.314   3.326   5.500
 1250SOL    HW2 4650   6.371   3.243   5.372
 1251SOL     OW 4651   2.024   0.850   2.772
 1251SOL    HW1 4652   2.091   0.893   2.710
 1251SOL    HW2 4653   2.072   0.790   2.836
 1252SOL     OW 4654   3.377   5.203   6.439
 1252SOL    HW1 4655   3.292   5.255   6.447
 1252SOL    HW2 4656   3.448   5.245   6.495
 1253SOL     OW 4657   3.050   0.924   1.539
 1253SOL    HW1 4658   2.952   0.934   1.558
 1253SOL    HW2 4659   3.099   1.004   1.574
 1254SOL     OW 4660   6.387   1.384   3.152
 1254SOL    HW1 4661   6.374   1.460   3.088
 1254SOL    HW2 4662   6.481   1.385   3.186
 1255SOL     OW 4663   5.655   2.866   5.238
 1255SOL    HW1 4664   5.619   2.794   5.179
 1255SOL    HW2 4665   5.749   2.887   5.212
 1256SOL     OW 4666   6.703   6.227   3.157
 1256SOL    HW1 4667   6.787   6.279   3.177
 1256SOL    HW2 4668   6.667   6.188   3.242
 1257SOL     OW 4669   6.962   4.516   4.439
 1257SOL    HW1 4670   6.985   4.470   4.525
 1257SOL    HW2 4671   6.920   4.450   4.376
 1258SOL     OW 4672   2.223   6.317   3.092
 1258SOL    HW1 4673   2.167   6.236   3.073
 1258SOL    HW2 4674   2.306   6.289   3.141
 1259SOL     OW 4675   3.594   6.910   5.025
 1259SOL    HW1 4676   3.657   6.838   5.054
 1259SOL    HW2 4677   3.506   6.869   5.002
 1260SOL     OW 4678   3.034   0.990   2.028
 1260SOL    HW1 4679   3.075   1.025   2.113
 1260SOL    HW2 4680   2.959   0.928   2.049
 1261SOL     OW 4681   6.803   3.284   0.370
 1261SOL    HW1 4682   6.734   3.348   0.404
 1261SOL    HW2 4683   6.774   3.248   0.282
 1262SOL     OW 4684   4.650   4.410   1.300
 1262SOL    HW1 4685   4.566   4.458   1.327
 1262SOL    HW2 4686   4.671   4.431   1.205
 1263SOL     OW 4687   6.116   2.092   1.502
 1263SOL    HW1 4688   6.205   2.076   1.544
 1263SOL    HW2 4689   6.068   2.005   1.491
 1264SOL     OW 4690   0.277   4.323   2.950
 1264SOL    HW1 4691   0.275   4.389   3.025
 1264SOL    HW2 4692   0.319   4.238   2.982
 1265SOL     OW 4693   6.604   4.416   3.845
 1265SOL    HW1 4694   6.681   4.445   3.902
 1265SOL    HW2 4695   6.561   4.496   3.803
 1266SOL     OW 4696   2.474   1.387   4.302
 1266SOL    HW1 4697   2.536   1.338   4.363
 1266SOL    HW2 4698   2.384   1.394   4.344
 1267SOL     OW 4699   5.884   5.744   1.524
 1267SOL    HW1 4700   5.903   5.765   1.429
 1267SOL    HW2 4701   5.785   5.747   1.540
 1268SOL     OW 4702   4.991   2.375   0.474
 1268SOL    HW1 4703   5.004   2.372   0.573
 1268SOL    HW2 4704   5.070   2.333   0.429
 1269SOL     OW 4705   6.035   6.442   5.124
 1269SOL    HW1 4706   5.998   6.514   5.183
 1269SOL    HW2 4707   6.102   6.388   5.175
 1270SOL     OW 4708   2.174   3.935   4.080
 1270SOL    HW1 4709   2.150   3.923   4.176
 1270SOL    HW2 4710   2.206   3.848   4.042
 1271SOL     OW 4711   3.513   1.733   2.774
 1271SOL    HW1 4712   3.579   1.806   2.758
 1271SOL    HW2 4713   3.561   1.645   2.781
 1272SOL     OW 4714   0.079   6.011   1.248
 1272SOL    HW1 4715   0.113   5.924   1.283
 1272SOL    HW2 4716   0.147   6.052   1.187
 1273SOL     OW 4717   2.103   3.858   6.991
 1273SOL    HW1 4718   2.023   3.911   6.962
 1273SOL    HW2 4719   2.145   3.815   6.911
 1274SOL     OW 4720   0.052   2.930   1.558
 1274SOL    HW1 4721   0.086   3.013   1.602
 1274SOL    HW2 4722   0.064   2.937   1.459
 1275SOL     OW 4723   4.774   0.625   3.398
 1275SOL    HW1 4724   4.843   0.649   3.467
 1275SOL    HW2 4725   4.715   0.553   3.434
 1276SOL     OW 4726   0.014   0.425   3.806
 1276SOL    HW1 4727   6.944   0.418   3.789
 1276SOL    HW2 4728   0.055   0.489   3.740
 1277SOL     OW 4729   1.025   0.828   4.531
 1277SOL    HW1 4730   1.091   0.882   4.582
 1277SOL    HW2 4731   0.945   0.884   4.510
 1278SOL     OW 4732   1.653   1.776   5.122
 1278SOL    HW1 4733   1.567   1.736   5.156
 1278SOL    HW2 4734   1.633   1.859   5.070
 1279SOL     OW 4735   2.335   0.004   0.682
 1279SOL    HW1 4736   2.242   6.995   0.678
 1279SOL    HW2 4737   2.382   7.014   0.595
 1280SOL     OW 4738   2.560   6.619   3.460
 1280SOL    HW1 4739   2.655   6.650   3.455
 1280SOL    HW2 4740   2.556   6.520   3.446
 1281SOL     OW 4741   1.147   5.460   3.083
 1281SOL    HW1 4742   1.244   5.449   3.107
 1281SOL    HW2 4743   1.094   5.389   3.128
 1282SOL     OW 4744   1.045   1.173   0.722
 1282SOL    HW1 4745   0.995   1.089   0.742
 1282SOL    HW2 4746   1.023   1.242   0.791
 1283SOL     OW 4747   5.508   3.116   5.291
 1283SOL    HW1 4748   5.565   3.035   5.295
 1283SOL    HW2 4749   5.411   3.089   5.295
 1284SOL     OW 4750   3.219   2.852   2.028
 1284SOL    HW1 4751   3.168   2.807   1.954
 1284SOL    HW2 4752   3.206   2.801   2.113
 1285SOL     OW 4753   5.573   3.698   6.190
 1285SOL    HW1 4754   5.576   3.599   6.182
 1285SOL    HW2 4755   5.544   3.724   6.282
 1286SOL     OW 4756   4.465   4.521   2.699
 1286SOL    HW1 4757   4.443   4.570   2.614
 1286SOL    HW2 4758   4.504   4.432   2.677
 1287SOL     OW 4759   5.308   4.376   6.197
 1287SOL    HW1 4760   5.401   4.410   6.208
 1287SOL    HW2 4761   5.254   4.401   6.278
 1288SOL     OW 4762   6.651   3.170   1.545
 1288SOL    HW1 4763   6.700   3.085   1.528
 1288SOL    HW2 4764   6.640   3.220   1.459
 1289SOL     OW 4765   0.687   6.147   1.783
 1289SOL    HW1 4766   0.593   6.180   1.772
 1289SOL    HW2 4767   0.722   6.177   1.872
 1290SOL     OW 4768   0.774   0.939   0.350
 1290SOL    HW1 4769   0.809   1.027   0.318
 1290SOL    HW2 4770   0.732   0.951   0.440
 1291SOL     OW 4771   1.488   4.621   6.091
 1291SOL    HW1 4772   1.398   4.606   6.049
 1291SOL    HW2 4773   1.542   4.538   6.084
 1292SOL     OW 4774   6.570   4.969   2.180
 1292SOL    HW1 4775   6.592   5.064   2.199
 1292SOL    HW2 4776   6.490   4.964   2.120
 1293SOL     OW 4777   2.793   1.609   6.211
 1293SOL    HW1 4778   2.759   1.526   6.166
 1293SOL    HW2 4779   2.868   1.647   6.158
 1294SOL     OW 4780   0.696   3.051   0.743
 1294SOL    HW1 4781   0.786   3.020   0.775
 1294SOL    HW2 4782   0.700   3.065   0.644
 1295SOL     OW 4783   6.681   3.519   2.444
 1295SOL    HW1 4784   6.721   3.601   2.402
 1295SOL    HW2 4785   6.692   3.523   2.543
 1296SOL     OW 4786   4.190   1.197   6.157
 1296SOL    HW1 4787   4.130   1.268   6.121
 1296SOL    HW2 4788   4.260   1.174   6.089
 1297SOL     OW 4789   5.835   1.010   6.682
 1297SOL    HW1 4790   5.828   0.967   6.772
 1297SOL    HW2 4791   5.746   1.005   6.635
 1298SOL     OW 4792   6.329   3.354   3.719
 1298SOL    HW1 4793   6.270   3.431   3.696
 1298SOL    HW2 4794   6.307   3.322   3.811
 1299SOL     OW 4795   1.349   3.892   2.996
 1299SOL    HW1 4796   1.378   3.831   2.923
 1299SOL    HW2 4797   1.418   3.963   3.010
 1300SOL     OW 4798   3.868   3.317   2.111
 1300SOL    HW1 4799   3.823   3.313   2.022
 1300SOL    HW2 4800   3.907   3.227   2.133
 1301SOL     OW 4801   1.177   5.582   2.538
 1301SOL    HW1 4802   1.230   5.664   2.518
 1301SOL    HW2 4803   1.079   5.603   2.529
 1302SOL     OW 4804   3.041   6.670   4.836
 1302SOL    HW1 4805   3.082   6.761   4.831
 1302SOL    HW2 4806   3.043   6.638   4.930
 1303SOL     OW 4807   4.354   1.658   0.457
 1303SOL    HW1 4808   4.273   1.671   0.513
 1303SOL    HW2 4809   4.352   1.566   0.416
 1304SOL     OW 4810   2.070   1.710   6.621
 1304SOL    HW1 4811   2.099   1.750   6.708
 1304SOL    HW2 4812   1.971   1.725   6.609
 1305SOL     OW 4813   5.905   5.824   6.778
 1305SOL    HW1 4814   5.982   5.788   6.832
 1305SOL    HW2 4815   5.940   5.886   6.708
 1306SOL     OW 4816   0.424   4.703   5.647
 1306SOL    HW1 4817   0.405   4.791   5.604
 1306SOL    HW2 4818   0.522   4.682   5.638
 1307SOL     OW 4819   1.646   3.096   3.938
 1307SOL    HW1 4820   1.738   3.114   3.973
 1307SOL    HW2 4821   1.627   2.998   3.943
 1308SOL     OW 4822   3.768   6.053   4.784
 1308SOL    HW1 4823   3.747   5.984   4.715
 1308SOL    HW2 4824   3.811   6.009   4.863
 1309SOL     OW 4825   5.240   3.080   5.374
 1309SOL    HW1 4826   5.186   3.074   5.290
 1309SOL    HW2 4827   5.187   3.044   5.451
 1310SOL     OW 4828   5.856   3.772   5.084
 1310SOL    HW1 4829   5.765   3.740   5.058
 1310SOL    HW2 4830   5.880   3.854   5.031
 1311SOL     OW 4831   6.543   6.374   4.121
 1311SOL    HW1 4832   6.573   6.418   4.206
 1311SOL    HW2 4833   6.469   6.427   4.080
 1312SOL     OW 4834   0.968   0.293   6.906
 1312SOL    HW1 4835   0.915   0.234   6.845
 1312SOL    HW2 4836   1.064   0.267   6.903
 1313SOL     OW 4837   1.857   5.477   5.522
 1313SOL    HW1 4838   1.945   5.432   5.540
 1313SOL    HW2 4839   1.812   5.432   5.444
 1314SOL     OW 4840   2.139   1.806   5.649
 1314SOL    HW1 4841   2.078   1.811   5.729
 1314SOL    HW2 4842   2.114   1.727   5.593
 1315SOL     OW 4843   0.820   1.174   0.167
 1315SOL    HW1 4844   0.838   1.170   0.068
 1315SOL    HW2 4845   0.894   1.224   0.212
 1316SOL     OW 4846   2.340   0.221   3.292
 1316SOL    HW1 4847   2.276   0.286   3.251
 1316SOL    HW2 4848   2.433   0.242   3.261
 1317SOL     OW 4849   0.907   4.185   4.841
 1317SOL    HW1 4850   0.851   4.126   4.783
 1317SOL    HW2 4851   0.985   4.219   4.789
 1318SOL     OW 4852   0.061   0.875   0.442
 1318SOL    HW1 4853   6.997   0.854   0.409
 1318SOL    HW2 4854   0.059   0.883   0.542
 1319SOL     OW 4855   6.771   1.752   0.090
 1319SOL    HW1 4856   6.698   1.763   0.023
 1319SOL    HW2 4857   6.852   1.803   0.060
 1320SOL     OW 4858   5.923   3.930   0.147
 1320SOL    HW1 4859   5.896   4.022   0.178
 1320SOL    HW2 4860   5.945   3.874   0.227
 1321SOL     OW 4861   4.321   2.635   6.526
 1321SOL    HW1 4862   4.314   2.620   6.427
 1321SOL    HW2 4863   4.416   2.656   6.550
 1322SOL     OW 4864   5.584   0.888   3.259
 1322SOL    HW1 4865   5.602   0.984   3.236
 1322SOL    HW2 4866   5.486   0.870   3.249
 1323SOL     OW 4867   4.967   2.102   5.222
 1323SOL    HW1 4868   5.025   2.080   5.143
 1323SOL    HW2 4869   5.011   2.070   5.306
 1324SOL     OW 4870   1.330   2.527   1.738
 1324SOL    HW1 4871   1.358   2.527   1.834
 1324SOL    HW2 4872   1.264   2.453   1.723
 1325SOL     OW 4873   3.098   0.042   2.224
 1325SOL    HW1 4874   3.197   0.036   2.239
 1325SOL    HW2 4875   3.051   7.002   2.281
 1326SOL     OW 4876   5.083   2.832   4.770
 1326SOL    HW1 4877   4.992   2.846   4.809
 1326SOL    HW2 4878   5.097   2.896   4.694
 1327SOL     OW 4879   2.946   5.669   2.811
 1327SOL    HW1 4880   2.929   5.736   2.883
 1327SOL    HW2 4881   3.045   5.655   2.802
 1328SOL     OW 4882   0.983   3.173   0.401
 1328SOL    HW1 4883   1.026   3.148   0.314
 1328SOL    HW2 4884   1.042   3.236   0.452
 1329SOL     OW 4885   6.911   1.563   0.301
 1329SOL    HW1 4886   6.917   1.621   0.220
 1329SOL    HW2 4887   6.964   1.480   0.286
 1330SOL     OW 4888   6.920   7.012   0.983
 1330SOL    HW1 4889   6.874   0.067   1.018
 1330SOL    HW2 4890   7.019   7.022   0.994
 1331SOL     OW 4891   4.380   2.029   2.878
 1331SOL    HW1 4892   4.283   2.011   2.860
 1331SOL    HW2 4893   4.435   1.986   2.807
 1332SOL     OW 4894   3.150   0.319   0.032
 1332SOL    HW1 4895   3.064   0.352   7.019
 1332SOL    HW2 4896   3.135   0.295   0.128
 1333SOL     OW 4897   4.006   3.763   6.578
 1333SOL    HW1 4898   3.997   3.816   6.663
 1333SOL    HW2 4899   3.928   3.782   6.519
 1334SOL     OW 4900   0.718   2.855   4.291
 1334SOL    HW1 4901   0.734   2.798   4.371
 1334SOL    HW2 4902   0.710   2.951   4.319
 1335SOL     OW 4903   3.078   6.264   3.089
 1335SOL    HW1 4904   3.136   6.341   3.113
 1335SOL    HW2 4905   3.057   6.268   2.991
 1336SOL     OW 4906   1.868   1.200   6.311
 1336SOL    HW1 4907   1.963   1.171   6.326
 1336SOL    HW2 4908   1.822   1.133   6.253
 1337SOL     OW 4909   0.925   1.946   4.881
 1337SOL    HW1 4910   0.979   1.921   4.961
 1337SOL    HW2 4911   0.828   1.946   4.904
 1338SOL     OW 4912   4.454   3.613   6.090
 1338SOL    HW1 4913   4.504   3.663   6.019
 1338SOL    HW2 4914   4.407   3.679   6.149
 1339SOL     OW 4915   0.481   6.578   0.011
 1339SOL    HW1 4916   0.548   6.653   0.011
 1339SOL    HW2 4917   0.527   6.493   0.036
 1340SOL     OW 4918   1.107   1.278   1.946
 1340SOL    HW1 4919   1.101   1.356   1.884
 1340SOL    HW2 4920   1.115   1.194   1.893
 1341SOL     OW 4921   3.796   0.281   5.435
 1341SOL    HW1 4922   3.738   0.209   5.395
 1341SOL    HW2 4923   3.786   0.365   5.381
 1342SOL     OW 4924   1.125   5.216   6.319
 1342SOL    HW1 4925   1.063   5.178   6.250
 1342SOL    HW2 4926   1.149   5.144   6.385
 1343SOL     OW 4927   3.953   6.737   2.719
 1343SOL    HW1 4928   3.926   6.641   2.721
 1343SOL    HW2 4929   4.045   6.745   2.681
 1344SOL     OW 4930   0.046   3.672   3.461
 1344SOL    HW1 4931   7.019   3.663   3.545
 1344SOL    HW2 4932   0.098   3.589   3.446
 1345SOL     OW 4933   0.630   1.470   3.499
 1345SOL    HW1 4934   0.704   1.442   3.438
 1345SOL    HW2 4935   0.669   1.504   3.585
 1346SOL     OW 4936   1.735   0.206   2.785
 1346SOL    HW1 4937   1.784   0.240   2.864
 1346SOL    HW2 4938   1.801   0.180   2.714
 1347SOL     OW 4939   6.560   6.137   3.808
 1347SOL    HW1 4940   6.515   6.227   3.807
 1347SOL    HW2 4941   6.557   6.100   3.900
 1348SOL     OW 4942   5.779   5.309   3.077
 1348SOL    HW1 4943   5.802   5.258   2.994
 1348SOL    HW2 4944   5.711   5.379   3.056
 1349SOL     OW 4945   5.107   2.837   6.644
 1349SOL    HW1 4946   5.100   2.897   6.564
 1349SOL    HW2 4947   5.064   2.882   6.722
 1350SOL     OW 4948   4.102   4.818   0.005
 1350SOL    HW1 4949   4.170   4.759   6.988
 1350SOL    HW2 4950   4.140   4.910   0.015
 1351SOL     OW 4951   0.695   1.260   3.138
 1351SOL    HW1 4952   0.686   1.288   3.042
 1351SOL    HW2 4953   0.613   1.210   3.166
 1352SOL     OW 4954   0.238   0.640   3.370
 1352SOL    HW1 4955   0.303   0.702   3.414
 1352SOL    HW2 4956   0.285   0.590   3.297
 1353SOL     OW 4957   0.037   4.093   5.798
 1353SOL    HW1 4958   0.130   4.096   5.835
 1353SOL    HW2 4959   7.009   4.031   5.853
 1354SOL     OW 4960   6.812   1.810   0.522
 1354SOL    HW1 4961   6.762   1.785   0.439
 1354SOL    HW2 4962   6.886   1.745   0.537
 1355SOL     OW 4963   5.294   3.288   6.152
 1355SOL    HW1 4964   5.326   3.272   6.246
 1355SOL    HW2 4965   5.224   3.359   6.153
 1356SOL     OW 4966   3.245   3.728   4.603
 1356SOL    HW1 4967   3.147   3.736   4.585
 1356SOL    HW2 4968   3.275   3.804   4.660
 1357SOL     OW 4969   2.869   2.890   5.809
 1357SOL    HW1 4970   2.883   2.909   5.906
 1357SOL    HW2 4971   2.771   2.884   5.790
 1358SOL     OW 4972   2.891   2.098   6.139
 1358SOL    HW1 4973   2.828   2.129   6.209
 1358SOL    HW2 4974   2.968   2.051   6.181
 1359SOL     OW 4975   6.826   4.598   1.249
 1359SOL    HW1 4976   6.861   4.606   1.156
 1359SOL    HW2 4977   6.875   4.662   1.309
 1360SOL     OW 4978   4.123   3.608   2.755
 1360SOL    HW1 4979   4.189   3.657   2.699
 1360SOL    HW2 4980   4.120   3.648   2.847
 1361SOL     OW 4981   6.739   6.887   6.487
 1361SOL    HW1 4982   6.736   6.954   6.413
 1361SOL    HW2 4983   6.784   6.804   6.454
 1362SOL     OW 4984   2.910   3.705   5.057
 1362SOL    HW1 4985   2.861   3.627   5.097
 1362SOL    HW2 4986   3.001   3.676   5.029
 1363SOL     OW 4987   6.947   6.392   4.235
 1363SOL    HW1 4988   6.942   6.321   4.306
 1363SOL    HW2 4989   6.927   6.352   4.146
 1364SOL     OW 4990   6.941   2.514   6.805
 1364SOL    HW1 4991   6.915   2.488   6.898
 1364SOL    HW2 4992   6.859   2.537   6.753
 1365SOL     OW 4993   1.456   3.415   5.200
 1365SOL    HW1 4994   1.363   3.416   5.163
 1365SOL    HW2 4995   1.473   3.327   5.244
 1366SOL     OW 4996   0.632   3.927   0.955
 1366SOL    HW1 4997   0.591   3.920   1.046
 1366SOL    HW2 4998   0.699   3.854   0.943
 1367SOL     OW 4999   1.387   4.968   2.918
 1367SOL    HW1 5000   1.379   5.018   3.004
 1367SOL    HW2 5001   1.386   4.870   2.936
 1368SOL     OW 5002   6.661   0.531   4.043
 1368SOL    HW1 5003   6.565   0.556   4.033
 1368SOL    HW2 5004   6.687   0.540   4.139
 1369SOL     OW 5005   2.296   6.532   1.991
 1369SOL    HW1 5006   2.263   6.595   1.921
 1369SOL    HW2 5007   2.291   6.438   1.956
 1370SOL     OW 5008   6.573   2.141   4.271
 1370SOL    HW1 5009   6.583   2.086   4.187
 1370SOL    HW2 5010   6.514   2.219   4.252
 1371SOL     OW 5011   4.927   1.125   4.734
 1371SOL    HW1 5012   5.014   1.131   4.783
 1371SOL    HW2 5013   4.908   1.212   4.689
 1372SOL     OW 5014   6.828   2.201   0.937
 1372SOL    HW1 5015   6.859   2.153   0.855
 1372SOL    HW2 5016   6.793   2.135   1.003
 1373SOL     OW 5017   5.055   1.858   0.577
 1373SOL    HW1 5018   5.073   1.820   0.668
 1373SOL    HW2 5019   4.982   1.925   0.583
 1374SOL     OW 5020   5.482   4.306   6.926
 1374SOL    HW1 5021   5.395   4.344   6.894
 1374SOL    HW2 5022   5.465   4.219   6.972
 1375SOL     OW 5023   6.940   6.668   6.373
 1375SOL    HW1 5024   7.012   6.644   6.437
 1375SOL    HW2 5025   6.976   6.730   6.303
 1376SOL     OW 5026   3.373   4.844   6.204
 1376SOL    HW1 5027   3.429   4.862   6.123
 1376SOL    HW2 5028   3.430   4.852   6.286
 1377SOL     OW 5029   1.122   2.875   3.770
 1377SOL    HW1 5030   1.042   2.819   3.749
 1377SOL    HW2 5031   1.116   2.908   3.864
 1378SOL     OW 5032   5.223   2.353   4.921
 1378SOL    HW1 5033   5.129   2.365   4.889
 1378SOL    HW2 5034   5.287   2.391   4.854
 1379SOL     OW 5035   4.417   5.485   3.059
 1379SOL    HW1 5036   4.350   5.449   3.123
 1379SOL    HW2 5037   4.491   5.418   3.047
 1380SOL     OW 5038   0.001   6.186   2.885
 1380SOL    HW1 5039   6.954   6.210   2.823
 1380SOL    HW2 5040   7.019   6.238   2.970
 1381SOL     OW 5041   5.865   1.703   6.925
 1381SOL    HW1 5042   5.768   1.689   6.906
 1381SOL    HW2 5043   5.909   1.614   6.942
 1382SOL     OW 5044   4.867   2.816   1.140
 1382SOL    HW1 5045   4.773   2.819   1.174
 1382SOL    HW2 5046   4.928   2.785   1.213
 1383SOL     OW 5047   1.002   0.268   1.360
 1383SOL    HW1 5048   1.050   0.319   1.288
 1383SOL    HW2 5049   1.056   0.188   1.385
 1384SOL     OW 5050   4.676   7.008   1.474
 1384SOL    HW1 5051   4.658   6.963   1.387
 1384SOL    HW2 5052   4.769   6.985   1.505
 1385SOL     OW 5053   2.329   4.742   3.485
 1385SOL    HW1 5054   2.339   4.826   3.432
 1385SOL    HW2 5055   2.261   4.755   3.557
 1386SOL     OW 5056   3.451   0.561   3.540
 1386SOL    HW1 5057   3.425   0.489   3.604
 1386SOL    HW2 5058   3.378   0.628   3.533
 1387SOL     OW 5059   2.997   5.887   2.262
 1387SOL    HW1 5060   2.914   5.923   2.306
 1387SOL    HW2 5061   3.028   5.807   2.312
 1388SOL     OW 5062   6.441   6.717   2.233
 1388SOL    HW1 5063   6.360   6.754   2.280
 1388SOL    HW2 5064   6.522   6.734   2.288
 1389SOL     OW 5065   6.117   1.953   4.074
 1389SOL    HW1 5066   6.193   1.940   4.138
 1389SOL    HW2 5067   6.088   2.048   4.076
 1390SOL     OW 5068   0.422   3.724   6.579
 1390SOL    HW1 5069   0.512   3.682   6.566
 1390SOL    HW2 5070   0.398   3.723   6.676
 1391SOL     OW 5071   6.117   6.714   4.824
 1391SOL    HW1 5072   6.169   6.789   4.784
 1391SOL    HW2 5073   6.145   6.628   4.782
 1392SOL     OW 5074   5.919   5.976   6.178
 1392SOL    HW1 5075   5.969   6.007   6.259
 1392SOL    HW2 5076   5.822   5.999   6.188
 1393SOL     OW 5077   6.324   4.772   5.426
 1393SOL    HW1 5078   6.355   4.825   5.504
 1393SOL    HW2 5079   6.361   4.811   5.342
 1394SOL     OW 5080   2.882   5.287   5.030
 1394SOL    HW1 5081   2.872   5.366   5.091
 1394SOL    HW2 5082   2.926   5.316   4.945
 1395SOL     OW 5083   2.562   4.061   5.519
 1395SOL    HW1 5084   2.579   3.995   5.446
 1395SOL    HW2 5085   2.615   4.144   5.502
 1396SOL     OW 5086   1.213   1.125   5.172
 1396SOL    HW1 5087   1.166   1.212   5.162
 1396SOL    HW2 5088   1.296   1.125   5.116
 1397SOL     OW 5089   0.419   0.183   3.682
 1397SOL    HW1 5090   0.383   0.256   3.624
 1397SOL    HW2 5091   0.428   0.099   3.628
 1398SOL     OW 5092   3.058   0.518   6.287
 1398SOL    HW1 5093   2.979   0.477   6.333
 1398SOL    HW2 5094   3.137   0.516   6.348
 1399SOL     OW 5095   3.581   5.293   0.443
 1399SOL    HW1 5096   3.609   5.234   0.518
 1399SOL    HW2 5097   3.563   5.385   0.478
 1400SOL     OW 5098   0.119   1.315   3.169
 1400SOL    HW1 5099   0.077   1.251   3.105
 1400SOL    HW2 5100   0.204   1.350   3.130
 1401SOL     OW 5101   6.328   1.557   4.652
 1401SOL    HW1 5102   6.285   1.635   4.698
 1401SOL    HW2 5103   6.257   1.493   4.621
 1402SOL     OW 5104   0.126   3.628   0.024
 1402SOL    HW1 5105   0.203   3.659   0.080
 1402SOL    HW2 5106   0.153   3.546   7.001
 1403SOL     OW 5107   2.133   2.290   1.890
 1403SOL    HW1 5108   2.229   2.300   1.866
 1403SOL    HW2 5109   2.104   2.369   1.945
 1404SOL     OW 5110   5.514   6.543   0.181
 1404SOL    HW1 5111   5.545   6.455   0.146
 1404SOL    HW2 5112   5.586   6.584   0.236
 1405SOL     OW 5113   1.948   3.834   1.222
 1405SOL    HW1 5114   2.004   3.899   1.170
 1405SOL    HW2 5115   1.987   3.822   1.314
 1406SOL     OW 5116   1.131   5.455   0.908
 1406SOL    HW1 5117   1.072   5.532   0.883
 1406SOL    HW2 5118   1.222   5.489   0.932
 1407SOL     OW 5119   0.478   2.472   2.709
 1407SOL    HW1 5120   0.524   2.511   2.788
 1407SOL    HW2 5121   0.490   2.373   2.708
 1408SOL     OW 5122   5.481   1.200   5.691
 1408SOL    HW1 5123   5.553   1.184   5.758
 1408SOL    HW2 5124   5.441   1.291   5.706
 1409SOL     OW 5125   0.663   0.958   5.266
 1409SOL    HW1 5126   0.714   1.038   5.235
 1409SOL    HW2 5127   0.685   0.880   5.208
 1410SOL     OW 5128   1.634   3.338   6.318
 1410SOL    HW1 5129   1.606   3.339   6.414
 1410SOL    HW2 5130   1.552   3.345   6.260
 1411SOL     OW 5131   3.158   6.569   1.264
 1411SOL    HW1 5132   3.203   6.516   1.336
 1411SOL    HW2 5133   3.225   6.592   1.194
 1412SOL     OW 5134   0.438   1.912   0.824
 1412SOL    HW1 5135   0.537   1.912   0.834
 1412SOL    HW2 5136   0.407   2.003   0.795
 1413SOL     OW 5137   1.881   1.876   5.546
 1413SOL    HW1 5138   1.948   1.950   5.537
 1413SOL    HW2 5139   1.925   1.789   5.528
 1414SOL     OW 5140   2.336   1.518   2.255
 1414SOL    HW1 5141   2.410   1.527   2.188
 1414SOL    HW2 5142   2.249   1.504   2.208
 1415SOL     OW 5143   2.338   0.754   4.660
 1415SOL    HW1 5144   2.408   0.767   4.590
 1415SOL    HW2 5145   2.370   0.794   4.746
 1416SOL     OW 5146   4.929   5.077   4.499
 1416SOL    HW1 5147   5.004   5.142   4.489
 1416SOL    HW2 5148   4.945   5.019   4.579
 1417SOL     OW 5149   2.726   2.254   0.341
 1417SOL    HW1 5150   2.813   2.246   0.292
 1417SOL    HW2 5151   2.657   2.197   0.296
 1418SOL     OW 5152   2.997   3.695   3.673
 1418SOL    HW1 5153   3.046   3.646   3.745
 1418SOL    HW2 5154   2.904   3.658   3.665
 1419SOL     OW 5155   2.387   5.575   4.627
 1419SOL    HW1 5156   2.323   5.509   4.666
 1419SOL    HW2 5157   2.436   5.533   4.550
 1420SOL     OW 5158   2.578   0.206   1.078
 1420SOL    HW1 5159   2.483   0.177   1.071
 1420SOL    HW2 5160   2.633   0.133   1.118
 1421SOL     OW 5161   1.984   4.264   3.204
 1421SOL    HW1 5162   1.912   4.256   3.272
 1421SOL    HW2 5163   2.053   4.194   3.220
 1422SOL     OW 5164   1.227   3.718   1.658
 1422SOL    HW1 5165   1.170   3.666   1.594
 1422SOL    HW2 5166   1.307   3.754   1.610
 1423SOL     OW 5167   5.193   6.270   3.070
 1423SOL    HW1 5168   5.103   6.258   3.027
 1423SOL    HW2 5169   5.187   6.247   3.167
 1424SOL     OW 5170   6.579   5.464   6.330
 1424SOL    HW1 5171   6.514   5.483   6.403
 1424SOL    HW2 5172   6.672   5.483   6.361
 1425SOL     OW 5173   1.121   6.256   4.718
 1425SOL    HW1 5174   1.094   6.189   4.786
 1425SOL    HW2 5175   1.052   6.258   4.645
 1426SOL     OW 5176   1.816   3.582   6.354
 1426SOL    HW1 5177   1.909   3.583   6.391
 1426SOL    HW2 5178   1.773   3.494   6.374
 1427SOL     OW 5179   0.113   6.846   3.773
 1427SOL    HW1 5180   0.173   6.885   3.703
 1427SOL    HW2 5181   0.167   6.813   3.850
 1428SOL     OW 5182   6.640   3.412   0.547
 1428SOL    HW1 5183   6.617   3.464   0.629
 1428SOL    HW2 5184   6.590   3.325   0.549
 1429SOL     OW 5185   4.743   2.300   0.143
 1429SOL    HW1 5186   4.661   2.250   0.115
 1429SOL    HW2 5187   4.777   2.264   0.229
 1430SOL     OW 5188   1.829   4.278   4.237
 1430SOL    HW1 5189   1.880   4.259   4.152
 1430SOL    HW2 5190   1.776   4.361   4.226
 1431SOL     OW 5191   2.611   2.132   1.156
 1431SOL    HW1 5192   2.514   2.144   1.135
 1431SOL    HW2 5193   2.652   2.220   1.178
 1432SOL     OW 5194   2.784   1.331   2.325
 1432SOL    HW1 5195   2.790   1.333   2.225
 1432SOL    HW2 5196   2.808   1.239   2.358
 1433SOL     OW 5197   3.826   0.720   5.441
 1433SOL    HW1 5198   3.922   0.707   5.413
 1433SOL    HW2 5199   3.823   0.763   5.531
 1434SOL     OW 5200   0.236   0.208   5.596
 1434SOL    HW1 5201   0.170   0.228   5.524
 1434SOL    HW2 5202   0.191   0.159   5.670
 1435SOL     OW 5203   6.080   0.366   3.324
 1435SOL    HW1 5204   6.105   0.332   3.414
 1435SOL    HW2 5205   6.034   0.294   3.272
 1436SOL     OW 5206   5.578   3.843   0.158
 1436SOL    HW1 5207   5.495   3.801   0.195
 1436SOL    HW2 5208   5.562   3.941   0.141
 1437SOL     OW 5209   2.735   2.241   3.407
 1437SOL    HW1 5210   2.710   2.169   3.342
 1437SOL    HW2 5211   2.833   2.234   3.427
 1438SOL     OW 5212   3.176   5.787   1.354
 1438SOL    HW1 5213   3.265   5.814   1.316
 1438SOL    HW2 5214   3.177   5.797   1.453
 1439SOL     OW 5215   0.037   5.594   1.464
 1439SOL    HW1 5216   0.062   5.502   1.435
 1439SOL    HW2 5217   0.041   5.599   1.564
 1440SOL     OW 5218   3.223   2.971   6.955
 1440SOL    HW1 5219   3.175   3.053   6.984
 1440SOL    HW2 5220   3.163   2.916   6.897
 1441SOL     OW 5221   6.070   0.669   4.060
 1441SOL    HW1 5222   6.000   0.668   4.132
 1441SOL    HW2 5223   6.072   0.759   4.016
 1442SOL     OW 5224   0.666   5.950   0.279
 1442SOL    HW1 5225   0.650   5.856   0.310
 1442SOL    HW2 5226   0.598   5.974   0.210
 1443SOL     OW 5227   0.528   3.063   3.641
 1443SOL    HW1 5228   0.535   3.147   3.695
 1443SOL    HW2 5229   0.612   3.009   3.654
 1444SOL     OW 5230   4.854   5.974   0.998
 1444SOL    HW1 5231   4.851   6.041   1.073
 1444SOL    HW2 5232   4.914   6.008   0.926
 1445SOL     OW 5233   0.982   2.697   3.259
 1445SOL    HW1 5234   1.076   2.718   3.286
 1445SOL    HW2 5235   0.953   2.611   3.301
 1446SOL     OW 5236   6.229   1.657   0.107
 1446SOL    HW1 5237   6.290   1.668   0.030
 1446SOL    HW2 5238   6.208   1.560   0.119
 1447SOL     OW 5239   5.986   6.064   4.378
 1447SOL    HW1 5240   6.027   5.983   4.336
 1447SOL    HW2 5241   6.017   6.072   4.472
 1448SOL     OW 5242   6.678   3.127   5.296
 1448SOL    HW1 5243   6.763   3.168   5.330
 1448SOL    HW2 5244   6.626   3.092   5.373
 1449SOL     OW 5245   1.746   3.203   5.873
 1449SOL    HW1 5246   1.755   3.104   5.861
 1449SOL    HW2 5247   1.764   3.249   5.786
 1450SOL     OW 5248   1.302   1.900   0.183
 1450SOL    HW1 5249   1.402   1.893   0.177
 1450SOL    HW2 5250   1.261   1.812   0.162
 1451SOL     OW 5251   0.945   5.721   2.473
 1451SOL    HW1 5252   0.918   5.726   2.377
 1451SOL    HW2 5253   0.944   5.813   2.513
 1452SOL     OW 5254   4.363   2.093   5.286
 1452SOL    HW1 5255   4.388   1.999   5.262
 1452SOL    HW2 5256   4.436   2.134   5.340
 1453SOL     OW 5257   0.489   4.167   6.057
 1453SOL    HW1 5258   0.582   4.132   6.070
 1453SOL    HW2 5259   0.489   4.267   6.061
 1454SOL     OW 5260   0.330   2.553   2.221
 1454SOL    HW1 5261   0.323   2.454   2.210
 1454SOL    HW2 5262   0.383   2.591   2.145
 1455SOL     OW 5263   1.587   6.797   1.813
 1455SOL    HW1 5264   1.629   6.708   1.800
 1455SOL    HW2 5265   1.656   6.861   1.850
 1456SOL     OW 5266   6.316   0.392   6.415
 1456SOL    HW1 5267   6.274   0.364   6.328
 1456SOL    HW2 5268   6.356   0.483   6.405
 1457SOL     OW 5269   0.930   6.210   1.019
 1457SOL    HW1 5270   0.842   6.167   1.037
 1457SOL    HW2 5271   0.973   6.234   1.106
 1458SOL     OW 5272   5.834   5.339   4.556
 1458SOL    HW1 5273   5.855   5.247   4.521
 1458SOL    HW2 5274   5.736   5.355   4.551
 1459SOL     OW 5275   3.958   6.698   5.820
 1459SOL    HW1 5276   3.924   6.739   5.735
 1459SOL    HW2 5277   3.906   6.614   5.839
 1460SOL     OW 5278   0.905   0.358   4.983
 1460SOL    HW1 5279   0.827   0.406   5.024
 1460SOL    HW2 5280   0.982   0.361   5.046
 1461SOL     OW 5281   6.702   4.234   2.550
 1461SOL    HW1 5282   6.659   4.176   2.481
 1461SOL    HW2 5283   6.793   4.260   2.519
 1462SOL     OW 5284   1.760   1.190   6.713
 1462SOL    HW1 5285   1.701   1.175   6.793
 1462SOL    HW2 5286   1.754   1.285   6.685
 1463SOL     OW 5287   0.306   5.679   5.872
 1463SOL    HW1 5288   0.305   5.702   5.775
 1463SOL    HW2 5289   0.401   5.670   5.903
 1464SOL     OW 5290   0.325   6.027   2.130
 1464SOL    HW1 5291   0.365   6.112   2.095
 1464SOL    HW2 5292   0.226   6.031   2.121
 1465SOL     OW 5293   1.470   1.149   4.009
 1465SOL    HW1 5294   1.406   1.077   4.035
 1465SOL    HW2 5295   1.562   1.126   4.041
 1466SOL     OW 5296   2.551   1.753   2.623
 1466SOL    HW1 5297   2.566   1.838   2.574
 1466SOL    HW2 5298   2.548   1.677   2.558
 1467SOL     OW 5299   2.107   1.358   3.657
 1467SOL    HW1 5300   2.069   1.297   3.587
 1467SOL    HW2 5301   2.128   1.305   3.739
 1468SOL     OW 5302   2.337   5.494   2.132
 1468SOL    HW1 5303   2.415   5.553   2.151
 1468SOL    HW2 5304   2.300   5.460   2.219
 1469SOL     OW 5305   6.974   0.272   2.814
 1469SOL    HW1 5306   6.963   0.173   2.806
 1469SOL    HW2 5307   0.005   0.293   2.892
 1470SOL     OW 5308   1.079   1.978   2.277
 1470SOL    HW1 5309   1.028   1.953   2.194
 1470SOL    HW2 5310   1.143   1.904   2.300
 1471SOL     OW 5311   0.738   0.263   0.679
 1471SOL    HW1 5312   0.815   0.225   0.730
 1471SOL    HW2 5313   0.771   0.297   0.591
 1472SOL     OW 5314   2.147   5.600   5.877
 1472SOL    HW1 5315   2.212   5.530   5.849
 1472SOL    HW2 5316   2.056   5.576   5.843
 1473SOL     OW 5317   3.637   5.490   5.680
 1473SOL    HW1 5318   3.559   5.445   5.723
 1473SOL    HW2 5319   3.618   5.503   5.582
 1474SOL     OW 5320   5.065   5.098   1.854
 1474SOL    HW1 5321   5.068   5.115   1.755
 1474SOL    HW2 5322   4.992   5.033   1.874
 1475SOL     OW 5323   5.073   0.715   1.271
 1475SOL    HW1 5324   5.005   0.643   1.282
 1475SOL    HW2 5325   5.098   0.722   1.174
 1476SOL     OW 5326   2.771   0.957   1.604
 1476SOL    HW1 5327   2.700   1.001   1.550
 1476SOL    HW2 5328   2.730   0.914   1.684
 1477SOL     OW 5329   3.419   6.297   5.992
 1477SOL    HW1 5330   3.417   6.397   5.982
 1477SOL    HW2 5331   3.332   6.259   5.960
 1478SOL     OW 5332   6.215   5.947   5.380
 1478SOL    HW1 5333   6.139   6.000   5.341
 1478SOL    HW2 5334   6.246   5.879   5.313
 1479SOL     OW 5335   2.454   2.771   1.071
 1479SOL    HW1 5336   2.394   2.761   0.991
 1479SOL    HW2 5337   2.489   2.864   1.074
 1480SOL     OW 5338   3.040   0.274   4.506
 1480SOL    HW1 5339   3.095   0.222   4.440
 1480SOL    HW2 5340   3.093   0.286   4.590
 1481SOL     OW 5341   6.091   3.088   6.268
 1481SOL    HW1 5342   6.070   3.004   6.217
 1481SOL    HW2 5343   6.062   3.077   6.363
 1482SOL     OW 5344   4.596   1.092   1.401
 1482SOL    HW1 5345   4.613   1.020   1.468
 1482SOL    HW2 5346   4.499   1.092   1.375
 1483SOL     OW 5347   5.074   2.135   5.648
 1483SOL    HW1 5348   4.983   2.156   5.684
 1483SOL    HW2 5349   5.108   2.213   5.595
 1484SOL     OW 5350   4.482   5.084   3.921
 1484SOL    HW1 5351   4.478   5.044   4.012
 1484SOL    HW2 5352   4.573   5.121   3.904
 1485SOL     OW 5353   4.417   0.948   4.766
 1485SOL    HW1 5354   4.453   1.038   4.790
 1485SOL    HW2 5355   4.399   0.945   4.667
 1486SOL     OW 5356   5.661   0.635   3.255
 1486SOL    HW1 5357   5.608   0.599   3.178
 1486SOL    HW2 5358   5.645   0.734   3.262
 1487SOL     OW 5359   0.272   2.510   0.256
 1487SOL    HW1 5360   0.320   2.425   0.236
 1487SOL    HW2 5361   0.258   2.518   0.355
 1488SOL     OW 5362   5.401   6.952   4.063
 1488SOL    HW1 5363   5.480   6.925   4.010
 1488SOL    HW2 5364   5.323   6.969   4.002
 1489SOL     OW 5365   4.213   5.079   6.427
 1489SOL    HW1 5366   4.174   5.051   6.514
 1489SOL    HW2 5367   4.308   5.109   6.441
 1490SOL     OW 5368   0.411   3.387   0.801
 1490SOL    HW1 5369   0.356   3.304   0.815
 1490SOL    HW2 5370   0.451   3.416   0.888
 1491SOL     OW 5371   6.384   4.685   2.271
 1491SOL    HW1 5372   6.372   4.777   2.308
 1491SOL    HW2 5373   6.481   4.659   2.277
 1492SOL     OW 5374   6.219   0.170   2.368
 1492SOL    HW1 5375   6.168   0.123   2.296
 1492SOL    HW2 5376   6.168   0.250   2.399
 1493SOL     OW 5377   3.857   6.782   6.136
 1493SOL    HW1 5378   3.888   6.830   6.054
 1493SOL    HW2 5379   3.796   6.841   6.188
 1494SOL     OW 5380   5.071   2.345   6.432
 1494SOL    HW1 5381   5.117   2.434   6.434
 1494SOL    HW2 5382   5.006   2.339   6.508
 1495SOL     OW 5383   0.781   3.927   5.193
 1495SOL    HW1 5384   0.797   3.937   5.291
 1495SOL    HW2 5385   0.753   4.015   5.155
 1496SOL     OW 5386   1.202   1.372   0.919
 1496SOL    HW1 5387   1.107   1.404   0.915
 1496SOL    HW2 5388   1.211   1.305   0.993
 1497SOL     OW 5389   5.084   2.859   2.571
 1497SOL    HW1 5390   5.146   2.937   2.558
 1497SOL    HW2 5391   4.991   2.893   2.580
 1498SOL     OW 5392   2.583   4.514   6.470
 1498SOL    HW1 5393   2.557   4.503   6.565
 1498SOL    HW2 5394   2.582   4.426   6.423
 1499SOL     OW 5395   0.717   2.414   5.476
 1499SOL    HW1 5396   0.746   2.385   5.384
 1499SOL    HW2 5397   0.636   2.472   5.468
 1500SOL     OW 5398   0.638   6.825   6.922
 1500SOL    HW1 5399   0.694   6.906   6.942
 1500SOL    HW2 5400   0.651   6.798   6.827
 1501SOL     OW 5401   5.516   2.239   6.590
 1501SOL    HW1 5402   5.432   2.216   6.541
 1501SOL    HW2 5403   5.521   2.339   6.601
 1502SOL     OW 5404   4.220   0.732   6.885
 1502SOL    HW1 5405   4.276   0.696   6.960
 1502SOL    HW2 5406   4.205   0.660   6.817
 1503SOL     OW 5407   1.430   2.736   2.282
 1503SOL    HW1 5408   1.373   2.784   2.348
 1503SOL    HW2 5409   1.379   2.721   2.197
 1504SOL     OW 5410   0.489   0.663   3.960
 1504SOL    HW1 5411   0.576   0.704   3.931
 1504SOL    HW2 5412   0.491   0.565   3.941
 1505SOL     OW 5413   4.371   0.390   5.151
 1505SOL    HW1 5414   4.420   0.461   5.202
 1505SOL    HW2 5415   4.275   0.389   5.180
 1506SOL     OW 5416   0.840   6.343   0.589
 1506SOL    HW1 5417   0.747   6.377   0.578
 1506SOL    HW2 5418   0.865   6.344   0.686
 1507SOL     OW 5419   0.049   2.161   5.791
 1507SOL    HW1 5420   0.122   2.093   5.792
 1507SOL    HW2 5421   0.021   2.182   5.885
 1508SOL     OW 5422   6.110   1.108   0.821
 1508SOL    HW1 5423   6.075   1.199   0.844
 1508SOL    HW2 5424   6.072   1.041   0.886
 1509SOL     OW 5425   4.435   2.082   4.769
 1509SOL    HW1 5426   4.398   2.022   4.840
 1509SOL    HW2 5427   4.489   2.154   4.811
 1510SOL     OW 5428   5.246   0.544   4.806
 1510SOL    HW1 5429   5.189   0.476   4.854
 1510SOL    HW2 5430   5.340   0.536   4.837
 1511SOL     OW 5431   4.099   3.429   3.984
 1511SOL    HW1 5432   4.166   3.361   4.011
 1511SOL    HW2 5433   4.010   3.406   4.024
 1512SOL     OW 5434   6.320   6.099   0.793
 1512SOL    HW1 5435   6.274   6.034   0.853
 1512SOL    HW2 5436   6.419   6.085   0.797
 1513SOL     OW 5437   3.773   0.760   4.758
 1513SOL    HW1 5438   3.830   0.768   4.840
 1513SOL    HW2 5439   3.793   0.673   4.712
 1514SOL     OW 5440   3.864   2.795   5.223
 1514SOL    HW1 5441   3.864   2.707   5.269
 1514SOL    HW2 5442   3.941   2.850   5.255
 1515SOL     OW 5443   5.310   2.470   2.115
 1515SOL    HW1 5444   5.397   2.433   2.084
 1515SOL    HW2 5445   5.315   2.493   2.212
 1516SOL     OW 5446   6.212   5.495   5.991
 1516SOL    HW1 5447   6.252   5.408   6.020
 1516SOL    HW2 5448   6.285   5.556   5.961
 1517SOL     OW 5449   4.103   5.772   2.599
 1517SOL    HW1 5450   4.085   5.711   2.522
 1517SOL    HW2 5451   4.018   5.788   2.650
 1518SOL     OW 5452   0.444   2.257   0.179
 1518SOL    HW1 5453   0.448   2.210   0.268
 1518SOL    HW2 5454   0.517   2.222   0.120
 1519SOL     OW 5455   6.614   4.559   1.456
 1519SOL    HW1 5456   6.641   4.589   1.547
 1519SOL    HW2 5457   6.679   4.594   1.389
 1520SOL     OW 5458   0.249   4.502   1.850
 1520SOL    HW1 5459   0.335   4.481   1.803
 1520SOL    HW2 5460   0.269   4.553   1.933
 1521SOL     OW 5461   2.170   4.433   6.085
 1521SOL    HW1 5462   2.196   4.520   6.128
 1521SOL    HW2 5463   2.250   4.391   6.044
 1522SOL     OW 5464   5.577   6.309   5.010
 1522SOL    HW1 5465   5.539   6.219   5.035
 1522SOL    HW2 5466   5.509   6.358   4.955
 1523SOL     OW 5467   4.297   6.705   0.012
 1523SOL    HW1 5468   4.197   6.703   0.005
 1523SOL    HW2 5469   4.334   6.773   6.976
 1524SOL     OW 5470   2.169   1.811   2.657
 1524SOL    HW1 5471   2.241   1.879   2.664
 1524SOL    HW2 5472   2.206   1.726   2.620
 1525SOL     OW 5473   6.550   3.677   0.521
 1525SOL    HW1 5474   6.575   3.684   0.617
 1525SOL    HW2 5475   6.614   3.617   0.473
 1526SOL     OW 5476   6.943   0.859   6.843
 1526SOL    HW1 5477   6.917   0.782   6.901
 1526SOL    HW2 5478   6.994   0.926   6.898
 1527SOL     OW 5479   4.338   1.691   4.551
 1527SOL    HW1 5480   4.376   1.783   4.556
 1527SOL    HW2 5481   4.356   1.642   4.636
 1528SOL     OW 5482   4.019   4.896   2.977
 1528SOL    HW1 5483   4.077   4.833   3.029
 1528SOL    HW2 5484   3.933   4.909   3.025
 1529SOL     OW 5485   4.195   0.240   6.948
 1529SOL    HW1 5486   4.276   0.275   6.995
 1529SOL    HW2 5487   4.154   0.167   7.002
 1530SOL     OW 5488   4.296   1.781   2.176
 1530SOL    HW1 5489   4.308   1.867   2.225
 1530SOL    HW2 5490   4.200   1.770   2.151
 1531SOL     OW 5491   4.653   0.033   5.341
 1531SOL    HW1 5492   4.581   0.087   5.298
 1531SOL    HW2 5493   4.675   6.981   5.284
 1532SOL     OW 5494   3.615   4.192   6.020
 1532SOL    HW1 5495   3.547   4.217   6.089
 1532SOL    HW2 5496   3.580   4.118   5.963
 1533SOL     OW 5497   6.129   5.249   0.003
 1533SOL    HW1 5498   6.051   5.310   0.021
 1533SOL    HW2 5499   6.096   5.166   6.986
 1534SOL     OW 5500   3.031   5.988   6.769
 1534SOL    HW1 5501   2.981   6.000   6.684
 1534SOL    HW2 5502   3.115   5.937   6.751
 1535SOL     OW 5503   4.746   6.228   4.261
 1535SOL    HW1 5504   4.749   6.327   4.278
 1535SOL    HW2 5505   4.802   6.181   4.329
 1536SOL     OW 5506   3.740   4.381   5.845
 1536SOL    HW1 5507   3.698   4.467   5.874
 1536SOL    HW2 5508   3.716   4.309   5.910
 1537SOL     OW 5509   4.214   5.750   3.871
 1537SOL    HW1 5510   4.267   5.709   3.945
 1537SOL    HW2 5511   4.189   5.843   3.895
 1538SOL     OW 5512   3.014   0.023   6.661
 1538SOL    HW1 5513   3.038   6.984   6.591
 1538SOL    HW2 5514   3.049   0.113   6.635
 1539SOL     OW 5515   4.941   3.636   1.897
 1539SOL    HW1 5516   4.999   3.565   1.859
 1539SOL    HW2 5517   4.919   3.614   1.992
 1540SOL     OW 5518   0.474   6.705   5.214
 1540SOL    HW1 5519   0.565   6.685   5.251
 1540SOL    HW2 5520   0.407   6.708   5.289
 1541SOL     OW 5521   3.212   3.014   4.287
 1541SOL    HW1 5522   3.207   2.986   4.382
 1541SOL    HW2 5523   3.307   3.040   4.264
 1542SOL     OW 5524   6.570   0.257   2.616
 1542SOL    HW1 5525   6.633   0.299   2.682
 1542SOL    HW2 5526   6.484   0.307   2.616
 1543SOL     OW 5527   3.553   4.896   5.203
 1543SOL    HW1 5528   3.578   4.909   5.299
 1543SOL    HW2 5529   3.546   4.985   5.159
 1544SOL     OW 5530   2.990   3.281   3.045
 1544SOL    HW1 5531   3.062   3.338   3.085
 1544SOL    HW2 5532   3.006   3.273   2.946
 1545SOL     OW 5533   5.019   0.552   2.935
 1545SOL    HW1 5534   5.015   0.457   2.966
 1545SOL    HW2 5535   4.943   0.604   2.975
 1546SOL     OW 5536   4.147   6.707   5.433
 1546SOL    HW1 5537   4.200   6.720   5.349
 1546SOL    HW2 5538   4.136   6.795   5.480
 1547SOL     OW 5539   2.068   3.824   1.482
 1547SOL    HW1 5540   2.020   3.774   1.555
 1547SOL    HW2 5541   2.049   3.922   1.491
 1548SOL     OW 5542   5.489   4.026   6.358
 1548SOL    HW1 5543   5.449   4.059   6.273
 1548SOL    HW2 5544   5.449   3.937   6.381
 1549SOL     OW 5545   4.383   2.156   1.563
 1549SOL    HW1 5546   4.458   2.189   1.505
 1549SOL    HW2 5547   4.324   2.232   1.588
 1550SOL     OW 5548   2.488   3.739   0.196
 1550SOL    HW1 5549   2.421   3.715   0.266
 1550SOL    HW2 5550   2.477   3.678   0.118
 1551SOL     OW 5551   1.996   4.236   6.212
 1551SOL    HW1 5552   1.943   4.310   6.253
 1551SOL    HW2 5553   2.078   4.274   6.169
 1552SOL     OW 5554   1.943   5.345   0.617
 1552SOL    HW1 5555   2.038   5.337   0.647
 1552SOL    HW2 5556   1.886   5.281   0.668
 1553SOL     OW 5557   6.841   1.599   6.600
 1553SOL    HW1 5558   6.913   1.608   6.669
 1553SOL    HW2 5559   6.805   1.690   6.578
 1554SOL     OW 5560   3.960   2.174   2.794
 1554SOL    HW1 5561   4.007   2.085   2.795
 1554SOL    HW2 5562   3.886   2.171   2.726
 1555SOL     OW 5563   5.484   2.860   0.234
 1555SOL    HW1 5564   5.422   2.934   0.260
 1555SOL    HW2 5565   5.437   2.799   0.170
 1556SOL     OW 5566   2.950   2.199   0.202
 1556SOL    HW1 5567   2.943   2.178   0.105
 1556SOL    HW2 5568   3.004   2.129   0.248
 1557SOL     OW 5569   1.857   2.128   5.286
 1557SOL    HW1 5570   1.774   2.181   5.303
 1557SOL    HW2 5571   1.907   2.116   5.372
 1558SOL     OW 5572   5.852   0.560   4.839
 1558SOL    HW1 5573   5.785   0.630   4.860
 1558SOL    HW2 5574   5.944   0.595   4.858
 1559SOL     OW 5575   1.763   3.082   6.884
 1559SOL    HW1 5576   1.753   3.130   6.971
 1559SOL    HW2 5577   1.817   3.138   6.821
 1560SOL     OW 5578   6.713   0.952   5.610
 1560SOL    HW1 5579   6.751   0.975   5.699
 1560SOL    HW2 5580   6.783   0.961   5.540
 1561SOL     OW 5581   6.106   6.328   3.931
 1561SOL    HW1 5582   6.104   6.273   3.848
 1561SOL    HW2 5583   6.176   6.291   3.993
 1562SOL     OW 5584   4.568   5.490   2.506
 1562SOL    HW1 5585   4.560   5.525   2.413
 1562SOL    HW2 5586   4.491   5.523   2.561
 1563SOL     OW 5587   2.089   6.660   5.402
 1563SOL    HW1 5588   2.022   6.654   5.477
 1563SOL    HW2 5589   2.042   6.647   5.315
 1564SOL     OW 5590   1.125   2.238   3.428
 1564SOL    HW1 5591   1.155   2.318   3.376
 1564SOL    HW2 5592   1.116   2.262   3.524
 1565SOL     OW 5593   4.596   4.507   3.741
 1565SOL    HW1 5594   4.670   4.451   3.778
 1565SOL    HW2 5595   4.573   4.579   3.806
 1566SOL     OW 5596   5.970   4.930   2.895
 1566SOL    HW1 5597   6.012   4.870   2.963
 1566SOL    HW2 5598   5.947   5.018   2.937
 1567SOL     OW 5599   6.363   5.911   0.468
 1567SOL    HW1 5600   6.452   5.923   0.511
 1567SOL    HW2 5601   6.291   5.915   0.538
 1568SOL     OW 5602   1.310   6.641   0.001
 1568SOL    HW1 5603   1.318   6.710   6.957
 1568SOL    HW2 5604   1.218   6.642   0.038
 1569SOL     OW 5605   4.732   6.157   3.205
 1569SOL    HW1 5606   4.817   6.109   3.226
 1569SOL    HW2 5607   4.753   6.245   3.161
 1570SOL     OW 5608   2.068   0.555   1.412
 1570SOL    HW1 5609   2.112   0.474   1.374
 1570SOL    HW2 5610   2.133   0.603   1.472
 1571SOL     OW 5611   5.320   2.519   0.897
 1571SOL    HW1 5612   5.342   2.493   0.803
 1571SOL    HW2 5613   5.283   2.613   0.898
 1572SOL     OW 5614   0.508   6.648   0.842
 1572SOL    HW1 5615   0.603   6.665   0.868
 1572SOL    HW2 5616   0.501   6.559   0.798
 1573SOL     OW 5617   5.438   2.596   2.727
 1573SOL    HW1 5618   5.435   2.496   2.733
 1573SOL    HW2 5619   5.346   2.633   2.739
 1574SOL     OW 5620   6.522   0.603   1.783
 1574SOL    HW1 5621   6.449   0.566   1.726
 1574SOL    HW2 5622   6.513   0.567   1.876
 1575SOL     OW 5623   3.336   1.343   0.825
 1575SOL    HW1 5624   3.297   1.253   0.806
 1575SOL    HW2 5625   3.287   1.413   0.773
 1576SOL     OW 5626   0.575   6.662   3.541
 1576SOL    HW1 5627   0.635   6.585   3.564
 1576SOL    HW2 5628   0.604   6.743   3.592
 1577SOL     OW 5629   3.310   2.143   4.438
 1577SOL    HW1 5630   3.367   2.079   4.490
 1577SOL    HW2 5631   3.240   2.182   4.497
 1578SOL     OW 5632   6.259   3.075   5.936
 1578SOL    HW1 5633   6.193   3.123   5.877
 1578SOL    HW2 5634   6.352   3.097   5.907
 1579SOL     OW 5635   6.843   1.600   2.871
 1579SOL    HW1 5636   6.794   1.666   2.813
 1579SOL    HW2 5637   6.913   1.649   2.924
 1580SOL     OW 5638   2.705   3.663   5.452
 1580SOL    HW1 5639   2.774   3.616   5.398
 1580SOL    HW2 5640   2.749   3.719   5.522
 1581SOL     OW 5641   0.259   4.464   4.931
 1581SOL    HW1 5642   0.203   4.393   4.974
 1581SOL    HW2 5643   0.349   4.427   4.910
 1582SOL     OW 5644   1.287   6.789   4.410
 1582SOL    HW1 5645   1.222   6.780   4.486
 1582SOL    HW2 5646   1.343   6.871   4.424
 1583SOL     OW 5647   0.923   4.351   3.709
 1583SOL    HW1 5648   1.016   4.328   3.682
 1583SOL    HW2 5649   0.908   4.322   3.804
 1584SOL     OW 5650   1.412   6.875   4.745
 1584SOL    HW1 5651   1.431   6.951   4.805
 1584SOL    HW2 5652   1.327   6.829   4.773
 1585SOL     OW 5653   5.708   1.359   3.691
 1585SOL    HW1 5654   5.768   1.397   3.621
 1585SOL    HW2 5655   5.615   1.351   3.653
 1586SOL     OW 5656   3.275   4.082   0.885
 1586SOL    HW1 5657   3.347   4.142   0.921
 1586SOL    HW2 5658   3.186   4.112   0.920
 1587SOL     OW 5659   2.631   5.654   6.711
 1587SOL    HW1 5660   2.678   5.735   6.678
 1587SOL    HW2 5661   2.560   5.680   6.776
 1588SOL     OW 5662   5.191   1.471   2.885
 1588SOL    HW1 5663   5.224   1.554   2.842
 1588SOL    HW2 5664   5.100   1.448   2.850
 1589SOL     OW 5665   6.314   4.154   2.442
 1589SOL    HW1 5666   6.215   4.142   2.447
 1589SOL    HW2 5667   6.336   4.250   2.423
 1590SOL     OW 5668   2.353   6.372   6.589
 1590SOL    HW1 5669   2.411   6.291   6.584
 1590SOL    HW2 5670   2.403   6.447   6.631
 1591SOL     OW 5671   0.691   4.951   2.681
 1591SOL    HW1 5672   0.598   4.987   2.692
 1591SOL    HW2 5673   0.686   4.856   2.649
 1592SOL     OW 5674   2.216   4.422   1.381
 1592SOL    HW1 5675   2.287   4.481   1.416
 1592SOL    HW2 5676   2.131   4.474   1.370
 1593SOL     OW 5677   0.609   6.391   3.763
 1593SOL    HW1 5678   0.707   6.385   3.779
 1593SOL    HW2 5679   0.565   6.433   3.842
 1594SOL     OW 5680   6.825   5.850   2.669
 1594SOL    HW1 5681   6.911   5.897   2.687
 1594SOL    HW2 5682   6.839   5.752   2.667
 1595SOL     OW 5683   0.973   5.135   6.933
 1595SOL    HW1 5684   0.990   5.101   6.841
 1595SOL    HW2 5685   0.895   5.198   6.932
 1596SOL     OW 5686   0.575   3.024   4.607
 1596SOL    HW1 5687   0.656   3.040   4.549
 1596SOL    HW2 5688   0.579   3.084   4.687
 1597SOL     OW 5689   2.581   5.993   0.031
 1597SOL    HW1 5690   2.601   6.089   0.010
 1597SOL    HW2 5691   2.664   5.948   0.064
 1598SOL     OW 5692   1.041   3.625   0.194
 1598SOL    HW1 5693   1.019   3.572   0.276
 1598SOL    HW2 5694   0.971   3.609   0.124
 1599SOL     OW 5695   5.197   4.052   5.652
 1599SOL    HW1 5696   5.200   4.104   5.567
 1599SOL    HW2 5697   5.178   3.956   5.632
 1600SOL     OW 5698   5.220   1.859   5.148
 1600SOL    HW1 5699   5.184   1.916   5.074
 1600SOL    HW2 5700   5.182   1.889   5.235
 1601SOL     OW 5701   0.220   4.624   4.240
 1601SOL    HW1 5702   0.177   4.586   4.158
 1601SOL    HW2 5703   0.241   4.549   4.303
 1602SOL     OW 5704   2.121   4.955   3.900
 1602SOL    HW1 5705   2.083   5.039   3.938
 1602SOL    HW2 5706   2.194   4.921   3.959
 1603SOL     OW 5707   0.510   6.021   2.516
 1603SOL    HW1 5708   0.572   6.042   2.440
 1603SOL    HW2 5709   0.429   5.974   2.481
 1604SOL     OW 5710   6.275   4.689   6.698
 1604SOL    HW1 5711   6.313   4.608   6.742
 1604SOL    HW2 5712   6.179   4.699   6.722
 1605SOL     OW 5713   6.237   6.479   2.395
 1605SOL    HW1 5714   6.213   6.466   2.491
 1605SOL    HW2 5715   6.327   6.523   2.389
 1606SOL     OW 5716   3.096   0.239   4.930
 1606SOL    HW1 5717   3.165   0.263   4.998
 1606SOL    HW2 5718   3.133   0.254   4.838
 1607SOL     OW 5719   4.281   2.505   0.483
 1607SOL    HW1 5720   4.267   2.522   0.580
 1607SOL    HW2 5721   4.194   2.510   0.435
 1608SOL     OW 5722   1.658   0.847   5.348
 1608SOL    HW1 5723   1.622   0.889   5.264
 1608SOL    HW2 5724   1.588   0.850   5.419
 1609SOL     OW 5725   4.351   0.570   0.067
 1609SOL    HW1 5726   4.397   0.570   7.006
 1609SOL    HW2 5727   4.396   0.503   0.127
 1610SOL     OW 5728   5.968   4.315   5.409
 1610SOL    HW1 5729   5.915   4.323   5.494
 1610SOL    HW2 5730   5.959   4.222   5.374
 1611SOL     OW 5731   2.986   3.410   1.733
 1611SOL    HW1 5732   2.902   3.369   1.768
 1611SOL    HW2 5733   3.061   3.389   1.795
 1612SOL     OW 5734   2.886   1.150   5.366
 1612SOL    HW1 5735   2.857   1.242   5.394
 1612SOL    HW2 5736   2.819   1.112   5.302
 1613SOL     OW 5737   1.776   6.264   1.723
 1613SOL    HW1 5738   1.677   6.258   1.736
 1613SOL    HW2 5739   1.822   6.246   1.810
 1614SOL     OW 5740   6.359   3.757   0.239
 1614SOL    HW1 5741   6.406   3.833   0.284
 1614SOL    HW2 5742   6.329   3.690   0.307
 1615SOL     OW 5743   6.218   4.737   0.784
 1615SOL    HW1 5744   6.238   4.673   0.711
 1615SOL    HW2 5745   6.175   4.688   0.860
 1616SOL     OW 5746   4.126   2.048   5.527
 1616SOL    HW1 5747   4.042   2.090   5.562
 1616SOL    HW2 5748   4.127   2.054   5.427
 1617SOL     OW 5749   6.332   6.664   1.434
 1617SOL    HW1 5750   6.362   6.583   1.483
 1617SOL    HW2 5751   6.387   6.675   1.350
 1618SOL     OW 5752   1.192   3.572   1.218
 1618SOL    HW1 5753   1.098   3.556   1.188
 1618SOL    HW2 5754   1.225   3.659   1.180
 1619SOL     OW 5755   1.129   1.567   3.585
 1619SOL    HW1 5756   1.073   1.484   3.574
 1619SOL    HW2 5757   1.161   1.573   3.680
 1620SOL     OW 5758   2.163   5.765   0.927
 1620SOL    HW1 5759   2.097   5.775   1.002
 1620SOL    HW2 5760   2.256   5.768   0.964
 1621SOL     OW 5761   1.119   1.674   0.169
 1621SOL    HW1 5762   1.067   1.705   0.090
 1621SOL    HW2 5763   1.199   1.622   0.139
 1622SOL     OW 5764   0.768   2.667   4.485
 1622SOL    HW1 5765   0.686   2.613   4.463
 1622SOL    HW2 5766   0.849   2.609   4.482
 1623SOL     OW 5767   2.634   3.197   5.639
 1623SOL    HW1 5768   2.632   3.167   5.544
 1623SOL    HW2 5769   2.600   3.291   5.646
 1624SOL     OW 5770   3.270   0.774   5.630
 1624SOL    HW1 5771   3.353   0.725   5.605
 1624SOL    HW2 5772   3.266   0.862   5.582
 1625SOL     OW 5773   1.545   5.883   1.893
 1625SOL    HW1 5774   1.474   5.814   1.880
 1625SOL    HW2 5775   1.503   5.967   1.929
 1626SOL     OW 5776   2.975   2.281   6.599
 1626SOL    HW1 5777   2.903   2.263   6.533
 1626SOL    HW2 5778   2.941   2.343   6.670
 1627SOL     OW 5779   6.357   2.280   4.170
 1627SOL    HW1 5780   6.262   2.259   4.146
 1627SOL    HW2 5781   6.403   2.320   4.090
 1628SOL     OW 5782   4.337   4.796   0.300
 1628SOL    HW1 5783   4.322   4.719   0.238
 1628SOL    HW2 5784   4.325   4.882   0.251
 1629SOL     OW 5785   2.791   2.067   4.388
 1629SOL    HW1 5786   2.811   2.013   4.470
 1629SOL    HW2 5787   2.802   2.010   4.307
 1630SOL     OW 5788   1.291   6.133   5.664
 1630SOL    HW1 5789   1.351   6.162   5.738
 1630SOL    HW2 5790   1.200   6.117   5.700
 1631SOL     OW 5791   0.324   1.317   6.428
 1631SOL    HW1 5792   0.319   1.300   6.330
 1631SOL    HW2 5793   0.266   1.394   6.452
 1632SOL     OW 5794   0.135   1.748   6.954
 1632SOL    HW1 5795   0.063   1.786   7.012
 1632SOL    HW2 5796   0.220   1.798   6.970
 1633SOL     OW 5797   5.018   2.183   4.006
 1633SOL    HW1 5798   5.019   2.227   3.916
 1633SOL    HW2 5799   5.033   2.085   3.996
 1634SOL     OW 5800   4.171   4.840   6.053
 1634SOL    HW1 5801   4.217   4.758   6.086
 1634SOL    HW2 5802   4.165   4.836   5.953
 1635SOL     OW 5803   6.365   5.491   5.293
 1635SOL    HW1 5804   6.317   5.414   5.251
 1635SOL    HW2 5805   6.422   5.458   5.368
 1636SOL     OW 5806   2.635   3.657   1.597
 1636SOL    HW1 5807   2.684   3.609   1.524
 1636SOL    HW2 5808   2.550   3.609   1.617
 1637SOL     OW 5809   0.104   0.663   2.941
 1637SOL    HW1 5810   0.177   0.638   2.877
 1637SOL    HW2 5811   0.093   0.591   3.009
 1638SOL     OW 5812   0.699   3.858   4.286
 1638SOL    HW1 5813   0.608   3.872   4.246
 1638SOL    HW2 5814   0.747   3.945   4.291
 1639SOL     OW 5815   4.463   7.012   3.106
 1639SOL    HW1 5816   4.386   6.957   3.074
 1639SOL    HW2 5817   4.525   6.955   3.159
 1640SOL     OW 5818   5.759   1.728   1.106
 1640SOL    HW1 5819   5.734   1.824   1.116
 1640SOL    HW2 5820   5.742   1.680   1.192
 1641SOL     OW 5821   5.108   3.170   4.200
 1641SOL    HW1 5822   5.071   3.113   4.127
 1641SOL    HW2 5823   5.035   3.226   4.239
 1642SOL     OW 5824   6.428   3.325   6.905
 1642SOL    HW1 5825   6.508   3.275   6.872
 1642SOL    HW2 5826   6.422   3.318   7.004
 1643SOL     OW 5827   2.392   5.170   3.947
 1643SOL    HW1 5828   2.445   5.091   3.977
 1643SOL    HW2 5829   2.453   5.236   3.904
 1644SOL     OW 5830   1.319   2.545   1.259
 1644SOL    HW1 5831   1.363   2.586   1.339
 1644SOL    HW2 5832   1.319   2.445   1.268
 1645SOL     OW 5833   2.860   6.087   5.260
 1645SOL    HW1 5834   2.955   6.094   5.228
 1645SOL    HW2 5835   2.798   6.103   5.183
 1646SOL     OW 5836   2.707   6.487   1.293
 1646SOL    HW1 5837   2.658   6.414   1.340
 1646SOL    HW2 5838   2.643   6.543   1.240
 1647SOL     OW 5839   5.670   2.822   4.455
 1647SOL    HW1 5840   5.678   2.723   4.451
 1647SOL    HW2 5841   5.601   2.853   4.389
 1648SOL     OW 5842   5.819   6.237   0.795
 1648SOL    HW1 5843   5.806   6.150   0.749
 1648SOL    HW2 5844   5.916   6.247   0.820
 1649SOL     OW 5845   3.891   0.397   3.669
 1649SOL    HW1 5846   3.837   0.316   3.647
 1649SOL    HW2 5847   3.855   0.476   3.619
 1650SOL     OW 5848   2.235   6.785   4.508
 1650SOL    HW1 5849   2.189   6.696   4.512
 1650SOL    HW2 5850   2.186   6.851   4.564
 1651SOL     OW 5851   1.148   1.050   1.800
 1651SOL    HW1 5852   1.229   1.042   1.741
 1651SOL    HW2 5853   1.161   0.994   1.882
 1652SOL     OW 5854   1.640   3.075   1.934
 1652SOL    HW1 5855   1.693   3.095   1.852
 1652SOL    HW2 5856   1.589   2.989   1.921
 1653SOL     OW 5857   0.202   6.711   1.527
 1653SOL    HW1 5858   0.137   6.640   1.502
 1653SOL    HW2 5859   0.156   6.780   1.583
 1654SOL     OW 5860   6.872   2.862   1.876
 1654SOL    HW1 5861   6.945   2.816   1.826
 1654SOL    HW2 5862   6.877   2.838   1.973
 1655SOL     OW 5863   5.907   3.276   5.269
 1655SOL    HW1 5864   5.894   3.375   5.281
 1655SOL    HW2 5865   5.898   3.231   5.357
 1656SOL     OW 5866   1.674   4.452   2.965
 1656SOL    HW1 5867   1.697   4.547   2.945
 1656SOL    HW2 5868   1.672   4.438   3.064
 1657SOL     OW 5869   6.955   0.683   4.275
 1657SOL    HW1 5870   7.010   0.605   4.242
 1657SOL    HW2 5871   6.988   0.711   4.365
 1658SOL     OW 5872   0.617   0.584   2.783
 1658SOL    HW1 5873   0.709   0.560   2.814
 1658SOL    HW2 5874   0.599   0.540   2.694
 1659SOL     OW 5875   3.474   1.296   6.011
 1659SOL    HW1 5876   3.452   1.232   6.085
 1659SOL    HW2 5877   3.504   1.244   5.930
 1660SOL     OW 5878   1.783   4.771   4.308
 1660SOL    HW1 5879   1.875   4.737   4.289
 1660SOL    HW2 5880   1.766   4.770   4.407
 1661SOL     OW 5881   3.027   1.745   1.586
 1661SOL    HW1 5882   3.110   1.773   1.635
 1661SOL    HW2 5883   2.947   1.775   1.637
 1662SOL     OW 5884   6.601   1.172   4.136
 1662SOL    HW1 5885   6.618   1.164   4.234
 1662SOL    HW2 5886   6.592   1.081   4.096
 1663SOL     OW 5887   3.125   1.288   3.077
 1663SOL    HW1 5888   3.123   1.194   3.043
 1663SOL    HW2 5889   3.175   1.346   3.012
 1664SOL     OW 5890   1.386   0.432   3.991
 1664SOL    HW1 5891   1.455   0.379   3.942
 1664SOL    HW2 5892   1.360   0.512   3.936
 1665SOL     OW 5893   6.515   1.624   2.711
 1665SOL    HW1 5894   6.429   1.633   2.661
 1665SOL    HW2 5895   6.568   1.548   2.674
 1666SOL     OW 5896   5.932   3.685   0.314
 1666SOL    HW1 5897   5.935   3.640   0.404
 1666SOL    HW2 5898   6.003   3.645   0.255
 1667SOL     OW 5899   5.397   6.684   1.015
 1667SOL    HW1 5900   5.475   6.663   1.074
 1667SOL    HW2 5901   5.428   6.688   0.920
 1668SOL     OW 5902   5.319   5.740   5.988
 1668SOL    HW1 5903   5.246   5.675   5.968
 1668SOL    HW2 5904   5.310   5.773   6.082
 1669SOL     OW 5905   6.051   6.738   0.300
 1669SOL    HW1 5906   6.012   6.699   0.383
 1669SOL    HW2 5907   6.068   6.666   0.233
 1670SOL     OW 5908   6.711   5.495   6.774
 1670SOL    HW1 5909   6.677   5.524   6.864
 1670SOL    HW2 5910   6.724   5.396   6.775
 1671SOL     OW 5911   4.338   2.404   1.138
 1671SOL    HW1 5912   4.416   2.445   1.184
 1671SOL    HW2 5913   4.269   2.377   1.205
 1672SOL     OW 5914   2.028   4.173   2.371
 1672SOL    HW1 5915   1.939   4.198   2.408
 1672SOL    HW2 5916   2.050   4.079   2.397
 1673SOL     OW 5917   0.584   2.442   4.505
 1673SOL    HW1 5918   0.519   2.435   4.430
 1673SOL    HW2 5919   0.615   2.350   4.531
 1674SOL     OW 5920   0.677   3.817   1.993
 1674SOL    HW1 5921   0.715   3.837   1.903
 1674SOL    HW2 5922   0.741   3.847   2.064
 1675SOL     OW 5923   4.101   0.158   6.003
 1675SOL    HW1 5924   4.140   0.246   5.974
 1675SOL    HW2 5925   4.156   0.083   5.966
 1676SOL     OW 5926   3.124   1.091   2.299
 1676SOL    HW1 5927   3.183   1.030   2.351
 1676SOL    HW2 5928   3.030   1.080   2.330
 1677SOL     OW 5929   4.339   2.614   5.329
 1677SOL    HW1 5930   4.253   2.588   5.286
 1677SOL    HW2 5931   4.322   2.680   5.402
 1678SOL     OW 5932   5.070   4.616   4.802
 1678SOL    HW1 5933   5.007   4.540   4.816
 1678SOL    HW2 5934   5.088   4.662   4.889
 1679SOL     OW 5935   2.079   3.380   4.880
 1679SOL    HW1 5936   2.098   3.293   4.923
 1679SOL    HW2 5937   2.084   3.453   4.948
 1680SOL     OW 5938   0.768   1.778   4.132
 1680SOL    HW1 5939   0.766   1.860   4.189
 1680SOL    HW2 5940   0.816   1.798   4.047
 1681SOL     OW 5941   6.610   5.822   1.114
 1681SOL    HW1 5942   6.674   5.869   1.175
 1681SOL    HW2 5943   6.570   5.743   1.162
 1682SOL     OW 5944   6.621   2.490   4.743
 1682SOL    HW1 5945   6.590   2.437   4.822
 1682SOL    HW2 5946   6.544   2.506   4.682
 1683SOL     OW 5947   3.570   5.575   0.983
 1683SOL    HW1 5948   3.616   5.522   1.054
 1683SOL    HW2 5949   3.638   5.625   0.929
 1684SOL     OW 5950   1.747   6.182   2.770
 1684SOL    HW1 5951   1.752   6.220   2.677
 1684SOL    HW2 5952   1.669   6.222   2.818
 1685SOL     OW 5953   2.829   1.195   6.344
 1685SOL    HW1 5954   2.926   1.222   6.343
 1685SOL    HW2 5955   2.780   1.245   6.273
 1686SOL     OW 5956   1.878   5.041   5.193
 1686SOL    HW1 5957   1.902   5.111   5.126
 1686SOL    HW2 5958   1.859   4.955   5.146
 1687SOL     OW 5959   2.120   3.219   1.118
 1687SOL    HW1 5960   2.028   3.222   1.079
 1687SOL    HW2 5961   2.186   3.192   1.047
 1688SOL     OW 5962   1.210   2.311   3.926
 1688SOL    HW1 5963   1.218   2.409   3.905
 1688SOL    HW2 5964   1.161   2.300   4.013
 1689SOL     OW 5965   4.051   1.185   1.573
 1689SOL    HW1 5966   4.100   1.101   1.594
 1689SOL    HW2 5967   4.060   1.249   1.650
 1690SOL     OW 5968   1.308   2.721   3.607
 1690SOL    HW1 5969   1.246   2.762   3.674
 1690SOL    HW2 5970   1.396   2.769   3.610
 1691SOL     OW 5971   4.789   3.938   3.498
 1691SOL    HW1 5972   4.761   3.998   3.573
 1691SOL    HW2 5973   4.818   3.849   3.535
 1692SOL     OW 5974   6.497   0.150   1.256
 1692SOL    HW1 5975   6.556   0.220   1.217
 1692SOL    HW2 5976   6.448   0.103   1.183
 1693SOL     OW 5977   0.350   2.296   2.257
 1693SOL    HW1 5978   0.442   2.258   2.246
 1693SOL    HW2 5979   0.332   2.313   2.354
 1694SOL     OW 5980   4.921   0.096   4.264
 1694SOL    HW1 5981   4.996   0.083   4.329
 1694SOL    HW2 5982   4.917   0.192   4.236
 1695SOL     OW 5983   2.210   1.176   5.855
 1695SOL    HW1 5984   2.125   1.138   5.817
 1695SOL    HW2 5985   2.256   1.106   5.910
 1696SOL     OW 5986   5.475   4.928   0.377
 1696SOL    HW1 5987   5.458   4.996   0.448
 1696SOL    HW2 5988   5.534   4.966   0.306
 1697SOL     OW 5989   5.973   6.589   2.414
 1697SOL    HW1 5990   5.911   6.513   2.432
 1697SOL    HW2 5991   6.058   6.554   2.375
 1698SOL     OW 5992   4.703   1.109   0.724
 1698SOL    HW1 5993   4.717   1.131   0.627
 1698SOL    HW2 5994   4.611   1.140   0.751
 1699SOL     OW 5995   2.859   0.822   2.149
 1699SOL    HW1 5996   2.793   0.897   2.151
 1699SOL    HW2 5997   2.829   0.752   2.084
 1700SOL     OW 5998   6.205   1.971   3.569
 1700SOL    HW1 5999   6.111   1.994   3.593
 1700SOL    HW2 6000   6.235   2.032   3.495
 1701SOL     OW 6001   4.885   2.885   5.434
 1701SOL    HW1 6002   4.889   2.788   5.458
 1701SOL    HW2 6003   4.897   2.896   5.336
 1702SOL     OW 6004   0.159   2.975   0.596
 1702SOL    HW1 6005   0.163   2.988   0.695
 1702SOL    HW2 6006   0.226   3.035   0.552
 1703SOL     OW 6007   3.674   3.903   3.417
 1703SOL    HW1 6008   3.657   3.956   3.501
 1703SOL    HW2 6009   3.643   3.956   3.338
 1704SOL     OW 6010   0.754   1.657   1.696
 1704SOL    HW1 6011   0.710   1.745   1.681
 1704SOL    HW2 6012   0.843   1.656   1.650
 1705SOL     OW 6013   3.525   2.085   2.169
 1705SOL    HW1 6014   3.430   2.071   2.142
 1705SOL    HW2 6015   3.565   2.159   2.115
 1706SOL     OW 6016   4.413   0.091   1.551
 1706SOL    HW1 6017   4.387   0.171   1.496
 1706SOL    HW2 6018   4.512   0.081   1.549
 1707SOL     OW 6019   4.580   1.618   3.163
 1707SOL    HW1 6020   4.620   1.588   3.076
 1707SOL    HW2 6021   4.562   1.538   3.220
 1708SOL     OW 6022   4.812   5.492   2.286
 1708SOL    HW1 6023   4.790   5.567   2.224
 1708SOL    HW2 6024   4.835   5.410   2.234
 1709SOL     OW 6025   2.858   5.884   1.627
 1709SOL    HW1 6026   2.864   5.939   1.711
 1709SOL    HW2 6027   2.857   5.787   1.650
 1710SOL     OW 6028   5.821   4.381   3.648
 1710SOL    HW1 6029   5.751   4.402   3.580
 1710SOL    HW2 6030   5.874   4.463   3.669
 1711SOL     OW 6031   1.161   4.312   5.033
 1711SOL    HW1 6032   1.148   4.216   5.012
 1711SOL    HW2 6033   1.073   4.360   5.030
 1712SOL     OW 6034   1.413   2.930   6.491
 1712SOL    HW1 6035   1.499   2.888   6.459
 1712SOL    HW2 6036   1.371   2.981   6.417
 1713SOL     OW 6037   3.223   2.021   0.969
 1713SOL    HW1 6038   3.198   1.947   0.906
 1713SOL    HW2 6039   3.257   2.099   0.916
 1714SOL     OW 6040   4.348   1.572   6.175
 1714SOL    HW1 6041   4.259   1.528   6.193
 1714SOL    HW2 6042   4.339   1.670   6.188
 1715SOL     OW 6043   6.714   3.864   2.594
 1715SOL    HW1 6044   6.809   3.893   2.584
 1715SOL    HW2 6045   6.673   3.852   2.503
 1716SOL     OW 6046   5.064   6.965   1.242
 1716SOL    HW1 6047   5.139   0.003   1.248
 1716SOL    HW2 6048   5.084   6.898   1.170
 1717SOL     OW 6049   1.853   6.422   6.639
 1717SOL    HW1 6050   1.795   6.345   6.665
 1717SOL    HW2 6051   1.947   6.391   6.625
 1718SOL     OW 6052   1.771   1.943   0.901
 1718SOL    HW1 6053   1.775   1.854   0.945
 1718SOL    HW2 6054   1.849   1.954   0.839
 1719SOL     OW 6055   2.323   4.041   1.462
 1719SOL    HW1 6056   2.232   4.082   1.468
 1719SOL    HW2 6057   2.334   3.974   1.536
 1720SOL     OW 6058   6.766   0.971   1.583
 1720SOL    HW1 6059   6.781   0.900   1.652
 1720SOL    HW2 6060   6.687   1.027   1.609
 1721SOL     OW 6061   0.956   6.364   2.763
 1721SOL    HW1 6062   0.979   6.422   2.684
 1721SOL    HW2 6063   0.886   6.298   2.736
 1722SOL     OW 6064   5.016   1.440   3.696
 1722SOL    HW1 6065   5.002   1.385   3.614
 1722SOL    HW2 6066   5.106   1.418   3.735
 1723SOL     OW 6067   6.880   2.866   3.146
 1723SOL    HW1 6068   6.950   2.804   3.112
 1723SOL    HW2 6069   6.849   2.925   3.073
 1724SOL     OW 6070   5.700   1.880   1.362
 1724SOL    HW1 6071   5.712   1.947   1.289
 1724SOL    HW2 6072   5.670   1.925   1.446
 1725SOL     OW 6073   2.705   5.046   0.273
 1725SOL    HW1 6074   2.749   4.957   0.261
 1725SOL    HW2 6075   2.629   5.037   0.337
 1726SOL     OW 6076   6.289   4.224   5.184
 1726SOL    HW1 6077   6.263   4.312   5.224
 1726SOL    HW2 6078   6.342   4.172   5.250
 1727SOL     OW 6079   3.809   2.954   4.721
 1727SOL    HW1 6080   3.892   2.958   4.777
 1727SOL    HW2 6081   3.736   2.910   4.773
 1728SOL     OW 6082   5.418   5.497   4.928
 1728SOL    HW1 6083   5.434   5.452   5.016
 1728SOL    HW2 6084   5.465   5.446   4.856
 1729SOL     OW 6085   2.166   3.747   3.342
 1729SOL    HW1 6086   2.165   3.829   3.399
 1729SOL    HW2 6087   2.259   3.732   3.308
 1730SOL     OW 6088   6.829   0.369   4.549
 1730SOL    HW1 6089   6.759   0.399   4.614
 1730SOL    HW2 6090   6.808   0.405   4.458
 1731SOL     OW 6091   1.040   5.403   1.922
 1731SOL    HW1 6092   1.114   5.341   1.894
 1731SOL    HW2 6093   0.955   5.352   1.930
 1732SOL     OW 6094   1.754   4.500   5.749
 1732SOL    HW1 6095   1.834   4.462   5.795
 1732SOL    HW2 6096   1.742   4.596   5.775
 1733SOL     OW 6097   1.105   3.642   2.742
 1733SOL    HW1 6098   1.036   3.703   2.780
 1733SOL    HW2 6099   1.060   3.565   2.697
 1734SOL     OW 6100   5.009   3.114   2.048
 1734SOL    HW1 6101   5.059   3.102   2.134
 1734SOL    HW2 6102   4.915   3.084   2.060
 1735SOL     OW 6103   5.795   5.705   0.851
 1735SOL    HW1 6104   5.880   5.679   0.896
 1735SOL    HW2 6105   5.788   5.659   0.762
 1736SOL     OW 6106   4.636   2.054   0.546
 1736SOL    HW1 6107   4.554   2.033   0.600
 1736SOL    HW2 6108   4.621   2.137   0.493
 1737SOL     OW 6109   2.940   1.296   4.668
 1737SOL    HW1 6110   2.998   1.375   4.690
 1737SOL    HW2 6111   2.939   1.283   4.569
 1738SOL     OW 6112   1.835   2.059   3.743
 1738SOL    HW1 6113   1.788   1.975   3.716
 1738SOL    HW2 6114   1.867   2.107   3.661
 1739SOL     OW 6115   4.911   2.584   5.354
 1739SOL    HW1 6116   4.833   2.602   5.294
 1739SOL    HW2 6117   4.992   2.568   5.298
 1740SOL     OW 6118   0.295   1.733   6.410
 1740SOL    HW1 6119   0.243   1.661   6.362
 1740SOL    HW2 6120   0.383   1.696   6.440
 1741SOL     OW 6121   2.649   0.947   3.750
 1741SOL    HW1 6122   2.590   0.913   3.824
 1741SOL    HW2 6123   2.693   0.869   3.705
 1742SOL     OW 6124   4.411   6.282   5.915
 1742SOL    HW1 6125   4.504   6.276   5.951
 1742SOL    HW2 6126   4.393   6.203   5.856
 1743SOL     OW 6127   1.927   1.672   2.235
 1743SOL    HW1 6128   1.983   1.728   2.296
 1743SOL    HW2 6129   1.837   1.713   2.226
 1744SOL     OW 6130   0.731   0.370   1.377
 1744SOL    HW1 6131   0.668   0.338   1.448
 1744SOL    HW2 6132   0.819   0.324   1.387
 1745SOL     OW 6133   6.685   0.801   4.211
 1745SOL    HW1 6134   6.626   0.788   4.290
 1745SOL    HW2 6135   6.776   0.763   4.230
 1746SOL     OW 6136   1.940   5.296   4.985
 1746SOL    HW1 6137   1.846   5.318   4.960
 1746SOL    HW2 6138   1.985   5.378   5.020
 1747SOL     OW 6139   5.024   0.277   2.514
 1747SOL    HW1 6140   4.994   0.363   2.557
 1747SOL    HW2 6141   5.055   0.296   2.421
 1748SOL     OW 6142   0.102   0.945   3.706
 1748SOL    HW1 6143   0.149   0.862   3.736
 1748SOL    HW2 6144   0.003   0.930   3.709
 1749SOL     OW 6145   2.582   6.549   5.465
 1749SOL    HW1 6146   2.560   6.580   5.373
 1749SOL    HW2 6147   2.510   6.487   5.497
 1750SOL     OW 6148   6.435   0.398   3.348
 1750SOL    HW1 6149   6.445   0.497   3.357
 1750SOL    HW2 6150   6.384   0.362   3.427
 1751SOL     OW 6151   3.750   5.785   4.619
 1751SOL    HW1 6152   3.740   5.713   4.688
 1751SOL    HW2 6153   3.834   5.770   4.567
 1752SOL     OW 6154   6.816   2.351   2.368
 1752SOL    HW1 6155   6.830   2.252   2.373
 1752SOL    HW2 6156   6.729   2.374   2.411
 1753SOL     OW 6157   0.590   1.895   0.454
 1753SOL    HW1 6158   0.605   1.827   0.383
 1753SOL    HW2 6159   0.613   1.855   0.543
 1754SOL     OW 6160   3.473   3.384   1.433
 1754SOL    HW1 6161   3.510   3.347   1.518
 1754SOL    HW2 6162   3.545   3.434   1.384
 1755SOL     OW 6163   5.694   5.353   2.259
 1755SOL    HW1 6164   5.771   5.294   2.282
 1755SOL    HW2 6165   5.683   5.423   2.330
 1756SOL     OW 6166   4.451   4.162   6.489
 1756SOL    HW1 6167   4.504   4.246   6.507
 1756SOL    HW2 6168   4.472   4.129   6.396
 1757SOL     OW 6169   2.350   5.200   4.849
 1757SOL    HW1 6170   2.316   5.159   4.934
 1757SOL    HW2 6171   2.282   5.264   4.813
 1758SOL     OW 6172   2.282   0.624   3.948
 1758SOL    HW1 6173   2.192   0.590   3.922
 1758SOL    HW2 6174   2.350   0.553   3.933
 1759SOL     OW 6175   0.841   4.795   5.512
 1759SOL    HW1 6176   0.791   4.718   5.472
 1759SOL    HW2 6177   0.933   4.799   5.472
 1760SOL     OW 6178   6.651   1.386   1.477
 1760SOL    HW1 6179   6.594   1.305   1.493
 1760SOL    HW2 6180   6.722   1.391   1.547
 1761SOL     OW 6181   0.068   0.356   0.326
 1761SOL    HW1 6182   0.041   0.449   0.350
 1761SOL    HW2 6183   0.048   0.294   0.402
 1762SOL     OW 6184   6.102   1.771   5.042
 1762SOL    HW1 6185   6.096   1.713   5.123
 1762SOL    HW2 6186   6.124   1.864   5.070
 1763SOL     OW 6187   2.134   3.646   4.189
 1763SOL    HW1 6188   2.173   3.557   4.168
 1763SOL    HW2 6189   2.132   3.658   4.289
 1764SOL     OW 6190   1.637   4.133   2.821
 1764SOL    HW1 6191   1.642   4.035   2.806
 1764SOL    HW2 6192   1.595   4.152   2.910
 1765SOL     OW 6193   3.431   1.759   6.501
 1765SOL    HW1 6194   3.489   1.760   6.419
 1765SOL    HW2 6195   3.453   1.838   6.558
 1766SOL     OW 6196   4.903   3.257   3.758
 1766SOL    HW1 6197   4.869   3.207   3.837
 1766SOL    HW2 6198   4.967   3.200   3.707
 1767SOL     OW 6199   6.353   3.825   2.958
 1767SOL    HW1 6200   6.339   3.837   2.860
 1767SOL    HW2 6201   6.452   3.824   2.978
 1768SOL     OW 6202   3.812   1.446   4.651
 1768SOL    HW1 6203   3.827   1.349   4.673
 1768SOL    HW2 6204   3.838   1.463   4.556
 1769SOL     OW 6205   4.161   2.202   4.883
 1769SOL    HW1 6206   4.161   2.247   4.794
 1769SOL    HW2 6207   4.185   2.269   4.954
 1770SOL     OW 6208   0.539   5.124   4.496
 1770SOL    HW1 6209   0.607   5.054   4.475
 1770SOL    HW2 6210   0.514   5.117   4.593
 1771SOL     OW 6211   2.543   5.318   0.249
 1771SOL    HW1 6212   2.595   5.234   0.234
 1771SOL    HW2 6213   2.477   5.305   0.322
 1772SOL     OW 6214   2.825   6.836   3.670
 1772SOL    HW1 6215   2.843   6.932   3.693
 1772SOL    HW2 6216   2.835   6.824   3.571
 1773SOL     OW 6217   2.658   4.420   6.116
 1773SOL    HW1 6218   2.573   4.426   6.063
 1773SOL    HW2 6219   2.639   4.379   6.205
 1774SOL     OW 6220   4.199   6.983   1.630
 1774SOL    HW1 6221   4.277   0.017   1.619
 1774SOL    HW2 6222   4.117   7.025   1.590
 1775SOL     OW 6223   0.923   4.054   4.326
 1775SOL    HW1 6224   1.011   4.019   4.294
 1775SOL    HW2 6225   0.932   4.089   4.419
 1776SOL     OW 6226   3.127   0.231   4.097
 1776SOL    HW1 6227   3.147   0.194   4.006
 1776SOL    HW2 6228   3.202   0.291   4.125
 1777SOL     OW 6229   3.277   5.426   5.955
 1777SOL    HW1 6230   3.250   5.493   6.024
 1777SOL    HW2 6231   3.204   5.359   5.943
 1778SOL     OW 6232   4.631   2.935   6.041
 1778SOL    HW1 6233   4.674   2.977   5.961
 1778SOL    HW2 6234   4.627   2.835   6.029
 1779SOL     OW 6235   4.107   1.008   4.892
 1779SOL    HW1 6236   4.160   1.009   4.977
 1779SOL    HW2 6237   4.125   1.091   4.840
 1780SOL     OW 6238   2.849   2.971   6.091
 1780SOL    HW1 6239   2.868   3.023   6.174
 1780SOL    HW2 6240   2.789   3.023   6.031
 1781SOL     OW 6241   4.421   6.014   3.852
 1781SOL    HW1 6242   4.384   5.997   3.944
 1781SOL    HW2 6243   4.467   5.931   3.819
 1782SOL     OW 6244   3.472   1.768   2.494
 1782SOL    HW1 6245   3.493   1.863   2.471
 1782SOL    HW2 6246   3.450   1.761   2.591
 1783SOL     OW 6247   1.453   4.323   6.352
 1783SOL    HW1 6248   1.428   4.263   6.276
 1783SOL    HW2 6249   1.553   4.323   6.362
 1784SOL     OW 6250   3.973   1.321   5.408
 1784SOL    HW1 6251   4.028   1.294   5.487
 1784SOL    HW2 6252   3.887   1.361   5.440
 1785SOL     OW 6253   6.586   5.386   3.480
 1785SOL    HW1 6254   6.540   5.322   3.419
 1785SOL    HW2 6255   6.525   5.409   3.556
 1786SOL     OW 6256   1.061   2.649   1.226
 1786SOL    HW1 6257   1.074   2.683   1.133
 1786SOL    HW2 6258   1.149   2.625   1.266
 1787SOL     OW 6259   2.101   0.723   4.949
 1787SOL    HW1 6260   2.039   0.768   4.884
 1787SOL    HW2 6261   2.101   0.625   4.932
 1788SOL     OW 6262   3.491   2.982   6.888
 1788SOL    HW1 6263   3.401   3.010   6.920
 1788SOL    HW2 6264   3.492   2.883   6.872
 1789SOL     OW 6265   6.018   2.544   3.286
 1789SOL    HW1 6266   5.956   2.617   3.313
 1789SOL    HW2 6267   6.053   2.497   3.367
 1790SOL     OW 6268   3.852   6.349   4.286
 1790SOL    HW1 6269   3.764   6.335   4.330
 1790SOL    HW2 6270   3.925   6.347   4.355
 1791SOL     OW 6271   6.588   1.048   3.465
 1791SOL    HW1 6272   6.584   1.139   3.425
 1791SOL    HW2 6273   6.646   1.050   3.547
 1792SOL     OW 6274   6.904   3.094   3.962
 1792SOL    HW1 6275   6.914   3.185   3.922
 1792SOL    HW2 6276   6.993   3.062   3.996
 1793SOL     OW 6277   6.534   6.679   3.270
 1793SOL    HW1 6278   6.558   6.633   3.356
 1793SOL    HW2 6279   6.588   6.762   3.259
 1794SOL     OW 6280   5.935   6.180   5.917
 1794SOL    HW1 6281   5.988   6.216   5.840
 1794SOL    HW2 6282   5.909   6.255   5.978
 1795SOL     OW 6283   0.561   3.172   1.427
 1795SOL    HW1 6284   0.557   3.171   1.327
 1795SOL    HW2 6285   0.490   3.112   1.464
 1796SOL     OW 6286   2.353   0.370   4.444
 1796SOL    HW1 6287   2.360   0.390   4.346
 1796SOL    HW2 6288   2.302   0.443   4.489
 1797SOL     OW 6289   1.558   0.281   7.026
 1797SOL    HW1 6290   1.466   0.242   0.008
 1797SOL    HW2 6291   1.595   0.299   0.090
 1798SOL     OW 6292   5.094   1.989   4.437
 1798SOL    HW1 6293   5.160   1.922   4.402
 1798SOL    HW2 6294   5.047   1.951   4.517
 1799SOL     OW 6295   6.407   1.991   5.842
 1799SOL    HW1 6296   6.451   1.932   5.908
 1799SOL    HW2 6297   6.324   1.946   5.807
 1800SOL     OW 6298   3.838   4.873   2.486
 1800SOL    HW1 6299   3.913   4.809   2.468
 1800SOL    HW2 6300   3.851   4.915   2.576
 1801SOL     OW 6301   0.490   0.822   2.241
 1801SOL    HW1 6302   0.544   0.835   2.324
 1801SOL    HW2 6303   0.459   0.727   2.235
 1802SOL     OW 6304   5.517   5.523   2.676
 1802SOL    HW1 6305   5.455   5.504   2.753
 1802SOL    HW2 6306   5.548   5.618   2.681
 1803SOL     OW 6307   0.274   6.177   6.818
 1803SOL    HW1 6308   0.306   6.203   6.909
 1803SOL    HW2 6309   0.177   6.201   6.808
 1804SOL     OW 6310   2.332   3.836   5.641
 1804SOL    HW1 6311   2.400   3.825   5.569
 1804SOL    HW2 6312   2.266   3.761   5.637
 1805SOL     OW 6313   6.137   4.308   5.879
 1805SOL    HW1 6314   6.080   4.286   5.799
 1805SOL    HW2 6315   6.091   4.275   5.962
 1806SOL     OW 6316   1.305   1.411   0.505
 1806SOL    HW1 6317   1.340   1.484   0.446
 1806SOL    HW2 6318   1.212   1.387   0.477
 1807SOL     OW 6319   4.842   2.305   5.691
 1807SOL    HW1 6320   4.808   2.394   5.718
 1807SOL    HW2 6321   4.840   2.297   5.591
 1808SOL     OW 6322   0.475   3.603   5.865
 1808SOL    HW1 6323   0.451   3.506   5.867
 1808SOL    HW2 6324   0.491   3.636   5.958
 1809SOL     OW 6325   1.947   2.553   4.740
 1809SOL    HW1 6326   1.990   2.511   4.820
 1809SOL    HW2 6327   1.960   2.495   4.660
 1810SOL     OW 6328   3.040   0.325   3.681
 1810SOL    HW1 6329   3.061   0.383   3.603
 1810SOL    HW2 6330   2.969   0.368   3.737
 1811SOL     OW 6331   4.789   4.573   3.481
 1811SOL    HW1 6332   4.807   4.633   3.403
 1811SOL    HW2 6333   4.790   4.477   3.451
 1812SOL     OW 6334   4.272   6.751   5.201
 1812SOL    HW1 6335   4.352   6.733   5.144
 1812SOL    HW2 6336   4.222   6.829   5.163
 1813SOL     OW 6337   6.243   5.242   0.813
 1813SOL    HW1 6338   6.262   5.268   0.718
 1813SOL    HW2 6339   6.171   5.300   0.849
 1814SOL     OW 6340   6.632   1.743   0.320
 1814SOL    HW1 6341   6.538   1.711   0.319
 1814SOL    HW2 6342   6.675   1.725   0.232
 1815SOL     OW 6343   5.895   2.276   1.974
 1815SOL    HW1 6344   5.833   2.349   2.001
 1815SOL    HW2 6345   5.967   2.313   1.915
 1816SOL     OW 6346   2.473   3.699   1.100
 1816SOL    HW1 6347   2.386   3.703   1.051
 1816SOL    HW2 6348   2.471   3.762   1.177
 1817SOL     OW 6349   3.503   0.257   3.237
 1817SOL    HW1 6350   3.586   0.204   3.218
 1817SOL    HW2 6351   3.432   0.232   3.172
 1818SOL     OW 6352   1.866   6.558   2.438
 1818SOL    HW1 6353   1.809   6.580   2.517
 1818SOL    HW2 6354   1.951   6.611   2.444
 1819SOL     OW 6355   0.274   5.182   1.697
 1819SOL    HW1 6356   0.337   5.234   1.640
 1819SOL    HW2 6357   0.191   5.235   1.713
 1820SOL     OW 6358   5.126   1.070   1.946
 1820SOL    HW1 6359   5.223   1.088   1.929
 1820SOL    HW2 6360   5.099   0.985   1.899
 1821SOL     OW 6361   2.138   0.863   1.707
 1821SOL    HW1 6362   2.235   0.879   1.726
 1821SOL    HW2 6363   2.094   0.826   1.789
 1822SOL     OW 6364   1.996   2.811   1.660
 1822SOL    HW1 6365   2.040   2.749   1.725
 1822SOL    HW2 6366   2.054   2.891   1.646
 1823SOL     OW 6367   2.937   5.776   3.066
 1823SOL    HW1 6368   2.987   5.804   3.147
 1823SOL    HW2 6369   2.892   5.855   3.025
 1824SOL     OW 6370   3.120   2.724   1.804
 1824SOL    HW1 6371   3.210   2.683   1.788
 1824SOL    HW2 6372   3.050   2.661   1.770
 1825SOL     OW 6373   1.325   1.483   3.425
 1825SOL    HW1 6374   1.245   1.523   3.470
 1825SOL    HW2 6375   1.394   1.462   3.494
 1826SOL     OW 6376   3.040   7.024   0.873
 1826SOL    HW1 6377   3.034   7.009   0.972
 1826SOL    HW2 6378   3.122   6.978   0.838
 1827SOL     OW 6379   6.930   6.097   1.689
 1827SOL    HW1 6380   6.936   6.189   1.728
 1827SOL    HW2 6381   7.003   6.084   1.623
 1828SOL     OW 6382   1.534   2.786   0.376
 1828SOL    HW1 6383   1.436   2.768   0.370
 1828SOL    HW2 6384   1.571   2.739   0.456
 1829SOL     OW 6385   3.638   0.444   3.385
 1829SOL    HW1 6386   3.601   0.374   3.324
 1829SOL    HW2 6387   3.566   0.475   3.447
 1830SOL     OW 6388   5.971   5.922   3.890
 1830SOL    HW1 6389   5.949   6.014   3.856
 1830SOL    HW2 6390   6.037   5.879   3.829
 1831SOL     OW 6391   6.147   0.152   2.092
 1831SOL    HW1 6392   6.102   0.210   2.024
 1831SOL    HW2 6393   6.239   0.188   2.110
 1832SOL     OW 6394   5.273   1.112   1.155
 1832SOL    HW1 6395   5.206   1.046   1.122
 1832SOL    HW2 6396   5.247   1.204   1.126
 1833SOL     OW 6397   5.286   0.188   5.821
 1833SOL    HW1 6398   5.230   0.252   5.874
 1833SOL    HW2 6399   5.292   0.221   5.726
 1834SOL     OW 6400   2.650   4.083   0.515
 1834SOL    HW1 6401   2.637   4.087   0.416
 1834SOL    HW2 6402   2.698   3.998   0.539
 1835SOL     OW 6403   0.870   3.408   1.835
 1835SOL    HW1 6404   0.812   3.331   1.863
 1835SOL    HW2 6405   0.813   3.490   1.824
 1836SOL     OW 6406   5.194   1.797   0.848
 1836SOL    HW1 6407   5.216   1.840   0.936
 1836SOL    HW2 6408   5.253   1.719   0.833
 1837SOL     OW 6409   0.773   1.995   4.307
 1837SOL    HW1 6410   0.678   1.977   4.335
 1837SOL    HW2 6411   0.819   2.048   4.378
 1838SOL     OW 6412   0.114   1.315   4.191
 1838SOL    HW1 6413   0.180   1.241   4.176
 1838SOL    HW2 6414   0.024   1.276   4.208
 1839SOL     OW 6415   5.325   2.545   4.701
 1839SOL    HW1 6416   5.313   2.617   4.768
 1839SOL    HW2 6417   5.423   2.533   4.681
 1840SOL     OW 6418   3.666   5.690   1.652
 1840SOL    HW1 6419   3.675   5.789   1.665
 1840SOL    HW2 6420   3.679   5.668   1.555
 1841SOL     OW 6421   2.351   1.696   4.037
 1841SOL    HW1 6422   2.263   1.731   4.069
 1841SOL    HW2 6423   2.338   1.646   3.951
 1842SOL     OW 6424   1.106   5.164   0.260
 1842SOL    HW1 6425   1.109   5.190   0.163
 1842SOL    HW2 6426   1.181   5.101   0.279
 1843SOL     OW 6427   6.692   2.041   4.013
 1843SOL    HW1 6428   6.700   1.958   3.957
 1843SOL    HW2 6429   6.711   2.121   3.956
 1844SOL     OW 6430   3.596   0.118   5.352
 1844SOL    HW1 6431   3.515   0.075   5.393
 1844SOL    HW2 6432   3.628   0.061   5.276
 1845SOL     OW 6433   1.878   6.719   4.834
 1845SOL    HW1 6434   1.790   6.767   4.823
 1845SOL    HW2 6435   1.876   6.633   4.784
 1846SOL     OW 6436   4.196   2.098   0.284
 1846SOL    HW1 6437   4.127   2.025   0.291
 1846SOL    HW2 6438   4.185   2.144   0.196
 1847SOL     OW 6439   1.305   0.667   6.154
 1847SOL    HW1 6440   1.394   0.703   6.182
 1847SOL    HW2 6441   1.278   0.708   6.067
 1848SOL     OW 6442   0.911   6.944   2.540
 1848SOL    HW1 6443   0.848   7.013   2.506
 1848SOL    HW2 6444   0.949   6.974   2.628
 1849SOL     OW 6445   3.575   1.937   0.924
 1849SOL    HW1 6446   3.540   2.027   0.899
 1849SOL    HW2 6447   3.583   1.880   0.843
 1850SOL     OW 6448   0.459   3.239   2.389
 1850SOL    HW1 6449   0.414   3.281   2.468
 1850SOL    HW2 6450   0.408   3.262   2.306
 1851SOL     OW 6451   0.133   2.557   1.365
 1851SOL    HW1 6452   0.169   2.502   1.289
 1851SOL    HW2 6453   0.118   2.498   1.444
 1852SOL     OW 6454   5.942   3.741   2.300
 1852SOL    HW1 6455   5.893   3.672   2.248
 1852SOL    HW2 6456   6.005   3.791   2.240
 1853SOL     OW 6457   0.341   3.478   3.113
 1853SOL    HW1 6458   0.430   3.475   3.068
 1853SOL    HW2 6459   0.329   3.397   3.170
 1854SOL     OW 6460   2.617   6.320   3.445
 1854SOL    HW1 6461   2.555   6.283   3.515
 1854SOL    HW2 6462   2.634   6.250   3.376
 1855SOL     OW 6463   5.330   3.799   6.458
 1855SOL    HW1 6464   5.411   3.747   6.484
 1855SOL    HW2 6465   5.255   3.776   6.520
 1856SOL     OW 6466   6.425   3.673   5.796
 1856SOL    HW1 6467   6.420   3.766   5.760
 1856SOL    HW2 6468   6.382   3.610   5.730
 1857SOL     OW 6469   4.140   1.128   5.664
 1857SOL    HW1 6470   4.163   1.138   5.761
 1857SOL    HW2 6471   4.041   1.120   5.654
 1858SOL     OW 6472   6.155   3.551   3.654
 1858SOL    HW1 6473   6.131   3.628   3.596
 1858SOL    HW2 6474   6.105   3.469   3.624
 1859SOL     OW 6475   4.649   1.827   3.587
 1859SOL    HW1 6476   4.566   1.874   3.617
 1859SOL    HW2 6477   4.627   1.765   3.512
 1860SOL     OW 6478   6.792   0.445   4.286
 1860SOL    HW1 6479   6.843   0.364   4.258
 1860SOL    HW2 6480   6.842   0.528   4.257
 1861SOL     OW 6481   5.572   0.371   1.926
 1861SOL    HW1 6482   5.558   0.284   1.974
 1861SOL    HW2 6483   5.647   0.421   1.968
 1862SOL     OW 6484   2.447   0.700   6.052
 1862SOL    HW1 6485   2.457   0.624   5.988
 1862SOL    HW2 6486   2.536   0.729   6.085
 1863SOL     OW 6487   1.819   1.605   1.289
 1863SOL    HW1 6488   1.832   1.529   1.224
 1863SOL    HW2 6489   1.765   1.677   1.245
 1864SOL     OW 6490   0.930   7.011   5.828
 1864SOL    HW1 6491   0.938   0.037   5.912
 1864SOL    HW2 6492   1.020   6.994   5.789
 1865SOL     OW 6493   3.597   6.466   6.233
 1865SOL    HW1 6494   3.535   6.389   6.245
 1865SOL    HW2 6495   3.545   6.551   6.225
 1866SOL     OW 6496   4.064   4.824   3.443
 1866SOL    HW1 6497   3.996   4.775   3.389
 1866SOL    HW2 6498   4.156   4.790   3.420
 1867SOL     OW 6499   0.373   3.724   0.122
 1867SOL    HW1 6500   0.397   3.820   0.109
 1867SOL    HW2 6501   0.456   3.668   0.122
 1868SOL     OW 6502   4.586   4.525   0.098
 1868SOL    HW1 6503   4.489   4.535   0.121
 1868SOL    HW2 6504   4.641   4.575   0.164
 1869SOL     OW 6505   6.275   2.604   5.701
 1869SOL    HW1 6506   6.351   2.545   5.728
 1869SOL    HW2 6507   6.297   2.699   5.723
 1870SOL     OW 6508   2.057   2.739   5.651
 1870SOL    HW1 6509   2.125   2.731   5.578
 1870SOL    HW2 6510   1.983   2.674   5.635
 1871SOL     OW 6511   0.532   0.457   0.407
 1871SOL    HW1 6512   0.452   0.403   0.435
 1871SOL    HW2 6513   0.542   0.453   0.308
 1872SOL     OW 6514   3.601   2.340   6.265
 1872SOL    HW1 6515   3.649   2.270   6.211
 1872SOL    HW2 6516   3.514   2.361   6.222
 1873SOL     OW 6517   4.867   1.669   5.730
 1873SOL    HW1 6518   4.905   1.637   5.644
 1873SOL    HW2 6519   4.845   1.766   5.723
 1874SOL     OW 6520   3.411   1.204   1.368
 1874SOL    HW1 6521   3.343   1.151   1.317
 1874SOL    HW2 6522   3.440   1.282   1.312
 1875SOL     OW 6523   0.549   1.235   0.297
 1875SOL    HW1 6524   0.499   1.299   0.238
 1875SOL    HW2 6525   0.638   1.215   0.256
 1876SOL     OW 6526   4.112   6.625   6.093
 1876SOL    HW1 6527   4.061   6.702   6.056
 1876SOL    HW2 6528   4.124   6.555   6.022
 1877SOL     OW 6529   0.461   6.814   2.611
 1877SOL    HW1 6530   0.477   6.892   2.550
 1877SOL    HW2 6531   0.428   6.736   2.557
 1878SOL     OW 6532   6.775   2.392   3.553
 1878SOL    HW1 6533   6.786   2.491   3.557
 1878SOL    HW2 6534   6.720   2.368   3.472
 1879SOL     OW 6535   1.351   4.222   4.399
 1879SOL    HW1 6536   1.373   4.163   4.477
 1879SOL    HW2 6537   1.425   4.288   4.385
 1880SOL     OW 6538   6.607   1.433   4.509
 1880SOL    HW1 6539   6.536   1.432   4.578
 1880SOL    HW2 6540   6.566   1.421   4.418
 1881SOL     OW 6541   6.135   2.409   3.490
 1881SOL    HW1 6542   6.223   2.392   3.445
 1881SOL    HW2 6543   6.136   2.501   3.531
 1882SOL     OW 6544   1.133   4.010   6.097
 1882SOL    HW1 6545   1.137   3.925   6.149
 1882SOL    HW2 6546   1.180   3.997   6.009
 1883SOL     OW 6547   6.902   2.007   3.372
 1883SOL    HW1 6548   6.955   2.012   3.457
 1883SOL    HW2 6549   6.863   1.915   3.362
 1884SOL     OW 6550   0.095   2.826   0.837
 1884SOL    HW1 6551   0.104   2.748   0.898
 1884SOL    HW2 6552   0.025   2.889   0.872
 1885SOL     OW 6553   1.805   2.247   6.605
 1885SOL    HW1 6554   1.776   2.158   6.640
 1885SOL    HW2 6555   1.879   2.283   6.663
 1886SOL     OW 6556   1.901   1.109   1.777
 1886SOL    HW1 6557   1.968   1.036   1.765
 1886SOL    HW2 6558   1.929   1.168   1.852
 1887SOL     OW 6559   1.039   6.119   4.471
 1887SOL    HW1 6560   1.047   6.035   4.418
 1887SOL    HW2 6561   0.987   6.187   4.419
 1888SOL     OW 6562   3.076   1.948   0.336
 1888SOL    HW1 6563   3.110   1.916   0.248
 1888SOL    HW2 6564   3.024   1.875   0.381
 1889SOL     OW 6565   0.213   3.164   5.761
 1889SOL    HW1 6566   0.252   3.116   5.682
 1889SOL    HW2 6567   0.203   3.261   5.739
 1890SOL     OW 6568   2.030   6.195   4.455
 1890SOL    HW1 6569   1.941   6.225   4.491
 1890SOL    HW2 6570   2.085   6.275   4.432
 1891SOL     OW 6571   5.605   2.841   2.123
 1891SOL    HW1 6572   5.555   2.802   2.045
 1891SOL    HW2 6573   5.678   2.778   2.151
 1892SOL     OW 6574   2.185   0.232   2.670
 1892SOL    HW1 6575   2.274   0.219   2.627
 1892SOL    HW2 6576   2.183   0.321   2.716
 1893SOL     OW 6577   3.114   3.395   0.545
 1893SOL    HW1 6578   3.112   3.350   0.456
 1893SOL    HW2 6579   3.177   3.346   0.606
 1894SOL     OW 6580   3.582   4.125   4.246
 1894SOL    HW1 6581   3.492   4.139   4.285
 1894SOL    HW2 6582   3.631   4.055   4.298
 1895SOL     OW 6583   4.491   0.671   1.490
 1895SOL    HW1 6584   4.530   0.587   1.528
 1895SOL    HW2 6585   4.506   0.674   1.391
 1896SOL     OW 6586   4.842   0.565   1.327
 1896SOL    HW1 6587   4.835   0.470   1.296
 1896SOL    HW2 6588   4.755   0.611   1.312
 1897SOL     OW 6589   2.607   5.672   1.462
 1897SOL    HW1 6590   2.588   5.754   1.408
 1897SOL    HW2 6591   2.527   5.612   1.461
 1898SOL     OW 6592   2.330   5.628   3.383
 1898SOL    HW1 6593   2.381   5.660   3.303
 1898SOL    HW2 6594   2.235   5.610   3.357
 1899SOL     OW 6595   0.716   1.178   1.740
 1899SOL    HW1 6596   0.643   1.128   1.694
 1899SOL    HW2 6597   0.677   1.233   1.815
 1900SOL     OW 6598   2.107   0.446   6.749
 1900SOL    HW1 6599   2.124   0.363   6.696
 1900SOL    HW2 6600   2.181   0.512   6.734
 1901SOL     OW 6601   1.475   2.499   0.823
 1901SOL    HW1 6602   1.574   2.505   0.808
 1901SOL    HW2 6603   1.456   2.427   0.890
 1902SOL     OW 6604   2.073   0.773   5.335
 1902SOL    HW1 6605   2.136   0.804   5.263
 1902SOL    HW2 6606   2.026   0.852   5.374
 1903SOL     OW 6607   0.408   3.475   2.614
 1903SOL    HW1 6608   0.363   3.503   2.529
 1903SOL    HW2 6609   0.488   3.533   2.630
 1904SOL     OW 6610   5.481   5.812   3.574
 1904SOL    HW1 6611   5.414   5.743   3.547
 1904SOL    HW2 6612   5.573   5.778   3.554
 1905SOL     OW 6613   1.013   6.817   3.340
 1905SOL    HW1 6614   1.066   6.838   3.421
 1905SOL    HW2 6615   1.068   6.833   3.258
 1906SOL     OW 6616   1.827   0.075   4.645
 1906SOL    HW1 6617   1.780   0.070   4.557
 1906SOL    HW2 6618   1.915   0.120   4.634
 1907SOL     OW 6619   3.658   1.581   1.793
 1907SOL    HW1 6620   3.616   1.508   1.848
 1907SOL    HW2 6621   3.591   1.619   1.730
 1908SOL     OW 6622   3.440   6.716   5.560
 1908SOL    HW1 6623   3.366   6.667   5.607
 1908SOL    HW2 6624   3.441   6.690   5.464
 1909SOL     OW 6625   0.861   3.648   3.023
 1909SOL    HW1 6626   0.863   3.719   2.952
 1909SOL    HW2 6627   0.875   3.690   3.113
 1910SOL     OW 6628   6.973   4.951   6.214
 1910SOL    HW1 6629   6.908   4.882   6.181
 1910SOL    HW2 6630   0.039   4.917   6.202
 1911SOL     OW 6631   0.095   3.783   5.029
 1911SOL    HW1 6632   0.073   3.698   4.980
 1911SOL    HW2 6633   0.024   3.802   5.097
 1912SOL     OW 6634   2.843   5.692   0.609
 1912SOL    HW1 6635   2.773   5.650   0.551
 1912SOL    HW2 6636   2.810   5.780   0.643
 1913SOL     OW 6637   2.199   0.191   4.838
 1913SOL    HW1 6638   2.296   0.186   4.864
 1913SOL    HW2 6639   2.158   0.272   4.880
 1914SOL     OW 6640   3.855   2.947   6.531
 1914SOL    HW1 6641   3.799   2.911   6.456
 1914SOL    HW2 6642   3.850   3.047   6.531
 1915SOL     OW 6643   3.793   2.153   5.199
 1915SOL    HW1 6644   3.747   2.065   5.191
 1915SOL    HW2 6645   3.740   2.214   5.259
 1916SOL     OW 6646   4.148   5.673   1.258
 1916SOL    HW1 6647   4.104   5.731   1.326
 1916SOL    HW2 6648   4.219   5.725   1.210
 1917SOL     OW 6649   2.390   2.818   6.611
 1917SOL    HW1 6650   2.411   2.872   6.692
 1917SOL    HW2 6651   2.449   2.848   6.535
 1918SOL     OW 6652   1.402   1.238   4.734
 1918SOL    HW1 6653   1.378   1.269   4.642
 1918SOL    HW2 6654   1.499   1.214   4.737
 1919SOL     OW 6655   1.287   1.728   2.027
 1919SOL    HW1 6656   1.315   1.797   1.961
 1919SOL    HW2 6657   1.276   1.640   1.980
 1920SOL     OW 6658   0.391   4.115   3.083
 1920SOL    HW1 6659   0.445   4.176   3.141
 1920SOL    HW2 6660   0.320   4.071   3.138
 1921SOL     OW 6661   1.446   3.619   6.624
 1921SOL    HW1 6662   1.400   3.675   6.556
 1921SOL    HW2 6663   1.530   3.664   6.653
 1922SOL     OW 6664   2.884   3.115   1.496
 1922SOL    HW1 6665   2.871   3.065   1.581
 1922SOL    HW2 6666   2.802   3.170   1.477
 1923SOL     OW 6667   3.697   1.393   6.206
 1923SOL    HW1 6668   3.605   1.382   6.170
 1923SOL    HW2 6669   3.764   1.368   6.136
 1924SOL     OW 6670   4.637   6.582   0.048
 1924SOL    HW1 6671   4.663   6.517   0.119
 1924SOL    HW2 6672   4.687   6.562   6.992
 1925SOL     OW 6673   1.558   4.655   0.480
 1925SOL    HW1 6674   1.596   4.583   0.538
 1925SOL    HW2 6675   1.630   4.694   0.423
 1926SOL     OW 6676   3.188   7.012   2.893
 1926SOL    HW1 6677   3.180   0.041   2.811
 1926SOL    HW2 6678   3.263   6.947   2.881
 1927SOL     OW 6679   2.359   4.947   0.068
 1927SOL    HW1 6680   2.318   4.892   7.024
 1927SOL    HW2 6681   2.435   5.000   0.030
 1928SOL     OW 6682   5.920   4.136   4.566
 1928SOL    HW1 6683   5.920   4.231   4.600
 1928SOL    HW2 6684   5.988   4.083   4.616
 1929SOL     OW 6685   2.427   0.307   1.361
 1929SOL    HW1 6686   2.337   0.289   1.322
 1929SOL    HW2 6687   2.485   0.352   1.293
 1930SOL     OW 6688   5.100   3.797   6.584
 1930SOL    HW1 6689   5.013   3.766   6.623
 1930SOL    HW2 6690   5.136   3.872   6.640
 1931SOL     OW 6691   0.971   2.309   1.411
 1931SOL    HW1 6692   1.005   2.226   1.367
 1931SOL    HW2 6693   0.922   2.364   1.343
 1932SOL     OW 6694   4.845   2.834   3.092
 1932SOL    HW1 6695   4.905   2.800   3.165
 1932SOL    HW2 6696   4.895   2.835   3.005
 1933SOL     OW 6697   1.379   3.146   0.686
 1933SOL    HW1 6698   1.464   3.177   0.643
 1933SOL    HW2 6699   1.301   3.180   0.634
 1934SOL     OW 6700   6.868   1.079   4.890
 1934SOL    HW1 6701   6.846   1.168   4.930
 1934SOL    HW2 6702   6.954   1.045   4.928
 1935SOL     OW 6703   4.657   4.801   3.576
 1935SOL    HW1 6704   4.645   4.712   3.532
 1935SOL    HW2 6705   4.610   4.801   3.664
 1936SOL     OW 6706   5.161   4.330   3.983
 1936SOL    HW1 6707   5.092   4.366   4.046
 1936SOL    HW2 6708   5.120   4.317   3.893
 1937SOL     OW 6709   3.951   5.853   6.959
 1937SOL    HW1 6710   3.952   5.858   0.032
 1937SOL    HW2 6711   3.984   5.939   6.921
 1938SOL     OW 6712   1.357   1.705   1.466
 1938SOL    HW1 6713   1.297   1.784   1.474
 1938SOL    HW2 6714   1.351   1.649   1.549
 1939SOL     OW 6715   6.759   6.701   4.609
 1939SOL    HW1 6716   6.852   6.700   4.645
 1939SOL    HW2 6717   6.721   6.794   4.616
 1940SOL     OW 6718   6.582   4.668   1.022
 1940SOL    HW1 6719   6.576   4.676   0.922
 1940SOL    HW2 6720   6.556   4.576   1.050
 1941SOL     OW 6721   1.545   2.611   4.122
 1941SOL    HW1 6722   1.591   2.523   4.106
 1941SOL    HW2 6723   1.539   2.628   4.221
 1942SOL     OW 6724   5.462   2.779   2.427
 1942SOL    HW1 6725   5.461   2.843   2.504
 1942SOL    HW2 6726   5.555   2.773   2.390
 1943SOL     OW 6727   1.767   6.798   3.237
 1943SOL    HW1 6728   1.835   6.740   3.190
 1943SOL    HW2 6729   1.727   6.862   3.171
 1944SOL     OW 6730   5.731   3.695   0.001
 1944SOL    HW1 6731   5.831   3.699   0.003
 1944SOL    HW2 6732   5.694   3.762   0.065
 1945SOL     OW 6733   3.718   5.452   6.810
 1945SOL    HW1 6734   3.728   5.355   6.786
 1945SOL    HW2 6735   3.772   5.507   6.747
 1946SOL     OW 6736   5.604   0.112   1.160
 1946SOL    HW1 6737   5.628   0.195   1.110
 1946SOL    HW2 6738   5.529   0.065   1.113
 1947SOL     OW 6739   5.152   6.074   4.691
 1947SOL    HW1 6740   5.199   6.104   4.607
 1947SOL    HW2 6741   5.214   6.083   4.769
 1948SOL     OW 6742   5.827   5.208   2.820
 1948SOL    HW1 6743   5.770   5.248   2.749
 1948SOL    HW2 6744   5.924   5.221   2.797
 1949SOL     OW 6745   3.911   3.550   0.015
 1949SOL    HW1 6746   3.814   3.565   0.031
 1949SOL    HW2 6747   3.931   3.559   6.945
 1950SOL     OW 6748   3.128   2.984   2.547
 1950SOL    HW1 6749   3.136   2.904   2.605
 1950SOL    HW2 6750   3.217   3.009   2.511
 1951SOL     OW 6751   6.731   4.555   6.439
 1951SOL    HW1 6752   6.707   4.459   6.425
 1951SOL    HW2 6753   6.827   4.569   6.416
 1952SOL     OW 6754   5.765   4.339   1.185
 1952SOL    HW1 6755   5.665   4.343   1.179
 1952SOL    HW2 6756   5.802   4.293   1.105
 1953SOL     OW 6757   6.718   1.961   5.814
 1953SOL    HW1 6758   6.794   1.937   5.875
 1953SOL    HW2 6759   6.700   2.059   5.820
 1954SOL     OW 6760   6.137   0.195   1.223
 1954SOL    HW1 6761   6.060   0.131   1.233
 1954SOL    HW2 6762   6.213   0.149   1.178
 1955SOL     OW 6763   0.416   0.069   2.499
 1955SOL    HW1 6764   0.446   0.129   2.573
 1955SOL    HW2 6765   0.343   0.114   2.447
 1956SOL     OW 6766   4.916   0.550   1.674
 1956SOL    HW1 6767   5.000   0.533   1.727
 1956SOL    HW2 6768   4.941   0.587   1.584
 1957SOL     OW 6769   4.895   4.615   3.966
 1957SOL    HW1 6770   4.922   4.629   3.871
 1957SOL    HW2 6771   4.819   4.676   3.989
 1958SOL     OW 6772   4.965   1.805   1.541
 1958SOL    HW1 6773   5.029   1.878   1.516
 1958SOL    HW2 6774   4.875   1.827   1.503
 1959SOL     OW 6775   0.562   6.862   3.819
 1959SOL    HW1 6776   0.604   6.951   3.834
 1959SOL    HW2 6777   0.486   6.872   3.754
 1960SOL     OW 6778   0.398   4.005   2.517
 1960SOL    HW1 6779   0.491   4.033   2.541
 1960SOL    HW2 6780   0.401   3.915   2.475
 1961SOL     OW 6781   6.211   4.259   4.336
 1961SOL    HW1 6782   6.177   4.351   4.355
 1961SOL    HW2 6783   6.301   4.247   4.378
 1962SOL     OW 6784   1.408   6.895   2.211
 1962SOL    HW1 6785   1.440   6.967   2.272
 1962SOL    HW2 6786   1.486   6.848   2.170
 1963SOL     OW 6787   1.261   1.332   1.720
 1963SOL    HW1 6788   1.177   1.317   1.668
 1963SOL    HW2 6789   1.328   1.261   1.698
 1964SOL     OW 6790   3.666   5.033   1.274
 1964SOL    HW1 6791   3.605   5.056   1.198
 1964SOL    HW2 6792   3.613   4.989   1.346
 1965SOL     OW 6793   1.859   2.217   4.225
 1965SOL    HW1 6794   1.883   2.192   4.131
 1965SOL    HW2 6795   1.827   2.135   4.274
 1966SOL     OW 6796   1.111   5.900   1.535
 1966SOL    HW1 6797   1.187   5.942   1.485
 1966SOL    HW2 6798   1.029   5.903   1.478
 1967SOL     OW 6799   6.368   2.690   4.168
 1967SOL    HW1 6800   6.295   2.739   4.122
 1967SOL    HW2 6801   6.373   2.718   4.264
 1968SOL     OW 6802   2.180   0.564   5.578
 1968SOL    HW1 6803   2.191   0.476   5.623
 1968SOL    HW2 6804   2.102   0.612   5.618
 1969SOL     OW 6805   2.961   1.299   1.473
 1969SOL    HW1 6806   3.006   1.224   1.521
 1969SOL    HW2 6807   3.026   1.342   1.410
 1970SOL     OW 6808   0.675   0.482   4.984
 1970SOL    HW1 6809   0.599   0.418   4.991
 1970SOL    HW2 6810   0.683   0.515   4.890
 1971SOL     OW 6811   0.362   1.052   5.818
 1971SOL    HW1 6812   0.449   1.001   5.821
 1971SOL    HW2 6813   0.362   1.122   5.890
 1972SOL     OW 6814   5.822   2.266   1.215
 1972SOL    HW1 6815   5.749   2.322   1.254
 1972SOL    HW2 6816   5.784   2.180   1.183
 1973SOL     OW 6817   2.694   4.323   1.673
 1973SOL    HW1 6818   2.772   4.334   1.735
 1973SOL    HW2 6819   2.724   4.275   1.590
 1974SOL     OW 6820   4.790   6.979   4.638
 1974SOL    HW1 6821   4.830   0.036   4.604
 1974SOL    HW2 6822   4.704   7.001   4.686
 1975SOL     OW 6823   2.342   2.060   4.196
 1975SOL    HW1 6824   2.247   2.028   4.187
 1975SOL    HW2 6825   2.361   2.127   4.124
 1976SOL     OW 6826   5.508   5.768   0.804
 1976SOL    HW1 6827   5.443   5.711   0.854
 1976SOL    HW2 6828   5.596   5.767   0.851
 1977SOL     OW 6829   1.821   3.144   5.181
 1977SOL    HW1 6830   1.816   3.233   5.137
 1977SOL    HW2 6831   1.846   3.074   5.114
 1978SOL     OW 6832   1.921   5.806   2.984
 1978SOL    HW1 6833   1.937   5.818   2.886
 1978SOL    HW2 6834   1.865   5.881   3.019
 1979SOL     OW 6835   5.191   5.022   0.157
 1979SOL    HW1 6836   5.202   4.944   0.218
 1979SOL    HW2 6837   5.194   5.107   0.210
 1980SOL     OW 6838   4.318   0.511   3.627
 1980SOL    HW1 6839   4.261   0.471   3.699
 1980SOL    HW2 6840   4.285   0.603   3.606
 1981SOL     OW 6841   5.667   2.728   2.701
 1981SOL    HW1 6842   5.689   2.774   2.615
 1981SOL    HW2 6843   5.583   2.675   2.690
 1982SOL     OW 6844   0.077   3.596   3.800
 1982SOL    HW1 6845   0.064   3.583   3.898
 1982SOL    HW2 6846   7.021   3.570   3.751
 1983SOL     OW 6847   1.914   0.693   1.568
 1983SOL    HW1 6848   1.833   0.733   1.524
 1983SOL    HW2 6849   1.966   0.641   1.501
 1984SOL     OW 6850   4.521   2.499   4.985
 1984SOL    HW1 6851   4.583   2.578   4.990
 1984SOL    HW2 6852   4.432   2.525   5.025
 1985SOL     OW 6853   0.248   6.068   1.803
 1985SOL    HW1 6854   0.194   6.028   1.729
 1985SOL    HW2 6855   0.188   6.119   1.864
 1986SOL     OW 6856   2.930   0.786   6.189
 1986SOL    HW1 6857   2.962   0.872   6.150
 1986SOL    HW2 6858   3.004   0.719   6.190
 1987SOL     OW 6859   2.598   1.570   4.013
 1987SOL    HW1 6860   2.653   1.543   4.092
 1987SOL    HW2 6861   2.516   1.618   4.044
 1988SOL     OW 6862   0.622   2.317   0.802
 1988SOL    HW1 6863   0.613   2.416   0.813
 1988SOL    HW2 6864   0.692   2.298   0.732
 1989SOL     OW 6865   2.069   5.938   4.463
 1989SOL    HW1 6866   2.166   5.916   4.453
 1989SOL    HW2 6867   2.058   6.036   4.477
 1990SOL     OW 6868   3.377   5.515   0.150
 1990SOL    HW1 6869   3.435   5.543   0.226
 1990SOL    HW2 6870   3.399   5.421   0.123
 1991SOL     OW 6871   1.599   5.903   0.195
 1991SOL    HW1 6872   1.693   5.929   0.176
 1991SOL    HW2 6873   1.554   5.875   0.110
 1992SOL     OW 6874   7.026   0.568   0.488
 1992SOL    HW1 6875   0.094   0.597   0.477
 1992SOL    HW2 6876   6.981   0.626   0.556
 1993SOL     OW 6877   3.501   1.601   5.323
 1993SOL    HW1 6878   3.435   1.604   5.398
 1993SOL    HW2 6879   3.496   1.686   5.271
 1994SOL     OW 6880   6.064   2.370   1.526
 1994SOL    HW1 6881   6.027   2.403   1.439
 1994SOL    HW2 6882   6.086   2.272   1.518
 1995SOL     OW 6883   5.457   3.007   3.792
 1995SOL    HW1 6884   5.483   2.953   3.712
 1995SOL    HW2 6885   5.530   3.071   3.814
 1996SOL     OW 6886   2.548   1.692   1.444
 1996SOL    HW1 6887   2.624   1.716   1.504
 1996SOL    HW2 6888   2.526   1.595   1.457
 1997SOL     OW 6889   3.644   1.495   3.999
 1997SOL    HW1 6890   3.644   1.457   4.092
 1997SOL    HW2 6891   3.717   1.563   3.991
 1998SOL     OW 6892   1.544   4.084   1.097
 1998SOL    HW1 6893   1.527   4.157   1.031
 1998SOL    HW2 6894   1.604   4.015   1.056
 1999SOL     OW 6895   0.853   0.247   5.640
 1999SOL    HW1 6896   0.884   0.186   5.568
 1999SOL    HW2 6897   0.816   0.194   5.716
 2000SOL     OW 6898   3.694   3.024   5.760
 2000SOL    HW1 6899   3.703   3.019   5.859
 2000SOL    HW2 6900   3.639   3.105   5.736
 2001SOL     OW 6901   2.264   1.419   0.814
 2001SOL    HW1 6902   2.187   1.424   0.877
 2001SOL    HW2 6903   2.343   1.465   0.855
 2002SOL     OW 6904   0.511   5.013   1.017
 2002SOL    HW1 6905   0.452   5.080   0.972
 2002SOL    HW2 6906   0.485   4.921   0.989
 2003SOL     OW 6907   6.794   4.828   2.074
 2003SOL    HW1 6908   6.724   4.866   2.135
 2003SOL    HW2 6909   6.762   4.742   2.035
 2004SOL     OW 6910   4.625   0.492   4.870
 2004SOL    HW1 6911   4.547   0.553   4.855
 2004SOL    HW2 6912   4.593   0.404   4.905
 2005SOL     OW 6913   0.210   4.698   0.242
 2005SOL    HW1 6914   0.256   4.611   0.258
 2005SOL    HW2 6915   0.277   4.768   0.219
 2006SOL     OW 6916   5.560   6.661   4.127
 2006SOL    HW1 6917   5.481   6.678   4.186
 2006SOL    HW2 6918   5.552   6.718   4.045
 2007SOL     OW 6919   5.471   4.302   1.165
 2007SOL    HW1 6920   5.482   4.321   1.262
 2007SOL    HW2 6921   5.418   4.375   1.122
 2008SOL     OW 6922   2.116   3.317   3.197
 2008SOL    HW1 6923   2.072   3.336   3.285
 2008SOL    HW2 6924   2.058   3.350   3.123
 2009SOL     OW 6925   5.029   6.169   2.354
 2009SOL    HW1 6926   5.037   6.265   2.381
 2009SOL    HW2 6927   5.097   6.148   2.284
 2010SOL     OW 6928   2.085   1.477   2.128
 2010SOL    HW1 6929   2.131   1.501   2.042
 2010SOL    HW2 6930   2.022   1.549   2.154
 2011SOL     OW 6931   0.631   1.102   4.996
 2011SOL    HW1 6932   0.712   1.153   4.968
 2011SOL    HW2 6933   0.557   1.167   5.017
 2012SOL     OW 6934   1.615   3.661   2.385
 2012SOL    HW1 6935   1.569   3.709   2.310
 2012SOL    HW2 6936   1.694   3.612   2.348
 2013SOL     OW 6937   6.570   3.427   3.967
 2013SOL    HW1 6938   6.616   3.350   3.924
 2013SOL    HW2 6939   6.539   3.491   3.897
 2014SOL     OW 6940   3.262   0.177   3.107
 2014SOL    HW1 6941   3.224   0.267   3.087
 2014SOL    HW2 6942   3.222   0.110   3.044
 2015SOL     OW 6943   3.221   6.329   0.259
 2015SOL    HW1 6944   3.221   6.229   0.255
 2015SOL    HW2 6945   3.305   6.364   0.219
 2016SOL     OW 6946   1.397   5.580   4.947
 2016SOL    HW1 6947   1.325   5.591   4.878
 2016SOL    HW2 6948   1.433   5.670   4.972
 2017SOL     OW 6949   4.640   0.196   3.040
 2017SOL    HW1 6950   4.564   0.138   3.069
 2017SOL    HW2 6951   4.725   0.160   3.079
 2018SOL     OW 6952   6.212   2.924   3.734
 2018SOL    HW1 6953   6.146   2.934   3.660
 2018SOL    HW2 6954   6.302   2.903   3.696
 2019SOL     OW 6955   5.959   4.251   6.380
 2019SOL    HW1 6956   5.969   4.339   6.428
 2019SOL    HW2 6957   5.867   4.215   6.396
 2020SOL     OW 6958   1.820   6.199   5.752
 2020SOL    HW1 6959   1.798   6.263   5.825
 2020SOL    HW2 6960   1.800   6.241   5.664
 2021SOL     OW 6961   6.155   6.357   4.291
 2021SOL    HW1 6962   6.160   6.373   4.390
 2021SOL    HW2 6963   6.101   6.430   4.248
 2022SOL     OW 6964   1.722   4.423   4.527
 2022SOL    HW1 6965   1.821   4.420   4.533
 2022SOL    HW2 6966   1.682   4.351   4.584
 2023SOL     OW 6967   0.827   0.008   0.019
 2023SOL    HW1 6968   0.804   0.053   0.105
 2023SOL    HW2 6969   0.914   6.986   0.029
 2024SOL     OW 6970   0.033   5.842   3.863
 2024SOL    HW1 6971   0.038   5.935   3.897
 2024SOL    HW2 6972   6.976   5.830   3.811
 2025SOL     OW 6973   3.540   0.944   4.403
 2025SOL    HW1 6974   3.538   0.845   4.418
 2025SOL    HW2 6975   3.564   0.962   4.307
 2026SOL     OW 6976   6.777   2.260   6.724
 2026SOL    HW1 6977   6.876   2.249   6.718
 2026SOL    HW2 6978   6.744   2.312   6.645
 2027SOL     OW 6979   0.441   6.972   1.541
 2027SOL    HW1 6980   0.492   6.953   1.625
 2027SOL    HW2 6981   0.495   6.944   1.462
 2028SOL     OW 6982   3.361   5.409   3.865
 2028SOL    HW1 6983   3.301   5.370   3.935
 2028SOL    HW2 6984   3.445   5.355   3.860
 2029SOL     OW 6985   6.389   2.262   6.886
 2029SOL    HW1 6986   6.488   2.250   6.894
 2029SOL    HW2 6987   6.368   2.360   6.883
 2030SOL     OW 6988   3.623   0.366   2.515
 2030SOL    HW1 6989   3.696   0.434   2.526
 2030SOL    HW2 6990   3.616   0.311   2.598
 2031SOL     OW 6991   7.006   6.254   2.474
 2031SOL    HW1 6992   0.048   6.306   2.424
 2031SOL    HW2 6993   7.027   6.156   2.469
 2032SOL     OW 6994   3.677   1.473   1.479
 2032SOL    HW1 6995   3.605   1.537   1.451
 2032SOL    HW2 6996   3.763   1.522   1.491
 2033SOL     OW 6997   2.417   0.879   0.914
 2033SOL    HW1 6998   2.485   0.868   0.986
 2033SOL    HW2 6999   2.357   0.956   0.936
 2034SOL     OW 7000   1.450   4.894   5.480
 2034SOL    HW1 7001   1.468   4.831   5.556
 2034SOL    HW2 7002   1.522   4.885   5.411
 2035SOL     OW 7003   6.474   6.643   2.543
 2035SOL    HW1 7004   6.394   6.598   2.583
 2035SOL    HW2 7005   6.461   6.742   2.545
 2036SOL     OW 7006   1.520   3.891   3.593
 2036SOL    HW1 7007   1.424   3.898   3.618
 2036SOL    HW2 7008   1.573   3.860   3.672
 2037SOL     OW 7009   6.153   2.679   6.384
 2037SOL    HW1 7010   6.200   2.695   6.297
 2037SOL    HW2 7011   6.220   2.652   6.453
 2038SOL     OW 7012   2.494   1.431   0.568
 2038SOL    HW1 7013   2.590   1.458   0.569
 2038SOL    HW2 7014   2.476   1.370   0.645
 2039SOL     OW 7015   0.195   6.654   2.893
 2039SOL    HW1 7016   0.164   6.584   2.957
 2039SOL    HW2 7017   0.293   6.671   2.906
 2040SOL     OW 7018   2.342   2.003   0.397
 2040SOL    HW1 7019   2.440   1.995   0.382
 2040SOL    HW2 7020   2.298   1.914   0.384
 2041SOL     OW 7021   1.265   0.318   5.509
 2041SOL    HW1 7022   1.239   0.279   5.597
 2041SOL    HW2 7023   1.251   0.250   5.437
 2042SOL     OW 7024   5.030   0.315   6.005
 2042SOL    HW1 7025   4.990   0.360   6.085
 2042SOL    HW2 7026   4.979   0.232   5.984
 2043SOL     OW 7027   6.189   2.594   2.870
 2043SOL    HW1 7028   6.130   2.521   2.836
 2043SOL    HW2 7029   6.135   2.661   2.921
 2044SOL     OW 7030   6.235   0.610   0.667
 2044SOL    HW1 7031   6.157   0.548   0.678
 2044SOL    HW2 7032   6.314   0.573   0.715
 2045SOL     OW 7033   1.146   5.304   4.341
 2045SOL    HW1 7034   1.156   5.403   4.334
 2045SOL    HW2 7035   1.094   5.282   4.424
 2046SOL     OW 7036   6.275   2.290   5.494
 2046SOL    HW1 7037   6.217   2.219   5.535
 2046SOL    HW2 7038   6.219   2.349   5.436
 2047SOL     OW 7039   6.660   2.685   0.939
 2047SOL    HW1 7040   6.664   2.673   0.840
 2047SOL    HW2 7041   6.564   2.691   0.968
 2048SOL     OW 7042   0.440   0.768   4.716
 2048SOL    HW1 7043   0.340   0.769   4.724
 2048SOL    HW2 7044   0.466   0.810   4.629
 2049SOL     OW 7045   5.333   1.401   4.068
 2049SOL    HW1 7046   5.431   1.385   4.055
 2049SOL    HW2 7047   5.302   1.472   4.005
 2050SOL     OW 7048   6.869   2.548   4.433
 2050SOL    HW1 7049   6.809   2.472   4.409
 2050SOL    HW2 7050   6.834   2.632   4.392
 2051SOL     OW 7051   1.900   5.814   6.917
 2051SOL    HW1 7052   1.988   5.784   6.954
 2051SOL    HW2 7053   1.863   5.888   6.973
 2052SOL     OW 7054   1.418   2.857   0.721
 2052SOL    HW1 7055   1.362   2.824   0.646
 2052SOL    HW2 7056   1.414   2.957   0.725
 2053SOL     OW 7057   1.010   5.456   4.790
 2053SOL    HW1 7058   0.978   5.379   4.844
 2053SOL    HW2 7059   0.974   5.541   4.828
 2054SOL     OW 7060   3.198   3.769   3.488
 2054SOL    HW1 7061   3.274   3.800   3.545
 2054SOL    HW2 7062   3.122   3.740   3.547
 2055SOL     OW 7063   6.279   2.873   4.796
 2055SOL    HW1 7064   6.253   2.843   4.888
 2055SOL    HW2 7065   6.378   2.888   4.794
 2056SOL     OW 7066   4.214   4.962   1.526
 2056SOL    HW1 7067   4.167   5.050   1.515
 2056SOL    HW2 7068   4.236   4.948   1.622
 2057SOL     OW 7069   4.907   3.327   5.153
 2057SOL    HW1 7070   4.883   3.423   5.142
 2057SOL    HW2 7071   4.878   3.275   5.073
 2058SOL     OW 7072   0.692   6.655   2.208
 2058SOL    HW1 7073   0.604   6.647   2.161
 2058SOL    HW2 7074   0.688   6.730   2.274
 2059SOL     OW 7075   2.559   6.809   5.604
 2059SOL    HW1 7076   2.518   6.897   5.579
 2059SOL    HW2 7077   2.570   6.752   5.523
 2060SOL     OW 7078   6.969   3.426   2.085
 2060SOL    HW1 7079   6.944   3.346   2.140
 2060SOL    HW2 7080   6.919   3.425   1.999
 2061SOL     OW 7081   2.032   2.199   2.348
 2061SOL    HW1 7082   1.955   2.210   2.411
 2061SOL    HW2 7083   2.003   2.147   2.269
 2062SOL     OW 7084   6.998   5.891   5.251
 2062SOL    HW1 7085   0.008   5.799   5.247
 2062SOL    HW2 7086   6.925   5.894   5.319
 2063SOL     OW 7087   1.212   6.778   4.880
 2063SOL    HW1 7088   1.200   6.807   4.975
 2063SOL    HW2 7089   1.194   6.680   4.872
 2064SOL     OW 7090   0.742   3.122   4.393
 2064SOL    HW1 7091   0.839   3.108   4.369
 2064SOL    HW2 7092   0.727   3.218   4.415
 2065SOL     OW 7093   5.542   3.498   5.728
 2065SOL    HW1 7094   5.451   3.508   5.687
 2065SOL    HW2 7095   5.571   3.586   5.765
 2066SOL     OW 7096   6.398   4.587   5.651
 2066SOL    HW1 7097   6.402   4.627   5.559
 2066SOL    HW2 7098   6.305   4.593   5.686
 2067SOL     OW 7099   6.479   4.943   1.118
 2067SOL    HW1 7100   6.516   4.854   1.092
 2067SOL    HW2 7101   6.380   4.944   1.106
 2068SOL     OW 7102   3.911   1.073   4.548
 2068SOL    HW1 7103   3.974   1.000   4.577
 2068SOL    HW2 7104   3.862   1.108   4.627
 2069SOL     OW 7105   0.222   2.194   4.117
 2069SOL    HW1 7106   0.179   2.284   4.129
 2069SOL    HW2 7107   0.205   2.138   4.197
 2070SOL     OW 7108   1.300   2.805   0.975
 2070SOL    HW1 7109   1.245   2.722   0.970
 2070SOL    HW2 7110   1.370   2.803   0.903
 2071SOL     OW 7111   5.781   2.027   6.273
 2071SOL    HW1 7112   5.782   2.094   6.348
 2071SOL    HW2 7113   5.819   1.940   6.306
 2072SOL     OW 7114   4.306   5.175   5.400
 2072SOL    HW1 7115   4.272   5.262   5.364
 2072SOL    HW2 7116   4.289   5.170   5.498
 2073SOL     OW 7117   3.656   6.291   5.529
 2073SOL    HW1 7118   3.686   6.198   5.549
 2073SOL    HW2 7119   3.736   6.348   5.509
 2074SOL     OW 7120   1.624   2.423   6.507
 2074SOL    HW1 7121   1.667   2.510   6.483
 2074SOL    HW2 7122   1.691   2.364   6.552
 2075SOL     OW 7123   6.644   2.290   3.309
 2075SOL    HW1 7124   6.696   2.226   3.252
 2075SOL    HW2 7125   6.597   2.356   3.250
 2076SOL     OW 7126   6.090   0.389   5.607
 2076SOL    HW1 7127   6.163   0.349   5.551
 2076SOL    HW2 7128   6.083   0.338   5.693
 2077SOL     OW 7129   6.194   1.749   1.748
 2077SOL    HW1 7130   6.106   1.750   1.701
 2077SOL    HW2 7131   6.246   1.830   1.723
 2078SOL     OW 7132   1.209   4.991   5.738
 2078SOL    HW1 7133   1.298   4.989   5.782
 2078SOL    HW2 7134   1.220   5.007   5.640
 2079SOL     OW 7135   5.930   0.719   2.463
 2079SOL    HW1 7136   5.965   0.811   2.443
 2079SOL    HW2 7137   5.963   0.689   2.552
 2080SOL     OW 7138   3.633   1.661   4.722
 2080SOL    HW1 7139   3.682   1.584   4.681
 2080SOL    HW2 7140   3.535   1.651   4.706
 2081SOL     OW 7141   0.846   6.697   3.926
 2081SOL    HW1 7142   0.781   6.735   3.860
 2081SOL    HW2 7143   0.802   6.689   4.016
 2082SOL     OW 7144   0.819   6.467   3.080
 2082SOL    HW1 7145   0.818   6.368   3.098
 2082SOL    HW2 7146   0.775   6.515   3.155
 2083SOL     OW 7147   1.008   5.782   4.634
 2083SOL    HW1 7148   0.966   5.849   4.571
 2083SOL    HW2 7149   0.937   5.725   4.674
 2084SOL     OW 7150   0.801   2.620   1.622
 2084SOL    HW1 7151   0.872   2.672   1.574
 2084SOL    HW2 7152   0.720   2.612   1.564
 2085SOL     OW 7153   5.038   6.347   0.776
 2085SOL    HW1 7154   4.998   6.369   0.687
 2085SOL    HW2 7155   5.096   6.422   0.806
 2086SOL     OW 7156   3.884   5.542   6.591
 2086SOL    HW1 7157   3.813   5.499   6.535
 2086SOL    HW2 7158   3.970   5.490   6.582
 2087SOL     OW 7159   4.572   1.845   0.375
 2087SOL    HW1 7160   4.572   1.918   0.444
 2087SOL    HW2 7161   4.528   1.764   0.414
 2088SOL     OW 7162   1.139   5.786   5.708
 2088SOL    HW1 7163   1.066   5.728   5.743
 2088SOL    HW2 7164   1.113   5.821   5.618
 2089SOL     OW 7165   4.060   2.129   5.196
 2089SOL    HW1 7166   4.057   2.091   5.104
 2089SOL    HW2 7167   3.966   2.138   5.231
 2090SOL     OW 7168   5.013   2.645   5.666
 2090SOL    HW1 7169   5.068   2.616   5.587
 2090SOL    HW2 7170   4.929   2.591   5.669
 2091SOL     OW 7171   6.574   5.983   0.861
 2091SOL    HW1 7172   6.610   6.077   0.861
 2091SOL    HW2 7173   6.580   5.944   0.952
 2092SOL     OW 7174   5.662   3.811   0.860
 2092SOL    HW1 7175   5.591   3.882   0.852
 2092SOL    HW2 7176   5.750   3.851   0.836
 2093SOL     OW 7177   3.467   2.018   2.421
 2093SOL    HW1 7178   3.484   2.049   2.327
 2093SOL    HW2 7179   3.369   2.019   2.440
 2094SOL     OW 7180   5.636   2.188   0.913
 2094SOL    HW1 7181   5.665   2.256   0.846
 2094SOL    HW2 7182   5.588   2.114   0.866
 2095SOL     OW 7183   6.168   6.028   3.491
 2095SOL    HW1 7184   6.215   6.075   3.417
 2095SOL    HW2 7185   6.234   5.971   3.541
 2096SOL     OW 7186   4.489   5.792   2.793
 2096SOL    HW1 7187   4.430   5.787   2.873
 2096SOL    HW2 7188   4.454   5.861   2.729
 2097SOL     OW 7189   2.827   3.458   6.837
 2097SOL    HW1 7190   2.774   3.539   6.813
 2097SOL    HW2 7191   2.899   3.444   6.768
 2098SOL     OW 7192   3.954   5.968   3.254
 2098SOL    HW1 7193   3.981   6.064   3.258
 2098SOL    HW2 7194   4.001   5.923   3.178
 2099SOL     OW 7195   4.104   1.889   6.875
 2099SOL    HW1 7196   4.006   1.876   6.889
 2099SOL    HW2 7197   4.142   1.810   6.826
 2100SOL     OW 7198   5.035   1.525   0.653
 2100SOL    HW1 7199   5.117   1.557   0.701
 2100SOL    HW2 7200   4.958   1.522   0.717
 2101SOL     OW 7201   6.960   6.278   0.913
 2101SOL    HW1 7202   6.969   6.267   1.012
 2101SOL    HW2 7203   6.874   6.236   0.882
 2102SOL     OW 7204   4.548   3.758   1.359
 2102SOL    HW1 7205   4.501   3.696   1.422
 2102SOL    HW2 7206   4.567   3.844   1.405
 2103SOL     OW 7207   2.910   3.592   0.456
 2103SOL    HW1 7208   3.001   3.563   0.487
 2103SOL    HW2 7209   2.878   3.668   0.512
 2104SOL     OW 7210   1.043   4.938   1.938
 2104SOL    HW1 7211   0.979   4.988   1.996
 2104SOL    HW2 7212   1.137   4.958   1.967
 2105SOL     OW 7213   3.700   4.532   6.921
 2105SOL    HW1 7214   3.762   4.527   6.843
 2105SOL    HW2 7215   3.754   4.545   7.005
 2106SOL     OW 7216   5.450   3.436   1.090
 2106SOL    HW1 7217   5.431   3.353   1.142
 2106SOL    HW2 7218   5.459   3.513   1.153
 2107SOL     OW 7219   6.035   2.897   5.763
 2107SOL    HW1 7220   6.105   2.838   5.723
 2107SOL    HW2 7221   6.063   2.993   5.751
 2108SOL     OW 7222   5.591   6.271   5.818
 2108SOL    HW1 7223   5.607   6.179   5.784
 2108SOL    HW2 7224   5.594   6.336   5.742
 2109SOL     OW 7225   3.239   5.726   2.029
 2109SOL    HW1 7226   3.316   5.745   1.968
 2109SOL    HW2 7227   3.170   5.798   2.018
 2110SOL     OW 7228   3.763   0.819   5.797
 2110SOL    HW1 7229   3.700   0.869   5.739
 2110SOL    HW2 7230   3.713   0.749   5.848
 2111SOL     OW 7231   1.211   1.866   5.736
 2111SOL    HW1 7232   1.249   1.945   5.784
 2111SOL    HW2 7233   1.121   1.891   5.699
 2112SOL     OW 7234   5.779   2.231   6.470
 2112SOL    HW1 7235   5.782   2.304   6.401
 2112SOL    HW2 7236   5.686   2.220   6.504
 2113SOL     OW 7237   1.678   6.862   4.676
 2113SOL    HW1 7238   1.580   6.879   4.673
 2113SOL    HW2 7239   1.727   6.949   4.686
 2114SOL     OW 7240   2.370   2.661   0.128
 2114SOL    HW1 7241   2.313   2.737   0.099
 2114SOL    HW2 7242   2.338   2.577   0.084
 2115SOL     OW 7243   1.172   4.491   1.567
 2115SOL    HW1 7244   1.153   4.582   1.528
 2115SOL    HW2 7245   1.097   4.465   1.628
 2116SOL     OW 7246   0.553   2.606   1.207
 2116SOL    HW1 7247   0.584   2.676   1.143
 2116SOL    HW2 7248   0.460   2.577   1.182
 2117SOL     OW 7249   5.232   3.045   1.921
 2117SOL    HW1 7250   5.152   3.027   1.979
 2117SOL    HW2 7251   5.303   3.088   1.977
 2118SOL     OW 7252   6.233   3.642   2.319
 2118SOL    HW1 7253   6.306   3.674   2.379
 2118SOL    HW2 7254   6.168   3.717   2.303
 2119SOL     OW 7255   1.544   1.525   0.303
 2119SOL    HW1 7256   1.472   1.592   0.323
 2119SOL    HW2 7257   1.611   1.526   0.377
 2120SOL     OW 7258   6.350   2.129   2.799
 2120SOL    HW1 7259   6.445   2.126   2.830
 2120SOL    HW2 7260   6.289   2.098   2.872
 2121SOL     OW 7261   2.142   2.288   6.281
 2121SOL    HW1 7262   2.069   2.225   6.306
 2121SOL    HW2 7263   2.163   2.280   6.184
 2122SOL     OW 7264   6.089   6.749   6.287
 2122SOL    HW1 7265   6.161   6.763   6.355
 2122SOL    HW2 7266   6.130   6.723   6.199
 2123SOL     OW 7267   6.624   5.915   2.406
 2123SOL    HW1 7268   6.601   5.873   2.494
 2123SOL    HW2 7269   6.607   6.013   2.410
 2124SOL     OW 7270   2.785   1.791   5.578
 2124SOL    HW1 7271   2.808   1.735   5.498
 2124SOL    HW2 7272   2.754   1.731   5.652
 2125SOL     OW 7273   1.544   6.335   2.918
 2125SOL    HW1 7274   1.545   6.429   2.952
 2125SOL    HW2 7275   1.462   6.320   2.864
 2126SOL     OW 7276   4.161   3.053   6.845
 2126SOL    HW1 7277   4.184   3.150   6.858
 2126SOL    HW2 7278   4.228   3.011   6.783
 2127SOL     OW 7279   0.449   2.075   5.455
 2127SOL    HW1 7280   0.534   2.027   5.433
 2127SOL    HW2 7281   0.464   2.138   5.531
 2128SOL     OW 7282   6.130   3.632   1.133
 2128SOL    HW1 7283   6.093   3.602   1.221
 2128SOL    HW2 7284   6.168   3.553   1.084
 2129SOL     OW 7285   5.214   4.446   4.393
 2129SOL    HW1 7286   5.143   4.509   4.361
 2129SOL    HW2 7287   5.172   4.356   4.410
 2130SOL     OW 7288   2.500   1.414   1.403
 2130SOL    HW1 7289   2.413   1.366   1.388
 2130SOL    HW2 7290   2.575   1.348   1.398
 2131SOL     OW 7291   5.317   1.922   0.548
 2131SOL    HW1 7292   5.223   1.901   0.522
 2131SOL    HW2 7293   5.377   1.908   0.470
 2132SOL     OW 7294   3.337   1.506   6.816
 2132SOL    HW1 7295   3.239   1.522   6.804
 2132SOL    HW2 7296   3.387   1.536   6.734
 2133SOL     OW 7297   2.308   2.285   1.451
 2133SOL    HW1 7298   2.336   2.222   1.524
 2133SOL    HW2 7299   2.353   2.259   1.366
 2134SOL     OW 7300   1.336   0.797   4.567
 2134SOL    HW1 7301   1.422   0.791   4.618
 2134SOL    HW2 7302   1.346   0.863   4.493
 2135SOL     OW 7303   0.446   1.946   4.107
 2135SOL    HW1 7304   0.479   2.039   4.091
 2135SOL    HW2 7305   0.363   1.949   4.162
 2136SOL     OW 7306   0.762   3.438   4.761
 2136SOL    HW1 7307   0.848   3.428   4.711
 2136SOL    HW2 7308   0.718   3.524   4.736
 2137SOL     OW 7309   0.652   0.066   4.788
 2137SOL    HW1 7310   0.599   0.150   4.800
 2137SOL    HW2 7311   0.636   0.005   4.866
 2138SOL     OW 7312   6.117   2.693   1.827
 2138SOL    HW1 7313   6.184   2.618   1.831
 2138SOL    HW2 7314   6.137   2.750   1.747
 2139SOL     OW 7315   3.993   0.868   3.688
 2139SOL    HW1 7316   4.003   0.792   3.753
 2139SOL    HW2 7317   3.941   0.942   3.731
 2140SOL     OW 7318   3.110   6.262   2.810
 2140SOL    HW1 7319   3.205   6.240   2.789
 2140SOL    HW2 7320   3.049   6.199   2.763
 2141SOL     OW 7321   6.762   3.092   1.835
 2141SOL    HW1 7322   6.747   3.113   1.739
 2141SOL    HW2 7323   6.813   3.006   1.843
 2142SOL     OW 7324   1.389   1.896   3.390
 2142SOL    HW1 7325   1.414   1.830   3.319
 2142SOL    HW2 7326   1.312   1.952   3.358
 2143SOL     OW 7327   3.674   6.013   0.929
 2143SOL    HW1 7328   3.580   6.043   0.947
 2143SOL    HW2 7329   3.681   5.978   0.836
 2144SOL     OW 7330   1.550   0.564   3.366
 2144SOL    HW1 7331   1.515   0.644   3.317
 2144SOL    HW2 7332   1.614   0.514   3.307
 2145SOL     OW 7333   3.618   5.691   3.846
 2145SOL    HW1 7334   3.656   5.783   3.845
 2145SOL    HW2 7335   3.588   5.666   3.754
 2146SOL     OW 7336   3.646   4.070   2.489
 2146SOL    HW1 7337   3.691   4.014   2.420
 2146SOL    HW2 7338   3.585   4.135   2.445
 2147SOL     OW 7339   0.225   1.470   0.004
 2147SOL    HW1 7340   0.176   1.454   6.946
 2147SOL    HW2 7341   0.227   1.568   0.024
 2148SOL     OW 7342   4.880   3.502   4.074
 2148SOL    HW1 7343   4.973   3.468   4.070
 2148SOL    HW2 7344   4.849   3.525   3.982
 2149SOL     OW 7345   3.581   0.695   1.843
 2149SOL    HW1 7346   3.630   0.659   1.763
 2149SOL    HW2 7347   3.593   0.633   1.920
 2150SOL     OW 7348   3.043   2.205   2.606
 2150SOL    HW1 7349   3.070   2.186   2.511
 2150SOL    HW2 7350   3.119   2.182   2.667
 2151SOL     OW 7351   3.248   1.964   5.335
 2151SOL    HW1 7352   3.213   1.992   5.245
 2151SOL    HW2 7353   3.216   2.029   5.404
 2152SOL     OW 7354   5.584   6.408   1.632
 2152SOL    HW1 7355   5.625   6.331   1.680
 2152SOL    HW2 7356   5.640   6.490   1.646
 2153SOL     OW 7357   4.328   0.899   4.480
 2153SOL    HW1 7358   4.320   0.824   4.413
 2153SOL    HW2 7359   4.252   0.894   4.545
 2154SOL     OW 7360   3.326   5.825   4.628
 2154SOL    HW1 7361   3.230   5.800   4.622
 2154SOL    HW2 7362   3.350   5.845   4.723
 2155SOL     OW 7363   1.725   5.275   7.002
 2155SOL    HW1 7364   1.644   5.253   6.948
 2155SOL    HW2 7365   1.774   5.192   7.025
 2156SOL     OW 7366   2.366   0.293   1.904
 2156SOL    HW1 7367   2.398   0.318   1.813
 2156SOL    HW2 7368   2.336   0.197   1.903
 2157SOL     OW 7369   6.484   0.869   4.581
 2157SOL    HW1 7370   6.461   0.832   4.492
 2157SOL    HW2 7371   6.584   0.871   4.591
 2158SOL     OW 7372   2.983   6.534   0.050
 2158SOL    HW1 7373   3.036   6.450   0.034
 2158SOL    HW2 7374   3.043   6.604   0.088
 2159SOL     OW 7375   1.288   6.353   5.196
 2159SOL    HW1 7376   1.381   6.387   5.209
 2159SOL    HW2 7377   1.235   6.419   5.143
 2160SOL     OW 7378   4.485   4.143   1.568
 2160SOL    HW1 7379   4.482   4.171   1.664
 2160SOL    HW2 7380   4.393   4.116   1.539
 2161SOL     OW 7381   4.889   3.674   3.569
 2161SOL    HW1 7382   4.882   3.622   3.654
 2161SOL    HW2 7383   4.920   3.614   3.496
 2162SOL     OW 7384   1.938   0.727   0.392
 2162SOL    HW1 7385   1.944   0.809   0.449
 2162SOL    HW2 7386   2.008   0.731   0.321
 2163SOL     OW 7387   0.818   6.552   6.440
 2163SOL    HW1 7388   0.733   6.534   6.491
 2163SOL    HW2 7389   0.890   6.491   6.473
 2164SOL     OW 7390   1.808   1.027   6.102
 2164SOL    HW1 7391   1.853   0.941   6.076
 2164SOL    HW2 7392   1.727   1.041   6.045
 2165SOL     OW 7393   1.899   1.011   2.377
 2165SOL    HW1 7394   1.966   1.083   2.361
 2165SOL    HW2 7395   1.847   1.031   2.460
 2166SOL     OW 7396   1.871   2.519   5.942
 2166SOL    HW1 7397   1.843   2.563   5.857
 2166SOL    HW2 7398   1.963   2.552   5.967
 2167SOL     OW 7399   3.014   0.324   2.244
 2167SOL    HW1 7400   3.067   0.244   2.215
 2167SOL    HW2 7401   2.918   0.311   2.218
 2168SOL     OW 7402   6.247   3.003   5.284
 2168SOL    HW1 7403   6.256   3.089   5.233
 2168SOL    HW2 7404   6.151   2.990   5.309
 2169SOL     OW 7405   5.233   2.444   5.884
 2169SOL    HW1 7406   5.247   2.381   5.807
 2169SOL    HW2 7407   5.312   2.505   5.892
 2170SOL     OW 7408   5.474   4.657   5.009
 2170SOL    HW1 7409   5.515   4.665   5.100
 2170SOL    HW2 7410   5.461   4.560   4.987
 2171SOL     OW 7411   6.594   2.513   0.078
 2171SOL    HW1 7412   6.505   2.524   0.123
 2171SOL    HW2 7413   6.630   2.422   0.097
 2172SOL     OW 7414   3.289   1.193   0.365
 2172SOL    HW1 7415   3.232   1.238   0.433
 2172SOL    HW2 7416   3.278   1.239   0.277
 2173SOL     OW 7417   3.936   0.362   5.642
 2173SOL    HW1 7418   3.970   0.297   5.710
 2173SOL    HW2 7419   3.866   0.317   5.585
 2174SOL     OW 7420   6.580   4.436   6.050
 2174SOL    HW1 7421   6.676   4.453   6.072
 2174SOL    HW2 7422   6.526   4.437   6.135
 2175SOL     OW 7423   3.325   1.535   3.487
 2175SOL    HW1 7424   3.345   1.440   3.511
 2175SOL    HW2 7425   3.294   1.540   3.392
 2176SOL     OW 7426   1.449   2.003   1.699
 2176SOL    HW1 7427   1.437   2.012   1.798
 2176SOL    HW2 7428   1.545   1.982   1.679
 2177SOL     OW 7429   6.583   1.070   2.316
 2177SOL    HW1 7430   6.486   1.059   2.341
 2177SOL    HW2 7431   6.638   1.007   2.369
 2178SOL     OW 7432   1.042   4.051   0.525
 2178SOL    HW1 7433   0.969   4.037   0.592
 2178SOL    HW2 7434   1.080   3.963   0.497
 2179SOL     OW 7435   1.982   5.599   3.930
 2179SOL    HW1 7436   2.055   5.583   3.863
 2179SOL    HW2 7437   1.966   5.697   3.939
 2180SOL     OW 7438   3.238   3.460   3.108
 2180SOL    HW1 7439   3.273   3.515   3.184
 2180SOL    HW2 7440   3.203   3.520   3.037
 2181SOL     OW 7441   4.736   4.379   5.657
 2181SOL    HW1 7442   4.715   4.298   5.711
 2181SOL    HW2 7443   4.824   4.417   5.686
 2182SOL     OW 7444   6.934   3.723   6.467
 2182SOL    HW1 7445   0.005   3.735   6.456
 2182SOL    HW2 7446   6.914   3.626   6.480
 2183SOL     OW 7447   3.398   3.033   0.799
 2183SOL    HW1 7448   3.320   3.034   0.862
 2183SOL    HW2 7449   3.479   2.999   0.848
 2184SOL     OW 7450   3.718   0.343   6.072
 2184SOL    HW1 7451   3.798   0.365   6.016
 2184SOL    HW2 7452   3.635   0.350   6.017
 2185SOL     OW 7453   1.725   1.765   0.558
 2185SOL    HW1 7454   1.656   1.818   0.509
 2185SOL    HW2 7455   1.754   1.814   0.640
 2186SOL     OW 7456   0.024   4.753   2.112
 2186SOL    HW1 7457   0.039   4.681   2.179
 2186SOL    HW2 7458   6.958   4.787   2.120
 2187SOL     OW 7459   0.427   1.341   1.604
 2187SOL    HW1 7460   0.359   1.364   1.535
 2187SOL    HW2 7461   0.431   1.241   1.615
 2188SOL     OW 7462   4.869   6.144   3.799
 2188SOL    HW1 7463   4.826   6.120   3.712
 2188SOL    HW2 7464   4.943   6.080   3.818
 2189SOL     OW 7465   1.397   6.796   5.786
 2189SOL    HW1 7466   1.482   6.757   5.752
 2189SOL    HW2 7467   1.372   6.751   5.872
 2190SOL     OW 7468   6.023   3.032   1.759
 2190SOL    HW1 7469   5.996   3.033   1.855
 2190SOL    HW2 7470   5.967   2.967   1.709
 2191SOL     OW 7471   3.398   2.302   5.997
 2191SOL    HW1 7472   3.367   2.218   6.041
 2191SOL    HW2 7473   3.346   2.379   6.032
 2192SOL     OW 7474   4.441   6.407   5.248
 2192SOL    HW1 7475   4.451   6.313   5.216
 2192SOL    HW2 7476   4.352   6.443   5.221
 2193SOL     OW 7477   0.220   5.276   6.147
 2193SOL    HW1 7478   0.261   5.220   6.218
 2193SOL    HW2 7479   0.144   5.329   6.186
 2194SOL     OW 7480   1.600   5.798   0.487
 2194SOL    HW1 7481   1.619   5.830   0.394
 2194SOL    HW2 7482   1.597   5.698   0.488
 2195SOL     OW 7483   0.116   6.578   1.813
 2195SOL    HW1 7484   0.207   6.542   1.793
 2195SOL    HW2 7485   0.104   6.667   1.768
 2196SOL     OW 7486   2.627   0.489   5.506
 2196SOL    HW1 7487   2.578   0.470   5.421
 2196SOL    HW2 7488   2.575   0.555   5.561
 2197SOL     OW 7489   4.810   3.912   2.013
 2197SOL    HW1 7490   4.856   3.919   1.925
 2197SOL    HW2 7491   4.768   3.822   2.022
 2198SOL     OW 7492   6.809   3.477   6.777
 2198SOL    HW1 7493   6.881   3.546   6.766
 2198SOL    HW2 7494   6.797   3.428   6.691
 2199SOL     OW 7495   5.124   6.771   1.026
 2199SOL    HW1 7496   5.072   6.790   0.942
 2199SOL    HW2 7497   5.219   6.750   1.002
 2200SOL     OW 7498   4.321   0.575   4.543
 2200SOL    HW1 7499   4.398   0.591   4.481
 2200SOL    HW2 7500   4.236   0.574   4.489
 2201SOL     OW 7501   6.120   3.844   2.120
 2201SOL    HW1 7502   6.165   3.931   2.139
 2201SOL    HW2 7503   6.142   3.816   2.026
 2202SOL     OW 7504   3.428   4.952   4.327
 2202SOL    HW1 7505   3.442   5.031   4.266
 2202SOL    HW2 7506   3.504   4.888   4.316
 2203SOL     OW 7507   3.676   1.940   2.769
 2203SOL    HW1 7508   3.679   2.029   2.724
 2203SOL    HW2 7509   3.714   1.948   2.861
 2204SOL     OW 7510   3.497   1.255   6.987
 2204SOL    HW1 7511   3.404   1.217   6.980
 2204SOL    HW2 7512   3.493   1.354   6.979
 2205SOL     OW 7513   1.852   0.586   6.633
 2205SOL    HW1 7514   1.913   0.662   6.611
 2205SOL    HW2 7515   1.899   0.522   6.694
 2206SOL     OW 7516   2.898   3.710   6.174
 2206SOL    HW1 7517   2.942   3.767   6.243
 2206SOL    HW2 7518   2.951   3.627   6.160
 2207SOL     OW 7519   0.814   4.362   6.066
 2207SOL    HW1 7520   0.871   4.383   5.986
 2207SOL    HW2 7521   0.861   4.294   6.123
 2208SOL     OW 7522   1.236   4.015   2.194
 2208SOL    HW1 7523   1.307   3.970   2.140
 2208SOL    HW2 7524   1.167   3.949   2.220
 2209SOL     OW 7525   1.806   5.973   5.960
 2209SOL    HW1 7526   1.865   5.950   6.038
 2209SOL    HW2 7527   1.848   6.046   5.906
 2210SOL     OW 7528   0.516   5.159   3.003
 2210SOL    HW1 7529   0.570   5.222   3.060
 2210SOL    HW2 7530   0.492   5.078   3.058
 2211SOL     OW 7531   5.675   1.884   5.412
 2211SOL    HW1 7532   5.771   1.887   5.442
 2211SOL    HW2 7533   5.645   1.975   5.386
 2212SOL     OW 7534   0.233   6.245   6.196
 2212SOL    HW1 7535   0.228   6.335   6.153
 2212SOL    HW2 7536   0.210   6.175   6.128
 2213SOL     OW 7537   4.423   2.367   4.118
 2213SOL    HW1 7538   4.374   2.329   4.196
 2213SOL    HW2 7539   4.372   2.350   4.034
 2214SOL     OW 7540   4.828   0.550   5.571
 2214SOL    HW1 7541   4.844   0.636   5.522
 2214SOL    HW2 7542   4.785   0.484   5.509
 2215SOL     OW 7543   6.937   1.566   5.728
 2215SOL    HW1 7544   6.987   1.624   5.792
 2215SOL    HW2 7545   6.847   1.607   5.710
 2216SOL     OW 7546   1.340   0.453   0.902
 2216SOL    HW1 7547   1.349   0.457   1.002
 2216SOL    HW2 7548   1.281   0.528   0.871
 2217SOL     OW 7549   3.979   0.352   0.596
 2217SOL    HW1 7550   4.060   0.408   0.616
 2217SOL    HW2 7551   4.003   0.283   0.528
 2218SOL     OW 7552   1.259   6.092   6.670
 2218SOL    HW1 7553   1.294   6.166   6.612
 2218SOL    HW2 7554   1.331   6.025   6.685
 2219SOL     OW 7555   1.566   4.055   3.100
 2219SOL    HW1 7556   1.552   4.141   3.149
 2219SOL    HW2 7557   1.663   4.033   3.099
 2220SOL     OW 7558   0.208   1.757   4.737
 2220SOL    HW1 7559   0.156   1.818   4.677
 2220SOL    HW2 7560   0.206   1.664   4.700
 2221SOL     OW 7561   6.676   2.066   1.106
 2221SOL    HW1 7562   6.624   2.099   1.185
 2221SOL    HW2 7563   6.644   1.975   1.081
 2222SOL     OW 7564   3.988   0.483   1.363
 2222SOL    HW1 7565   3.985   0.583   1.360
 2222SOL    HW2 7566   3.926   0.446   1.295
 2223SOL     OW 7567   6.320   5.267   3.414
 2223SOL    HW1 7568   6.362   5.275   3.324
 2223SOL    HW2 7569   6.221   5.273   3.405
 2224SOL     OW 7570   1.737   4.698   1.588
 2224SOL    HW1 7571   1.733   4.599   1.575
 2224SOL    HW2 7572   1.832   4.729   1.579
 2225SOL     OW 7573   6.126   4.659   2.134
 2225SOL    HW1 7574   6.187   4.662   2.213
 2225SOL    HW2 7575   6.148   4.579   2.078
 2226SOL     OW 7576   3.631   3.101   1.412
 2226SOL    HW1 7577   3.605   3.009   1.385
 2226SOL    HW2 7578   3.623   3.163   1.334
 2227SOL     OW 7579   6.351   4.171   6.103
 2227SOL    HW1 7580   6.310   4.206   6.019
 2227SOL    HW2 7581   6.384   4.247   6.158
 2228SOL     OW 7582   2.859   4.765   0.171
 2228SOL    HW1 7583   2.951   4.791   0.200
 2228SOL    HW2 7584   2.863   4.677   0.123
 2229SOL     OW 7585   4.699   1.451   4.217
 2229SOL    HW1 7586   4.688   1.352   4.223
 2229SOL    HW2 7587   4.793   1.473   4.189
 2230SOL     OW 7588   1.533   5.094   3.918
 2230SOL    HW1 7589   1.614   5.092   3.861
 2230SOL    HW2 7590   1.529   5.011   3.974
 2231SOL     OW 7591   1.852   1.655   2.583
 2231SOL    HW1 7592   1.855   1.754   2.569
 2231SOL    HW2 7593   1.758   1.622   2.576
 2232SOL     OW 7594   0.623   3.332   3.222
 2232SOL    HW1 7595   0.706   3.279   3.206
 2232SOL    HW2 7596   0.622   3.412   3.161
 2233SOL     OW 7597   3.613   4.850   0.040
 2233SOL    HW1 7598   3.555   4.782   7.023
 2233SOL    HW2 7599   3.699   4.808   0.069
 2234SOL     OW 7600   3.922   2.276   0.940
 2234SOL    HW1 7601   4.018   2.301   0.931
 2234SOL    HW2 7602   3.884   2.317   1.023
 2235SOL     OW 7603   1.087   6.993   6.790
 2235SOL    HW1 7604   1.106   6.945   6.875
 2235SOL    HW2 7605   1.138   6.950   6.715
 2236SOL     OW 7606   0.562   4.139   0.772
 2236SOL    HW1 7607   0.474   4.154   0.728
 2236SOL    HW2 7608   0.556   4.061   0.834
 2237SOL     OW 7609   6.769   3.709   4.409
 2237SOL    HW1 7610   6.724   3.745   4.327
 2237SOL    HW2 7611   6.800   3.615   4.391
 2238SOL     OW 7612   0.016   5.672   1.987
 2238SOL    HW1 7613   0.092   5.637   2.041
 2238SOL    HW2 7614   0.021   5.636   1.894
 2239SOL     OW 7615   4.272   4.744   3.888
 2239SOL    HW1 7616   4.206   4.762   3.815
 2239SOL    HW2 7617   4.223   4.714   3.970
 2240SOL     OW 7618   6.662   5.554   3.221
 2240SOL    HW1 7619   6.744   5.595   3.261
 2240SOL    HW2 7620   6.625   5.486   3.285
 2241SOL     OW 7621   0.192   6.535   2.087
 2241SOL    HW1 7622   0.261   6.605   2.107
 2241SOL    HW2 7623   0.184   6.524   1.988
 2242SOL     OW 7624   5.195   1.786   3.024
 2242SOL    HW1 7625   5.239   1.851   2.962
 2242SOL    HW2 7626   5.264   1.733   3.072
 2243SOL     OW 7627   2.804   5.994   4.751
 2243SOL    HW1 7628   2.720   6.048   4.744
 2243SOL    HW2 7629   2.781   5.897   4.759
 2244SOL     OW 7630   3.944   1.152   3.983
 2244SOL    HW1 7631   3.909   1.137   3.891
 2244SOL    HW2 7632   3.869   1.148   4.049
 2245SOL     OW 7633   6.671   2.030   2.119
 2245SOL    HW1 7634   6.625   2.115   2.096
 2245SOL    HW2 7635   6.688   1.977   2.036
 2246SOL     OW 7636   1.583   2.857   5.200
 2246SOL    HW1 7637   1.672   2.865   5.154
 2246SOL    HW2 7638   1.584   2.913   5.283
 2247SOL     OW 7639   2.647   2.115   5.474
 2247SOL    HW1 7640   2.626   2.110   5.571
 2247SOL    HW2 7641   2.734   2.162   5.461
 2248SOL     OW 7642   4.978   4.196   5.264
 2248SOL    HW1 7643   5.014   4.213   5.172
 2248SOL    HW2 7644   4.984   4.280   5.318
 2249SOL     OW 7645   5.398   6.106   2.962
 2249SOL    HW1 7646   5.349   6.072   2.882
 2249SOL    HW2 7647   5.344   6.177   3.007
 2250SOL     OW 7648   5.422   3.806   1.496
 2250SOL    HW1 7649   5.517   3.775   1.495
 2250SOL    HW2 7650   5.366   3.742   1.547
 2251SOL     OW 7651   6.064   1.766   0.285
 2251SOL    HW1 7652   5.984   1.816   0.251
 2251SOL    HW2 7653   6.118   1.733   0.208
 2252SOL     OW 7654   5.829   3.074   5.118
 2252SOL    HW1 7655   5.899   3.051   5.050
 2252SOL    HW2 7656   5.863   3.146   5.178
 2253SOL     OW 7657   1.858   3.241   6.706
 2253SOL    HW1 7658   1.809   3.326   6.686
 2253SOL    HW2 7659   1.882   3.196   6.620
 2254SOL     OW 7660   2.229   3.292   5.943
 2254SOL    HW1 7661   2.282   3.265   6.024
 2254SOL    HW2 7662   2.205   3.210   5.891
 2255SOL     OW 7663   6.075   2.755   2.099
 2255SOL    HW1 7664   6.033   2.703   2.024
 2255SOL    HW2 7665   6.058   2.853   2.084
 2256SOL     OW 7666   3.035   4.789   2.043
 2256SOL    HW1 7667   2.974   4.717   2.010
 2256SOL    HW2 7668   3.026   4.798   2.142
 2257SOL     OW 7669   1.552   3.295   4.449
 2257SOL    HW1 7670   1.461   3.258   4.427
 2257SOL    HW2 7671   1.588   3.247   4.529
 2258SOL     OW 7672   1.664   4.520   4.884
 2258SOL    HW1 7673   1.761   4.526   4.862
 2258SOL    HW2 7674   1.644   4.432   4.926
 2259SOL     OW 7675   5.588   4.410   6.305
 2259SOL    HW1 7676   5.634   4.325   6.331
 2259SOL    HW2 7677   5.558   4.458   6.387
 2260SOL     OW 7678   3.929   4.985   2.721
 2260SOL    HW1 7679   3.920   5.081   2.748
 2260SOL    HW2 7680   3.974   4.934   2.794
 2261SOL     OW 7681   5.293   6.483   0.758
 2261SOL    HW1 7682   5.356   6.502   0.683
 2261SOL    HW2 7683   5.344   6.449   0.837
 2262SOL     OW 7684   5.781   1.620   4.339
 2262SOL    HW1 7685   5.711   1.663   4.283
 2262SOL    HW2 7686   5.849   1.689   4.366
 2263SOL     OW 7687   2.234   5.781   6.221
 2263SOL    HW1 7688   2.275   5.691   6.205
 2263SOL    HW2 7689   2.203   5.819   6.134
 2264SOL     OW 7690   2.897   3.581   2.948
 2264SOL    HW1 7691   2.903   3.487   2.984
 2264SOL    HW2 7692   2.973   3.635   2.984
 2265SOL     OW 7693   0.123   1.221   2.621
 2265SOL    HW1 7694   0.053   1.292   2.619
 2265SOL    HW2 7695   0.211   1.260   2.597
 2266SOL     OW 7696   6.312   1.209   0.656
 2266SOL    HW1 7697   6.248   1.162   0.717
 2266SOL    HW2 7698   6.393   1.152   0.643
 2267SOL     OW 7699   5.649   2.616   4.893
 2267SOL    HW1 7700   5.722   2.683   4.881
 2267SOL    HW2 7701   5.675   2.552   4.966
 2268SOL     OW 7702   6.613   5.893   0.595
 2268SOL    HW1 7703   6.668   5.962   0.547
 2268SOL    HW2 7704   6.596   5.923   0.689
 2269SOL     OW 7705   6.438   5.821   5.552
 2269SOL    HW1 7706   6.369   5.849   5.485
 2269SOL    HW2 7707   6.418   5.863   5.640
 2270SOL     OW 7708   3.351   3.833   1.947
 2270SOL    HW1 7709   3.327   3.851   1.852
 2270SOL    HW2 7710   3.283   3.771   1.987
 2271SOL     OW 7711   6.072   4.542   1.603
 2271SOL    HW1 7712   6.150   4.597   1.573
 2271SOL    HW2 7713   6.077   4.451   1.561
 2272SOL     OW 7714   5.455   2.290   5.027
 2272SOL    HW1 7715   5.365   2.328   5.007
 2272SOL    HW2 7716   5.485   2.232   4.951
 2273SOL     OW 7717   0.740   0.654   3.114
 2273SOL    HW1 7718   0.748   0.581   3.182
 2273SOL    HW2 7719   0.657   0.706   3.131
 2274SOL     OW 7720   1.717   3.675   4.828
 2274SOL    HW1 7721   1.637   3.624   4.859
 2274SOL    HW2 7722   1.753   3.731   4.902
 2275SOL     OW 7723   4.623   6.110   4.935
 2275SOL    HW1 7724   4.713   6.082   4.900
 2275SOL    HW2 7725   4.565   6.136   4.858
 2276SOL     OW 7726   3.535   4.807   0.843
 2276SOL    HW1 7727   3.610   4.866   0.872
 2276SOL    HW2 7728   3.458   4.818   0.906
 2277SOL     OW 7729   3.278   3.349   5.408
 2277SOL    HW1 7730   3.318   3.257   5.405
 2277SOL    HW2 7731   3.352   3.417   5.403
 2278SOL     OW 7732   4.776   6.032   2.292
 2278SOL    HW1 7733   4.870   6.019   2.261
 2278SOL    HW2 7734   4.777   6.059   2.389
 2279SOL     OW 7735   5.207   3.855   4.433
 2279SOL    HW1 7736   5.282   3.917   4.410
 2279SOL    HW2 7737   5.174   3.811   4.349
 2280SOL     OW 7738   6.502   6.194   5.100
 2280SOL    HW1 7739   6.489   6.286   5.135
 2280SOL    HW2 7740   6.414   6.147   5.095
 2281SOL     OW 7741   3.583   1.961   1.876
 2281SOL    HW1 7742   3.607   2.051   1.912
 2281SOL    HW2 7743   3.489   1.939   1.903
 2282SOL     OW 7744   4.502   5.841   4.701
 2282SOL    HW1 7745   4.598   5.814   4.700
 2282SOL    HW2 7746   4.490   5.922   4.759
 2283SOL     OW 7747   6.614   3.839   3.039
 2283SOL    HW1 7748   6.673   3.769   3.001
 2283SOL    HW2 7749   6.651   3.930   3.018
 2284SOL     OW 7750   2.208   2.442   2.190
 2284SOL    HW1 7751   2.191   2.488   2.103
 2284SOL    HW2 7752   2.306   2.430   2.204
 2285SOL     OW 7753   1.564   4.058   0.659
 2285SOL    HW1 7754   1.629   4.132   0.645
 2285SOL    HW2 7755   1.484   4.072   0.600
 2286SOL     OW 7756   6.698   5.629   5.163
 2286SOL    HW1 7757   6.710   5.558   5.233
 2286SOL    HW2 7758   6.638   5.700   5.198
 2287SOL     OW 7759   2.063   3.123   1.355
 2287SOL    HW1 7760   2.090   3.165   1.268
 2287SOL    HW2 7761   1.970   3.088   1.348
 2288SOL     OW 7762   0.718   6.052   3.371
 2288SOL    HW1 7763   0.726   5.972   3.311
 2288SOL    HW2 7764   0.640   6.040   3.432
 2289SOL     OW 7765   5.533   2.288   2.014
 2289SOL    HW1 7766   5.613   2.336   2.050
 2289SOL    HW2 7767   5.532   2.194   2.048
 2290SOL     OW 7768   3.516   3.356   3.441
 2290SOL    HW1 7769   3.445   3.303   3.396
 2290SOL    HW2 7770   3.601   3.351   3.387
 2291SOL     OW 7771   2.135   1.911   1.346
 2291SOL    HW1 7772   2.064   1.980   1.336
 2291SOL    HW2 7773   2.189   1.906   1.262
 2292SOL     OW 7774   5.221   2.800   3.914
 2292SOL    HW1 7775   5.273   2.849   3.985
 2292SOL    HW2 7776   5.269   2.808   3.827
 2293SOL     OW 7777   5.292   1.268   0.836
 2293SOL    HW1 7778   5.216   1.278   0.900
 2293SOL    HW2 7779   5.327   1.174   0.840
 2294SOL     OW 7780   2.419   2.328   5.644
 2294SOL    HW1 7781   2.469   2.335   5.558
 2294SOL    HW2 7782   2.336   2.274   5.631
 2295SOL     OW 7783   6.782   0.470   1.724
 2295SOL    HW1 7784   6.774   0.415   1.641
 2295SOL    HW2 7785   6.692   0.505   1.750
 2296SOL     OW 7786   2.347   5.012   3.408
 2296SOL    HW1 7787   2.318   5.078   3.477
 2296SOL    HW2 7788   2.418   5.053   3.351
 2297SOL     OW 7789   5.314   4.417   5.769
 2297SOL    HW1 7790   5.387   4.484   5.785
 2297SOL    HW2 7791   5.245   4.425   5.841
 2298SOL     OW 7792   3.865   3.268   4.367
 2298SOL    HW1 7793   3.883   3.314   4.454
 2298SOL    HW2 7794   3.880   3.170   4.377
 2299SOL     OW 7795   4.907   3.380   4.822
 2299SOL    HW1 7796   4.864   3.387   4.732
 2299SOL    HW2 7797   4.879   3.458   4.878
 2300SOL     OW 7798   3.457   6.800   3.249
 2300SOL    HW1 7799   3.441   6.758   3.160
 2300SOL    HW2 7800   3.381   6.777   3.310
 2301SOL     OW 7801   3.057   3.057   4.712
 2301SOL    HW1 7802   3.128   3.030   4.647
 2301SOL    HW2 7803   3.095   3.055   4.804
 2302SOL     OW 7804   3.894   1.155   0.208
 2302SOL    HW1 7805   3.927   1.073   0.254
 2302SOL    HW2 7806   3.822   1.130   0.144
 2303SOL     OW 7807   2.341   2.736   1.322
 2303SOL    HW1 7808   2.389   2.752   1.235
 2303SOL    HW2 7809   2.244   2.759   1.311
 2304SOL     OW 7810   6.821   5.782   3.763
 2304SOL    HW1 7811   6.733   5.795   3.810
 2304SOL    HW2 7812   6.843   5.684   3.761
 2305SOL     OW 7813   1.732   1.090   4.055
 2305SOL    HW1 7814   1.727   1.020   4.126
 2305SOL    HW2 7815   1.759   1.177   4.096
 2306SOL     OW 7816   1.837   4.950   3.054
 2306SOL    HW1 7817   1.835   5.039   3.008
 2306SOL    HW2 7818   1.888   4.885   2.998
 2307SOL     OW 7819   1.394   2.701   5.343
 2307SOL    HW1 7820   1.317   2.656   5.298
 2307SOL    HW2 7821   1.436   2.768   5.281
 2308SOL     OW 7822   2.108   5.230   1.472
 2308SOL    HW1 7823   2.169   5.173   1.417
 2308SOL    HW2 7824   2.130   5.219   1.569
 2309SOL     OW 7825   1.478   0.455   4.242
 2309SOL    HW1 7826   1.392   0.486   4.282
 2309SOL    HW2 7827   1.460   0.408   4.155
 2310SOL     OW 7828   5.030   7.023   1.920
 2310SOL    HW1 7829   4.962   0.052   1.873
 2310SOL    HW2 7830   5.101   0.053   1.959
 2311SOL     OW 7831   2.415   6.039   0.246
 2311SOL    HW1 7832   2.392   5.959   0.302
 2311SOL    HW2 7833   2.478   6.012   0.173
 2312SOL     OW 7834   3.892   5.819   2.759
 2312SOL    HW1 7835   3.812   5.775   2.800
 2312SOL    HW2 7836   3.867   5.912   2.731
 2313SOL     OW 7837   5.035   4.971   2.664
 2313SOL    HW1 7838   5.033   5.070   2.652
 2313SOL    HW2 7839   4.965   4.929   2.606
 2314SOL     OW 7840   3.425   5.681   3.078
 2314SOL    HW1 7841   3.451   5.741   3.002
 2314SOL    HW2 7842   3.506   5.658   3.132
 2315SOL     OW 7843   4.693   2.956   6.322
 2315SOL    HW1 7844   4.661   2.982   6.231
 2315SOL    HW2 7845   4.686   3.034   6.383
 2316SOL     OW 7846   5.188   2.728   3.633
 2316SOL    HW1 7847   5.196   2.722   3.534
 2316SOL    HW2 7848   5.252   2.665   3.676
 2317SOL     OW 7849   1.058   4.716   2.145
 2317SOL    HW1 7850   1.008   4.757   2.221
 2317SOL    HW2 7851   1.070   4.783   2.072
 2318SOL     OW 7852   0.454   1.911   3.324
 2318SOL    HW1 7853   0.526   1.844   3.308
 2318SOL    HW2 7854   0.387   1.874   3.388
 2319SOL     OW 7855   2.186   4.013   4.509
 2319SOL    HW1 7856   2.151   3.973   4.593
 2319SOL    HW2 7857   2.118   4.005   4.437
 2320SOL     OW 7858   0.142   2.472   4.211
 2320SOL    HW1 7859   0.149   2.569   4.188
 2320SOL    HW2 7860   0.046   2.448   4.223
 2321SOL     OW 7861   2.879   6.863   5.029
 2321SOL    HW1 7862   2.963   6.917   5.027
 2321SOL    HW2 7863   2.902   6.766   5.038
 2322SOL     OW 7864   1.166   1.677   5.543
 2322SOL    HW1 7865   1.214   1.741   5.602
 2322SOL    HW2 7866   1.085   1.642   5.589
 2323SOL     OW 7867   4.496   5.562   3.547
 2323SOL    HW1 7868   4.502   5.570   3.448
 2323SOL    HW2 7869   4.445   5.640   3.584
 2324SOL     OW 7870   1.002   6.142   2.497
 2324SOL    HW1 7871   0.946   6.212   2.454
 2324SOL    HW2 7872   0.946   6.089   2.561
 2325SOL     OW 7873   1.029   3.507   1.600
 2325SOL    HW1 7874   0.953   3.540   1.545
 2325SOL    HW2 7875   0.994   3.455   1.678
 2326SOL     OW 7876   1.579   4.727   6.341
 2326SOL    HW1 7877   1.552   4.699   6.249
 2326SOL    HW2 7878   1.514   4.690   6.407
 2327SOL     OW 7879   4.586   2.620   4.507
 2327SOL    HW1 7880   4.633   2.706   4.528
 2327SOL    HW2 7881   4.597   2.599   4.410
 2328SOL     OW 7882   5.002   1.385   2.687
 2328SOL    HW1 7883   4.941   1.420   2.616
 2328SOL    HW2 7884   4.976   1.292   2.711
 2329SOL     OW 7885   1.134   5.286   4.053
 2329SOL    HW1 7886   1.167   5.293   4.147
 2329SOL    HW2 7887   1.207   5.253   3.994
 2330SOL     OW 7888   0.552   4.832   1.702
 2330SOL    HW1 7889   0.469   4.877   1.667
 2330SOL    HW2 7890   0.622   4.834   1.631
 2331SOL     OW 7891   0.241   4.099   5.409
 2331SOL    HW1 7892   0.201   4.008   5.420
 2331SOL    HW2 7893   0.311   4.096   5.338
 2332SOL     OW 7894   4.968   2.930   6.142
 2332SOL    HW1 7895   4.880   2.951   6.098
 2332SOL    HW2 7896   5.039   2.988   6.101
 2333SOL     OW 7897   1.020   5.256   3.228
 2333SOL    HW1 7898   1.060   5.287   3.314
 2333SOL    HW2 7899   0.920   5.256   3.236
 2334SOL     OW 7900   3.302   6.776   0.189
 2334SOL    HW1 7901   3.329   6.797   0.096
 2334SOL    HW2 7902   3.281   6.860   0.238
 2335SOL     OW 7903   5.465   0.222   3.469
 2335SOL    HW1 7904   5.402   0.154   3.432
 2335SOL    HW2 7905   5.429   0.313   3.452
 2336SOL     OW 7906   5.087   1.224   5.999
 2336SOL    HW1 7907   5.122   1.317   6.008
 2336SOL    HW2 7908   5.015   1.208   6.067
 2337SOL     OW 7909   5.436   0.154   3.146
 2337SOL    HW1 7910   5.458   0.103   3.063
 2337SOL    HW2 7911   5.460   0.099   3.226
 2338SOL     OW 7912   0.264   6.398   0.389
 2338SOL    HW1 7913   0.328   6.472   0.366
 2338SOL    HW2 7914   0.201   6.384   0.313
 2339SOL     OW 7915   3.557   4.671   6.602
 2339SOL    HW1 7916   3.458   4.665   6.611
 2339SOL    HW2 7917   3.584   4.767   6.590
 2340SOL     OW 7918   3.394   6.021   5.121
 2340SOL    HW1 7919   3.420   5.970   5.203
 2340SOL    HW2 7920   3.451   6.103   5.113
 2341SOL     OW 7921   5.814   4.879   0.764
 2341SOL    HW1 7922   5.905   4.919   0.765
 2341SOL    HW2 7923   5.817   4.790   0.720
 2342SOL     OW 7924   0.034   0.266   5.147
 2342SOL    HW1 7925   6.980   0.285   5.092
 2342SOL    HW2 7926   0.049   0.167   5.149
 2343SOL     OW 7927   1.335   6.170   0.993
 2343SOL    HW1 7928   1.285   6.239   0.940
 2343SOL    HW2 7929   1.415   6.141   0.941
 2344SOL     OW 7930   2.451   1.612   2.849
 2344SOL    HW1 7931   2.487   1.529   2.891
 2344SOL    HW2 7932   2.509   1.638   2.771
 2345SOL     OW 7933   1.569   0.946   5.089
 2345SOL    HW1 7934   1.485   0.893   5.078
 2345SOL    HW2 7935   1.625   0.937   5.006
 2346SOL     OW 7936   4.894   3.177   5.384
 2346SOL    HW1 7937   4.887   3.219   5.294
 2346SOL    HW2 7938   4.853   3.086   5.382
 2347SOL     OW 7939   1.554   3.512   1.951
 2347SOL    HW1 7940   1.479   3.578   1.962
 2347SOL    HW2 7941   1.556   3.479   1.857
 2348SOL     OW 7942   2.541   6.790   3.690
 2348SOL    HW1 7943   2.534   6.713   3.627
 2348SOL    HW2 7944   2.619   6.847   3.665
 2349SOL     OW 7945   6.926   6.914   5.978
 2349SOL    HW1 7946   6.961   6.842   6.039
 2349SOL    HW2 7947   6.833   6.938   6.006
 2350SOL     OW 7948   2.919   0.445   5.065
 2350SOL    HW1 7949   3.002   0.397   5.037
 2350SOL    HW2 7950   2.843   0.380   5.069
 2351SOL     OW 7951   2.840   5.124   3.414
 2351SOL    HW1 7952   2.757   5.074   3.390
 2351SOL    HW2 7953   2.915   5.097   3.353
 2352SOL     OW 7954   6.641   4.372   2.770
 2352SOL    HW1 7955   6.654   4.308   2.695
 2352SOL    HW2 7956   6.650   4.323   2.857
 2353SOL     OW 7957   2.685   4.011   5.779
 2353SOL    HW1 7958   2.631   4.045   5.856
 2353SOL    HW2 7959   2.637   4.030   5.694
 2354SOL     OW 7960   3.965   2.452   0.593
 2354SOL    HW1 7961   4.024   2.531   0.605
 2354SOL    HW2 7962   3.871   2.475   0.621
 2355SOL     OW 7963   0.736   6.823   1.109
 2355SOL    HW1 7964   0.733   6.922   1.096
 2355SOL    HW2 7965   0.775   6.779   1.028
 2356SOL     OW 7966   2.421   5.157   2.711
 2356SOL    HW1 7967   2.467   5.126   2.628
 2356SOL    HW2 7968   2.323   5.166   2.693
 2357SOL     OW 7969   5.356   4.469   2.883
 2357SOL    HW1 7970   5.397   4.377   2.886
 2357SOL    HW2 7971   5.419   4.535   2.924
 2358SOL     OW 7972   3.354   0.083   4.848
 2358SOL    HW1 7973   3.421   0.157   4.862
 2358SOL    HW2 7974   3.403   7.024   4.836
 2359SOL     OW 7975   2.722   1.657   5.825
 2359SOL    HW1 7976   2.776   1.693   5.901
 2359SOL    HW2 7977   2.642   1.607   5.861
 2360SOL     OW 7978   3.857   4.807   0.688
 2360SOL    HW1 7979   3.799   4.737   0.646
 2360SOL    HW2 7980   3.862   4.887   0.629
 2361SOL     OW 7981   3.394   6.681   3.016
 2361SOL    HW1 7982   3.383   6.746   2.940
 2361SOL    HW2 7983   3.405   6.589   2.979
 2362SOL     OW 7984   4.096   6.156   4.722
 2362SOL    HW1 7985   4.076   6.160   4.625
 2362SOL    HW2 7986   4.195   6.154   4.736
 2363SOL     OW 7987   3.817   2.575   6.670
 2363SOL    HW1 7988   3.832   2.510   6.744
 2363SOL    HW2 7989   3.901   2.628   6.655
 2364SOL     OW 7990   5.164   1.865   2.157
 2364SOL    HW1 7991   5.161   1.790   2.090
 2364SOL    HW2 7992   5.236   1.846   2.224
 2365SOL     OW 7993   4.891   3.750   4.548
 2365SOL    HW1 7994   4.860   3.736   4.454
 2365SOL    HW2 7995   4.917   3.846   4.561
 2366SOL     OW 7996   1.775   4.129   5.502
 2366SOL    HW1 7997   1.762   4.079   5.588
 2366SOL    HW2 7998   1.804   4.065   5.431
 2367SOL     OW 7999   0.776   3.406   5.935
 2367SOL    HW1 8000   0.759   3.487   5.991
 2367SOL    HW2 8001   0.852   3.424   5.872
 2368SOL     OW 8002   4.874   0.671   4.476
 2368SOL    HW1 8003   4.939   0.747   4.482
 2368SOL    HW2 8004   4.781   0.707   4.479
 2369SOL     OW 8005   3.574   1.646   3.427
 2369SOL    HW1 8006   3.501   1.586   3.461
 2369SOL    HW2 8007   3.557   1.669   3.332
 2370SOL     OW 8008   4.586   2.848   1.169
 2370SOL    HW1 8009   4.520   2.825   1.097
 2370SOL    HW2 8010   4.562   2.936   1.210
 2371SOL     OW 8011   0.763   6.752   2.688
 2371SOL    HW1 8012   0.671   6.777   2.659
 2371SOL    HW2 8013   0.828   6.822   2.659
 2372SOL     OW 8014   6.230   1.640   5.950
 2372SOL    HW1 8015   6.285   1.713   5.992
 2372SOL    HW2 8016   6.248   1.554   5.996
 2373SOL     OW 8017   6.107   0.771   6.232
 2373SOL    HW1 8018   6.010   0.749   6.236
 2373SOL    HW2 8019   6.131   0.830   6.309
 2374SOL     OW 8020   6.078   5.626   3.405
 2374SOL    HW1 8021   6.030   5.544   3.436
 2374SOL    HW2 8022   6.132   5.605   3.323
 2375SOL     OW 8023   0.818   0.465   3.972
 2375SOL    HW1 8024   0.737   0.407   3.981
 2375SOL    HW2 8025   0.886   0.418   3.916
 2376SOL     OW 8026   0.087   2.403   3.097
 2376SOL    HW1 8027   7.022   2.371   3.073
 2376SOL    HW2 8028   0.137   2.329   3.142
 2377SOL     OW 8029   3.314   4.553   6.455
 2377SOL    HW1 8030   3.243   4.599   6.402
 2377SOL    HW2 8031   3.291   4.557   6.552
 2378SOL     OW 8032   6.001   2.098   0.676
 2378SOL    HW1 8033   6.056   2.055   0.605
 2378SOL    HW2 8034   6.028   2.194   0.685
 2379SOL     OW 8035   0.126   4.893   0.506
 2379SOL    HW1 8036   0.114   4.942   0.593
 2379SOL    HW2 8037   0.223   4.888   0.485
 2380SOL     OW 8038   5.976   2.981   5.356
 2380SOL    HW1 8039   5.932   3.029   5.432
 2380SOL    HW2 8040   5.924   2.996   5.273
 2381SOL     OW 8041   2.109   4.647   5.255
 2381SOL    HW1 8042   2.122   4.549   5.271
 2381SOL    HW2 8043   2.198   4.693   5.256
 2382SOL     OW 8044   2.020   6.124   2.948
 2382SOL    HW1 8045   2.058   6.056   2.886
 2382SOL    HW2 8046   1.935   6.160   2.910
 2383SOL     OW 8047   5.410   5.874   5.751
 2383SOL    HW1 8048   5.389   5.830   5.839
 2383SOL    HW2 8049   5.486   5.827   5.707
 2384SOL     OW 8050   0.479   2.129   1.429
 2384SOL    HW1 8051   0.423   2.184   1.491
 2384SOL    HW2 8052   0.506   2.185   1.350
 2385SOL     OW 8053   0.883   1.934   0.272
 2385SOL    HW1 8054   0.860   1.837   0.260
 2385SOL    HW2 8055   0.940   1.944   0.354
 2386SOL     OW 8056   3.289   5.443   4.169
 2386SOL    HW1 8057   3.336   5.480   4.249
 2386SOL    HW2 8058   3.196   5.417   4.194
 2387SOL     OW 8059   0.603   2.647   4.147
 2387SOL    HW1 8060   0.649   2.721   4.197
 2387SOL    HW2 8061   0.541   2.687   4.079
 2388SOL     OW 8062   0.295   2.284   6.170
 2388SOL    HW1 8063   0.325   2.339   6.092
 2388SOL    HW2 8064   0.327   2.325   6.255
 2389SOL     OW 8065   5.277   5.150   4.264
 2389SOL    HW1 8066   5.256   5.199   4.349
 2389SOL    HW2 8067   5.226   5.064   4.262
 2390SOL     OW 8068   4.451   3.465   6.402
 2390SOL    HW1 8069   4.390   3.533   6.444
 2390SOL    HW2 8070   4.413   3.374   6.415
 2391SOL     OW 8071   3.590   3.202   6.757
 2391SOL    HW1 8072   3.667   3.246   6.803
 2391SOL    HW2 8073   3.582   3.108   6.789
 2392SOL     OW 8074   3.277   4.640   5.779
 2392SOL    HW1 8075   3.197   4.660   5.835
 2392SOL    HW2 8076   3.290   4.714   5.712
 2393SOL     OW 8077   4.202   5.250   1.888
 2393SOL    HW1 8078   4.212   5.153   1.865
 2393SOL    HW2 8079   4.282   5.300   1.856
 2394SOL     OW 8080   6.961   4.575   3.824
 2394SOL    HW1 8081   6.906   4.535   3.752
 2394SOL    HW2 8082   7.006   4.658   3.790
 2395SOL     OW 8083   0.920   2.969   6.688
 2395SOL    HW1 8084   0.938   3.056   6.734
 2395SOL    HW2 8085   0.976   2.897   6.730
 2396SOL     OW 8086   5.104   0.852   5.726
 2396SOL    HW1 8087   5.106   0.788   5.649
 2396SOL    HW2 8088   5.190   0.903   5.728
 2397SOL     OW 8089   0.394   5.014   5.840
 2397SOL    HW1 8090   0.473   4.969   5.799
 2397SOL    HW2 8091   0.399   5.113   5.823
 2398SOL     OW 8092   2.560   5.645   3.520
 2398SOL    HW1 8093   2.478   5.636   3.463
 2398SOL    HW2 8094   2.540   5.704   3.598
 2399SOL     OW 8095   3.055   2.161   3.818
 2399SOL    HW1 8096   3.035   2.107   3.900
 2399SOL    HW2 8097   3.145   2.204   3.828
 2400SOL     OW 8098   2.309   3.707   0.384
 2400SOL    HW1 8099   2.308   3.655   0.469
 2400SOL    HW2 8100   2.288   3.803   0.403
 2401SOL     OW 8101   3.490   0.067   4.069
 2401SOL    HW1 8102   3.516   7.027   4.138
 2401SOL    HW2 8103   3.392   0.061   4.052
 2402SOL     OW 8104   0.848   2.331   3.017
 2402SOL    HW1 8105   0.862   2.354   3.113
 2402SOL    HW2 8106   0.917   2.378   2.961
 2403SOL     OW 8107   3.953   3.249   1.402
 2403SOL    HW1 8108   3.889   3.196   1.346
 2403SOL    HW2 8109   4.001   3.187   1.465
 2404SOL     OW 8110   5.983   1.165   1.200
 2404SOL    HW1 8111   5.962   1.262   1.207
 2404SOL    HW2 8112   6.081   1.153   1.185
 2405SOL     OW 8113   2.649   4.833   6.153
 2405SOL    HW1 8114   2.662   4.929   6.130
 2405SOL    HW2 8115   2.730   4.798   6.199
 2406SOL     OW 8116   1.931   0.045   3.586
 2406SOL    HW1 8117   2.011   0.014   3.638
 2406SOL    HW2 8118   1.961   0.084   3.499
 2407SOL     OW 8119   4.567   2.229   3.255
 2407SOL    HW1 8120   4.496   2.162   3.236
 2407SOL    HW2 8121   4.561   2.303   3.188
 2408SOL     OW 8122   2.525   5.742   3.229
 2408SOL    HW1 8123   2.550   5.708   3.138
 2408SOL    HW2 8124   2.605   5.785   3.271
 2409SOL     OW 8125   2.958   2.813   0.999
 2409SOL    HW1 8126   2.916   2.835   0.912
 2409SOL    HW2 8127   2.934   2.882   1.067
 2410SOL     OW 8128   6.156   3.792   6.123
 2410SOL    HW1 8129   6.170   3.867   6.188
 2410SOL    HW2 8130   6.239   3.737   6.116
 2411SOL     OW 8131   2.979   3.887   6.399
 2411SOL    HW1 8132   3.019   3.973   6.430
 2411SOL    HW2 8133   2.888   3.876   6.439
 2412SOL     OW 8134   2.914   3.012   0.031
 2412SOL    HW1 8135   2.939   2.953   0.107
 2412SOL    HW2 8136   2.963   3.099   0.039
 2413SOL     OW 8137   6.335   3.218   6.438
 2413SOL    HW1 8138   6.330   3.248   6.533
 2413SOL    HW2 8139   6.328   3.298   6.378
 2414SOL     OW 8140   5.609   2.097   3.870
 2414SOL    HW1 8141   5.667   2.159   3.816
 2414SOL    HW2 8142   5.559   2.150   3.938
 2415SOL     OW 8143   2.228   7.003   6.962
 2415SOL    HW1 8144   2.285   6.924   6.940
 2415SOL    HW2 8145   2.192   6.994   0.028
 2416SOL     OW 8146   0.854   3.205   3.186
 2416SOL    HW1 8147   0.880   3.193   3.282
 2416SOL    HW2 8148   0.935   3.230   3.133
 2417SOL     OW 8149   4.701   2.596   6.871
 2417SOL    HW1 8150   4.800   2.582   6.867
 2417SOL    HW2 8151   4.671   2.592   6.967
 2418SOL     OW 8152   4.081   3.985   5.375
 2418SOL    HW1 8153   4.107   3.917   5.444
 2418SOL    HW2 8154   4.155   4.051   5.364
 2419SOL     OW 8155   1.926   6.892   4.328
 2419SOL    HW1 8156   2.021   6.892   4.298
 2419SOL    HW2 8157   1.906   6.808   4.377
 2420SOL     OW 8158   3.696   5.590   1.960
 2420SOL    HW1 8159   3.701   5.501   1.914
 2420SOL    HW2 8160   3.788   5.626   1.972
 2421SOL     OW 8161   3.998   6.933   3.640
 2421SOL    HW1 8162   4.058   6.977   3.572
 2421SOL    HW2 8163   3.909   6.978   3.640
 2422SOL     OW 8164   4.007   0.179   1.200
 2422SOL    HW1 8165   4.075   0.111   1.171
 2422SOL    HW2 8166   4.000   0.177   1.300
 2423SOL     OW 8167   1.996   6.049   2.073
 2423SOL    HW1 8168   2.096   6.043   2.073
 2423SOL    HW2 8169   1.968   6.123   2.012
 2424SOL     OW 8170   5.299   6.171   6.725
 2424SOL    HW1 8171   5.217   6.227   6.708
 2424SOL    HW2 8172   5.338   6.141   6.637
 2425SOL     OW 8173   4.817   5.404   5.566
 2425SOL    HW1 8174   4.860   5.392   5.656
 2425SOL    HW2 8175   4.871   5.356   5.497
 2426SOL     OW 8176   1.251   6.002   4.563
 2426SOL    HW1 8177   1.252   5.930   4.494
 2426SOL    HW2 8178   1.167   6.055   4.557
 2427SOL     OW 8179   4.900   6.168   6.477
 2427SOL    HW1 8180   4.967   6.230   6.436
 2427SOL    HW2 8181   4.816   6.168   6.422
 2428SOL     OW 8182   0.261   1.239   3.396
 2428SOL    HW1 8183   0.286   1.328   3.435
 2428SOL    HW2 8184   0.207   1.253   3.313
 2429SOL     OW 8185   5.125   4.815   2.311
 2429SOL    HW1 8186   5.172   4.731   2.338
 2429SOL    HW2 8187   5.038   4.791   2.267
 2430SOL     OW 8188   5.693   2.396   0.743
 2430SOL    HW1 8189   5.713   2.339   0.663
 2430SOL    HW2 8190   5.647   2.480   0.713
 2431SOL     OW 8191   5.784   1.554   1.971
 2431SOL    HW1 8192   5.830   1.629   2.019
 2431SOL    HW2 8193   5.814   1.467   2.009
 2432SOL     OW 8194   3.246   5.513   1.598
 2432SOL    HW1 8195   3.241   5.413   1.604
 2432SOL    HW2 8196   3.163   5.553   1.638
 2433SOL     OW 8197   0.474   5.647   0.166
 2433SOL    HW1 8198   0.409   5.572   0.170
 2433SOL    HW2 8199   0.506   5.669   0.258
 2434SOL     OW 8200   4.560   1.836   2.083
 2434SOL    HW1 8201   4.614   1.763   2.126
 2434SOL    HW2 8202   4.463   1.811   2.084
 2435SOL     OW 8203   5.562   5.628   0.385
 2435SOL    HW1 8204   5.533   5.607   0.292
 2435SOL    HW2 8205   5.487   5.671   0.435
 2436SOL     OW 8206   1.852   1.489   1.850
 2436SOL    HW1 8207   1.863   1.403   1.900
 2436SOL    HW2 8208   1.757   1.519   1.855
 2437SOL     OW 8209   5.930   5.873   2.134
 2437SOL    HW1 8210   5.925   5.967   2.169
 2437SOL    HW2 8211   5.855   5.819   2.172
 2438SOL     OW 8212   3.847   1.821   4.733
 2438SOL    HW1 8213   3.925   1.774   4.693
 2438SOL    HW2 8214   3.763   1.775   4.706
 2439SOL     OW 8215   0.240   5.267   6.826
 2439SOL    HW1 8216   0.293   5.326   6.887
 2439SOL    HW2 8217   0.238   5.308   6.735
 2440SOL     OW 8218   4.027   0.089   5.323
 2440SOL    HW1 8219   3.987   0.177   5.349
 2440SOL    HW2 8220   4.065   0.045   5.404
 2441SOL     OW 8221   5.498   0.729   0.319
 2441SOL    HW1 8222   5.466   0.636   0.302
 2441SOL    HW2 8223   5.547   0.732   0.406
 2442SOL     OW 8224   5.651   4.076   2.868
 2442SOL    HW1 8225   5.648   3.976   2.866
 2442SOL    HW2 8226   5.731   4.106   2.920
 2443SOL     OW 8227   2.151   0.691   6.097
 2443SOL    HW1 8228   2.248   0.700   6.071
 2443SOL    HW2 8229   2.145   0.673   6.195
 2444SOL     OW 8230   3.897   4.816   0.193
 2444SOL    HW1 8231   3.871   4.899   0.243
 2444SOL    HW2 8232   3.975   4.836   0.134
 2445SOL     OW 8233   6.300   1.336   2.275
 2445SOL    HW1 8234   6.255   1.384   2.199
 2445SOL    HW2 8235   6.280   1.238   2.268
 2446SOL     OW 8236   1.072   2.686   2.991
 2446SOL    HW1 8237   1.052   2.705   3.087
 2446SOL    HW2 8238   1.041   2.763   2.934
 2447SOL     OW 8239   2.041   1.024   0.825
 2447SOL    HW1 8240   2.112   1.054   0.889
 2447SOL    HW2 8241   2.083   0.997   0.739
 2448SOL     OW 8242   6.303   1.927   4.277
 2448SOL    HW1 8243   6.320   1.855   4.344
 2448SOL    HW2 8244   6.352   1.907   4.192
 2449SOL     OW 8245   1.208   3.249   1.813
 2449SOL    HW1 8246   1.231   3.174   1.875
 2449SOL    HW2 8247   1.126   3.296   1.845
 2450SOL     OW 8248   2.818   5.051   6.936
 2450SOL    HW1 8249   2.863   4.966   6.908
 2450SOL    HW2 8250   2.883   5.108   6.986
 2451SOL     OW 8251   0.761   0.008   3.881
 2451SOL    HW1 8252   0.841   0.063   3.855
 2451SOL    HW2 8253   0.727   0.041   3.970
 2452SOL     OW 8254   2.354   1.992   3.685
 2452SOL    HW1 8255   2.330   1.899   3.715
 2452SOL    HW2 8256   2.283   2.056   3.715
 2453SOL     OW 8257   6.881   2.944   0.974
 2453SOL    HW1 8258   6.859   2.882   1.050
 2453SOL    HW2 8259   6.802   2.951   0.913
 2454SOL     OW 8260   2.602   5.914   6.427
 2454SOL    HW1 8261   2.660   5.952   6.355
 2454SOL    HW2 8262   2.517   5.966   6.433
 2455SOL     OW 8263   4.249   1.257   0.610
 2455SOL    HW1 8264   4.155   1.292   0.614
 2455SOL    HW2 8265   4.279   1.254   0.515
 2456SOL     OW 8266   0.862   3.094   6.429
 2456SOL    HW1 8267   0.776   3.078   6.381
 2456SOL    HW2 8268   0.857   3.054   6.521
 2457SOL     OW 8269   6.335   0.832   5.301
 2457SOL    HW1 8270   6.395   0.836   5.381
 2457SOL    HW2 8271   6.247   0.792   5.328
 2458SOL     OW 8272   1.001   0.290   3.789
 2458SOL    HW1 8273   1.014   0.272   3.691
 2458SOL    HW2 8274   1.047   0.219   3.842
 2459SOL     OW 8275   3.077   5.794   5.979
 2459SOL    HW1 8276   3.011   5.721   5.963
 2459SOL    HW2 8277   3.034   5.867   6.032
 2460SOL     OW 8278   1.462   1.184   0.561
 2460SOL    HW1 8279   1.428   1.278   0.561
 2460SOL    HW2 8280   1.467   1.150   0.467
 2461SOL     OW 8281   4.963   0.346   4.173
 2461SOL    HW1 8282   4.912   0.431   4.158
 2461SOL    HW2 8283   5.056   0.357   4.136
 2462SOL     OW 8284   2.239   5.150   0.352
 2462SOL    HW1 8285   2.204   5.227   0.298
 2462SOL    HW2 8286   2.164   5.087   0.374
 2463SOL     OW 8287   6.594   2.040   0.248
 2463SOL    HW1 8288   6.510   1.999   0.282
 2463SOL    HW2 8289   6.650   1.971   0.203
 2464SOL     OW 8290   1.121   2.982   3.425
 2464SOL    HW1 8291   1.143   3.049   3.496
 2464SOL    HW2 8292   1.155   2.892   3.452
 2465SOL     OW 8293   6.861   6.202   6.208
 2465SOL    HW1 8294   6.768   6.167   6.217
 2465SOL    HW2 8295   6.895   6.183   6.115
 2466SOL     OW 8296   1.703   1.392   2.718
 2466SOL    HW1 8297   1.798   1.374   2.745
 2466SOL    HW2 8298   1.661   1.454   2.784
 2467SOL     OW 8299   4.862   1.951   5.786
 2467SOL    HW1 8300   4.940   1.950   5.849
 2467SOL    HW2 8301   4.779   1.969   5.838
 2468SOL     OW 8302   4.321   6.959   0.683
 2468SOL    HW1 8303   4.352   0.014   0.732
 2468SOL    HW2 8304   4.324   6.977   0.584
 2469SOL     OW 8305   3.962   3.300   5.510
 2469SOL    HW1 8306   4.018   3.222   5.536
 2469SOL    HW2 8307   4.006   3.384   5.540
 2470SOL     OW 8308   3.859   4.990   5.999
 2470SOL    HW1 8309   3.928   5.026   6.063
 2470SOL    HW2 8310   3.834   4.897   6.027
 2471SOL     OW 8311   3.259   6.986   0.353
 2471SOL    HW1 8312   3.213   0.046   0.334
 2471SOL    HW2 8313   3.221   6.947   0.437
 2472SOL     OW 8314   4.340   2.381   3.419
 2472SOL    HW1 8315   4.429   2.346   3.388
 2472SOL    HW2 8316   4.267   2.324   3.382
 2473SOL     OW 8317   1.268   4.332   5.573
 2473SOL    HW1 8318   1.344   4.346   5.636
 2473SOL    HW2 8319   1.303   4.296   5.486
 2474SOL     OW 8320   1.010   5.960   0.909
 2474SOL    HW1 8321   1.005   6.052   0.947
 2474SOL    HW2 8322   1.085   5.910   0.953
 2475SOL     OW 8323   4.250   0.927   2.256
 2475SOL    HW1 8324   4.289   1.014   2.225
 2475SOL    HW2 8325   4.267   0.917   2.354
 2476SOL     OW 8326   5.711   0.215   2.246
 2476SOL    HW1 8327   5.751   0.242   2.333
 2476SOL    HW2 8328   5.778   0.161   2.194
 2477SOL     OW 8329   4.331   1.351   3.744
 2477SOL    HW1 8330   4.365   1.445   3.752
 2477SOL    HW2 8331   4.298   1.335   3.651
 2478SOL     OW 8332   6.085   1.164   1.924
 2478SOL    HW1 8333   6.058   1.234   1.858
 2478SOL    HW2 8334   6.184   1.158   1.927
 2479SOL     OW 8335   0.940   3.137   2.035
 2479SOL    HW1 8336   0.941   3.074   1.958
 2479SOL    HW2 8337   1.033   3.165   2.057
 2480SOL     OW 8338   4.292   3.353   0.842
 2480SOL    HW1 8339   4.303   3.284   0.914
 2480SOL    HW2 8340   4.279   3.306   0.754
 2481SOL     OW 8341   3.643   6.931   0.950
 2481SOL    HW1 8342   3.709   6.994   0.908
 2481SOL    HW2 8343   3.572   6.984   0.997
 2482SOL     OW 8344   5.370   3.298   6.417
 2482SOL    HW1 8345   5.457   3.292   6.466
 2482SOL    HW2 8346   5.322   3.381   6.444
 2483SOL     OW 8347   2.200   2.084   6.903
 2483SOL    HW1 8348   2.171   2.150   6.833
 2483SOL    HW2 8349   2.168   2.116   6.993
 2484SOL     OW 8350   3.393   0.849   6.993
 2484SOL    HW1 8351   3.365   0.916   0.034
 2484SOL    HW2 8352   3.444   0.775   0.009
 2485SOL     OW 8353   5.885   3.137   1.320
 2485SOL    HW1 8354   5.923   3.178   1.237
 2485SOL    HW2 8355   5.870   3.039   1.306
 2486SOL     OW 8356   1.363   4.904   5.192
 2486SOL    HW1 8357   1.449   4.942   5.226
 2486SOL    HW2 8358   1.349   4.812   5.228
 2487SOL     OW 8359   4.498   6.588   0.475
 2487SOL    HW1 8360   4.531   6.633   0.557
 2487SOL    HW2 8361   4.401   6.610   0.461
 2488SOL     OW 8362   0.913   4.112   2.130
 2488SOL    HW1 8363   0.850   4.104   2.053
 2488SOL    HW2 8364   0.947   4.206   2.136
 2489SOL     OW 8365   0.788   6.106   4.259
 2489SOL    HW1 8366   0.735   6.166   4.319
 2489SOL    HW2 8367   0.792   6.146   4.167
 2490SOL     OW 8368   0.144   5.038   0.988
 2490SOL    HW1 8369   0.152   5.125   1.037
 2490SOL    HW2 8370   0.049   5.026   0.957
 2491SOL     OW 8371   3.028   4.152   0.271
 2491SOL    HW1 8372   2.980   4.087   0.330
 2491SOL    HW2 8373   2.993   4.244   0.286
 2492SOL     OW 8374   4.828   3.910   1.026
 2492SOL    HW1 8375   4.817   4.004   1.060
 2492SOL    HW2 8376   4.923   3.881   1.037
 2493SOL     OW 8377   6.439   6.846   1.999
 2493SOL    HW1 8378   6.535   6.843   1.972
 2493SOL    HW2 8379   6.429   6.814   2.093
 2494SOL     OW 8380   5.487   4.264   2.979
 2494SOL    HW1 8381   5.509   4.167   2.981
 2494SOL    HW2 8382   5.405   4.282   3.033
 2495SOL     OW 8383   5.160   6.146   3.686
 2495SOL    HW1 8384   5.147   6.052   3.718
 2495SOL    HW2 8385   5.089   6.167   3.618
 2496SOL     OW 8386   0.633   2.833   6.375
 2496SOL    HW1 8387   0.664   2.804   6.466
 2496SOL    HW2 8388   0.553   2.893   6.384
 2497SOL     OW 8389   0.493   0.122   0.324
 2497SOL    HW1 8390   0.476   0.063   0.245
 2497SOL    HW2 8391   0.520   0.066   0.402
 2498SOL     OW 8392   3.003   1.867   5.201
 2498SOL    HW1 8393   3.073   1.921   5.153
 2498SOL    HW2 8394   2.916   1.917   5.197
 2499SOL     OW 8395   5.950   2.852   2.618
 2499SOL    HW1 8396   5.996   2.884   2.535
 2499SOL    HW2 8397   5.993   2.894   2.698
 2500SOL     OW 8398   3.917   4.155   6.982
 2500SOL    HW1 8399   3.923   4.060   7.013
 2500SOL    HW2 8400   3.988   4.172   6.914
 2501SOL     OW 8401   5.376   5.544   1.100
 2501SOL    HW1 8402   5.336   5.456   1.076
 2501SOL    HW2 8403   5.340   5.615   1.039
 2502SOL     OW 8404   0.971   0.594   4.182
 2502SOL    HW1 8405   0.931   0.552   4.101
 2502SOL    HW2 8406   0.904   0.656   4.224
 2503SOL     OW 8407   2.283   6.565   4.720
 2503SOL    HW1 8408   2.304   6.651   4.767
 2503SOL    HW2 8409   2.189   6.569   4.686
 2504SOL     OW 8410   3.937   5.075   4.019
 2504SOL    HW1 8411   3.922   4.998   3.957
 2504SOL    HW2 8412   3.994   5.046   4.095
 2505SOL     OW 8413   6.968   0.035   3.120
 2505SOL    HW1 8414   6.876   0.062   3.090
 2505SOL    HW2 8415   0.007   0.102   3.086
 2506SOL     OW 8416   6.195   4.029   6.277
 2506SOL    HW1 8417   6.255   4.095   6.233
 2506SOL    HW2 8418   6.239   3.994   6.360
 2507SOL     OW 8419   6.475   3.010   0.213
 2507SOL    HW1 8420   6.563   3.005   0.260
 2507SOL    HW2 8421   6.458   3.105   0.185
 2508SOL     OW 8422   3.258   1.557   3.214
 2508SOL    HW1 8423   3.200   1.484   3.179
 2508SOL    HW2 8424   3.243   1.640   3.160
 2509SOL     OW 8425   0.323   3.958   0.957
 2509SOL    HW1 8426   0.402   3.905   0.988
 2509SOL    HW2 8427   0.259   3.898   0.910
 2510SOL     OW 8428   3.017   5.198   1.300
 2510SOL    HW1 8429   2.981   5.262   1.232
 2510SOL    HW2 8430   2.961   5.201   1.382
 2511SOL     OW 8431   3.867   1.654   4.121
 2511SOL    HW1 8432   3.892   1.644   4.025
 2511SOL    HW2 8433   3.903   1.740   4.157
 2512SOL     OW 8434   4.462   3.533   5.607
 2512SOL    HW1 8435   4.427   3.615   5.650
 2512SOL    HW2 8436   4.544   3.502   5.655
 2513SOL     OW 8437   1.856   3.984   5.233
 2513SOL    HW1 8438   1.954   3.985   5.251
 2513SOL    HW2 8439   1.826   4.077   5.210
 2514SOL     OW 8440   0.232   4.025   5.046
 2514SOL    HW1 8441   0.183   3.939   5.032
 2514SOL    HW2 8442   0.275   4.025   5.136
 2515SOL     OW 8443   1.260   6.976   0.736
 2515SOL    HW1 8444   1.323   6.932   0.800
 2515SOL    HW2 8445   1.230   0.036   0.773
 2516SOL     OW 8446   5.526   2.040   2.788
 2516SOL    HW1 8447   5.592   2.113   2.805
 2516SOL    HW2 8448   5.558   1.956   2.831
 2517SOL     OW 8449   0.499   6.772   6.010
 2517SOL    HW1 8450   0.573   6.723   5.963
 2517SOL    HW2 8451   0.434   6.806   5.943
 2518SOL     OW 8452   1.706   4.898   0.098
 2518SOL    HW1 8453   1.745   4.820   0.147
 2518SOL    HW2 8454   1.776   4.969   0.088
 2519SOL     OW 8455   3.757   6.010   1.974
 2519SOL    HW1 8456   3.842   5.985   2.021
 2519SOL    HW2 8457   3.730   6.103   2.000
 2520SOL     OW 8458   3.182   1.800   0.765
 2520SOL    HW1 8459   3.208   1.876   0.705
 2520SOL    HW2 8460   3.212   1.714   0.725
 2521SOL     OW 8461   2.890   0.579   5.523
 2521SOL    HW1 8462   2.911   0.640   5.448
 2521SOL    HW2 8463   2.803   0.533   5.506
 2522SOL     OW 8464   0.945   2.659   5.490
 2522SOL    HW1 8465   0.980   2.576   5.534
 2522SOL    HW2 8466   0.881   2.633   5.417
 2523SOL     OW 8467   0.035   3.228   1.370
 2523SOL    HW1 8468   0.047   3.139   1.326
 2523SOL    HW2 8469   7.026   3.293   1.303
 2524SOL     OW 8470   0.847   6.586   4.850
 2524SOL    HW1 8471   0.796   6.650   4.908
 2524SOL    HW2 8472   0.793   6.504   4.835
 2525SOL     OW 8473   1.382   2.323   5.406
 2525SOL    HW1 8474   1.294   2.276   5.417
 2525SOL    HW2 8475   1.393   2.351   5.311
 2526SOL     OW 8476   1.204   4.597   6.269
 2526SOL    HW1 8477   1.272   4.606   6.341
 2526SOL    HW2 8478   1.116   4.571   6.309
 2527SOL     OW 8479   5.291   6.140   5.717
 2527SOL    HW1 8480   5.306   6.128   5.816
 2527SOL    HW2 8481   5.340   6.068   5.667
 2528SOL     OW 8482   6.145   4.909   0.079
 2528SOL    HW1 8483   6.238   4.945   0.077
 2528SOL    HW2 8484   6.145   4.821   0.127
 2529SOL     OW 8485   6.697   5.878   6.406
 2529SOL    HW1 8486   6.701   5.963   6.354
 2529SOL    HW2 8487   6.700   5.800   6.344
 2530SOL     OW 8488   2.629   6.409   4.928
 2530SOL    HW1 8489   2.555   6.358   4.883
 2530SOL    HW2 8490   2.612   6.507   4.918
 2531SOL     OW 8491   5.249   5.809   4.925
 2531SOL    HW1 8492   5.317   5.746   4.964
 2531SOL    HW2 8493   5.291   5.899   4.914
 2532SOL     OW 8494   0.716   5.523   0.973
 2532SOL    HW1 8495   0.634   5.537   1.029
 2532SOL    HW2 8496   0.691   5.474   0.889
 2533SOL     OW 8497   3.279   6.534   4.251
 2533SOL    HW1 8498   3.344   6.496   4.185
 2533SOL    HW2 8499   3.285   6.482   4.337
 2534SOL     OW 8500   4.131   0.877   2.741
 2534SOL    HW1 8501   4.041   0.842   2.770
 2534SOL    HW2 8502   4.151   0.844   2.649
 2535SOL     OW 8503   3.576   2.605   5.462
 2535SOL    HW1 8504   3.592   2.702   5.442
 2535SOL    HW2 8505   3.478   2.586   5.461
 2536SOL     OW 8506   1.212   1.449   4.884
 2536SOL    HW1 8507   1.247   1.364   4.845
 2536SOL    HW2 8508   1.116   1.461   4.858
 2537SOL     OW 8509   3.673   0.422   6.330
 2537SOL    HW1 8510   3.696   0.402   6.235
 2537SOL    HW2 8511   3.754   0.459   6.377
 2538SOL     OW 8512   0.972   4.518   2.853
 2538SOL    HW1 8513   0.985   4.617   2.860
 2538SOL    HW2 8514   1.056   4.472   2.884
 2539SOL     OW 8515   6.235   1.024   4.805
 2539SOL    HW1 8516   6.319   1.024   4.750
 2539SOL    HW2 8517   6.172   1.092   4.769
 2540SOL     OW 8518   4.129   1.959   2.819
 2540SOL    HW1 8519   4.087   1.914   2.897
 2540SOL    HW2 8520   4.099   1.915   2.734
 2541SOL     OW 8521   2.741   0.223   5.081
 2541SOL    HW1 8522   2.656   0.211   5.131
 2541SOL    HW2 8523   2.723   0.228   4.983
 2542SOL     OW 8524   3.152   2.147   5.565
 2542SOL    HW1 8525   3.127   2.063   5.613
 2542SOL    HW2 8526   3.079   2.215   5.576
 2543SOL     OW 8527   1.272   0.772   3.040
 2543SOL    HW1 8528   1.219   0.766   3.124
 2543SOL    HW2 8529   1.264   0.687   2.989
 2544SOL     OW 8530   0.318   6.539   1.155
 2544SOL    HW1 8531   0.410   6.502   1.166
 2544SOL    HW2 8532   0.287   6.526   1.060
 2545SOL     OW 8533   1.093   0.167   2.291
 2545SOL    HW1 8534   1.046   0.083   2.264
 2545SOL    HW2 8535   1.027   0.242   2.298
 2546SOL     OW 8536   0.304   0.631   2.040
 2546SOL    HW1 8537   0.270   0.546   2.002
 2546SOL    HW2 8538   0.395   0.650   2.002
 2547SOL     OW 8539   6.646   4.889   0.546
 2547SOL    HW1 8540   6.628   4.985   0.523
 2547SOL    HW2 8541   6.592   4.864   0.627
 2548SOL     OW 8542   1.202   6.486   5.568
 2548SOL    HW1 8543   1.154   6.436   5.496
 2548SOL    HW2 8544   1.160   6.468   5.656
 2549SOL     OW 8545   1.974   0.262   1.088
 2549SOL    HW1 8546   1.997   0.168   1.060
 2549SOL    HW2 8547   1.980   0.322   1.008
 2550SOL     OW 8548   6.761   0.272   6.529
 2550SOL    HW1 8549   6.663   0.296   6.526
 2550SOL    HW2 8550   6.785   0.244   6.621
 2551SOL     OW 8551   2.817   5.142   0.509
 2551SOL    HW1 8552   2.773   5.144   0.419
 2551SOL    HW2 8553   2.864   5.055   0.522
 2552SOL     OW 8554   1.502   6.435   4.819
 2552SOL    HW1 8555   1.583   6.400   4.771
 2552SOL    HW2 8556   1.429   6.451   4.752
 2553SOL     OW 8557   4.837   3.254   5.668
 2553SOL    HW1 8558   4.777   3.332   5.685
 2553SOL    HW2 8559   4.829   3.227   5.572
 2554SOL     OW 8560   2.089   6.908   0.191
 2554SOL    HW1 8561   2.033   6.870   0.118
 2554SOL    HW2 8562   2.124   6.834   0.248
 2555SOL     OW 8563   5.680   7.006   5.225
 2555SOL    HW1 8564   5.606   0.045   5.230
 2555SOL    HW2 8565   5.755   0.015   5.170
 2556SOL     OW 8566   4.021   5.846   0.240
 2556SOL    HW1 8567   4.047   5.920   0.303
 2556SOL    HW2 8568   3.922   5.839   0.236
 2557SOL     OW 8569   2.323   4.529   6.830
 2557SOL    HW1 8570   2.277   4.527   6.741
 2557SOL    HW2 8571   2.391   4.455   6.833
 2558SOL     OW 8572   5.447   1.413   4.860
 2558SOL    HW1 8573   5.445   1.449   4.953
 2558SOL    HW2 8574   5.513   1.339   4.854
 2559SOL     OW 8575   0.456   3.942   4.774
 2559SOL    HW1 8576   0.506   3.862   4.742
 2559SOL    HW2 8577   0.467   3.951   4.873
 2560SOL     OW 8578   5.677   3.166   4.120
 2560SOL    HW1 8579   5.587   3.191   4.155
 2560SOL    HW2 8580   5.748   3.201   4.181
 2561SOL     OW 8581   3.124   6.024   5.130
 2561SOL    HW1 8582   3.089   5.985   5.045
 2561SOL    HW2 8583   3.223   6.036   5.124
 2562SOL     OW 8584   2.375   5.537   1.467
 2562SOL    HW1 8585   2.334   5.534   1.558
 2562SOL    HW2 8586   2.316   5.489   1.402
 2563SOL     OW 8587   3.559   2.291   0.449
 2563SOL    HW1 8588   3.538   2.380   0.408
 2563SOL    HW2 8589   3.623   2.304   0.525
 2564SOL     OW 8590   2.241   5.446   6.380
 2564SOL    HW1 8591   2.212   5.358   6.417
 2564SOL    HW2 8592   2.223   5.449   6.281
 2565SOL     OW 8593   1.439   0.694   0.233
 2565SOL    HW1 8594   1.497   0.633   0.286
 2565SOL    HW2 8595   1.383   0.641   0.170
 2566SOL     OW 8596   2.726   6.852   1.006
 2566SOL    HW1 8597   2.799   6.787   0.985
 2566SOL    HW2 8598   2.682   6.880   0.920
 2567SOL     OW 8599   0.616   1.115   0.837
 2567SOL    HW1 8600   0.558   1.105   0.918
 2567SOL    HW2 8601   0.650   1.209   0.832
 2568SOL     OW 8602   4.145   0.437   6.512
 2568SOL    HW1 8603   4.122   0.507   6.444
 2568SOL    HW2 8604   4.073   0.367   6.513
 2569SOL     OW 8605   3.025   1.431   2.050
 2569SOL    HW1 8606   3.083   1.390   2.120
 2569SOL    HW2 8607   3.066   1.516   2.018
 2570SOL     OW 8608   5.356   0.178   6.627
 2570SOL    HW1 8609   5.373   0.214   6.719
 2570SOL    HW2 8610   5.353   0.254   6.562
 2571SOL     OW 8611   2.384   4.453   5.037
 2571SOL    HW1 8612   2.318   4.483   4.968
 2571SOL    HW2 8613   2.378   4.353   5.047
 2572SOL     OW 8614   2.525   5.895   0.789
 2572SOL    HW1 8615   2.506   5.858   0.879
 2572SOL    HW2 8616   2.483   5.837   0.719
 2573SOL     OW 8617   6.873   2.101   1.727
 2573SOL    HW1 8618   6.963   2.136   1.753
 2573SOL    HW2 8619   6.825   2.169   1.672
 2574SOL     OW 8620   6.079   4.047   0.385
 2574SOL    HW1 8621   6.116   3.984   0.453
 2574SOL    HW2 8622   6.124   4.031   0.297
 2575SOL     OW 8623   5.082   5.477   0.686
 2575SOL    HW1 8624   5.158   5.464   0.749
 2575SOL    HW2 8625   5.013   5.536   0.728
 2576SOL     OW 8626   4.393   6.772   4.763
 2576SOL    HW1 8627   4.393   6.757   4.664
 2576SOL    HW2 8628   4.300   6.760   4.798
 2577SOL     OW 8629   4.534   6.601   1.899
 2577SOL    HW1 8630   4.556   6.680   1.843
 2577SOL    HW2 8631   4.613   6.576   1.955
 2578SOL     OW 8632   4.655   1.806   5.141
 2578SOL    HW1 8633   4.658   1.769   5.048
 2578SOL    HW2 8634   4.723   1.758   5.197
 2579SOL     OW 8635   1.790   6.749   2.718
 2579SOL    HW1 8636   1.843   6.665   2.708
 2579SOL    HW2 8637   1.802   6.785   2.811
 2580SOL     OW 8638   3.425   3.907   6.104
 2580SOL    HW1 8639   3.429   4.007   6.099
 2580SOL    HW2 8640   3.378   3.872   6.023
 2581SOL     OW 8641   1.836   5.178   1.536
 2581SOL    HW1 8642   1.844   5.154   1.633
 2581SOL    HW2 8643   1.925   5.171   1.493
 2582SOL     OW 8644   0.473   4.120   1.606
 2582SOL    HW1 8645   0.540   4.084   1.542
 2582SOL    HW2 8646   0.412   4.046   1.636
 2583SOL     OW 8647   1.380   1.579   6.663
 2583SOL    HW1 8648   1.372   1.670   6.622
 2583SOL    HW2 8649   1.299   1.524   6.639
 2584SOL     OW 8650   4.565   4.862   6.060
 2584SOL    HW1 8651   4.546   4.955   6.029
 2584SOL    HW2 8652   4.612   4.812   5.988
 2585SOL     OW 8653   4.249   3.495   0.485
 2585SOL    HW1 8654   4.199   3.459   0.564
 2585SOL    HW2 8655   4.198   3.572   0.446
 2586SOL     OW 8656   3.814   1.084   3.751
 2586SOL    HW1 8657   3.756   1.164   3.745
 2586SOL    HW2 8658   3.770   1.006   3.705
 2587SOL     OW 8659   6.726   0.645   3.336
 2587SOL    HW1 8660   6.710   0.732   3.289
 2587SOL    HW2 8661   6.814   0.648   3.384
 2588SOL     OW 8662   4.796   1.723   6.705
 2588SOL    HW1 8663   4.797   1.803   6.646
 2588SOL    HW2 8664   4.820   1.642   6.651
 2589SOL     OW 8665   1.124   6.580   5.118
 2589SOL    HW1 8666   1.182   6.660   5.135
 2589SOL    HW2 8667   1.049   6.606   5.058
 2590SOL     OW 8668   3.328   4.694   0.168
 2590SOL    HW1 8669   3.346   4.689   0.069
 2590SOL    HW2 8670   3.323   4.789   0.196
 2591SOL     OW 8671   0.065   4.707   3.126
 2591SOL    HW1 8672   0.108   4.720   3.037
 2591SOL    HW2 8673   7.014   4.646   3.117
 2592SOL     OW 8674   3.121   5.660   0.217
 2592SOL    HW1 8675   3.201   5.619   0.171
 2592SOL    HW2 8676   3.039   5.641   0.164
 2593SOL     OW 8677   4.111   5.636   0.095
 2593SOL    HW1 8678   4.032   5.609   0.040
 2593SOL    HW2 8679   4.084   5.707   0.160
 2594SOL     OW 8680   1.654   4.343   6.031
 2594SOL    HW1 8681   1.636   4.278   6.105
 2594SOL    HW2 8682   1.647   4.295   5.943
 2595SOL     OW 8683   0.065   0.241   4.005
 2595SOL    HW1 8684   0.121   0.169   3.964
 2595SOL    HW2 8685   0.048   0.312   3.937
 2596SOL     OW 8686   3.204   2.103   1.865
 2596SOL    HW1 8687   3.239   2.188   1.826
 2596SOL    HW2 8688   3.115   2.120   1.908
 2597SOL     OW 8689   0.702   5.149   6.160
 2597SOL    HW1 8690   0.775   5.131   6.093
 2597SOL    HW2 8691   0.620   5.181   6.111
 2598SOL     OW 8692   6.492   1.648   2.981
 2598SOL    HW1 8693   6.571   1.699   3.015
 2598SOL    HW2 8694   6.499   1.636   2.882
 2599SOL     OW 8695   1.246   5.848   0.974
 2599SOL    HW1 8696   1.301   5.845   0.890
 2599SOL    HW2 8697   1.300   5.889   1.048
 2600SOL     OW 8698   5.908   2.912   4.589
 2600SOL    HW1 8699   5.832   2.868   4.540
 2600SOL    HW2 8700   5.893   3.011   4.591
 2601SOL     OW 8701   1.528   1.282   2.279
 2601SOL    HW1 8702   1.510   1.199   2.331
 2601SOL    HW2 8703   1.526   1.361   2.340
 2602SOL     OW 8704   0.911   5.038   4.726
 2602SOL    HW1 8705   0.986   4.982   4.761
 2602SOL    HW2 8706   0.838   4.979   4.691
 2603SOL     OW 8707   3.178   0.815   3.210
 2603SOL    HW1 8708   3.111   0.858   3.149
 2603SOL    HW2 8709   3.249   0.771   3.155
 2604SOL     OW 8710   4.889   2.265   2.738
 2604SOL    HW1 8711   4.863   2.311   2.823
 2604SOL    HW2 8712   4.853   2.317   2.660
 2605SOL     OW 8713   1.585   2.858   3.007
 2605SOL    HW1 8714   1.597   2.947   2.965
 2605SOL    HW2 8715   1.546   2.869   3.099
 2606SOL     OW 8716   5.700   4.528   1.616
 2606SOL    HW1 8717   5.738   4.596   1.553
 2606SOL    HW2 8718   5.660   4.574   1.695
 2607SOL     OW 8719   1.169   1.290   2.225
 2607SOL    HW1 8720   1.095   1.272   2.288
 2607SOL    HW2 8721   1.137   1.279   2.131
 2608SOL     OW 8722   3.739   5.439   0.739
 2608SOL    HW1 8723   3.735   5.504   0.815
 2608SOL    HW2 8724   3.823   5.453   0.687
 2609SOL     OW 8725   6.650   1.162   2.624
 2609SOL    HW1 8726   6.567   1.122   2.664
 2609SOL    HW2 8727   6.641   1.167   2.525
 2610SOL     OW 8728   0.750   4.046   4.619
 2610SOL    HW1 8729   0.736   4.142   4.593
 2610SOL    HW2 8730   0.704   3.986   4.554
 2611SOL     OW 8731   4.339   6.103   0.920
 2611SOL    HW1 8732   4.393   6.064   0.994
 2611SOL    HW2 8733   4.298   6.030   0.866
 2612SOL     OW 8734   6.230   6.321   4.578
 2612SOL    HW1 8735   6.257   6.361   4.666
 2612SOL    HW2 8736   6.312   6.289   4.530
 2613SOL     OW 8737   1.957   5.288   6.234
 2613SOL    HW1 8738   2.002   5.334   6.158
 2613SOL    HW2 8739   1.917   5.356   6.296
 2614SOL     OW 8740   6.735   2.241   0.112
 2614SOL    HW1 8741   6.686   2.183   0.178
 2614SOL    HW2 8742   6.831   2.247   0.138
 2615SOL     OW 8743   0.693   3.405   2.394
 2615SOL    HW1 8744   0.682   3.477   2.463
 2615SOL    HW2 8745   0.623   3.335   2.407
 2616SOL     OW 8746   2.387   2.746   5.964
 2616SOL    HW1 8747   2.347   2.758   6.055
 2616SOL    HW2 8748   2.471   2.693   5.971
 2617SOL     OW 8749   4.254   0.572   0.409
 2617SOL    HW1 8750   4.291   0.656   0.370
 2617SOL    HW2 8751   4.274   0.569   0.507
 2618SOL     OW 8752   6.783   0.120   4.004
 2618SOL    HW1 8753   6.831   0.092   3.921
 2618SOL    HW2 8754   6.850   0.153   4.071
 2619SOL     OW 8755   5.315   2.006   1.744
 2619SOL    HW1 8756   5.261   2.046   1.817
 2619SOL    HW2 8757   5.371   2.077   1.700
 2620SOL     OW 8758   6.831   6.628   3.433
 2620SOL    HW1 8759   6.850   6.716   3.391
 2620SOL    HW2 8760   6.906   6.603   3.495
 2621SOL     OW 8761   1.229   5.456   2.280
 2621SOL    HW1 8762   1.214   5.486   2.374
 2621SOL    HW2 8763   1.152   5.486   2.223
 2622SOL     OW 8764   2.181   3.899   6.207
 2622SOL    HW1 8765   2.267   3.943   6.181
 2622SOL    HW2 8766   2.142   3.852   6.128
 2623SOL     OW 8767   0.825   1.025   5.711
 2623SOL    HW1 8768   0.795   0.952   5.651
 2623SOL    HW2 8769   0.752   1.093   5.721
 2624SOL     OW 8770   0.386   1.854   5.004
 2624SOL    HW1 8771   0.463   1.840   5.067
 2624SOL    HW2 8772   0.331   1.770   5.000
 2625SOL     OW 8773   2.524   3.553   5.922
 2625SOL    HW1 8774   2.606   3.594   5.962
 2625SOL    HW2 8775   2.547   3.507   5.837
 2626SOL     OW 8776   6.682   0.382   6.152
 2626SOL    HW1 8777   6.725   0.333   6.077
 2626SOL    HW2 8778   6.612   0.444   6.116
 2627SOL     OW 8779   1.559   1.030   6.262
 2627SOL    HW1 8780   1.630   1.015   6.331
 2627SOL    HW2 8781   1.568   0.962   6.189
 2628SOL     OW 8782   2.031   3.926   5.532
 2628SOL    HW1 8783   2.099   3.864   5.571
 2628SOL    HW2 8784   2.020   4.005   5.593
 2629SOL     OW 8785   3.532   3.227   2.087
 2629SOL    HW1 8786   3.559   3.225   1.991
 2629SOL    HW2 8787   3.478   3.309   2.105
 2630SOL     OW 8788   3.627   1.252   2.658
 2630SOL    HW1 8789   3.587   1.179   2.713
 2630SOL    HW2 8790   3.604   1.239   2.562
 2631SOL     OW 8791   5.136   0.815   6.704
 2631SOL    HW1 8792   5.207   0.886   6.702
 2631SOL    HW2 8793   5.073   0.833   6.779
 2632SOL     OW 8794   5.651   3.376   0.586
 2632SOL    HW1 8795   5.689   3.324   0.663
 2632SOL    HW2 8796   5.589   3.446   0.621
 2633SOL     OW 8797   6.954   1.936   4.842
 2633SOL    HW1 8798   6.863   1.976   4.845
 2633SOL    HW2 8799   6.951   1.848   4.796
 2634SOL     OW 8800   0.829   5.627   3.437
 2634SOL    HW1 8801   0.794   5.586   3.522
 2634SOL    HW2 8802   0.923   5.597   3.422
 2635SOL     OW 8803   6.869   6.265   4.608
 2635SOL    HW1 8804   6.910   6.208   4.537
 2635SOL    HW2 8805   6.840   6.207   4.684
 2636SOL     OW 8806   3.856   0.538   6.491
 2636SOL    HW1 8807   3.781   0.587   6.535
 2636SOL    HW2 8808   3.882   0.460   6.548
 2637SOL     OW 8809   6.094   1.682   3.970
 2637SOL    HW1 8810   6.115   1.779   3.981
 2637SOL    HW2 8811   6.023   1.656   4.035
 2638SOL     OW 8812   0.005   6.703   4.637
 2638SOL    HW1 8813   0.076   6.771   4.658
 2638SOL    HW2 8814   0.021   6.621   4.691
 2639SOL     OW 8815   6.575   6.041   6.998
 2639SOL    HW1 8816   6.662   6.086   7.019
 2639SOL    HW2 8817   6.585   5.942   7.010
 2640SOL     OW 8818   6.758   6.855   5.319
 2640SOL    HW1 8819   6.739   6.950   5.294
 2640SOL    HW2 8820   6.730   6.795   5.244
 2641SOL     OW 8821   5.430   2.294   1.699
 2641SOL    HW1 8822   5.458   2.390   1.699
 2641SOL    HW2 8823   5.439   2.257   1.791
 2642SOL     OW 8824   6.027   0.288   4.101
 2642SOL    HW1 8825   6.043   0.359   4.032
 2642SOL    HW2 8826   6.114   0.264   4.144
 2643SOL     OW 8827   1.220   3.910   3.600
 2643SOL    HW1 8828   1.224   3.930   3.698
 2643SOL    HW2 8829   1.162   3.831   3.584
 2644SOL     OW 8830   4.925   4.938   5.059
 2644SOL    HW1 8831   4.861   4.993   5.113
 2644SOL    HW2 8832   5.002   4.911   5.117
 2645SOL     OW 8833   4.648   5.318   3.554
 2645SOL    HW1 8834   4.590   5.237   3.567
 2645SOL    HW2 8835   4.590   5.399   3.547
 2646SOL     OW 8836   7.003   2.248   0.218
 2646SOL    HW1 8837   7.021   2.227   0.314
 2646SOL    HW2 8838   0.051   2.215   0.162
 2647SOL     OW 8839   6.084   6.973   1.668
 2647SOL    HW1 8840   6.137   6.916   1.606
 2647SOL    HW2 8841   6.146   0.004   1.720
 2648SOL     OW 8842   0.020   6.466   4.767
 2648SOL    HW1 8843   0.071   6.390   4.807
 2648SOL    HW2 8844   6.993   6.434   4.690
 2649SOL     OW 8845   6.266   3.145   1.287
 2649SOL    HW1 8846   6.212   3.137   1.371
 2649SOL    HW2 8847   6.206   3.175   1.212
 2650SOL     OW 8848   2.059   5.054   4.450
 2650SOL    HW1 8849   1.986   5.052   4.381
 2650SOL    HW2 8850   2.067   5.148   4.485
 2651SOL     OW 8851   3.004   1.349   1.162
 2651SOL    HW1 8852   3.060   1.406   1.101
 2651SOL    HW2 8853   2.925   1.402   1.194
 2652SOL     OW 8854   4.702   3.478   5.725
 2652SOL    HW1 8855   4.752   3.564   5.712
 2652SOL    HW2 8856   4.696   3.457   5.823
 2653SOL     OW 8857   4.730   6.002   5.732
 2653SOL    HW1 8858   4.725   6.077   5.666
 2653SOL    HW2 8859   4.654   6.010   5.797
 2654SOL     OW 8860   4.790   6.594   1.249
 2654SOL    HW1 8861   4.883   6.607   1.215
 2654SOL    HW2 8862   4.750   6.683   1.271
 2655SOL     OW 8863   4.938   5.354   3.612
 2655SOL    HW1 8864   4.851   5.374   3.568
 2655SOL    HW2 8865   4.931   5.370   3.711
 2656SOL     OW 8866   3.635   5.606   4.318
 2656SOL    HW1 8867   3.676   5.546   4.249
 2656SOL    HW2 8868   3.604   5.552   4.396
 2657SOL     OW 8869   1.649   3.673   0.418
 2657SOL    HW1 8870   1.638   3.766   0.383
 2657SOL    HW2 8871   1.665   3.610   0.342
 2658SOL     OW 8872   4.749   4.673   0.275
 2658SOL    HW1 8873   4.818   4.605   0.252
 2658SOL    HW2 8874   4.782   4.764   0.251
 2659SOL     OW 8875   4.599   3.010   5.393
 2659SOL    HW1 8876   4.598   3.010   5.493
 2659SOL    HW2 8877   4.598   3.104   5.360
 2660SOL     OW 8878   0.616   0.474   1.791
 2660SOL    HW1 8879   0.681   0.550   1.792
 2660SOL    HW2 8880   0.621   0.428   1.702
 2661SOL     OW 8881   2.213   6.623   1.560
 2661SOL    HW1 8882   2.203   6.683   1.480
 2661SOL    HW2 8883   2.251   6.675   1.636
 2662SOL     OW 8884   2.825   0.031   3.863
 2662SOL    HW1 8885   2.779   6.987   3.916
 2662SOL    HW2 8886   2.763   0.109   3.851
 2663SOL     OW 8887   4.470   4.862   6.557
 2663SOL    HW1 8888   4.491   4.798   6.483
 2663SOL    HW2 8889   4.497   4.955   6.530
 2664SOL     OW 8890   4.230   3.159   5.527
 2664SOL    HW1 8891   4.200   3.105   5.606
 2664SOL    HW2 8892   4.329   3.153   5.518
 2665SOL     OW 8893   2.440   3.388   5.492
 2665SOL    HW1 8894   2.381   3.461   5.460
 2665SOL    HW2 8895   2.532   3.424   5.510
 2666SOL     OW 8896   1.286   4.748   1.551
 2666SOL    HW1 8897   1.276   4.732   1.649
 2666SOL    HW2 8898   1.350   4.681   1.513
 2667SOL     OW 8899   1.330   5.880   3.934
 2667SOL    HW1 8900   1.412   5.937   3.927
 2667SOL    HW2 8901   1.357   5.783   3.933
 2668SOL     OW 8902   6.162   2.983   4.559
 2668SOL    HW1 8903   6.069   2.946   4.558
 2668SOL    HW2 8904   6.212   2.945   4.636
 2669SOL     OW 8905   3.050   5.301   6.642
 2669SOL    HW1 8906   3.055   5.371   6.570
 2669SOL    HW2 8907   2.955   5.280   6.662
 2670SOL     OW 8908   5.873   2.750   4.842
 2670SOL    HW1 8909   5.966   2.716   4.855
 2670SOL    HW2 8910   5.860   2.777   4.747
 2671SOL     OW 8911   4.695   5.321   6.349
 2671SOL    HW1 8912   4.786   5.285   6.372
 2671SOL    HW2 8913   4.676   5.402   6.403
 2672SOL     OW 8914   3.311   6.528   1.714
 2672SOL    HW1 8915   3.304   6.606   1.775
 2672SOL    HW2 8916   3.398   6.532   1.665
 2673SOL     OW 8917   6.156   2.017   1.893
 2673SOL    HW1 8918   6.160   1.942   1.959
 2673SOL    HW2 8919   6.190   2.101   1.936
 2674SOL     OW 8920   1.118   4.519   3.992
 2674SOL    HW1 8921   1.176   4.556   4.064
 2674SOL    HW2 8922   1.107   4.420   4.005
 2675SOL     OW 8923   6.818   6.631   4.220
 2675SOL    HW1 8924   6.810   6.642   4.121
 2675SOL    HW2 8925   6.842   6.536   4.241
 2676SOL     OW 8926   3.339   3.408   2.118
 2676SOL    HW1 8927   3.268   3.401   2.188
 2676SOL    HW2 8928   3.297   3.411   2.028
 2677SOL     OW 8929   2.652   4.872   1.303
 2677SOL    HW1 8930   2.624   4.809   1.376
 2677SOL    HW2 8931   2.700   4.821   1.232
 2678SOL     OW 8932   0.104   2.296   2.099
 2678SOL    HW1 8933   0.193   2.302   2.144
 2678SOL    HW2 8934   0.043   2.366   2.137
 2679SOL     OW 8935   1.563   4.767   2.398
 2679SOL    HW1 8936   1.616   4.686   2.421
 2679SOL    HW2 8937   1.474   4.740   2.361
 2680SOL     OW 8938   1.212   2.265   0.027
 2680SOL    HW1 8939   1.200   2.189   0.091
 2680SOL    HW2 8940   1.286   2.324   0.058
 2681SOL     OW 8941   1.145   2.519   4.908
 2681SOL    HW1 8942   1.243   2.538   4.898
 2681SOL    HW2 8943   1.096   2.604   4.924
 2682SOL     OW 8944   4.877   4.030   3.217
 2682SOL    HW1 8945   4.840   3.938   3.227
 2682SOL    HW2 8946   4.968   4.026   3.175
 2683SOL     OW 8947   2.499   4.615   2.225
 2683SOL    HW1 8948   2.476   4.558   2.147
 2683SOL    HW2 8949   2.519   4.557   2.304
 2684SOL     OW 8950   4.886   0.107   1.718
 2684SOL    HW1 8951   4.795   0.146   1.730
 2684SOL    HW2 8952   4.886   0.046   1.639
 2685SOL     OW 8953   5.978   4.847   5.712
 2685SOL    HW1 8954   5.978   4.795   5.626
 2685SOL    HW2 8955   6.028   4.795   5.781
 2686SOL     OW 8956   0.922   1.654   5.664
 2686SOL    HW1 8957   0.889   1.734   5.713
 2686SOL    HW2 8958   0.845   1.593   5.643
 2687SOL     OW 8959   3.569   5.650   0.352
 2687SOL    HW1 8960   3.554   5.588   0.428
 2687SOL    HW2 8961   3.508   5.729   0.360
 2688SOL     OW 8962   2.591   2.269   0.606
 2688SOL    HW1 8963   2.626   2.259   0.513
 2688SOL    HW2 8964   2.658   2.317   0.662
 2689SOL     OW 8965   0.009   4.096   2.325
 2689SOL    HW1 8966   0.052   4.072   2.238
 2689SOL    HW2 8967   6.967   4.167   2.310
 2690SOL     OW 8968   3.226   3.372   6.867
 2690SOL    HW1 8969   3.147   3.400   6.813
 2690SOL    HW2 8970   3.310   3.386   6.813
 2691SOL     OW 8971   0.148   4.545   3.990
 2691SOL    HW1 8972   0.231   4.586   3.953
 2691SOL    HW2 8973   0.075   4.549   3.921
 2692SOL     OW 8974   2.428   0.055   2.971
 2692SOL    HW1 8975   2.378   0.015   2.894
 2692SOL    HW2 8976   2.469   7.010   3.027
 2693SOL     OW 8977   2.366   4.722   4.018
 2693SOL    HW1 8978   2.424   4.645   3.990
 2693SOL    HW2 8979   2.308   4.694   4.094
 2694SOL     OW 8980   3.725   6.660   3.434
 2694SOL    HW1 8981   3.677   6.716   3.501
 2694SOL    HW2 8982   3.715   6.701   3.343
 2695SOL     OW 8983   5.700   0.310   3.191
 2695SOL    HW1 8984   5.668   0.405   3.198
 2695SOL    HW2 8985   5.623   0.251   3.167
 2696SOL     OW 8986   4.630   4.060   5.681
 2696SOL    HW1 8987   4.675   4.097   5.763
 2696SOL    HW2 8988   4.545   4.110   5.664
 2697SOL     OW 8989   4.282   1.828   2.533
 2697SOL    HW1 8990   4.204   1.885   2.558
 2697SOL    HW2 8991   4.326   1.865   2.451
 2698SOL     OW 8992   1.602   4.935   6.662
 2698SOL    HW1 8993   1.547   4.984   6.594
 2698SOL    HW2 8994   1.685   4.987   6.681
 2699SOL     OW 8995   3.026   6.201   0.885
 2699SOL    HW1 8996   3.003   6.257   0.964
 2699SOL    HW2 8997   2.967   6.120   0.883
 2700SOL     OW 8998   2.820   1.531   1.239
 2700SOL    HW1 8999   2.789   1.533   1.334
 2700SOL    HW2 9000   2.838   1.624   1.207
 2701SOL     OW 9001   5.225   2.274   5.452
 2701SOL    HW1 9002   5.298   2.224   5.405
 2701SOL    HW2 9003   5.217   2.365   5.412
 2702SOL     OW 9004   1.160   2.083   2.703
 2702SOL    HW1 9005   1.093   2.111   2.771
 2702SOL    HW2 9006   1.115   2.073   2.614
 2703SOL     OW 9007   1.522   5.979   1.631
 2703SOL    HW1 9008   1.564   5.910   1.571
 2703SOL    HW2 9009   1.537   5.953   1.727
 2704SOL     OW 9010   6.521   5.831   1.688
 2704SOL    HW1 9011   6.467   5.792   1.763
 2704SOL    HW2 9012   6.487   5.922   1.665
 2705SOL     OW 9013   6.846   0.509   5.421
 2705SOL    HW1 9014   6.912   0.513   5.346
 2705SOL    HW2 9015   6.756   0.537   5.388
 2706SOL     OW 9016   6.476   4.643   3.749
 2706SOL    HW1 9017   6.498   4.740   3.737
 2706SOL    HW2 9018   6.437   4.607   3.665
 2707SOL     OW 9019   4.133   0.390   4.166
 2707SOL    HW1 9020   4.123   0.292   4.152
 2707SOL    HW2 9021   4.229   0.417   4.155
 2708SOL     OW 9022   6.539   2.887   1.185
 2708SOL    HW1 9023   6.439   2.889   1.180
 2708SOL    HW2 9024   6.570   2.794   1.203
 2709SOL     OW 9025   5.094   0.240   6.463
 2709SOL    HW1 9026   5.018   0.303   6.471
 2709SOL    HW2 9027   5.090   0.173   6.536
 2710SOL     OW 9028   1.714   2.606   3.837
 2710SOL    HW1 9029   1.729   2.654   3.924
 2710SOL    HW2 9030   1.704   2.508   3.854
 2711SOL     OW 9031   3.459   0.996   3.458
 2711SOL    HW1 9032   3.534   0.944   3.499
 2711SOL    HW2 9033   3.372   0.949   3.478
 2712SOL     OW 9034   2.145   5.861   2.292
 2712SOL    HW1 9035   2.061   5.836   2.341
 2712SOL    HW2 9036   2.127   5.942   2.236
 2713SOL     OW 9037   4.133   3.900   6.811
 2713SOL    HW1 9038   4.095   3.900   6.904
 2713SOL    HW2 9039   4.202   3.828   6.803
 2714SOL     OW 9040   3.634   3.547   6.995
 2714SOL    HW1 9041   3.571   3.619   7.024
 2714SOL    HW2 9042   3.596   3.458   7.016
 2715SOL     OW 9043   5.755   2.027   1.107
 2715SOL    HW1 9044   5.688   2.084   1.058
 2715SOL    HW2 9045   5.840   2.023   1.054
 2716SOL     OW 9046   5.275   3.202   3.876
 2716SOL    HW1 9047   5.210   3.211   3.801
 2716SOL    HW2 9048   5.338   3.127   3.856
 2717SOL     OW 9049   0.804   7.000   1.887
 2717SOL    HW1 9050   0.868   6.958   1.951
 2717SOL    HW2 9051   0.738   6.931   1.855
 2718SOL     OW 9052   0.514   1.272   5.402
 2718SOL    HW1 9053   0.554   1.362   5.422
 2718SOL    HW2 9054   0.501   1.263   5.304
 2719SOL     OW 9055   1.301   4.283   1.427
 2719SOL    HW1 9056   1.258   4.366   1.463
 2719SOL    HW2 9057   1.306   4.288   1.327
 2720SOL     OW 9058   1.243   0.503   3.056
 2720SOL    HW1 9059   1.198   0.427   3.009
 2720SOL    HW2 9060   1.198   0.520   3.144
 2721SOL     OW 9061   3.271   6.451   3.163
 2721SOL    HW1 9062   3.313   6.462   3.073
 2721SOL    HW2 9063   3.320   6.381   3.215
 2722SOL     OW 9064   4.931   5.161   6.575
 2722SOL    HW1 9065   4.957   5.155   6.671
 2722SOL    HW2 9066   4.856   5.096   6.557
 2723SOL     OW 9067   1.930   6.087   6.729
 2723SOL    HW1 9068   1.847   6.141   6.722
 2723SOL    HW2 9069   1.910   6.001   6.778
 2724SOL     OW 9070   1.681   6.209   6.730
 2724SOL    HW1 9071   1.589   6.181   6.702
 2724SOL    HW2 9072   1.677   6.254   6.819
 2725SOL     OW 9073   5.482   3.962   4.692
 2725SOL    HW1 9074   5.549   3.918   4.751
 2725SOL    HW2 9075   5.524   4.041   4.648
 2726SOL     OW 9076   0.639   2.333   1.923
 2726SOL    HW1 9077   0.624   2.423   1.964
 2726SOL    HW2 9078   0.635   2.263   1.995
 2727SOL     OW 9079   1.368   3.514   4.155
 2727SOL    HW1 9080   1.438   3.513   4.227
 2727SOL    HW2 9081   1.406   3.554   4.072
 2728SOL     OW 9082   5.352   6.077   6.443
 2728SOL    HW1 9083   5.407   6.003   6.405
 2728SOL    HW2 9084   5.363   6.159   6.388
 2729SOL     OW 9085   6.622   6.370   0.190
 2729SOL    HW1 9086   6.574   6.377   0.277
 2729SOL    HW2 9087   6.667   6.281   0.185
 2730SOL     OW 9088   1.068   6.293   2.093
 2730SOL    HW1 9089   1.011   6.210   2.095
 2730SOL    HW2 9090   1.141   6.282   2.027
 2731SOL     OW 9091   3.340   3.569   3.350
 2731SOL    HW1 9092   3.423   3.525   3.384
 2731SOL    HW2 9093   3.310   3.639   3.416
 2732SOL     OW 9094   5.974   2.024   0.925
 2732SOL    HW1 9095   5.985   2.113   0.970
 2732SOL    HW2 9096   5.974   2.036   0.826
 2733SOL     OW 9097   0.012   1.398   5.078
 2733SOL    HW1 9098   6.955   1.371   5.031
 2733SOL    HW2 9099   0.044   1.486   5.042
 2734SOL     OW 9100   3.658   5.582   1.378
 2734SOL    HW1 9101   3.698   5.511   1.320
 2734SOL    HW2 9102   3.563   5.560   1.397
 2735SOL     OW 9103   1.160   2.119   1.847
 2735SOL    HW1 9104   1.161   2.206   1.798
 2735SOL    HW2 9105   1.254   2.093   1.871
 2736SOL     OW 9106   6.108   6.085   4.650
 2736SOL    HW1 9107   6.028   6.104   4.708
 2736SOL    HW2 9108   6.167   6.165   4.649
 2737SOL     OW 9109   2.820   3.578   5.859
 2737SOL    HW1 9110   2.850   3.660   5.810
 2737SOL    HW2 9111   2.894   3.547   5.920
 2738SOL     OW 9112   5.959   6.305   2.293
 2738SOL    HW1 9113   6.052   6.320   2.260
 2738SOL    HW2 9114   5.954   6.217   2.340
 2739SOL     OW 9115   0.716   4.521   1.006
 2739SOL    HW1 9116   0.723   4.612   0.965
 2739SOL    HW2 9117   0.636   4.474   0.970
 2740SOL     OW 9118   6.532   5.259   1.947
 2740SOL    HW1 9119   6.458   5.259   2.015
 2740SOL    HW2 9120   6.595   5.334   1.967
 2741SOL     OW 9121   7.010   1.696   5.234
 2741SOL    HW1 9122   6.987   1.713   5.138
 2741SOL    HW2 9123   6.937   1.643   5.276
 2742SOL     OW 9124   1.775   5.183   0.730
 2742SOL    HW1 9125   1.801   5.204   0.824
 2742SOL    HW2 9126   1.681   5.148   0.728
 2743SOL     OW 9127   0.101   5.149   2.274
 2743SOL    HW1 9128   0.037   5.074   2.293
 2743SOL    HW2 9129   0.163   5.122   2.201
 2744SOL     OW 9130   4.100   3.117   1.595
 2744SOL    HW1 9131   4.115   3.047   1.525
 2744SOL    HW2 9132   4.184   3.129   1.648
 2745SOL     OW 9133   6.827   1.396   5.313
 2745SOL    HW1 9134   6.908   1.371   5.260
 2745SOL    HW2 9135   6.757   1.325   5.304
 2746SOL     OW 9136   1.053   2.296   4.148
 2746SOL    HW1 9137   1.074   2.386   4.186
 2746SOL    HW2 9138   0.955   2.290   4.127
 2747SOL     OW 9139   4.658   5.857   6.983
 2747SOL    HW1 9140   4.739   5.824   6.934
 2747SOL    HW2 9141   4.611   5.924   6.926
 2748SOL     OW 9142   4.396   1.000   1.771
 2748SOL    HW1 9143   4.437   1.090   1.785
 2748SOL    HW2 9144   4.468   0.933   1.754
 2749SOL     OW 9145   6.981   4.223   1.329
 2749SOL    HW1 9146   6.909   4.192   1.392
 2749SOL    HW2 9147   0.043   4.200   1.367
 2750SOL     OW 9148   2.045   4.387   2.199
 2750SOL    HW1 9149   2.090   4.473   2.222
 2750SOL    HW2 9150   2.061   4.320   2.272
 2751SOL     OW 9151   1.129   2.360   1.689
 2751SOL    HW1 9152   1.106   2.319   1.601
 2751SOL    HW2 9153   1.049   2.406   1.726
 2752SOL     OW 9154   3.247   4.278   6.000
 2752SOL    HW1 9155   3.151   4.249   6.006
 2752SOL    HW2 9156   3.253   4.360   5.944
 2753SOL     OW 9157   0.067   6.261   5.189
 2753SOL    HW1 9158   0.087   6.195   5.117
 2753SOL    HW2 9159   7.024   6.225   5.250
 2754SOL     OW 9160   0.266   0.140   7.005
 2754SOL    HW1 9161   0.182   0.086   7.009
 2754SOL    HW2 9162   0.263   0.212   0.048
 2755SOL     OW 9163   3.898   6.986   2.814
 2755SOL    HW1 9164   3.875   6.901   2.768
 2755SOL    HW2 9165   3.984   7.022   2.777
 2756SOL     OW 9166   4.304   5.841   6.979
 2756SOL    HW1 9167   4.229   5.776   6.992
 2756SOL    HW2 9168   4.285   5.898   6.899
 2757SOL     OW 9169   2.614   6.652   0.781
 2757SOL    HW1 9170   2.530   6.615   0.819
 2757SOL    HW2 9171   2.675   6.577   0.755
 2758SOL     OW 9172   4.508   0.199   4.100
 2758SOL    HW1 9173   4.550   0.244   4.022
 2758SOL    HW2 9174   4.573   0.135   4.141
 2759SOL     OW 9175   5.536   6.730   5.605
 2759SOL    HW1 9176   5.630   6.699   5.596
 2759SOL    HW2 9177   5.528   6.825   5.573
 2760SOL     OW 9178   0.881   5.678   1.553
 2760SOL    HW1 9179   0.957   5.613   1.559
 2760SOL    HW2 9180   0.847   5.697   1.645
 2761SOL     OW 9181   2.108   4.433   4.135
 2761SOL    HW1 9182   2.184   4.495   4.155
 2761SOL    HW2 9183   2.144   4.349   4.094
 2762SOL     OW 9184   1.202   0.904   5.352
 2762SOL    HW1 9185   1.226   0.987   5.301
 2762SOL    HW2 9186   1.275   0.837   5.342
 2763SOL     OW 9187   5.338   1.108   3.896
 2763SOL    HW1 9188   5.406   1.148   3.957
 2763SOL    HW2 9189   5.361   1.012   3.879
 2764SOL     OW 9190   6.430   0.412   1.371
 2764SOL    HW1 9191   6.365   0.421   1.447
 2764SOL    HW2 9192   6.436   0.316   1.343
 2765SOL     OW 9193   5.502   6.993   0.770
 2765SOL    HW1 9194   5.600   7.014   0.765
 2765SOL    HW2 9195   5.488   6.896   0.753
 2766SOL     OW 9196   4.961   2.711   0.552
 2766SOL    HW1 9197   4.933   2.806   0.570
 2766SOL    HW2 9198   4.968   2.698   0.453
 2767SOL     OW 9199   6.423   4.890   0.075
 2767SOL    HW1 9200   6.484   4.876   7.025
 2767SOL    HW2 9201   6.462   4.847   0.156
 2768SOL     OW 9202   5.039   0.649   0.104
 2768SOL    HW1 9203   5.077   0.656   0.196
 2768SOL    HW2 9204   5.005   0.738   0.075
 2769SOL     OW 9205   0.136   4.150   3.922
 2769SOL    HW1 9206   0.152   4.052   3.930
 2769SOL    HW2 9207   0.195   4.188   3.852
 2770SOL     OW 9208   2.696   5.473   6.154
 2770SOL    HW1 9209   2.747   5.388   6.151
 2770SOL    HW2 9210   2.669   5.493   6.249
 2771SOL     OW 9211   6.362   0.913   2.412
 2771SOL    HW1 9212   6.364   0.931   2.511
 2771SOL    HW2 9213   6.409   0.827   2.393
 2772SOL     OW 9214   4.486   1.250   0.779
 2772SOL    HW1 9215   4.496   1.323   0.847
 2772SOL    HW2 9216   4.453   1.288   0.693
 2773SOL     OW 9217   5.638   2.730   5.508
 2773SOL    HW1 9218   5.660   2.781   5.425
 2773SOL    HW2 9219   5.696   2.761   5.584
 2774SOL     OW 9220   6.521   3.866   3.297
 2774SOL    HW1 9221   6.544   3.782   3.346
 2774SOL    HW2 9222   6.579   3.875   3.217
 2775SOL     OW 9223   6.985   5.255   6.703
 2775SOL    HW1 9224   6.976   5.281   6.607
 2775SOL    HW2 9225   0.054   5.236   6.724
 2776SOL     OW 9226   5.686   5.085   5.811
 2776SOL    HW1 9227   5.609   5.141   5.840
 2776SOL    HW2 9228   5.771   5.134   5.830
 2777SOL     OW 9229   2.692   0.862   1.852
 2777SOL    HW1 9230   2.702   0.781   1.910
 2777SOL    HW2 9231   2.661   0.939   1.908
 2778SOL     OW 9232   1.418   0.529   5.107
 2778SOL    HW1 9233   1.388   0.475   5.029
 2778SOL    HW2 9234   1.383   0.487   5.191
 2779SOL     OW 9235   4.795   6.698   0.958
 2779SOL    HW1 9236   4.844   6.751   0.888
 2779SOL    HW2 9237   4.853   6.624   0.990
 2780SOL     OW 9238   6.895   6.109   6.614
 2780SOL    HW1 9239   6.929   6.078   6.525
 2780SOL    HW2 9240   6.797   6.126   6.608
 2781SOL     OW 9241   6.018   5.712   1.253
 2781SOL    HW1 9242   5.985   5.805   1.235
 2781SOL    HW2 9243   6.108   5.718   1.298
 2782SOL     OW 9244   3.592   2.060   5.582
 2782SOL    HW1 9245   3.602   2.032   5.678
 2782SOL    HW2 9246   3.536   2.143   5.578
 2783SOL     OW 9247   5.732   3.326   4.772
 2783SOL    HW1 9248   5.782   3.269   4.708
 2783SOL    HW2 9249   5.791   3.350   4.849
 2784SOL     OW 9250   3.043   2.089   1.169
 2784SOL    HW1 9251   3.120   2.067   1.110
 2784SOL    HW2 9252   2.962   2.104   1.113
 2785SOL     OW 9253   5.612   1.684   0.890
 2785SOL    HW1 9254   5.680   1.696   0.963
 2785SOL    HW2 9255   5.582   1.773   0.856
 2786SOL     OW 9256   4.049   5.334   2.072
 2786SOL    HW1 9257   4.105   5.292   2.001
 2786SOL    HW2 9258   4.013   5.421   2.039
 2787SOL     OW 9259   3.110   2.444   6.890
 2787SOL    HW1 9260   3.139   2.485   6.976
 2787SOL    HW2 9261   3.123   2.345   6.895
 2788SOL     OW 9262   2.384   4.753   6.113
 2788SOL    HW1 9263   2.358   4.766   6.017
 2788SOL    HW2 9264   2.479   4.780   6.126
 2789SOL     OW 9265   1.760   2.318   3.248
 2789SOL    HW1 9266   1.728   2.307   3.341
 2789SOL    HW2 9267   1.856   2.348   3.249
 2790SOL     OW 9268   2.526   5.580   2.480
 2790SOL    HW1 9269   2.598   5.637   2.519
 2790SOL    HW2 9270   2.521   5.594   2.381
 2791SOL     OW 9271   1.103   3.940   4.018
 2791SOL    HW1 9272   1.159   3.987   3.950
 2791SOL    HW2 9273   1.121   3.978   4.109
 2792SOL     OW 9274   0.653   0.078   4.491
 2792SOL    HW1 9275   0.738   0.025   4.492
 2792SOL    HW2 9276   0.629   0.104   4.585
 2793SOL     OW 9277   4.864   3.499   3.154
 2793SOL    HW1 9278   4.773   3.530   3.181
 2793SOL    HW2 9279   4.925   3.503   3.233
 2794SOL     OW 9280   0.106   2.643   1.077
 2794SOL    HW1 9281   0.155   2.564   1.115
 2794SOL    HW2 9282   0.017   2.652   1.121
 2795SOL     OW 9283   2.037   2.908   0.585
 2795SOL    HW1 9284   1.998   2.999   0.571
 2795SOL    HW2 9285   2.130   2.906   0.548
 2796SOL     OW 9286   6.027   4.874   2.643
 2796SOL    HW1 9287   6.000   4.906   2.733
 2796SOL    HW2 9288   6.125   4.857   2.641
 2797SOL     OW 9289   4.710   5.184   4.359
 2797SOL    HW1 9290   4.780   5.139   4.415
 2797SOL    HW2 9291   4.658   5.248   4.416
 2798SOL     OW 9292   1.046   4.832   1.450
 2798SOL    HW1 9293   1.001   4.744   1.431
 2798SOL    HW2 9294   1.130   4.815   1.501
 2799SOL     OW 9295   0.175   6.756   0.265
 2799SOL    HW1 9296   0.271   6.767   0.241
 2799SOL    HW2 9297   0.126   6.842   0.247
 2800SOL     OW 9298   4.519   4.819   0.498
 2800SOL    HW1 9299   4.609   4.813   0.455
 2800SOL    HW2 9300   4.449   4.792   0.433
 2801SOL     OW 9301   5.055   5.455   5.080
 2801SOL    HW1 9302   5.030   5.526   5.146
 2801SOL    HW2 9303   5.134   5.404   5.115
 2802SOL     OW 9304   4.839   2.743   6.435
 2802SOL    HW1 9305   4.793   2.799   6.366
 2802SOL    HW2 9306   4.934   2.727   6.407
 2803SOL     OW 9307   3.248   5.771   6.429
 2803SOL    HW1 9308   3.302   5.709   6.487
 2803SOL    HW2 9309   3.215   5.720   6.349
 2804SOL     OW 9310   6.461   4.558   5.110
 2804SOL    HW1 9311   6.511   4.569   5.024
 2804SOL    HW2 9312   6.363   4.550   5.091
 2805SOL     OW 9313   5.071   3.009   2.303
 2805SOL    HW1 9314   4.977   2.975   2.312
 2805SOL    HW2 9315   5.101   3.046   2.391
 2806SOL     OW 9316   0.022   5.169   4.369
 2806SOL    HW1 9317   0.049   5.133   4.458
 2806SOL    HW2 9318   0.008   5.094   4.305
 2807SOL     OW 9319   5.698   5.441   3.468
 2807SOL    HW1 9320   5.644   5.484   3.396
 2807SOL    HW2 9321   5.681   5.342   3.467
 2808SOL     OW 9322   5.348   2.967   2.847
 2808SOL    HW1 9323   5.264   3.020   2.858
 2808SOL    HW2 9324   5.418   3.001   2.910
 2809SOL     OW 9325   5.927   2.990   2.018
 2809SOL    HW1 9326   5.829   3.000   2.032
 2809SOL    HW2 9327   5.976   3.053   2.078
 2810SOL     OW 9328   3.149   5.791   3.556
 2810SOL    HW1 9329   3.236   5.839   3.571
 2810SOL    HW2 9330   3.145   5.710   3.614
 2811SOL     OW 9331   0.677   0.900   3.316
 2811SOL    HW1 9332   0.774   0.878   3.304
 2811SOL    HW2 9333   0.669   0.979   3.378
 2812SOL     OW 9334   5.308   3.436   0.271
 2812SOL    HW1 9335   5.380   3.479   0.216
 2812SOL    HW2 9336   5.347   3.399   0.355
 2813SOL     OW 9337   6.517   0.373   5.811
 2813SOL    HW1 9338   6.616   0.372   5.822
 2813SOL    HW2 9339   6.474   0.327   5.889
 2814SOL     OW 9340   4.751   3.371   7.014
 2814SOL    HW1 9341   4.715   3.437   0.052
 2814SOL    HW2 9342   4.707   3.282   0.001
 2815SOL     OW 9343   6.589   1.284   5.386
 2815SOL    HW1 9344   6.511   1.343   5.406
 2815SOL    HW2 9345   6.594   1.210   5.453
 2816SOL     OW 9346   6.587   5.823   3.421
 2816SOL    HW1 9347   6.563   5.747   3.481
 2816SOL    HW2 9348   6.545   5.809   3.331
 2817SOL     OW 9349   2.701   0.008   1.219
 2817SOL    HW1 9350   2.711   6.954   1.163
 2817SOL    HW2 9351   2.755   7.025   1.303
 2818SOL     OW 9352   0.480   0.289   6.872
 2818SOL    HW1 9353   0.440   0.246   6.953
 2818SOL    HW2 9354   0.570   0.248   6.854
 2819SOL     OW 9355   0.515   0.996   1.379
 2819SOL    HW1 9356   0.450   1.050   1.326
 2819SOL    HW2 9357   0.608   1.018   1.350
 2820SOL     OW 9358   1.524   1.778   3.168
 2820SOL    HW1 9359   1.601   1.842   3.170
 2820SOL    HW2 9360   1.551   1.694   3.121
 2821SOL     OW 9361   4.184   3.389   0.219
 2821SOL    HW1 9362   4.224   3.409   0.309
 2821SOL    HW2 9363   4.237   3.437   0.149
 2822SOL     OW 9364   4.759   2.357   6.732
 2822SOL    HW1 9365   4.773   2.282   6.797
 2822SOL    HW2 9366   4.759   2.444   6.782
 2823SOL     OW 9367   3.656   6.011   0.621
 2823SOL    HW1 9368   3.706   6.095   0.641
 2823SOL    HW2 9369   3.712   5.951   0.563
 2824SOL     OW 9370   3.025   1.148   3.993
 2824SOL    HW1 9371   3.027   1.241   4.030
 2824SOL    HW2 9372   3.106   1.132   3.937
 2825SOL     OW 9373   6.635   0.370   6.829
 2825SOL    HW1 9374   6.581   0.339   6.751
 2825SOL    HW2 9375   6.575   0.384   6.908
 2826SOL     OW 9376   4.877   1.997   0.346
 2826SOL    HW1 9377   4.833   2.080   0.381
 2826SOL    HW2 9378   4.843   1.978   0.254
 2827SOL     OW 9379   6.153   0.611   5.390
 2827SOL    HW1 9380   6.063   0.600   5.432
 2827SOL    HW2 9381   6.221   0.561   5.443
 2828SOL     OW 9382   3.094   1.330   0.497
 2828SOL    HW1 9383   3.039   1.364   0.421
 2828SOL    HW2 9384   3.034   1.284   0.563
 2829SOL     OW 9385   3.660   3.565   5.940
 2829SOL    HW1 9386   3.753   3.602   5.932
 2829SOL    HW2 9387   3.594   3.637   5.920
 2830SOL     OW 9388   0.960   3.250   6.087
 2830SOL    HW1 9389   0.955   3.151   6.081
 2830SOL    HW2 9390   0.916   3.291   6.007
 2831SOL     OW 9391   0.695   5.798   3.292
 2831SOL    HW1 9392   0.749   5.736   3.348
 2831SOL    HW2 9393   0.598   5.780   3.306
 2832SOL     OW 9394   0.843   0.621   2.471
 2832SOL    HW1 9395   0.893   0.696   2.513
 2832SOL    HW2 9396   0.753   0.652   2.441
 2833SOL     OW 9397   4.550   2.528   2.473
 2833SOL    HW1 9398   4.484   2.603   2.480
 2833SOL    HW2 9399   4.515   2.448   2.521
 2834SOL     OW 9400   2.647   6.133   5.471
 2834SOL    HW1 9401   2.731   6.133   5.415
 2834SOL    HW2 9402   2.572   6.094   5.417
 2835SOL     OW 9403   6.569   0.729   2.329
 2835SOL    HW1 9404   6.579   0.739   2.230
 2835SOL    HW2 9405   6.649   0.769   2.375
 2836SOL     OW 9406   5.776   0.266   2.510
 2836SOL    HW1 9407   5.821   0.354   2.526
 2836SOL    HW2 9408   5.839   0.192   2.530
 2837SOL     OW 9409   5.324   3.971   3.330
 2837SOL    HW1 9410   5.398   4.007   3.387
 2837SOL    HW2 9411   5.294   3.883   3.367
 2838SOL     OW 9412   1.876   4.683   0.785
 2838SOL    HW1 9413   1.863   4.607   0.848
 2838SOL    HW2 9414   1.916   4.760   0.834
 2839SOL     OW 9415   6.279   1.593   1.972
 2839SOL    HW1 9416   6.252   1.615   1.879
 2839SOL    HW2 9417   6.216   1.526   2.011
 2840SOL     OW 9418   1.638   1.021   3.675
 2840SOL    HW1 9419   1.579   1.046   3.598
 2840SOL    HW2 9420   1.583   0.986   3.750
 2841SOL     OW 9421   0.505   0.812   6.375
 2841SOL    HW1 9422   0.574   0.882   6.393
 2841SOL    HW2 9423   0.547   0.733   6.330
 2842SOL     OW 9424   0.013   3.990   4.371
 2842SOL    HW1 9425   0.105   4.023   4.394
 2842SOL    HW2 9426   6.983   3.995   4.452
 2843SOL     OW 9427   2.864   1.348   2.866
 2843SOL    HW1 9428   2.841   1.297   2.783
 2843SOL    HW2 9429   2.783   1.397   2.899
 2844SOL     OW 9430   0.329   5.420   0.940
 2844SOL    HW1 9431   0.383   5.437   1.023
 2844SOL    HW2 9432   0.233   5.440   0.959
 2845SOL     OW 9433   0.149   2.973   1.292
 2845SOL    HW1 9434   0.228   2.994   1.235
 2845SOL    HW2 9435   0.095   2.900   1.249
 2846SOL     OW 9436   4.435   0.906   6.748
 2846SOL    HW1 9437   4.358   0.850   6.779
 2846SOL    HW2 9438   4.406   1.001   6.741
 2847SOL     OW 9439   5.012   3.890   3.714
 2847SOL    HW1 9440   4.931   3.922   3.763
 2847SOL    HW2 9441   5.000   3.794   3.688
 2848SOL     OW 9442   1.249   3.221   5.882
 2848SOL    HW1 9443   1.339   3.265   5.890
 2848SOL    HW2 9444   1.257   3.126   5.910
 2849SOL     OW 9445   3.445   7.009   0.722
 2849SOL    HW1 9446   3.523   6.948   0.736
 2849SOL    HW2 9447   3.372   6.986   0.786
 2850SOL     OW 9448   3.357   0.155   2.272
 2850SOL    HW1 9449   3.317   0.213   2.343
 2850SOL    HW2 9450   3.431   0.100   2.311
 2851SOL     OW 9451   0.177   2.357   5.623
 2851SOL    HW1 9452   0.159   2.387   5.529
 2851SOL    HW2 9453   0.118   2.279   5.645
 2852SOL     OW 9454   6.141   4.682   0.220
 2852SOL    HW1 9455   6.071   4.625   0.263
 2852SOL    HW2 9456   6.232   4.647   0.244
 2853SOL     OW 9457   2.221   2.882   0.074
 2853SOL    HW1 9458   2.206   2.943   0.151
 2853SOL    HW2 9459   2.150   2.896   0.005
 2854SOL     OW 9460   3.825   0.867   5.216
 2854SOL    HW1 9461   3.886   0.945   5.233
 2854SOL    HW2 9462   3.810   0.818   5.302
 2855SOL     OW 9463   2.723   0.975   6.638
 2855SOL    HW1 9464   2.677   1.049   6.589
 2855SOL    HW2 9465   2.804   0.947   6.588
 2856SOL     OW 9466   1.927   2.629   6.227
 2856SOL    HW1 9467   1.910   2.720   6.189
 2856SOL    HW2 9468   1.888   2.560   6.167
 2857SOL     OW 9469   3.426   1.498   2.173
 2857SOL    HW1 9470   3.385   1.589   2.164
 2857SOL    HW2 9471   3.360   1.429   2.144
 2858SOL     OW 9472   5.158   4.343   2.649
 2858SOL    HW1 9473   5.103   4.414   2.605
 2858SOL    HW2 9474   5.172   4.367   2.745
 2859SOL     OW 9475   5.136   1.987   0.290
 2859SOL    HW1 9476   5.044   1.987   0.329
 2859SOL    HW2 9477   5.132   2.012   0.193
 2860SOL     OW 9478   3.677   1.996   1.284
 2860SOL    HW1 9479   3.736   1.979   1.205
 2860SOL    HW2 9480   3.717   1.954   1.365
 2861SOL     OW 9481   4.311   4.137   6.245
 2861SOL    HW1 9482   4.340   4.150   6.150
 2861SOL    HW2 9483   4.212   4.151   6.252
 2862SOL     OW 9484   5.479   1.959   3.527
 2862SOL    HW1 9485   5.531   2.041   3.505
 2862SOL    HW2 9486   5.411   1.942   3.456
 2863SOL     OW 9487   4.716   1.759   0.148
 2863SOL    HW1 9488   4.662   1.772   0.231
 2863SOL    HW2 9489   4.761   1.670   0.151
 2864SOL     OW 9490   4.154   1.448   0.917
 2864SOL    HW1 9491   4.098   1.493   0.986
 2864SOL    HW2 9492   4.244   1.428   0.956
 2865SOL     OW 9493   5.187   4.268   5.493
 2865SOL    HW1 9494   5.245   4.347   5.510
 2865SOL    HW2 9495   5.105   4.273   5.551
 2866SOL     OW 9496   6.074   6.134   6.797
 2866SOL    HW1 9497   6.118   6.045   6.783
 2866SOL    HW2 9498   6.140   6.197   6.838
 2867SOL     OW 9499   5.614   3.769   2.392
 2867SOL    HW1 9500   5.519   3.742   2.373
 2867SOL    HW2 9501   5.646   3.722   2.475
 2868SOL     OW 9502   0.308   2.670   5.381
 2868SOL    HW1 9503   0.378   2.724   5.334
 2868SOL    HW2 9504   0.221   2.679   5.333
 2869SOL     OW 9505   6.487   0.926   3.772
 2869SOL    HW1 9506   6.544   0.845   3.766
 2869SOL    HW2 9507   6.477   0.953   3.867
 2870SOL     OW 9508   0.441   1.596   4.615
 2870SOL    HW1 9509   0.446   1.695   4.629
 2870SOL    HW2 9510   0.354   1.561   4.650
 2871SOL     OW 9511   0.682   2.074   0.150
 2871SOL    HW1 9512   0.755   2.073   0.219
 2871SOL    HW2 9513   0.646   1.982   0.138
 2872SOL     OW 9514   3.093   1.527   2.919
 2872SOL    HW1 9515   3.021   1.460   2.901
 2872SOL    HW2 9516   3.114   1.577   2.835
 2873SOL     OW 9517   6.808   4.858   2.706
 2873SOL    HW1 9518   6.821   4.763   2.734
 2873SOL    HW2 9519   6.721   4.892   2.743
 2874SOL     OW 9520   3.607   6.418   3.462
 2874SOL    HW1 9521   3.651   6.506   3.442
 2874SOL    HW2 9522   3.530   6.433   3.524
 2875SOL     OW 9523   5.030   6.869   0.463
 2875SOL    HW1 9524   5.040   6.961   0.501
 2875SOL    HW2 9525   5.116   6.840   0.423
 2876SOL     OW 9526   0.602   0.278   1.591
 2876SOL    HW1 9527   0.510   0.244   1.569
 2876SOL    HW2 9528   0.664   0.200   1.598
 2877SOL     OW 9529   3.674   2.883   5.402
 2877SOL    HW1 9530   3.757   2.870   5.347
 2877SOL    HW2 9531   3.700   2.910   5.495
 2878SOL     OW 9532   4.194   5.531   4.460
 2878SOL    HW1 9533   4.224   5.581   4.541
 2878SOL    HW2 9534   4.246   5.447   4.451
 2879SOL     OW 9535   5.081   4.477   0.875
 2879SOL    HW1 9536   5.018   4.472   0.798
 2879SOL    HW2 9537   5.034   4.517   0.954
 2880SOL     OW 9538   6.127   6.855   1.403
 2880SOL    HW1 9539   6.138   6.923   1.331
 2880SOL    HW2 9540   6.204   6.791   1.401
 2881SOL     OW 9541   5.219   6.256   0.120
 2881SOL    HW1 9542   5.237   6.331   0.057
 2881SOL    HW2 9543   5.304   6.228   0.164
 2882SOL     OW 9544   0.711   4.431   2.462
 2882SOL    HW1 9545   0.711   4.346   2.409
 2882SOL    HW2 9546   0.723   4.508   2.400
 2883SOL     OW 9547   6.002   6.574   3.568
 2883SOL    HW1 9548   5.980   6.670   3.549
 2883SOL    HW2 9549   6.038   6.531   3.485
 2884SOL     OW 9550   0.756   5.403   3.219
 2884SOL    HW1 9551   0.685   5.457   3.175
 2884SOL    HW2 9552   0.760   5.423   3.316
 2885SOL     OW 9553   0.890   3.451   2.729
 2885SOL    HW1 9554   0.960   3.408   2.673
 2885SOL    HW2 9555   0.923   3.459   2.823
 2886SOL     OW 9556   2.677   3.828   6.050
 2886SOL    HW1 9557   2.711   3.890   5.980
 2886SOL    HW2 9558   2.754   3.781   6.093
 2887SOL     OW 9559   1.145   0.066   4.693
 2887SOL    HW1 9560   1.154   0.144   4.631
 2887SOL    HW2 9561   1.048   0.049   4.710
 2888SOL     OW 9562   0.670   4.473   0.459
 2888SOL    HW1 9563   0.699   4.565   0.485
 2888SOL    HW2 9564   0.739   4.407   0.487
 2889SOL     OW 9565   2.120   6.567   2.209
 2889SOL    HW1 9566   2.184   6.546   2.135
 2889SOL    HW2 9567   2.029   6.534   2.184
 2890SOL     OW 9568   2.588   6.918   0.760
 2890SOL    HW1 9569   2.502   6.966   0.742
 2890SOL    HW2 9570   2.575   6.820   0.744
 2891SOL     OW 9571   1.802   3.887   3.092
 2891SOL    HW1 9572   1.858   3.902   3.011
 2891SOL    HW2 9573   1.840   3.812   3.146
 2892SOL     OW 9574   5.704   3.516   6.743
 2892SOL    HW1 9575   5.723   3.446   6.812
 2892SOL    HW2 9576   5.666   3.597   6.788
 2893SOL     OW 9577   0.408   6.609   4.965
 2893SOL    HW1 9578   0.317   6.641   4.938
 2893SOL    HW2 9579   0.421   6.623   5.063
 2894SOL     OW 9580   2.742   3.204   0.428
 2894SOL    HW1 9581   2.743   3.161   0.338
 2894SOL    HW2 9582   2.655   3.250   0.443
 2895SOL     OW 9583   4.173   2.959   6.439
 2895SOL    HW1 9584   4.259   2.920   6.471
 2895SOL    HW2 9585   4.149   2.919   6.350
 2896SOL     OW 9586   4.116   5.201   6.760
 2896SOL    HW1 9587   4.077   5.121   6.716
 2896SOL    HW2 9588   4.095   5.199   6.858
 2897SOL     OW 9589   3.611   5.235   3.526
 2897SOL    HW1 9590   3.688   5.286   3.489
 2897SOL    HW2 9591   3.530   5.253   3.472
 2898SOL     OW 9592   4.061   5.923   4.226
 2898SOL    HW1 9593   3.964   5.929   4.203
 2898SOL    HW2 9594   4.093   5.830   4.209
 2899SOL     OW 9595   0.930   1.724   0.509
 2899SOL    HW1 9596   0.924   1.667   0.591
 2899SOL    HW2 9597   1.026   1.740   0.486
 2900SOL     OW 9598   2.283   5.000   5.642
 2900SOL    HW1 9599   2.268   5.087   5.595
 2900SOL    HW2 9600   2.211   4.987   5.711
 2901SOL     OW 9601   2.169   6.971   3.714
 2901SOL    HW1 9602   2.151   6.876   3.739
 2901SOL    HW2 9603   2.236   6.974   3.640
 2902SOL     OW 9604   4.912   6.499   1.477
 2902SOL    HW1 9605   4.837   6.552   1.438
 2902SOL    HW2 9606   4.881   6.406   1.496
 2903SOL     OW 9607   2.895   0.677   0.626
 2903SOL    HW1 9608   2.814   0.732   0.609
 2903SOL    HW2 9609   2.885   0.627   0.712
 2904SOL     OW 9610   2.313   3.552   5.325
 2904SOL    HW1 9611   2.221   3.548   5.288
 2904SOL    HW2 9612   2.328   3.643   5.365
 2905SOL     OW 9613   1.401   2.299   3.387
 2905SOL    HW1 9614   1.328   2.254   3.438
 2905SOL    HW2 9615   1.490   2.267   3.420
 2906SOL     OW 9616   5.084   5.429   2.472
 2906SOL    HW1 9617   5.031   5.503   2.514
 2906SOL    HW2 9618   5.181   5.451   2.476
 2907SOL     OW 9619   0.512   1.499   4.373
 2907SOL    HW1 9620   0.512   1.523   4.470
 2907SOL    HW2 9621   0.480   1.577   4.319
 2908SOL     OW 9622   4.480   6.591   4.127
 2908SOL    HW1 9623   4.395   6.584   4.179
 2908SOL    HW2 9624   4.525   6.502   4.124
 2909SOL     OW 9625   0.315   6.358   3.711
 2909SOL    HW1 9626   0.317   6.374   3.612
 2909SOL    HW2 9627   0.386   6.414   3.755
 2910SOL     OW 9628   4.934   6.264   4.667
 2910SOL    HW1 9629   4.890   6.215   4.742
 2910SOL    HW2 9630   4.986   6.200   4.611
 2911SOL     OW 9631   1.737   5.614   3.432
 2911SOL    HW1 9632   1.768   5.701   3.393
 2911SOL    HW2 9633   1.711   5.628   3.527
 2912SOL     OW 9634   4.319   6.920   6.414
 2912SOL    HW1 9635   4.359   6.996   6.364
 2912SOL    HW2 9636   4.237   6.952   6.463
 2913SOL     OW 9637   2.002   4.673   2.719
 2913SOL    HW1 9638   2.077   4.739   2.724
 2913SOL    HW2 9639   1.939   4.689   2.795
 2914SOL     OW 9640   6.001   6.553   5.856
 2914SOL    HW1 9641   5.976   6.531   5.951
 2914SOL    HW2 9642   5.950   6.493   5.794
 2915SOL     OW 9643   5.425   1.484   5.117
 2915SOL    HW1 9644   5.476   1.416   5.170
 2915SOL    HW2 9645   5.443   1.575   5.154
 2916SOL     OW 9646   6.587   6.131   6.235
 2916SOL    HW1 9647   6.558   6.177   6.319
 2916SOL    HW2 9648   6.506   6.093   6.189
 2917SOL     OW 9649   4.274   6.677   2.054
 2917SOL    HW1 9650   4.304   6.581   2.051
 2917SOL    HW2 9651   4.340   6.731   2.106
 2918SOL     OW 9652   6.708   3.990   3.697
 2918SOL    HW1 9653   6.792   4.001   3.751
 2918SOL    HW2 9654   6.727   4.013   3.602
 2919SOL     OW 9655   6.822   0.941   1.180
 2919SOL    HW1 9656   6.898   0.953   1.243
 2919SOL    HW2 9657   6.805   1.026   1.131
 2920SOL     OW 9658   2.962   1.892   2.081
 2920SOL    HW1 9659   2.970   1.954   2.159
 2920SOL    HW2 9660   2.900   1.931   2.013
 2921SOL     OW 9661   1.094   0.322   2.889
 2921SOL    HW1 9662   1.001   0.354   2.906
 2921SOL    HW2 9663   1.125   0.355   2.800
 2922SOL     OW 9664   5.257   0.376   0.070
 2922SOL    HW1 9665   5.238   0.289   0.025
 2922SOL    HW2 9666   5.170   0.420   0.094
 2923SOL     OW 9667   7.008   4.908   1.678
 2923SOL    HW1 9668   7.022   4.835   1.746
 2923SOL    HW2 9669   6.963   4.869   1.598
 2924SOL     OW 9670   0.608   1.620   6.873
 2924SOL    HW1 9671   0.700   1.613   6.837
 2924SOL    HW2 9672   0.560   1.533   6.860
 2925SOL     OW 9673   4.617   1.115   3.621
 2925SOL    HW1 9674   4.550   1.101   3.548
 2925SOL    HW2 9675   4.700   1.156   3.584
 2926SOL     OW 9676   0.105   1.155   4.724
 2926SOL    HW1 9677   0.006   1.169   4.732
 2926SOL    HW2 9678   0.135   1.177   4.631
 2927SOL     OW 9679   1.435   1.547   2.802
 2927SOL    HW1 9680   1.469   1.631   2.844
 2927SOL    HW2 9681   1.352   1.568   2.750
 2928SOL     OW 9682   0.091   2.441   5.907
 2928SOL    HW1 9683   0.108   2.413   5.812
 2928SOL    HW2 9684   0.175   2.478   5.946
 2929SOL     OW 9685   0.278   0.783   6.706
 2929SOL    HW1 9686   0.276   0.882   6.694
 2929SOL    HW2 9687   0.190   0.744   6.679
 2930SOL     OW 9688   4.208   6.468   5.044
 2930SOL    HW1 9689   4.121   6.421   5.034
 2930SOL    HW2 9690   4.191   6.564   5.067
 2931SOL     OW 9691   5.368   5.112   0.570
 2931SOL    HW1 9692   5.438   5.093   0.639
 2931SOL    HW2 9693   5.370   5.210   0.546
 2932SOL     OW 9694   1.576   5.264   1.556
 2932SOL    HW1 9695   1.668   5.226   1.547
 2932SOL    HW2 9696   1.564   5.339   1.491
 2933SOL     OW 9697   6.077   4.077   3.145
 2933SOL    HW1 9698   6.108   3.982   3.144
 2933SOL    HW2 9699   6.077   4.111   3.239
 2934SOL     OW 9700   4.471   1.342   0.329
 2934SOL    HW1 9701   4.533   1.392   0.389
 2934SOL    HW2 9702   4.502   1.349   0.235
 2935SOL     OW 9703   6.214   3.604   1.575
 2935SOL    HW1 9704   6.300   3.553   1.575
 2935SOL    HW2 9705   6.233   3.702   1.583
 2936SOL     OW 9706   4.153   4.937   2.179
 2936SOL    HW1 9707   4.190   4.855   2.134
 2936SOL    HW2 9708   4.057   4.922   2.202
 2937SOL     OW 9709   3.816   5.091   0.273
 2937SOL    HW1 9710   3.762   5.078   0.356
 2937SOL    HW2 9711   3.899   5.141   0.294
 2938SOL     OW 9712   5.280   4.896   5.800
 2938SOL    HW1 9713   5.210   4.831   5.830
 2938SOL    HW2 9714   5.271   4.981   5.852
 2939SOL     OW 9715   0.440   0.235   4.120
 2939SOL    HW1 9716   0.410   0.255   4.213
 2939SOL    HW2 9717   0.370   0.179   4.075
 2940SOL     OW 9718   6.044   6.472   6.379
 2940SOL    HW1 9719   6.061   6.436   6.470
 2940SOL    HW2 9720   6.063   6.570   6.378
 2941SOL     OW 9721   2.330   2.533   4.078
 2941SOL    HW1 9722   2.234   2.521   4.105
 2941SOL    HW2 9723   2.371   2.444   4.060
 2942SOL     OW 9724   2.979   2.219   1.386
 2942SOL    HW1 9725   3.056   2.167   1.424
 2942SOL    HW2 9726   2.974   2.204   1.287
 2943SOL     OW 9727   5.735   4.270   2.589
 2943SOL    HW1 9728   5.749   4.251   2.687
 2943SOL    HW2 9729   5.693   4.190   2.546
 2944SOL     OW 9730   2.567   5.880   5.077
 2944SOL    HW1 9731   2.529   5.828   5.000
 2944SOL    HW2 9732   2.629   5.950   5.041
 2945SOL     OW 9733   3.750   3.885   4.028
 2945SOL    HW1 9734   3.807   3.844   4.099
 2945SOL    HW2 9735   3.654   3.876   4.052
 2946SOL     OW 9736   1.180   5.669   6.920
 2946SOL    HW1 9737   1.226   5.748   6.962
 2946SOL    HW2 9738   1.248   5.602   6.890
 2947SOL     OW 9739   0.615   3.550   6.518
 2947SOL    HW1 9740   0.537   3.519   6.463
 2947SOL    HW2 9741   0.681   3.476   6.529
 2948SOL     OW 9742   6.903   5.083   5.621
 2948SOL    HW1 9743   6.994   5.043   5.617
 2948SOL    HW2 9744   6.859   5.059   5.707
 2949SOL     OW 9745   2.913   5.745   1.355
 2949SOL    HW1 9746   3.012   5.750   1.340
 2949SOL    HW2 9747   2.877   5.838   1.368
 2950SOL     OW 9748   5.029   3.979   4.580
 2950SOL    HW1 9749   5.054   3.960   4.675
 2950SOL    HW2 9750   5.093   3.932   4.519
 2951SOL     OW 9751   6.453   2.444   1.150
 2951SOL    HW1 9752   6.464   2.399   1.062
 2951SOL    HW2 9753   6.542   2.474   1.184
 2952SOL     OW 9754   0.769   5.882   5.376
 2952SOL    HW1 9755   0.826   5.801   5.387
 2952SOL    HW2 9756   0.825   5.957   5.339
 2953SOL     OW 9757   4.977   3.442   3.420
 2953SOL    HW1 9758   5.076   3.448   3.433
 2953SOL    HW2 9759   4.944   3.355   3.455
 2954SOL     OW 9760   0.616   5.452   1.824
 2954SOL    HW1 9761   0.661   5.363   1.829
 2954SOL    HW2 9762   0.525   5.440   1.785
 2955SOL     OW 9763   1.086   4.027   1.406
 2955SOL    HW1 9764   1.144   4.014   1.486
 2955SOL    HW2 9765   1.087   4.124   1.380
 2956SOL     OW 9766   6.035   6.385   3.056
 2956SOL    HW1 9767   6.132   6.381   3.032
 2956SOL    HW2 9768   6.023   6.370   3.154
 2957SOL     OW 9769   6.394   3.259   1.986
 2957SOL    HW1 9770   6.436   3.287   1.900
 2957SOL    HW2 9771   6.374   3.340   2.041
 2958SOL     OW 9772   2.422   4.389   4.555
 2958SOL    HW1 9773   2.394   4.369   4.649
 2958SOL    HW2 9774   2.502   4.449   4.556
 2959SOL     OW 9775   4.663   4.628   0.840
 2959SOL    HW1 9776   4.579   4.614   0.788
 2959SOL    HW2 9777   4.741   4.597   0.786
 2960SOL     OW 9778   3.940   6.648   6.395
 2960SOL    HW1 9779   3.904   6.555   6.384
 2960SOL    HW2 9780   3.960   6.686   6.305
 2961SOL     OW 9781   4.818   2.346   4.410
 2961SOL    HW1 9782   4.769   2.269   4.451
 2961SOL    HW2 9783   4.905   2.313   4.372
 2962SOL     OW 9784   4.558   0.428   3.557
 2962SOL    HW1 9785   4.641   0.447   3.609
 2962SOL    HW2 9786   4.480   0.474   3.600
 2963SOL     OW 9787   2.017   1.356   6.069
 2963SOL    HW1 9788   1.946   1.297   6.108
 2963SOL    HW2 9789   2.005   1.449   6.101
 2964SOL     OW 9790   6.916   0.250   2.400
 2964SOL    HW1 9791   6.993   0.298   2.441
 2964SOL    HW2 9792   6.838   0.253   2.462
 2965SOL     OW 9793   0.027   0.834   4.472
 2965SOL    HW1 9794   0.109   0.889   4.454
 2965SOL    HW2 9795   6.974   0.880   4.434
 2966SOL     OW 9796   5.595   5.461   4.504
 2966SOL    HW1 9797   5.620   5.441   4.409
 2966SOL    HW2 9798   5.541   5.546   4.507
 2967SOL     OW 9799   6.104   1.892   4.555
 2967SOL    HW1 9800   6.096   1.989   4.534
 2967SOL    HW2 9801   6.172   1.879   4.627
 2968SOL     OW 9802   0.792   3.365   6.558
 2968SOL    HW1 9803   0.863   3.299   6.534
 2968SOL    HW2 9804   0.749   3.338   6.644
 2969SOL     OW 9805   6.040   1.298   4.967
 2969SOL    HW1 9806   6.109   1.244   5.016
 2969SOL    HW2 9807   5.949   1.261   4.987
 2970SOL     OW 9808   0.794   3.727   6.349
 2970SOL    HW1 9809   0.736   3.672   6.409
 2970SOL    HW2 9810   0.886   3.732   6.388
 2971SOL     OW 9811   6.039   3.564   5.964
 2971SOL    HW1 9812   6.036   3.481   6.020
 2971SOL    HW2 9813   6.098   3.632   6.007
 2972SOL     OW 9814   6.628   4.787   6.350
 2972SOL    HW1 9815   6.534   4.783   6.385
 2972SOL    HW2 9816   6.672   4.698   6.363
 2973SOL     OW 9817   5.381   1.030   4.191
 2973SOL    HW1 9818   5.353   1.009   4.285
 2973SOL    HW2 9819   5.429   1.117   4.190
 2974SOL     OW 9820   0.694   4.060   2.511
 2974SOL    HW1 9821   0.667   4.131   2.446
 2974SOL    HW2 9822   0.784   4.081   2.550
 2975SOL     OW 9823   0.240   2.480   4.740
 2975SOL    HW1 9824   0.174   2.452   4.671
 2975SOL    HW2 9825   0.300   2.403   4.763
 2976SOL     OW 9826   4.121   1.932   3.247
 2976SOL    HW1 9827   4.102   1.872   3.169
 2976SOL    HW2 9828   4.199   1.896   3.298
 2977SOL     OW 9829   1.822   6.454   4.195
 2977SOL    HW1 9830   1.864   6.408   4.116
 2977SOL    HW2 9831   1.764   6.389   4.244
 2978SOL     OW 9832   4.557   4.730   6.771
 2978SOL    HW1 9833   4.525   4.794   6.701
 2978SOL    HW2 9834   4.592   4.781   6.850
 2979SOL     OW 9835   4.894   6.817   4.205
 2979SOL    HW1 9836   4.971   6.759   4.230
 2979SOL    HW2 9837   4.908   6.909   4.243
 2980SOL     OW 9838   0.907   6.249   3.542
 2980SOL    HW1 9839   0.865   6.164   3.511
 2980SOL    HW2 9840   1.000   6.256   3.505
 2981SOL     OW 9841   1.622   1.370   5.873
 2981SOL    HW1 9842   1.610   1.446   5.937
 2981SOL    HW2 9843   1.591   1.398   5.782
 2982SOL     OW 9844   4.559   5.578   3.274
 2982SOL    HW1 9845   4.522   5.533   3.193
 2982SOL    HW2 9846   4.521   5.670   3.281
 2983SOL     OW 9847   0.856   1.391   3.966
 2983SOL    HW1 9848   0.835   1.446   4.046
 2983SOL    HW2 9849   0.816   1.433   3.884
 2984SOL     OW 9850   5.242   5.548   1.589
 2984SOL    HW1 9851   5.311   5.479   1.569
 2984SOL    HW2 9852   5.164   5.506   1.634
 2985SOL     OW 9853   1.477   2.456   5.125
 2985SOL    HW1 9854   1.549   2.507   5.171
 2985SOL    HW2 9855   1.430   2.515   5.060
 2986SOL     OW 9856   2.333   4.313   6.589
 2986SOL    HW1 9857   2.299   4.247   6.655
 2986SOL    HW2 9858   2.256   4.364   6.550
 2987SOL     OW 9859   5.673   0.793   3.811
 2987SOL    HW1 9860   5.670   0.833   3.719
 2987SOL    HW2 9861   5.580   0.790   3.849
 2988SOL     OW 9862   0.634   6.519   2.891
 2988SOL    HW1 9863   0.715   6.498   2.946
 2988SOL    HW2 9864   0.638   6.467   2.805
 2989SOL     OW 9865   6.583   6.279   0.560
 2989SOL    HW1 9866   6.598   6.375   0.583
 2989SOL    HW2 9867   6.498   6.271   0.508
 2990SOL     OW 9868   4.595   1.714   4.142
 2990SOL    HW1 9869   4.594   1.620   4.176
 2990SOL    HW2 9870   4.563   1.716   4.047
 2991SOL     OW 9871   6.870   3.958   6.596
 2991SOL    HW1 9872   6.951   4.013   6.619
 2991SOL    HW2 9873   6.898   3.877   6.545
 2992SOL     OW 9874   1.708   5.023   5.945
 2992SOL    HW1 9875   1.752   5.104   5.906
 2992SOL    HW2 9876   1.727   5.020   6.044
 2993SOL     OW 9877   0.834   5.278   1.319
 2993SOL    HW1 9878   0.842   5.179   1.306
 2993SOL    HW2 9879   0.848   5.324   1.232
 2994SOL     OW 9880   3.589   0.030   0.357
 2994SOL    HW1 9881   3.688   0.021   0.360
 2994SOL    HW2 9882   3.563   0.117   0.401
 2995SOL     OW 9883   1.847   4.004   6.810
 2995SOL    HW1 9884   1.805   4.040   6.726
 2995SOL    HW2 9885   1.904   3.924   6.787
 2996SOL     OW 9886   2.245   0.139   3.889
 2996SOL    HW1 9887   2.315   0.131   3.960
 2996SOL    HW2 9888   2.235   0.051   3.842
 2997SOL     OW 9889   5.368   0.410   2.326
 2997SOL    HW1 9890   5.453   0.404   2.378
 2997SOL    HW2 9891   5.359   0.503   2.289
 2998SOL     OW 9892   5.381   6.596   4.600
 2998SOL    HW1 9893   5.438   6.622   4.678
 2998SOL    HW2 9894   5.370   6.497   4.599
 2999SOL     OW 9895   3.331   4.891   4.025
 2999SOL    HW1 9896   3.308   4.980   4.065
 2999SOL    HW2 9897   3.290   4.818   4.080
 3000SOL     OW 9898   2.065   4.208   6.496
 3000SOL    HW1 9899   2.011   4.282   6.537
 3000SOL    HW2 9900   2.031   4.191   6.403
 3001SOL     OW 9901   5.504   5.653   6.644
 3001SOL    HW1 9902   5.514   5.674   6.741
 3001SOL    HW2 9903   5.594   5.656   6.600
 3002SOL     OW 9904   3.944   0.231   6.211
 3002SOL    HW1 9905   3.886   0.306   6.181
 3002SOL    HW2 9906   3.990   0.191   6.132
 3003SOL     OW 9907   2.208   0.218   6.626
 3003SOL    HW1 9908   2.295   0.268   6.621
 3003SOL    HW2 9909   2.207   0.149   6.553
 3004SOL     OW 9910   1.256   5.139   3.836
 3004SOL    HW1 9911   1.218   5.074   3.770
 3004SOL    HW2 9912   1.355   5.133   3.836
 3005SOL     OW 9913   2.987   2.251   0.533
 3005SOL    HW1 9914   3.024   2.171   0.486
 3005SOL    HW2 9915   2.954   2.317   0.465
 3006SOL     OW 9916   5.340   2.316   6.827
 3006SOL    HW1 9917   5.357   2.250   6.901
 3006SOL    HW2 9918   5.396   2.292   6.748
 3007SOL     OW 9919   5.704   5.218   1.795
 3007SOL    HW1 9920   5.605   5.215   1.810
 3007SOL    HW2 9921   5.747   5.138   1.837
 3008SOL     OW 9922   3.204   0.802   6.428
 3008SOL    HW1 9923   3.167   0.875   6.485
 3008SOL    HW2 9924   3.205   0.831   6.332
 3009SOL     OW 9925   0.353   0.105   3.275
 3009SOL    HW1 9926   0.431   0.083   3.334
 3009SOL    HW2 9927   0.270   0.062   3.312
 3010SOL     OW 9928   3.410   6.619   3.598
 3010SOL    HW1 9929   3.359   6.632   3.513
 3010SOL    HW2 9930   3.447   6.707   3.628
 3011SOL     OW 9931   5.656   1.169   1.118
 3011SOL    HW1 9932   5.613   1.079   1.110
 3011SOL    HW2 9933   5.698   1.194   1.031
 3012SOL     OW 9934   0.920   3.476   4.998
 3012SOL    HW1 9935   0.931   3.572   5.021
 3012SOL    HW2 9936   0.880   3.468   4.906
 3013SOL     OW 9937   5.072   5.638   4.793
 3013SOL    HW1 9938   5.154   5.694   4.780
 3013SOL    HW2 9939   5.071   5.601   4.886
 3014SOL     OW 9940   4.926   3.448   4.549
 3014SOL    HW1 9941   4.915   3.429   4.451
 3014SOL    HW2 9942   4.917   3.546   4.566
 3015SOL     OW 9943   2.703   2.545   0.335
 3015SOL    HW1 9944   2.694   2.588   0.424
 3015SOL    HW2 9945   2.702   2.445   0.345
 3016SOL     OW 9946   2.732   5.634   3.784
 3016SOL    HW1 9947   2.762   5.624   3.689
 3016SOL    HW2 9948   2.786   5.705   3.829
 3017SOL     OW 9949   1.239   5.210   1.926
 3017SOL    HW1 9950   1.239   5.144   1.851
 3017SOL    HW2 9951   1.251   5.160   2.013
 3018SOL     OW 9952   1.759   6.211   5.439
 3018SOL    HW1 9953   1.800   6.143   5.378
 3018SOL    HW2 9954   1.660   6.200   5.440
 3019SOL     OW 9955   2.004   6.782   6.994
 3019SOL    HW1 9956   1.920   6.732   6.974
 3019SOL    HW2 9957   2.044   6.814   6.908
 3020SOL     OW 9958   4.093   3.676   1.805
 3020SOL    HW1 9959   4.171   3.710   1.752
 3020SOL    HW2 9960   4.086   3.577   1.796
 3021SOL     OW 9961   3.460   0.373   6.798
 3021SOL    HW1 9962   3.396   0.306   6.835
 3021SOL    HW2 9963   3.511   0.415   6.873
 3022SOL     OW 9964   4.154   5.382   4.013
 3022SOL    HW1 9965   4.177   5.322   4.090
 3022SOL    HW2 9966   4.059   5.368   3.987
 3023SOL     OW 9967   4.729   0.063   2.410
 3023SOL    HW1 9968   4.772   0.052   2.321
 3023SOL    HW2 9969   4.688   0.154   2.417
 3024SOL     OW 9970   3.792   6.493   5.784
 3024SOL    HW1 9971   3.763   6.499   5.879
 3024SOL    HW2 9972   3.801   6.397   5.758
 3025SOL     OW 9973   3.966   1.554   0.443
 3025SOL    HW1 9974   3.970   1.549   0.343
 3025SOL    HW2 9975   3.871   1.555   0.473
 3026SOL     OW 9976   1.964   1.910   0.691
 3026SOL    HW1 9977   2.025   1.975   0.646
 3026SOL    HW2 9978   2.017   1.852   0.753
 3027SOL     OW 9979   4.077   0.375   2.009
 3027SOL    HW1 9980   4.105   0.422   1.925
 3027SOL    HW2 9981   4.051   0.281   1.987
 3028SOL     OW 9982   1.881   3.626   6.070
 3028SOL    HW1 9983   1.845   3.635   6.163
 3028SOL    HW2 9984   1.919   3.534   6.059
 3029SOL     OW 9985   0.260   4.700   4.563
 3029SOL    HW1 9986   0.199   4.762   4.513
 3029SOL    HW2 9987   0.212   4.660   4.640
 3030SOL     OW 9988   1.167   2.356   5.900
 3030SOL    HW1 9989   1.197   2.451   5.910
 3030SOL    HW2 9990   1.243   2.295   5.924
 3031SOL     OW 9991   0.393   2.867   0.473
 3031SOL    HW1 9992   0.327   2.864   0.397
 3031SOL    HW2 9993   0.399   2.961   0.507
 3032SOL     OW 9994   4.570   6.619   1.537
 3032SOL    HW1 9995   4.505   6.660   1.473
 3032SOL    HW2 9996   4.594   6.686   1.607
 3033SOL     OW 9997   0.114   2.466   1.630
 3033SOL    HW1 9998   0.127   2.374   1.665
 3033SOL    HW2 9999   0.182   2.527   1.671
 3034SOL     OW10000   1.954   5.858   3.848
 3034SOL    HW110001   2.020   5.815   3.787
 3034SOL    HW210002   1.897   5.923   3.796
 3035SOL     OW10003   7.020   3.064   0.152
 3035SOL    HW110004   6.980   2.993   0.094
 3035SOL    HW210005   0.061   3.115   0.099
 3036SOL     OW10006   1.701   3.044   6.212
 3036SOL    HW110007   1.629   3.026   6.144
 3036SOL    HW210008   1.694   3.139   6.243
 3037SOL     OW10009   0.466   5.884   4.278
 3037SOL    HW110010   0.395   5.813   4.270
 3037SOL    HW210011   0.556   5.841   4.271
 3038SOL     OW10012   5.743   5.694   6.438
 3038SOL    HW110013   5.769   5.632   6.512
 3038SOL    HW210014   5.812   5.766   6.428
 3039SOL     OW10015   0.350   3.907   1.721
 3039SOL    HW110016   0.406   3.833   1.683
 3039SOL    HW210017   0.261   3.869   1.749
 3040SOL     OW10018   4.830   3.460   6.566
 3040SOL    HW110019   4.825   3.552   6.527
 3040SOL    HW210020   4.847   3.466   6.664
 3041SOL     OW10021   2.199   3.018   4.752
 3041SOL    HW110022   2.254   3.033   4.834
 3041SOL    HW210023   2.244   2.951   4.693
 3042SOL     OW10024   5.297   6.763   1.519
 3042SOL    HW110025   5.290   6.863   1.526
 3042SOL    HW210026   5.288   6.736   1.423
 3043SOL     OW10027   0.934   5.800   1.336
 3043SOL    HW110028   0.984   5.727   1.289
 3043SOL    HW210029   0.892   5.763   1.419
 3044SOL     OW10030   3.491   4.555   6.017
 3044SOL    HW110031   3.421   4.550   6.089
 3044SOL    HW210032   3.447   4.553   5.928
 3045SOL     OW10033   4.899   1.321   3.129
 3045SOL    HW110034   4.838   1.251   3.167
 3045SOL    HW210035   4.948   1.284   3.051
 3046SOL     OW10036   2.792   2.036   6.588
 3046SOL    HW110037   2.698   2.032   6.622
 3046SOL    HW210038   2.799   2.105   6.516
 3047SOL     OW10039   5.336   6.893   2.333
 3047SOL    HW110040   5.252   6.901   2.387
 3047SOL    HW210041   5.376   6.983   2.321
 3048SOL     OW10042   3.943   2.432   1.712
 3048SOL    HW110043   3.965   2.529   1.703
 3048SOL    HW210044   3.862   2.421   1.771
 3049SOL     OW10045   1.010   6.708   1.717
 3049SOL    HW110046   0.924   6.673   1.755
 3049SOL    HW210047   0.998   6.803   1.688
 3050SOL     OW10048   3.445   0.812   2.631
 3050SOL    HW110049   3.426   0.903   2.668
 3050SOL    HW210050   3.373   0.748   2.662
 3051SOL     OW10051   2.223   3.765   6.437
 3051SOL    HW110052   2.312   3.785   6.478
 3051SOL    HW210053   2.207   3.825   6.359
 3052SOL     OW10054   4.740   0.524   2.090
 3052SOL    HW110055   4.769   0.547   2.183
 3052SOL    HW210056   4.663   0.460   2.095
 3053SOL     OW10057   0.035   1.623   6.740
 3053SOL    HW110058   0.042   1.663   6.832
 3053SOL    HW210059   0.063   1.527   6.744
 3054SOL     OW10060   6.591   2.421   1.433
 3054SOL    HW110061   6.660   2.355   1.461
 3054SOL    HW210062   6.502   2.377   1.428
 3055SOL     OW10063   4.951   0.082   3.994
 3055SOL    HW110064   5.037   0.044   3.961
 3055SOL    HW210065   4.943   0.068   4.092
 3056SOL     OW10066   6.292   1.914   5.272
 3056SOL    HW110067   6.389   1.941   5.272
 3056SOL    HW210068   6.247   1.955   5.192
 3057SOL     OW10069   4.111   5.915   3.574
 3057SOL    HW110070   4.031   5.895   3.517
 3057SOL    HW210071   4.094   5.881   3.667
 3058SOL     OW10072   0.193   5.745   1.015
 3058SOL    HW110073   0.141   5.735   0.930
 3058SOL    HW210074   0.143   5.702   1.090
 3059SOL     OW10075   2.117   2.380   4.276
 3059SOL    HW110076   2.050   2.310   4.298
 3059SOL    HW210077   2.204   2.359   4.321
 3060SOL     OW10078   0.895   5.444   0.237
 3060SOL    HW110079   0.988   5.436   0.201
 3060SOL    HW210080   0.886   5.531   0.284
 3061SOL     OW10081   5.676   0.854   5.581
 3061SOL    HW110082   5.751   0.915   5.608
 3061SOL    HW210083   5.634   0.815   5.662
 3062SOL     OW10084   1.623   6.591   0.024
 3062SOL    HW110085   1.653   6.586   6.956
 3062SOL    HW210086   1.525   6.611   0.027
 3063SOL     OW10087   2.655   5.431   1.851
 3063SOL    HW110088   2.568   5.419   1.898
 3063SOL    HW210089   2.726   5.378   1.897
 3064SOL     OW10090   5.494   3.712   4.024
 3064SOL    HW110091   5.528   3.720   4.118
 3064SOL    HW210092   5.424   3.640   4.020
 3065SOL     OW10093   2.343   0.587   6.712
 3065SOL    HW110094   2.341   0.625   6.804
 3065SOL    HW210095   2.347   0.661   6.645
 3066SOL     OW10096   5.119   5.020   0.621
 3066SOL    HW110097   5.206   5.066   0.606
 3066SOL    HW210098   5.097   5.021   0.718
 3067SOL     OW10099   3.761   2.080   4.746
 3067SOL    HW110100   3.780   1.984   4.766
 3067SOL    HW210101   3.765   2.133   4.831
 3068SOL     OW10102   5.343   6.190   0.938
 3068SOL    HW110103   5.382   6.135   1.012
 3068SOL    HW210104   5.402   6.270   0.921
 3069SOL     OW10105   6.776   6.167   2.061
 3069SOL    HW110106   6.681   6.178   2.032
 3069SOL    HW210107   6.809   6.077   2.033
 3070SOL     OW10108   0.885   0.929   2.207
 3070SOL    HW110109   0.939   1.000   2.253
 3070SOL    HW210110   0.816   0.972   2.149
 3071SOL     OW10111   5.921   6.072   3.459
 3071SOL    HW110112   5.877   6.116   3.538
 3071SOL    HW210113   6.015   6.048   3.482
 3072SOL     OW10114   1.479   6.488   0.413
 3072SOL    HW110115   1.575   6.513   0.425
 3072SOL    HW210116   1.431   6.560   0.363
 3073SOL     OW10117   6.786   3.482   5.232
 3073SOL    HW110118   6.775   3.473   5.331
 3073SOL    HW210119   6.804   3.577   5.209
 3074SOL     OW10120   4.864   3.296   0.927
 3074SOL    HW110121   4.798   3.336   0.990
 3074SOL    HW210122   4.876   3.356   0.848
 3075SOL     OW10123   2.148   5.986   1.692
 3075SOL    HW110124   2.220   5.981   1.623
 3075SOL    HW210125   2.185   5.958   1.780
 3076SOL     OW10126   6.887   1.255   4.306
 3076SOL    HW110127   6.923   1.162   4.305
 3076SOL    HW210128   6.787   1.252   4.311
 3077SOL     OW10129   4.726   5.246   2.853
 3077SOL    HW110130   4.800   5.307   2.828
 3077SOL    HW210131   4.706   5.256   2.951
 3078SOL     OW10132   1.223   3.062   0.934
 3078SOL    HW110133   1.275   2.980   0.956
 3078SOL    HW210134   1.281   3.127   0.885
 3079SOL     OW10135   2.267   2.069   4.832
 3079SOL    HW110136   2.243   2.067   4.929
 3079SOL    HW210137   2.365   2.083   4.822
 3080SOL     OW10138   4.707   4.231   3.599
 3080SOL    HW110139   4.608   4.220   3.597
 3080SOL    HW210140   4.737   4.243   3.694
 3081SOL     OW10141   0.343   2.531   6.007
 3081SOL    HW110142   0.359   2.569   5.915
 3081SOL    HW210143   0.383   2.592   6.075
 3082SOL     OW10144   3.330   0.000   3.756
 3082SOL    HW110145   3.376   0.086   3.732
 3082SOL    HW210146   3.237   0.020   3.789
 3083SOL     OW10147   4.274   6.143   3.501
 3083SOL    HW110148   4.197   6.080   3.512
 3083SOL    HW210149   4.243   6.237   3.519
 3084SOL     OW10150   5.162   4.227   4.797
 3084SOL    HW110151   5.072   4.257   4.766
 3084SOL    HW210152   5.232   4.289   4.760
 3085SOL     OW10153   0.337   4.930   1.587
 3085SOL    HW110154   0.252   4.891   1.552
 3085SOL    HW210155   0.318   5.012   1.640
 3086SOL     OW10156   4.040   1.844   2.067
 3086SOL    HW110157   3.992   1.925   2.099
 3086SOL    HW210158   4.047   1.846   1.967
 3087SOL     OW10159   1.322   4.771   3.963
 3087SOL    HW110160   1.419   4.789   3.974
 3087SOL    HW210161   1.269   4.839   4.014
 3088SOL     OW10162   2.175   5.095   5.907
 3088SOL    HW110163   2.121   5.019   5.942
 3088SOL    HW210164   2.271   5.083   5.934
 3089SOL     OW10165   1.347   3.141   0.014
 3089SOL    HW110166   1.336   3.101   6.950
 3089SOL    HW210167   1.265   3.123   0.068
 3090SOL     OW10168   1.837   2.206   1.965
 3090SOL    HW110169   1.813   2.206   1.868
 3090SOL    HW210170   1.936   2.218   1.975
 3091SOL     OW10171   1.537   0.230   0.449
 3091SOL    HW110172   1.514   0.248   0.544
 3091SOL    HW210173   1.596   0.150   0.443
 3092SOL     OW10174   4.755   6.540   0.323
 3092SOL    HW110175   4.769   6.613   0.255
 3092SOL    HW210176   4.675   6.562   0.378
 3093SOL     OW10177   5.670   6.066   6.230
 3093SOL    HW110178   5.619   6.132   6.174
 3093SOL    HW210179   5.687   6.104   6.320
 3094SOL     OW10180   2.753   6.825   4.516
 3094SOL    HW110181   2.785   6.918   4.493
 3094SOL    HW210182   2.656   6.817   4.495
 3095SOL     OW10183   2.311   5.651   4.214
 3095SOL    HW110184   2.308   5.560   4.172
 3095SOL    HW210185   2.269   5.647   4.305
 3096SOL     OW10186   0.896   0.376   4.718
 3096SOL    HW110187   0.897   0.385   4.818
 3096SOL    HW210188   0.874   0.464   4.677
 3097SOL     OW10189   0.612   2.185   1.034
 3097SOL    HW110190   0.641   2.098   0.996
 3097SOL    HW210191   0.603   2.252   0.960
 3098SOL     OW10192   2.550   3.357   0.533
 3098SOL    HW110193   2.494   3.382   0.612
 3098SOL    HW210194   2.561   3.437   0.474
 3099SOL     OW10195   0.347   6.337   4.542
 3099SOL    HW110196   0.312   6.249   4.573
 3099SOL    HW210197   0.282   6.378   4.478
 3100SOL     OW10198   6.632   0.051   4.621
 3100SOL    HW110199   6.633   7.001   4.684
 3100SOL    HW210200   6.628   0.018   4.527
 3101SOL     OW10201   5.558   6.256   6.093
 3101SOL    HW110202   5.577   6.267   5.996
 3101SOL    HW210203   5.601   6.330   6.144
 3102SOL     OW10204   0.430   4.937   3.147
 3102SOL    HW110205   0.421   4.891   3.059
 3102SOL    HW210206   0.346   4.926   3.200
 3103SOL     OW10207   3.399   0.884   1.766
 3103SOL    HW110208   3.447   0.798   1.782
 3103SOL    HW210209   3.335   0.901   1.841
 3104SOL     OW10210   5.400   6.817   5.339
 3104SOL    HW110211   5.455   6.759   5.400
 3104SOL    HW210212   5.337   6.760   5.287
 3105SOL     OW10213   6.085   4.879   1.982
 3105SOL    HW110214   6.105   4.808   2.049
 3105SOL    HW210215   6.072   4.837   1.892
 3106SOL     OW10216   5.893   1.396   2.646
 3106SOL    HW110217   5.860   1.315   2.694
 3106SOL    HW210218   5.983   1.422   2.682
 3107SOL     OW10219   4.147   1.046   4.121
 3107SOL    HW110220   4.070   1.076   4.065
 3107SOL    HW210221   4.183   0.960   4.087
 3108SOL     OW10222   1.149   0.361   4.596
 3108SOL    HW110223   1.129   0.355   4.499
 3108SOL    HW210224   1.063   0.363   4.648
 3109SOL     OW10225   5.699   6.401   2.368
 3109SOL    HW110226   5.787   6.381   2.325
 3109SOL    HW210227   5.685   6.340   2.447
 3110SOL     OW10228   1.693   1.872   3.570
 3110SOL    HW110229   1.739   1.908   3.488
 3110SOL    HW210230   1.607   1.922   3.584
 3111SOL     OW10231   6.371   5.829   4.071
 3111SOL    HW110232   6.380   5.781   4.158
 3111SOL    HW210233   6.411   5.920   4.080
 3112SOL     OW10234   5.044   2.460   6.099
 3112SOL    HW110235   5.092   2.462   6.012
 3112SOL    HW210236   5.101   2.504   6.169
 3113SOL     OW10237   1.945   6.326   3.993
 3113SOL    HW110238   1.953   6.340   3.895
 3113SOL    HW210239   1.951   6.228   4.013
 3114SOL     OW10240   3.831   2.163   0.034
 3114SOL    HW110241   3.822   2.064   0.036
 3114SOL    HW210242   3.744   2.204   0.003
 3115SOL     OW10243   4.595   3.629   6.785
 3115SOL    HW110244   4.584   3.534   6.754
 3115SOL    HW210245   4.671   3.671   6.736
 3116SOL     OW10246   6.996   3.341   6.961
 3116SOL    HW110247   6.922   3.348   0.001
 3116SOL    HW210248   6.957   3.328   6.870
 3117SOL     OW10249   4.624   3.659   5.385
 3117SOL    HW110250   4.544   3.619   5.431
 3117SOL    HW210251   4.642   3.610   5.300
 3118SOL     OW10252   0.141   4.437   0.471
 3118SOL    HW110253   0.165   4.434   0.374
 3118SOL    HW210254   0.224   4.449   0.526
 3119SOL     OW10255   2.064   3.371   5.511
 3119SOL    HW110256   1.968   3.371   5.481
 3119SOL    HW210257   2.116   3.306   5.455
 3120SOL     OW10258   2.975   6.782   4.109
 3120SOL    HW110259   3.066   6.823   4.098
 3120SOL    HW210260   2.980   6.708   4.176
 3121SOL     OW10261   0.329   1.764   2.645
 3121SOL    HW110262   0.231   1.765   2.667
 3121SOL    HW210263   0.377   1.830   2.702
 3122SOL     OW10264   2.856   5.955   5.751
 3122SOL    HW110265   2.858   5.977   5.849
 3122SOL    HW210266   2.950   5.943   5.718
 3123SOL     OW10267   3.344   0.838   4.123
 3123SOL    HW110268   3.387   0.751   4.099
 3123SOL    HW210269   3.273   0.823   4.192
 3124SOL     OW10270   4.031   6.495   4.749
 3124SOL    HW110271   4.021   6.434   4.828
 3124SOL    HW210272   4.119   6.479   4.705
 3125SOL     OW10273   6.595   1.749   5.269
 3125SOL    HW110274   6.687   1.719   5.292
 3125SOL    HW210275   6.561   1.810   5.340
 3126SOL     OW10276   4.809   4.960   6.137
 3126SOL    HW110277   4.853   5.018   6.068
 3126SOL    HW210278   4.710   4.963   6.125
 3127SOL     OW10279   0.874   2.353   3.309
 3127SOL    HW110280   0.972   2.374   3.307
 3127SOL    HW210281   0.862   2.257   3.333
 3128SOL     OW10282   1.739   0.028   6.849
 3128SOL    HW110283   1.823   0.082   6.860
 3128SOL    HW210284   1.734   6.987   6.921
 3129SOL     OW10285   0.644   4.108   6.535
 3129SOL    HW110286   0.743   4.094   6.542
 3129SOL    HW210287   0.609   4.057   6.457
 3130SOL     OW10288   1.668   4.551   2.002
 3130SOL    HW110289   1.605   4.626   1.984
 3130SOL    HW210290   1.749   4.561   1.944
 3131SOL     OW10291   0.328   2.412   1.930
 3131SOL    HW110292   0.337   2.329   1.876
 3131SOL    HW210293   0.239   2.412   1.977
 3132SOL     OW10294   4.693   4.685   5.904
 3132SOL    HW110295   4.671   4.588   5.907
 3132SOL    HW210296   4.785   4.697   5.864
 3133SOL     OW10297   2.895   2.249   3.114
 3133SOL    HW110298   2.970   2.208   3.166
 3133SOL    HW210299   2.810   2.202   3.136
 3134SOL     OW10300   4.674   4.860   1.351
 3134SOL    HW110301   4.739   4.875   1.425
 3134SOL    HW210302   4.642   4.765   1.353
 3135SOL     OW10303   4.857   0.827   5.436
 3135SOL    HW110304   4.954   0.852   5.435
 3135SOL    HW210305   4.806   0.894   5.489
 3136SOL     OW10306   5.393   0.863   6.888
 3136SOL    HW110307   5.346   0.783   6.852
 3136SOL    HW210308   5.364   0.880   6.983
 3137SOL     OW10309   6.274   0.637   3.588
 3137SOL    HW110310   6.194   0.607   3.535
 3137SOL    HW210311   6.270   0.736   3.602
 3138SOL     OW10312   6.920   2.316   3.914
 3138SOL    HW110313   6.940   2.405   3.873
 3138SOL    HW210314   6.836   2.280   3.875
 3139SOL     OW10315   4.676   0.051   0.453
 3139SOL    HW110316   4.696   6.992   0.498
 3139SOL    HW210317   4.581   0.052   0.423
 3140SOL     OW10318   5.519   0.210   6.898
 3140SOL    HW110319   5.581   0.140   6.934
 3140SOL    HW210320   5.558   0.301   6.914
 3141SOL     OW10321   0.461   5.912   6.029
 3141SOL    HW110322   0.478   5.823   5.986
 3141SOL    HW210323   0.505   5.984   5.975
 3142SOL     OW10324   4.821   6.326   1.817
 3142SOL    HW110325   4.778   6.362   1.734
 3142SOL    HW210326   4.811   6.227   1.819
 3143SOL     OW10327   0.572   2.295   6.802
 3143SOL    HW110328   0.501   2.273   6.868
 3143SOL    HW210329   0.632   2.366   6.840
 3144SOL     OW10330   3.092   3.610   0.732
 3144SOL    HW110331   3.087   3.544   0.657
 3144SOL    HW210332   3.075   3.562   0.818
 3145SOL     OW10333   1.935   4.941   2.494
 3145SOL    HW110334   1.970   4.968   2.405
 3145SOL    HW210335   1.916   4.843   2.494
 3146SOL     OW10336   1.419   0.085   3.258
 3146SOL    HW110337   1.447   0.142   3.181
 3146SOL    HW210338   1.450   0.125   3.343
 3147SOL     OW10339   3.434   5.206   6.832
 3147SOL    HW110340   3.409   5.301   6.850
 3147SOL    HW210341   3.352   5.155   6.805
 3148SOL     OW10342   4.874   6.033   4.821
 3148SOL    HW110343   4.846   5.940   4.797
 3148SOL    HW210344   4.960   6.055   4.776
 3149SOL     OW10345   3.173   0.432   5.389
 3149SOL    HW110346   3.194   0.384   5.474
 3149SOL    HW210347   3.082   0.474   5.396
 3150SOL     OW10348   6.591   5.784   3.891
 3150SOL    HW110349   6.542   5.763   3.806
 3150SOL    HW210350   6.531   5.768   3.969
 3151SOL     OW10351   3.706   0.994   6.382
 3151SOL    HW110352   3.718   1.011   6.284
 3151SOL    HW210353   3.634   0.926   6.395
 3152SOL     OW10354   1.551   5.359   0.854
 3152SOL    HW110355   1.512   5.280   0.807
 3152SOL    HW210356   1.626   5.329   0.913
 3153SOL     OW10357   6.600   4.643   1.727
 3153SOL    HW110358   6.678   4.600   1.772
 3153SOL    HW210359   6.527   4.659   1.794
 3154SOL     OW10360   6.178   1.528   0.849
 3154SOL    HW110361   6.141   1.618   0.824
 3154SOL    HW210362   6.269   1.517   0.809
 3155SOL     OW10363   6.865   5.328   1.187
 3155SOL    HW110364   6.783   5.276   1.164
 3155SOL    HW210365   6.840   5.423   1.207
 3156SOL     OW10366   3.153   3.062   3.663
 3156SOL    HW110367   3.230   3.126   3.670
 3156SOL    HW210368   3.154   3.000   3.741
 3157SOL     OW10369   1.917   2.994   4.800
 3157SOL    HW110370   1.869   2.939   4.732
 3157SOL    HW210371   2.015   2.993   4.781
 3158SOL     OW10372   4.582   0.290   1.840
 3158SOL    HW110373   4.600   0.211   1.898
 3158SOL    HW210374   4.502   0.339   1.876
 3159SOL     OW10375   5.661   1.285   0.480
 3159SOL    HW110376   5.634   1.361   0.539
 3159SOL    HW210377   5.760   1.283   0.470
 3160SOL     OW10378   6.910   6.126   5.348
 3160SOL    HW110379   6.855   6.120   5.264
 3160SOL    HW210380   6.853   6.105   5.427
 3161SOL     OW10381   0.880   0.903   3.068
 3161SOL    HW110382   0.829   0.822   3.043
 3161SOL    HW210383   0.870   0.973   2.998
 3162SOL     OW10384   1.416   6.043   0.676
 3162SOL    HW110385   1.452   6.120   0.729
 3162SOL    HW210386   1.342   6.075   0.618
 3163SOL     OW10387   3.797   2.650   0.060
 3163SOL    HW110388   3.842   2.579   0.005
 3163SOL    HW210389   3.809   2.738   0.015
 3164SOL     OW10390   4.532   4.623   1.523
 3164SOL    HW110391   4.467   4.651   1.452
 3164SOL    HW210392   4.483   4.573   1.594
 3165SOL     OW10393   1.452   6.116   2.001
 3165SOL    HW110394   1.368   6.155   1.965
 3165SOL    HW210395   1.530   6.174   1.976
 3166SOL     OW10396   4.911   1.616   6.418
 3166SOL    HW110397   4.864   1.701   6.392
 3166SOL    HW210398   4.939   1.567   6.335
 3167SOL     OW10399   0.117   4.329   1.645
 3167SOL    HW110400   0.047   4.273   1.689
 3167SOL    HW210401   0.172   4.375   1.715
 3168SOL     OW10402   5.339   3.197   0.482
 3168SOL    HW110403   5.262   3.225   0.539
 3168SOL    HW210404   5.413   3.163   0.540
 3169SOL     OW10405   1.302   3.034   5.373
 3169SOL    HW110406   1.271   3.021   5.467
 3169SOL    HW210407   1.402   3.042   5.373
 3170SOL     OW10408   4.338   0.557   0.669
 3170SOL    HW110409   4.306   0.482   0.726
 3170SOL    HW210410   4.292   0.641   0.695
 3171SOL     OW10411   0.145   6.449   0.885
 3171SOL    HW110412   0.065   6.393   0.867
 3171SOL    HW210413   0.198   6.460   0.801
 3172SOL     OW10414   0.618   5.495   5.714
 3172SOL    HW110415   0.621   5.572   5.650
 3172SOL    HW210416   0.680   5.423   5.682
 3173SOL     OW10417   3.031   1.823   1.319
 3173SOL    HW110418   3.010   1.813   1.416
 3173SOL    HW210419   3.050   1.919   1.298
 3174SOL     OW10420   2.757   3.043   6.822
 3174SOL    HW110421   2.682   2.978   6.820
 3174SOL    HW210422   2.826   3.013   6.888
 3175SOL     OW10423   0.270   6.527   0.654
 3175SOL    HW110424   0.261   6.464   0.577
 3175SOL    HW210425   0.305   6.615   0.622
 3176SOL     OW10426   2.095   4.853   4.652
 3176SOL    HW110427   2.095   4.922   4.579
 3176SOL    HW210428   2.001   4.826   4.672
 3177SOL     OW10429   4.969   5.234   5.418
 3177SOL    HW110430   4.895   5.183   5.374
 3177SOL    HW210431   5.057   5.189   5.398
 3178SOL     OW10432   6.788   2.969   1.415
 3178SOL    HW110433   6.879   2.945   1.449
 3178SOL    HW210434   6.763   2.909   1.339
 3179SOL     OW10435   1.709   2.774   1.819
 3179SOL    HW110436   1.789   2.833   1.806
 3179SOL    HW210437   1.712   2.700   1.751
 3180SOL     OW10438   4.455   0.534   6.847
 3180SOL    HW110439   4.435   0.528   6.749
 3180SOL    HW210440   4.509   0.455   6.875
 3181SOL     OW10441   0.827   0.439   2.925
 3181SOL    HW110442   0.805   0.517   2.984
 3181SOL    HW210443   0.757   0.368   2.936
 3182SOL     OW10444   1.692   0.996   5.714
 3182SOL    HW110445   1.639   0.936   5.655
 3182SOL    HW210446   1.636   1.027   5.790
 3183SOL     OW10447   4.990   3.822   1.393
 3183SOL    HW110448   4.974   3.751   1.461
 3183SOL    HW210449   5.062   3.884   1.425
 3184SOL     OW10450   2.325   2.244   2.948
 3184SOL    HW110451   2.415   2.261   2.908
 3184SOL    HW210452   2.259   2.309   2.911
 3185SOL     OW10453   5.851   0.713   6.308
 3185SOL    HW110454   5.763   0.757   6.331
 3185SOL    HW210455   5.883   0.659   6.386
 3186SOL     OW10456   3.517   1.066   2.856
 3186SOL    HW110457   3.611   1.036   2.842
 3186SOL    HW210458   3.495   1.062   2.953
 3187SOL     OW10459   4.901   4.191   0.133
 3187SOL    HW110460   4.820   4.140   0.162
 3187SOL    HW210461   4.945   4.144   0.057
 3188SOL     OW10462   3.357   5.949   3.627
 3188SOL    HW110463   3.345   6.047   3.614
 3188SOL    HW210464   3.402   5.932   3.714
 3189SOL     OW10465   2.444   0.902   2.758
 3189SOL    HW110466   2.413   0.886   2.852
 3189SOL    HW210467   2.529   0.853   2.742
 3190SOL     OW10468   0.826   6.560   1.502
 3190SOL    HW110469   0.795   6.564   1.407
 3190SOL    HW210470   0.920   6.526   1.505
 3191SOL     OW10471   3.742   6.997   0.625
 3191SOL    HW110472   3.660   0.012   0.586
 3191SOL    HW210473   3.814   6.993   0.557
 3192SOL     OW10474   0.549   2.328   1.249
 3192SOL    HW110475   0.570   2.421   1.220
 3192SOL    HW210476   0.552   2.267   1.171
 3193SOL     OW10477   4.204   1.965   6.338
 3193SOL    HW110478   4.155   2.052   6.327
 3193SOL    HW210479   4.219   1.948   6.435
 3194SOL     OW10480   0.940   2.568   6.129
 3194SOL    HW110481   0.850   2.583   6.170
 3194SOL    HW210482   0.932   2.569   6.029
 3195SOL     OW10483   1.650   2.391   2.521
 3195SOL    HW110484   1.683   2.483   2.497
 3195SOL    HW210485   1.557   2.398   2.558
 3196SOL     OW10486   6.562   0.420   4.940
 3196SOL    HW110487   6.517   0.503   4.908
 3196SOL    HW210488   6.655   0.441   4.970
 3197SOL     OW10489   1.445   5.641   3.889
 3197SOL    HW110490   1.365   5.600   3.933
 3197SOL    HW210491   1.528   5.594   3.920
 3198SOL     OW10492   6.477   2.260   6.615
 3198SOL    HW110493   6.449   2.241   6.709
 3198SOL    HW210494   6.473   2.175   6.561
 3199SOL     OW10495   4.762   2.559   2.043
 3199SOL    HW110496   4.714   2.551   1.955
 3199SOL    HW210497   4.833   2.488   2.048
 3200SOL     OW10498   6.923   1.628   1.528
 3200SOL    HW110499   6.923   1.583   1.439
 3200SOL    HW210500   6.963   1.720   1.518
 3201SOL     OW10501   5.483   4.436   4.298
 3201SOL    HW110502   5.389   4.434   4.333
 3201SOL    HW210503   5.491   4.506   4.227
 3202SOL     OW10504   1.615   4.906   1.783
 3202SOL    HW110505   1.551   4.980   1.764
 3202SOL    HW210506   1.634   4.856   1.699
 3203SOL     OW10507   5.864   0.932   1.157
 3203SOL    HW110508   5.770   0.915   1.128
 3203SOL    HW210509   5.883   1.030   1.155
 3204SOL     OW10510   5.143   6.208   1.536
 3204SOL    HW110511   5.109   6.181   1.626
 3204SOL    HW210512   5.162   6.126   1.481
 3205SOL     OW10513   0.184   3.861   6.772
 3205SOL    HW110514   0.169   3.936   6.837
 3205SOL    HW210515   0.181   3.898   6.678
 3206SOL     OW10516   6.557   0.113   6.235
 3206SOL    HW110517   6.652   0.101   6.263
 3206SOL    HW210518   6.544   0.205   6.198
 3207SOL     OW10519   0.459   1.122   6.814
 3207SOL    HW110520   0.399   1.101   6.738
 3207SOL    HW210521   0.555   1.112   6.785
 3208SOL     OW10522   4.769   6.227   5.585
 3208SOL    HW110523   4.858   6.206   5.626
 3208SOL    HW210524   4.776   6.218   5.486
 3209SOL     OW10525   2.732   5.891   3.348
 3209SOL    HW110526   2.719   5.940   3.434
 3209SOL    HW210527   2.809   5.828   3.356
 3210SOL     OW10528   0.680   3.210   1.860
 3210SOL    HW110529   0.589   3.173   1.875
 3210SOL    HW210530   0.727   3.157   1.789
 3211SOL     OW10531   2.440   4.196   0.613
 3211SOL    HW110532   2.439   4.275   0.551
 3211SOL    HW210533   2.516   4.136   0.589
 3212SOL     OW10534   3.710   1.269   6.770
 3212SOL    HW110535   3.729   1.365   6.791
 3212SOL    HW210536   3.635   1.237   6.828
 3213SOL     OW10537   5.919   4.605   2.957
 3213SOL    HW110538   5.884   4.675   3.020
 3213SOL    HW210539   5.852   4.532   2.947
 3214SOL     OW10540   4.346   6.306   0.428
 3214SOL    HW110541   4.403   6.387   0.443
 3214SOL    HW210542   4.373   6.262   0.342
 3215SOL     OW10543   6.891   3.534   0.981
 3215SOL    HW110544   6.798   3.559   1.008
 3215SOL    HW210545   6.890   3.499   0.887
 3216SOL     OW10546   5.401   5.537   2.375
 3216SOL    HW110547   5.426   5.445   2.404
 3216SOL    HW210548   5.451   5.604   2.432
 3217SOL     OW10549   1.324   4.718   2.971
 3217SOL    HW110550   1.228   4.735   2.995
 3217SOL    HW210551   1.339   4.620   2.960
 3218SOL     OW10552   4.441   6.101   3.266
 3218SOL    HW110553   4.538   6.117   3.252
 3218SOL    HW210554   4.419   6.108   3.364
 3219SOL     OW10555   0.336   0.406   3.547
 3219SOL    HW110556   0.353   0.407   3.449
 3219SOL    HW210557   0.395   0.474   3.591
 3220SOL     OW10558   6.535   5.175   5.876
 3220SOL    HW110559   6.514   5.204   5.970
 3220SOL    HW210560   6.490   5.237   5.812
 3221SOL     OW10561   3.414   5.990   2.216
 3221SOL    HW110562   3.332   6.044   2.196
 3221SOL    HW210563   3.421   5.916   2.149
 3222SOL     OW10564   4.890   1.903   3.366
 3222SOL    HW110565   4.889   1.829   3.434
 3222SOL    HW210566   4.802   1.907   3.320
 3223SOL     OW10567   1.854   5.314   6.629
 3223SOL    HW110568   1.776   5.331   6.570
 3223SOL    HW210569   1.884   5.400   6.671
 3224SOL     OW10570   4.544   4.707   6.295
 3224SOL    HW110571   4.471   4.641   6.278
 3224SOL    HW210572   4.544   4.775   6.221
 3225SOL     OW10573   4.321   2.207   5.919
 3225SOL    HW110574   4.294   2.270   5.846
 3225SOL    HW210575   4.420   2.216   5.935
 3226SOL     OW10576   2.361   1.683   4.480
 3226SOL    HW110577   2.392   1.665   4.574
 3226SOL    HW210578   2.263   1.702   4.481
 3227SOL     OW10579   3.157   2.105   6.472
 3227SOL    HW110580   3.240   2.121   6.525
 3227SOL    HW210581   3.081   2.155   6.514
 3228SOL     OW10582   5.170   3.437   4.118
 3228SOL    HW110583   5.240   3.423   4.047
 3228SOL    HW210584   5.162   3.354   4.174
 3229SOL     OW10585   3.021   1.412   5.722
 3229SOL    HW110586   2.925   1.424   5.696
 3229SOL    HW210587   3.079   1.450   5.650
 3230SOL     OW10588   0.570   2.375   3.839
 3230SOL    HW110589   0.620   2.459   3.823
 3230SOL    HW210590   0.557   2.326   3.753
 3231SOL     OW10591   3.982   5.591   1.982
 3231SOL    HW110592   3.976   5.627   1.889
 3231SOL    HW210593   4.057   5.637   2.031
 3232SOL     OW10594   4.588   5.526   4.403
 3232SOL    HW110595   4.682   5.507   4.430
 3232SOL    HW210596   4.526   5.498   4.476
 3233SOL     OW10597   1.240   3.829   1.136
 3233SOL    HW110598   1.225   3.870   1.047
 3233SOL    HW210599   1.267   3.899   1.202
 3234SOL     OW10600   0.054   2.217   0.516
 3234SOL    HW110601   7.005   2.274   0.547
 3234SOL    HW210602   0.089   2.165   0.593
 3235SOL     OW10603   5.740   6.222   2.112
 3235SOL    HW110604   5.660   6.229   2.171
 3235SOL    HW210605   5.822   6.245   2.164
 3236SOL     OW10606   1.582   3.123   1.557
 3236SOL    HW110607   1.484   3.145   1.560
 3236SOL    HW210608   1.630   3.195   1.507
 3237SOL     OW10609   5.050   0.682   3.533
 3237SOL    HW110610   5.064   0.585   3.550
 3237SOL    HW210611   5.097   0.736   3.603
 3238SOL     OW10612   0.221   5.384   6.575
 3238SOL    HW110613   0.192   5.476   6.551
 3238SOL    HW210614   0.202   5.322   6.499
 3239SOL     OW10615   6.004   1.339   0.913
 3239SOL    HW110616   6.083   1.390   0.878
 3239SOL    HW210617   5.992   1.359   1.010
 3240SOL     OW10618   0.847   6.815   5.110
 3240SOL    HW110619   0.885   6.907   5.115
 3240SOL    HW210620   0.865   6.768   5.197
 3241SOL     OW10621   4.979   1.462   4.146
 3241SOL    HW110622   5.062   1.431   4.190
 3241SOL    HW210623   4.955   1.553   4.180
 3242SOL     OW10624   3.479   4.769   0.463
 3242SOL    HW110625   3.384   4.737   0.458
 3242SOL    HW210626   3.536   4.700   0.507
 3243SOL     OW10627   5.627   5.038   0.156
 3243SOL    HW110628   5.716   4.993   0.154
 3243SOL    HW210629   5.609   5.082   0.067
 3244SOL     OW10630   5.001   5.403   6.489
 3244SOL    HW110631   5.072   5.448   6.545
 3244SOL    HW210632   4.968   5.322   6.537
 3245SOL     OW10633   4.555   2.664   6.009
 3245SOL    HW110634   4.633   2.603   6.024
 3245SOL    HW210635   4.488   2.619   5.950
 3246SOL     OW10636   6.037   0.636   3.425
 3246SOL    HW110637   6.016   0.719   3.372
 3246SOL    HW210638   6.030   0.556   3.365
 3247SOL     OW10639   0.201   5.132   2.589
 3247SOL    HW110640   0.212   5.198   2.514
 3247SOL    HW210641   0.112   5.144   2.632
 3248SOL     OW10642   5.806   3.541   2.158
 3248SOL    HW110643   5.850   3.549   2.069
 3248SOL    HW210644   5.709   3.519   2.147
 3249SOL     OW10645   4.196   4.419   6.056
 3249SOL    HW110646   4.112   4.374   6.025
 3249SOL    HW210647   4.237   4.469   5.980
 3250SOL     OW10648   5.443   6.915   3.361
 3250SOL    HW110649   5.375   6.864   3.414
 3250SOL    HW210650   5.506   6.851   3.318
 3251SOL     OW10651   4.103   1.428   2.699
 3251SOL    HW110652   4.111   1.339   2.653
 3251SOL    HW210653   4.029   1.423   2.766
 3252SOL     OW10654   3.546   0.985   2.265
 3252SOL    HW110655   3.611   0.909   2.261
 3252SOL    HW210656   3.545   1.033   2.177
 3253SOL     OW10657   4.808   2.932   2.592
 3253SOL    HW110658   4.771   2.848   2.634
 3253SOL    HW210659   4.804   3.006   2.659
 3254SOL     OW10660   3.829   4.948   4.777
 3254SOL    HW110661   3.862   4.928   4.684
 3254SOL    HW210662   3.738   4.909   4.788
 3255SOL     OW10663   4.374   5.306   1.084
 3255SOL    HW110664   4.307   5.244   1.043
 3255SOL    HW210665   4.457   5.255   1.106
 3256SOL     OW10666   5.616   0.215   6.384
 3256SOL    HW110667   5.526   0.257   6.389
 3256SOL    HW210668   5.654   0.207   6.476
 3257SOL     OW10669   1.147   2.159   0.881
 3257SOL    HW110670   1.223   2.200   0.931
 3257SOL    HW210671   1.061   2.178   0.928
 3258SOL     OW10672   4.370   6.403   2.029
 3258SOL    HW110673   4.407   6.448   1.947
 3258SOL    HW210674   4.388   6.305   2.025
 3259SOL     OW10675   4.182   6.081   4.417
 3259SOL    HW110676   4.126   6.046   4.342
 3259SOL    HW210677   4.258   6.018   4.435
 3260SOL     OW10678   2.014   2.341   1.046
 3260SOL    HW110679   2.048   2.421   0.998
 3260SOL    HW210680   2.085   2.271   1.051
 3261SOL     OW10681   4.051   5.963   0.582
 3261SOL    HW110682   4.073   6.024   0.506
 3261SOL    HW210683   3.969   5.910   0.561
 3262SOL     OW10684   3.828   1.672   2.900
 3262SOL    HW110685   3.836   1.689   2.802
 3262SOL    HW210686   3.858   1.579   2.921
 3263SOL     OW10687   4.832   0.103   3.295
 3263SOL    HW110688   4.854   0.183   3.240
 3263SOL    HW210689   4.842   0.020   3.239
 3264SOL     OW10690   0.656   4.832   6.856
 3264SOL    HW110691   0.714   4.799   6.930
 3264SOL    HW210692   0.601   4.909   6.888
 3265SOL     OW10693   4.052   2.181   6.356
 3265SOL    HW110694   3.994   2.241   6.411
 3265SOL    HW210695   4.099   2.235   6.287
 3266SOL     OW10696   0.212   2.456   0.510
 3266SOL    HW110697   0.167   2.502   0.587
 3266SOL    HW210698   0.174   2.364   0.499
 3267SOL     OW10699   3.775   2.373   1.207
 3267SOL    HW110700   3.749   2.450   1.149
 3267SOL    HW210701   3.694   2.319   1.230
 3268SOL     OW10702   1.262   3.806   6.488
 3268SOL    HW110703   1.337   3.793   6.422
 3268SOL    HW210704   1.267   3.898   6.526
 3269SOL     OW10705   4.615   4.829   1.866
 3269SOL    HW110706   4.658   4.916   1.891
 3269SOL    HW210707   4.522   4.825   1.903
 3270SOL     OW10708   0.556   5.723   4.490
 3270SOL    HW110709   0.536   5.808   4.540
 3270SOL    HW210710   0.471   5.674   4.472
 3271SOL     OW10711   5.370   2.412   2.975
 3271SOL    HW110712   5.394   2.506   3.000
 3271SOL    HW210713   5.295   2.413   2.909
 3272SOL     OW10714   3.518   5.532   0.592
 3272SOL    HW110715   3.591   5.492   0.648
 3272SOL    HW210716   3.457   5.585   0.651
 3273SOL     OW10717   0.603   6.591   1.683
 3273SOL    HW110718   0.547   6.563   1.605
 3273SOL    HW210719   0.697   6.608   1.652
 3274SOL     OW10720   4.232   2.380   0.054
 3274SOL    HW110721   4.231   2.433   6.997
 3274SOL    HW210722   4.216   2.283   0.033
 3275SOL     OW10723   1.455   0.064   6.722
 3275SOL    HW110724   1.393   0.131   6.764
 3275SOL    HW210725   1.543   0.069   6.768
 3276SOL     OW10726   3.257   4.664   6.708
 3276SOL    HW110727   3.194   4.612   6.766
 3276SOL    HW210728   3.217   4.753   6.687
 3277SOL     OW10729   6.027   0.502   6.444
 3277SOL    HW110730   6.118   0.488   6.406
 3277SOL    HW210731   5.973   0.419   6.432
 3278SOL     OW10732   6.941   1.079   5.445
 3278SOL    HW110733   6.911   1.155   5.502
 3278SOL    HW210734   0.012   1.085   5.431
 3279SOL     OW10735   0.134   0.415   0.783
 3279SOL    HW110736   0.168   0.509   0.775
 3279SOL    HW210737   0.128   0.374   0.692
 3280SOL     OW10738   2.438   5.030   5.922
 3280SOL    HW110739   2.440   5.122   5.882
 3280SOL    HW210740   2.519   4.979   5.891
 3281SOL     OW10741   1.952   5.845   1.101
 3281SOL    HW110742   1.864   5.798   1.102
 3281SOL    HW210743   1.960   5.904   1.180
 3282SOL     OW10744   2.498   5.437   4.418
 3282SOL    HW110745   2.484   5.358   4.357
 3282SOL    HW210746   2.577   5.489   4.386
 3283SOL     OW10747   3.109   1.789   2.393
 3283SOL    HW110748   3.117   1.722   2.467
 3283SOL    HW210749   3.016   1.787   2.356
 3284SOL     OW10750   6.506   6.662   6.842
 3284SOL    HW110751   6.602   6.691   6.839
 3284SOL    HW210752   6.452   6.733   6.889
 3285SOL     OW10753   6.858   2.640   2.958
 3285SOL    HW110754   6.841   2.542   2.956
 3285SOL    HW210755   6.944   2.658   3.006
 3286SOL     OW10756   3.896   3.451   3.609
 3286SOL    HW110757   3.949   3.507   3.673
 3286SOL    HW210758   3.892   3.498   3.520
 3287SOL     OW10759   0.892   5.883   0.142
 3287SOL    HW110760   0.830   5.891   0.219
 3287SOL    HW210761   0.974   5.832   0.170
 3288SOL     OW10762   0.492   5.980   0.080
 3288SOL    HW110763   0.426   6.056   0.072
 3288SOL    HW210764   0.452   5.897   0.042
 3289SOL     OW10765   1.207   6.767   5.554
 3289SOL    HW110766   1.250   6.801   5.638
 3289SOL    HW210767   1.206   6.667   5.555
 3290SOL     OW10768   0.597   6.855   1.790
 3290SOL    HW110769   0.534   6.870   1.865
 3290SOL    HW210770   0.588   6.761   1.756
 3291SOL     OW10771   1.352   6.383   6.758
 3291SOL    HW110772   1.399   6.471   6.750
 3291SOL    HW210773   1.386   6.334   6.838
 3292SOL     OW10774   0.440   1.400   6.864
 3292SOL    HW110775   0.432   1.306   6.831
 3292SOL    HW210776   0.363   1.420   6.924
 3293SOL     OW10777   6.805   2.140   3.129
 3293SOL    HW110778   6.832   2.079   3.055
 3293SOL    HW210779   6.858   2.119   3.211
 3294SOL     OW10780   6.802   0.504   6.369
 3294SOL    HW110781   6.832   0.432   6.431
 3294SOL    HW210782   6.762   0.464   6.287
 3295SOL     OW10783   2.600   1.815   1.196
 3295SOL    HW110784   2.592   1.756   1.276
 3295SOL    HW210785   2.618   1.909   1.225
 3296SOL     OW10786   2.473   6.607   1.216
 3296SOL    HW110787   2.455   6.699   1.251
 3296SOL    HW210788   2.411   6.542   1.261
 3297SOL     OW10789   2.873   1.785   4.832
 3297SOL    HW110790   2.841   1.879   4.836
 3297SOL    HW210791   2.815   1.727   4.889
 3298SOL     OW10792   6.290   3.224   2.800
 3298SOL    HW110793   6.301   3.304   2.741
 3298SOL    HW210794   6.315   3.249   2.894
 3299SOL     OW10795   2.296   0.286   3.654
 3299SOL    HW110796   2.267   0.230   3.732
 3299SOL    HW210797   2.296   0.231   3.571
 3300SOL     OW10798   6.952   0.743   6.234
 3300SOL    HW110799   6.966   0.647   6.259
 3300SOL    HW210800   6.936   0.749   6.135
 3301SOL     OW10801   1.657   3.808   3.817
 3301SOL    HW110802   1.728   3.743   3.791
 3301SOL    HW210803   1.699   3.894   3.846
 3302SOL     OW10804   1.141   4.937   4.387
 3302SOL    HW110805   1.045   4.941   4.359
 3302SOL    HW210806   1.158   5.004   4.460
 3303SOL     OW10807   3.110   3.347   2.249
 3303SOL    HW110808   3.021   3.389   2.227
 3303SOL    HW210809   3.096   3.251   2.272
 3304SOL     OW10810   1.036   5.223   3.522
 3304SOL    HW110811   1.102   5.148   3.524
 3304SOL    HW210812   0.966   5.207   3.592
 3305SOL     OW10813   2.486   1.476   2.487
 3305SOL    HW110814   2.537   1.408   2.435
 3305SOL    HW210815   2.414   1.515   2.428
 3306SOL     OW10816   2.399   4.410   2.986
 3306SOL    HW110817   2.377   4.413   2.888
 3306SOL    HW210818   2.405   4.315   3.016
 3307SOL     OW10819   6.844   5.854   6.749
 3307SOL    HW110820   6.901   5.927   6.712
 3307SOL    HW210821   6.841   5.778   6.684
 3308SOL     OW10822   4.395   5.796   0.244
 3308SOL    HW110823   4.329   5.855   0.198
 3308SOL    HW210824   4.446   5.743   0.175
 3309SOL     OW10825   0.682   5.289   2.800
 3309SOL    HW110826   0.764   5.270   2.854
 3309SOL    HW210827   0.610   5.225   2.825
 3310SOL     OW10828   0.155   3.861   2.950
 3310SOL    HW110829   0.072   3.808   2.969
 3310SOL    HW210830   0.155   3.890   2.854
 3311SOL     OW10831   2.200   5.275   0.642
 3311SOL    HW110832   2.270   5.337   0.677
 3311SOL    HW210833   2.204   5.273   0.542
 3312SOL     OW10834   2.885   4.210   6.286
 3312SOL    HW110835   2.819   4.138   6.304
 3312SOL    HW210836   2.933   4.234   6.371
 3313SOL     OW10837   1.282   5.371   3.333
 3313SOL    HW110838   1.278   5.348   3.430
 3313SOL    HW210839   1.365   5.423   3.314
 3314SOL     OW10840   1.829   2.785   4.665
 3314SOL    HW110841   1.883   2.834   4.597
 3314SOL    HW210842   1.880   2.704   4.695
 3315SOL     OW10843   0.146   2.756   4.211
 3315SOL    HW110844   0.171   2.832   4.152
 3315SOL    HW210845   0.107   2.791   4.297
 3316SOL     OW10846   3.971   1.730   5.808
 3316SOL    HW110847   4.060   1.694   5.834
 3316SOL    HW210848   3.902   1.695   5.872
 3317SOL     OW10849   4.540   2.785   1.776
 3317SOL    HW110850   4.535   2.877   1.814
 3317SOL    HW210851   4.635   2.754   1.776
 3318SOL     OW10852   2.627   6.787   6.799
 3318SOL    HW110853   2.664   6.853   6.733
 3318SOL    HW210854   2.682   6.788   6.882
 3319SOL     OW10855   6.566   6.605   3.546
 3319SOL    HW110856   6.537   6.683   3.602
 3319SOL    HW210857   6.659   6.620   3.513
 3320SOL     OW10858   5.740   1.201   5.499
 3320SOL    HW110859   5.828   1.179   5.540
 3320SOL    HW210860   5.681   1.244   5.567
 3321SOL     OW10861   2.988   3.056   2.343
 3321SOL    HW110862   2.895   3.078   2.373
 3321SOL    HW210863   3.045   3.037   2.422
 3322SOL     OW10864   4.819   2.149   1.363
 3322SOL    HW110865   4.828   2.157   1.463
 3322SOL    HW210866   4.827   2.239   1.322
 3323SOL     OW10867   2.307   3.998   0.095
 3323SOL    HW110868   2.324   3.956   0.183
 3323SOL    HW210869   2.221   3.963   0.056
 3324SOL     OW10870   1.247   4.217   0.144
 3324SOL    HW110871   1.329   4.196   0.198
 3324SOL    HW210872   1.174   4.246   0.205
 3325SOL     OW10873   2.703   3.108   0.188
 3325SOL    HW110874   2.624   3.048   0.183
 3325SOL    HW210875   2.772   3.078   0.122
 3326SOL     OW10876   5.782   1.570   1.379
 3326SOL    HW110877   5.699   1.520   1.356
 3326SOL    HW210878   5.758   1.663   1.407
 3327SOL     OW10879   2.326   6.287   1.113
 3327SOL    HW110880   2.265   6.322   1.184
 3327SOL    HW210881   2.273   6.267   1.030
 3328SOL     OW10882   4.879   1.755   1.822
 3328SOL    HW110883   4.827   1.825   1.871
 3328SOL    HW210884   4.865   1.766   1.723
 3329SOL     OW10885   4.303   0.316   4.895
 3329SOL    HW110886   4.337   0.222   4.896
 3329SOL    HW210887   4.318   0.358   4.984
 3330SOL     OW10888   5.895   6.864   2.339
 3330SOL    HW110889   5.932   6.778   2.372
 3330SOL    HW210890   5.802   6.850   2.306
 3331SOL     OW10891   1.380   3.527   3.234
 3331SOL    HW110892   1.449   3.567   3.173
 3331SOL    HW210893   1.412   3.533   3.329
 3332SOL     OW10894   5.982   4.233   0.537
 3332SOL    HW110895   6.030   4.173   0.472
 3332SOL    HW210896   5.980   4.189   0.627
 3333SOL     OW10897   3.624   3.856   6.795
 3333SOL    HW110898   3.648   3.929   6.859
 3333SOL    HW210899   3.597   3.895   6.707
 3334SOL     OW10900   1.458   2.836   1.896
 3334SOL    HW110901   1.549   2.802   1.873
 3334SOL    HW210902   1.401   2.760   1.927
 3335SOL     OW10903   3.901   5.149   5.514
 3335SOL    HW110904   3.996   5.145   5.544
 3335SOL    HW210905   3.841   5.116   5.588
 3336SOL     OW10906   2.158   0.142   4.290
 3336SOL    HW110907   2.151   0.042   4.288
 3336SOL    HW210908   2.229   0.172   4.227
 3337SOL     OW10909   3.692   2.981   2.488
 3337SOL    HW110910   3.703   3.064   2.433
 3337SOL    HW210911   3.778   2.958   2.532
 3338SOL     OW10912   0.855   2.409   1.772
 3338SOL    HW110913   0.822   2.486   1.716
 3338SOL    HW210914   0.778   2.368   1.821
 3339SOL     OW10915   1.741   0.070   5.645
 3339SOL    HW110916   1.813   0.043   5.709
 3339SOL    HW210917   1.722   0.167   5.655
 3340SOL     OW10918   4.679   0.551   4.234
 3340SOL    HW110919   4.746   0.585   4.299
 3340SOL    HW210920   4.642   0.628   4.181
 3341SOL     OW10921   2.710   4.726   3.273
 3341SOL    HW110922   2.624   4.682   3.247
 3341SOL    HW210923   2.784   4.659   3.265
 3342SOL     OW10924   6.444   0.605   2.956
 3342SOL    HW110925   6.457   0.631   2.860
 3342SOL    HW210926   6.373   0.663   2.996
 3343SOL     OW10927   4.946   5.585   6.235
 3343SOL    HW110928   4.887   5.531   6.295
 3343SOL    HW210929   5.020   5.625   6.290
 3344SOL     OW10930   6.325   3.000   3.003
 3344SOL    HW110931   6.406   2.943   2.992
 3344SOL    HW210932   6.329   3.077   2.938
 3345SOL     OW10933   0.654   3.609   6.810
 3345SOL    HW110934   0.577   3.666   6.837
 3345SOL    HW210935   0.656   3.599   6.711
 3346SOL     OW10936   2.373   1.081   6.961
 3346SOL    HW110937   2.357   1.027   0.017
 3346SOL    HW210938   2.364   1.178   6.983
 3347SOL     OW10939   1.536   2.447   6.076
 3347SOL    HW110940   1.608   2.502   6.033
 3347SOL    HW210941   1.469   2.508   6.119
 3348SOL     OW10942   4.043   4.182   6.246
 3348SOL    HW110943   4.032   4.088   6.216
 3348SOL    HW210944   3.953   4.224   6.261
 3349SOL     OW10945   2.171   4.484   3.768
 3349SOL    HW110946   2.259   4.443   3.790
 3349SOL    HW210947   2.123   4.427   3.701
 3350SOL     OW10948   1.059   4.154   5.605
 3350SOL    HW110949   1.137   4.216   5.602
 3350SOL    HW210950   1.090   4.060   5.594
 3351SOL     OW10951   5.700   0.882   1.564
 3351SOL    HW110952   5.723   0.955   1.500
 3351SOL    HW210953   5.709   0.915   1.658
 3352SOL     OW10954   5.254   2.965   0.690
 3352SOL    HW110955   5.333   3.020   0.719
 3352SOL    HW210956   5.249   2.963   0.591
 3353SOL     OW10957   2.032   0.016   0.958
 3353SOL    HW110958   2.036   6.958   0.907
 3353SOL    HW210959   2.109   0.074   0.933
 3354SOL     OW10960   4.348   3.402   5.400
 3354SOL    HW110961   4.265   3.350   5.422
 3354SOL    HW210962   4.368   3.466   5.475
 3355SOL     OW10963   2.494   1.517   5.844
 3355SOL    HW110964   2.453   1.485   5.759
 3355SOL    HW210965   2.448   1.473   5.922
 3356SOL     OW10966   0.736   6.975   6.327
 3356SOL    HW110967   0.734   0.021   6.395
 3356SOL    HW210968   0.717   7.013   6.237
 3357SOL     OW10969   3.299   3.906   1.610
 3357SOL    HW110970   3.354   3.980   1.648
 3357SOL    HW210971   3.359   3.835   1.574
 3358SOL     OW10972   5.737   1.330   3.386
 3358SOL    HW110973   5.676   1.254   3.365
 3358SOL    HW210974   5.766   1.374   3.302
 3359SOL     OW10975   0.323   5.126   3.740
 3359SOL    HW110976   0.398   5.179   3.701
 3359SOL    HW210977   0.271   5.183   3.804
 3360SOL     OW10978   0.888   2.103   6.640
 3360SOL    HW110979   0.844   2.082   6.728
 3360SOL    HW210980   0.987   2.095   6.650
 3361SOL     OW10981   0.785   0.709   4.379
 3361SOL    HW110982   0.720   0.637   4.403
 3361SOL    HW210983   0.849   0.723   4.455
 3362SOL     OW10984   4.082   1.625   3.541
 3362SOL    HW110985   4.110   1.689   3.613
 3362SOL    HW210986   3.991   1.650   3.508
 3363SOL     OW10987   6.907   3.155   2.071
 3363SOL    HW110988   6.841   3.161   1.997
 3363SOL    HW210989   6.865   3.186   2.157
 3364SOL     OW10990   1.231   4.511   1.945
 3364SOL    HW110991   1.259   4.575   2.017
 3364SOL    HW210992   1.265   4.420   1.966
 3365SOL     OW10993   1.936   2.871   4.233
 3365SOL    HW110994   1.953   2.772   4.235
 3365SOL    HW210995   2.017   2.920   4.264
 3366SOL     OW10996   6.570   3.880   3.947
 3366SOL    HW110997   6.639   3.943   3.910
 3366SOL    HW210998   6.505   3.856   3.875
 3367SOL     OW10999   3.158   3.602   4.153
 3367SOL    HW111000   3.093   3.677   4.141
 3367SOL    HW211001   3.109   3.517   4.170
 3368SOL     OW11002   1.122   6.354   6.566
 3368SOL    HW111003   1.174   6.371   6.650
 3368SOL    HW211004   1.039   6.302   6.589
 3369SOL     OW11005   4.728   1.894   1.446
 3369SOL    HW111006   4.640   1.887   1.492
 3369SOL    HW211007   4.738   1.986   1.408
 3370SOL     OW11008   6.103   6.712   1.797
 3370SOL    HW111009   6.181   6.743   1.850
 3370SOL    HW211010   6.051   6.791   1.763
 3371SOL     OW11011   2.093   3.722   2.104
 3371SOL    HW111012   2.100   3.773   2.018
 3371SOL    HW211013   2.145   3.637   2.096
 3372SOL     OW11014   6.700   2.567   0.642
 3372SOL    HW111015   6.708   2.483   0.695
 3372SOL    HW211016   6.780   2.576   0.582
 3373SOL     OW11017   0.784   1.999   2.301
 3373SOL    HW111018   0.713   1.999   2.371
 3373SOL    HW211019   0.863   2.050   2.334
 3374SOL     OW11020   0.720   0.076   3.605
 3374SOL    HW111021   0.801   0.127   3.574
 3374SOL    HW211022   0.740   0.034   3.694
 3375SOL     OW11023   6.956   4.646   0.447
 3375SOL    HW111024   7.017   4.571   0.474
 3375SOL    HW211025   6.862   4.623   0.472
 3376SOL     OW11026   2.826   3.514   5.233
 3376SOL    HW111027   2.926   3.519   5.227
 3376SOL    HW211028   2.799   3.426   5.273
 3377SOL     OW11029   6.808   5.447   4.093
 3377SOL    HW111030   6.869   5.513   4.137
 3377SOL    HW211031   6.813   5.360   4.142
 3378SOL     OW11032   0.551   6.992   6.592
 3378SOL    HW111033   0.493   0.019   6.653
 3378SOL    HW211034   0.519   7.003   6.498
 3379SOL     OW11035   0.869   3.055   4.902
 3379SOL    HW111036   0.937   3.015   4.841
 3379SOL    HW211037   0.840   2.986   4.969
 3380SOL     OW11038   4.141   5.123   5.675
 3380SOL    HW111039   4.158   5.044   5.734
 3380SOL    HW211040   4.182   5.205   5.716
 3381SOL     OW11041   0.361   2.589   1.733
 3381SOL    HW111042   0.425   2.534   1.679
 3381SOL    HW211043   0.337   2.539   1.816
 3382SOL     OW11044   7.026   3.144   0.907
 3382SOL    HW111045   6.994   3.170   0.816
 3382SOL    HW211046   6.960   3.082   0.949
 3383SOL     OW11047   3.366   4.966   0.143
 3383SOL    HW111048   3.458   4.952   0.108
 3383SOL    HW211049   3.366   5.044   0.206
 3384SOL     OW11050   2.692   4.706   1.067
 3384SOL    HW111051   2.692   4.608   1.050
 3384SOL    HW211052   2.606   4.745   1.033
 3385SOL     OW11053   6.860   2.895   3.749
 3385SOL    HW111054   6.875   2.947   3.833
 3385SOL    HW211055   6.845   2.958   3.673
 3386SOL     OW11056   6.607   4.774   0.280
 3386SOL    HW111057   6.606   4.674   0.281
 3386SOL    HW211058   6.626   4.808   0.372
 3387SOL     OW11059   4.891   0.971   2.903
 3387SOL    HW111060   4.821   1.024   2.855
 3387SOL    HW211061   4.854   0.883   2.930
 3388SOL     OW11062   5.065   4.836   1.196
 3388SOL    HW111063   5.074   4.819   1.294
 3388SOL    HW211064   5.043   4.751   1.149
 3389SOL     OW11065   6.112   5.608   6.951
 3389SOL    HW111066   6.189   5.664   6.982
 3389SOL    HW211067   6.032   5.627   7.008
 3390SOL     OW11068   4.107   6.401   6.282
 3390SOL    HW111069   4.040   6.328   6.269
 3390SOL    HW211070   4.081   6.481   6.228
 3391SOL     OW11071   5.480   2.362   3.586
 3391SOL    HW111072   5.412   2.358   3.512
 3391SOL    HW211073   5.572   2.361   3.546
 3392SOL     OW11074   3.188   0.019   4.495
 3392SOL    HW111075   3.133   6.971   4.529
 3392SOL    HW211076   3.282   7.015   4.481
 3393SOL     OW11077   5.497   6.918   0.067
 3393SOL    HW111078   5.421   6.907   0.003
 3393SOL    HW211079   5.581   6.937   0.017
 3394SOL     OW11080   3.537   5.070   1.021
 3394SOL    HW111081   3.631   5.050   0.996
 3394SOL    HW211082   3.499   5.139   0.959
 3395SOL     OW11083   4.501   1.611   3.477
 3395SOL    HW111084   4.486   1.539   3.411
 3395SOL    HW211085   4.482   1.577   3.569
 3396SOL     OW11086   5.290   0.651   3.897
 3396SOL    HW111087   5.322   0.564   3.859
 3396SOL    HW211088   5.196   0.641   3.929
 3397SOL     OW11089   2.501   5.959   5.957
 3397SOL    HW111090   2.562   5.902   6.011
 3397SOL    HW211091   2.412   5.915   5.949
 3398SOL     OW11092   0.571   1.170   5.649
 3398SOL    HW111093   0.488   1.121   5.675
 3398SOL    HW211094   0.564   1.201   5.554
 3399SOL     OW11095   6.853   5.038   3.059
 3399SOL    HW111096   6.890   4.971   3.124
 3399SOL    HW211097   6.895   5.023   2.969
 3400SOL     OW11098   6.069   3.537   6.278
 3400SOL    HW111099   6.072   3.635   6.256
 3400SOL    HW211100   6.033   3.526   6.371
 3401SOL     OW11101   6.515   3.774   6.308
 3401SOL    HW111102   6.485   3.843   6.243
 3401SOL    HW211103   6.451   3.771   6.386
 3402SOL     OW11104   6.746   5.662   0.894
 3402SOL    HW111105   6.755   5.572   0.937
 3402SOL    HW211106   6.696   5.723   0.956
 3403SOL     OW11107   4.618   5.578   6.431
 3403SOL    HW111108   4.655   5.655   6.484
 3403SOL    HW211109   4.557   5.613   6.360
 3404SOL     OW11110   5.332   2.820   6.324
 3404SOL    HW111111   5.360   2.869   6.406
 3404SOL    HW211112   5.311   2.885   6.251
 3405SOL     OW11113   5.841   5.259   5.966
 3405SOL    HW111114   5.850   5.342   5.910
 3405SOL    HW211115   5.842   5.285   6.063
 3406SOL     OW11116   2.093   3.423   2.311
 3406SOL    HW111117   2.133   3.423   2.219
 3406SOL    HW211118   2.122   3.506   2.360
 3407SOL     OW11119   2.240   4.505   0.811
 3407SOL    HW111120   2.258   4.558   0.894
 3407SOL    HW211121   2.267   4.410   0.825
 3408SOL     OW11122   4.853   2.703   4.160
 3408SOL    HW111123   4.779   2.637   4.173
 3408SOL    HW211124   4.939   2.662   4.189
 3409SOL     OW11125   3.577   6.431   0.427
 3409SOL    HW111126   3.586   6.499   0.500
 3409SOL    HW211127   3.499   6.371   0.447
 3410SOL     OW11128   5.713   6.490   2.855
 3410SOL    HW111129   5.700   6.521   2.761
 3410SOL    HW211130   5.776   6.552   2.902
 3411SOL     OW11131   0.276   2.899   0.229
 3411SOL    HW111132   0.204   2.957   0.193
 3411SOL    HW211133   0.357   2.905   0.170
 3412SOL     OW11134   5.349   3.532   1.568
 3412SOL    HW111135   5.416   3.460   1.584
 3412SOL    HW211136   5.304   3.518   1.480
 3413SOL     OW11137   6.267   1.849   6.646
 3413SOL    HW111138   6.272   1.798   6.732
 3413SOL    HW211139   6.194   1.917   6.651
 3414SOL     OW11140   3.654   2.172   6.059
 3414SOL    HW111141   3.701   2.084   6.069
 3414SOL    HW211142   3.572   2.159   6.002
 3415SOL     OW11143   1.592   2.036   4.089
 3415SOL    HW111144   1.556   2.083   4.170
 3415SOL    HW211145   1.684   2.002   4.109
 3416SOL     OW11146   6.505   0.007   0.234
 3416SOL    HW111147   6.419   7.023   0.185
 3416SOL    HW211148   6.510   0.100   0.271
 3417SOL     OW11149   0.195   6.704   2.464
 3417SOL    HW111150   0.223   6.641   2.536
 3417SOL    HW211151   0.115   6.756   2.494
 3418SOL     OW11152   3.716   5.923   3.155
 3418SOL    HW111153   3.644   5.960   3.214
 3418SOL    HW211154   3.805   5.934   3.201
 3419SOL     OW11155   4.225   5.891   5.912
 3419SOL    HW111156   4.128   5.917   5.906
 3419SOL    HW211157   4.233   5.792   5.915
 3420SOL     OW11158   4.929   2.865   3.638
 3420SOL    HW111159   5.015   2.817   3.656
 3420SOL    HW211160   4.857   2.828   3.696
 3421SOL     OW11161   5.325   1.481   3.375
 3421SOL    HW111162   5.249   1.546   3.364
 3421SOL    HW211163   5.300   1.393   3.334
 3422SOL     OW11164   2.313   0.353   6.999
 3422SOL    HW111165   2.363   0.282   0.021
 3422SOL    HW211166   2.252   0.309   6.932
 3423SOL     OW11167   0.837   4.107   5.753
 3423SOL    HW111168   0.930   4.125   5.723
 3423SOL    HW211169   0.772   4.153   5.693
 3424SOL     OW11170   4.002   0.171   1.479
 3424SOL    HW111171   4.033   0.249   1.533
 3424SOL    HW211172   3.917   0.135   1.518
 3425SOL     OW11173   4.737   4.745   1.632
 3425SOL    HW111174   4.667   4.686   1.592
 3425SOL    HW211175   4.707   4.775   1.723
 3426SOL     OW11176   5.288   3.569   0.821
 3426SOL    HW111177   5.385   3.555   0.842
 3426SOL    HW211178   5.255   3.493   0.764
 3427SOL     OW11179   0.877   2.313   2.220
 3427SOL    HW111180   0.865   2.405   2.254
 3427SOL    HW211181   0.930   2.315   2.135
 3428SOL     OW11182   4.971   4.764   5.764
 3428SOL    HW111183   4.975   4.856   5.724
 3428SOL    HW211184   4.979   4.770   5.863
 3429SOL     OW11185   0.762   1.039   1.202
 3429SOL    HW111186   0.770   1.125   1.152
 3429SOL    HW211187   0.843   0.983   1.186
 3430SOL     OW11188   1.884   4.665   6.081
 3430SOL    HW111189   1.810   4.675   6.016
 3430SOL    HW211190   1.972   4.674   6.034
 3431SOL     OW11191   2.064   0.040   2.255
 3431SOL    HW111192   2.136   0.101   2.221
 3431SOL    HW211193   1.979   0.060   2.207
 3432SOL     OW11194   2.683   4.780   6.499
 3432SOL    HW111195   2.781   4.768   6.480
 3432SOL    HW211196   2.635   4.694   6.483
 3433SOL     OW11197   2.095   1.074   6.485
 3433SOL    HW111198   2.178   1.079   6.430
 3433SOL    HW211199   2.116   1.098   6.580
 3434SOL     OW11200   2.867   2.100   1.877
 3434SOL    HW111201   2.873   2.134   1.784
 3434SOL    HW211202   2.901   2.169   1.941
 3435SOL     OW11203   2.434   1.144   0.346
 3435SOL    HW111204   2.482   1.095   0.418
 3435SOL    HW211205   2.497   1.207   0.301
 3436SOL     OW11206   4.000   5.174   7.017
 3436SOL    HW111207   4.006   5.250   0.054
 3436SOL    HW211208   3.904   5.158   6.994
 3437SOL     OW11209   1.615   6.603   5.857
 3437SOL    HW111210   1.540   6.567   5.801
 3437SOL    HW211211   1.698   6.550   5.838
 3438SOL     OW11212   0.585   3.525   1.590
 3438SOL    HW111213   0.540   3.438   1.608
 3438SOL    HW211214   0.616   3.566   1.676
 3439SOL     OW11215   2.687   6.135   3.244
 3439SOL    HW111216   2.730   6.049   3.271
 3439SOL    HW211217   2.754   6.192   3.197
 3440SOL     OW11218   3.990   3.378   4.623
 3440SOL    HW111219   4.007   3.349   4.717
 3440SOL    HW211220   4.009   3.475   4.613
 3441SOL     OW11221   0.141   6.339   6.447
 3441SOL    HW111222   0.084   6.263   6.479
 3441SOL    HW211223   0.155   6.330   6.348
 3442SOL     OW11224   3.167   3.515   1.087
 3442SOL    HW111225   3.223   3.512   1.170
 3442SOL    HW211226   3.226   3.531   1.008
 3443SOL     OW11227   3.447   5.665   2.611
 3443SOL    HW111228   3.438   5.737   2.542
 3443SOL    HW211229   3.386   5.684   2.688
 3444SOL     OW11230   5.477   4.486   1.410
 3444SOL    HW111231   5.553   4.511   1.470
 3444SOL    HW211232   5.438   4.399   1.440
 3445SOL     OW11233   6.962   4.989   4.147
 3445SOL    HW111234   7.024   4.988   4.069
 3445SOL    HW211235   6.951   4.896   4.182
 3446SOL     OW11236   5.470   0.265   1.646
 3446SOL    HW111237   5.510   0.296   1.733
 3446SOL    HW211238   5.458   0.166   1.648
 3447SOL     OW11239   5.453   0.465   0.226
 3447SOL    HW111240   5.430   0.398   0.297
 3447SOL    HW211241   5.409   0.440   0.140
 3448SOL     OW11242   2.085   6.413   5.812
 3448SOL    HW111243   2.108   6.416   5.714
 3448SOL    HW211244   2.023   6.488   5.834
 3449SOL     OW11245   5.479   5.266   5.565
 3449SOL    HW111246   5.481   5.284   5.664
 3449SOL    HW211247   5.556   5.207   5.540
 3450SOL     OW11248   1.662   0.780   6.471
 3450SOL    HW111249   1.716   0.726   6.536
 3450SOL    HW211250   1.694   0.875   6.472
 3451SOL     OW11251   1.450   5.607   0.301
 3451SOL    HW111252   1.473   5.559   0.216
 3451SOL    HW211253   1.449   5.705   0.284
 3452SOL     OW11254   5.509   0.677   6.059
 3452SOL    HW111255   5.546   0.603   6.114
 3452SOL    HW211256   5.470   0.747   6.119
 3453SOL     OW11257   5.205   6.495   6.133
 3453SOL    HW111258   5.112   6.530   6.143
 3453SOL    HW211259   5.255   6.551   6.068
 3454SOL     OW11260   1.466   3.095   3.569
 3454SOL    HW111261   1.555   3.075   3.610
 3454SOL    HW211262   1.431   3.181   3.607
 3455SOL     OW11263   2.135   2.195   4.607
 3455SOL    HW111264   2.188   2.166   4.686
 3455SOL    HW211265   2.172   2.280   4.570
 3456SOL     OW11266   4.414   4.564   2.004
 3456SOL    HW111267   4.417   4.466   2.022
 3456SOL    HW211268   4.439   4.614   2.087
 3457SOL     OW11269   3.683   5.383   5.107
 3457SOL    HW111270   3.746   5.453   5.141
 3457SOL    HW211271   3.672   5.312   5.177
 3458SOL     OW11272   4.536   2.164   2.231
 3458SOL    HW111273   4.514   2.149   2.134
 3458SOL    HW211274   4.583   2.252   2.242
 3459SOL     OW11275   4.881   1.683   3.565
 3459SOL    HW111276   4.856   1.592   3.530
 3459SOL    HW211277   4.811   1.714   3.629
 3460SOL     OW11278   3.377   1.825   5.541
 3460SOL    HW111279   3.321   1.845   5.461
 3460SOL    HW211280   3.453   1.890   5.545
 3461SOL     OW11281   5.358   4.937   6.944
 3461SOL    HW111282   5.309   4.939   6.856
 3461SOL    HW211283   5.306   4.988   7.012
 3462SOL     OW11284   1.481   3.780   6.085
 3462SOL    HW111285   1.388   3.797   6.051
 3462SOL    HW211286   1.537   3.742   6.012
 3463SOL     OW11287   0.682   3.652   0.834
 3463SOL    HW111288   0.589   3.689   0.839
 3463SOL    HW211289   0.725   3.682   0.749
 3464SOL     OW11290   0.207   4.827   6.452
 3464SOL    HW111291   0.168   4.735   6.445
 3464SOL    HW211292   0.152   4.882   6.516
 3465SOL     OW11293   1.942   1.848   1.764
 3465SOL    HW111294   1.989   1.862   1.851
 3465SOL    HW211295   1.941   1.751   1.741
 3466SOL     OW11296   6.867   5.360   5.930
 3466SOL    HW111297   6.848   5.293   6.002
 3466SOL    HW211298   6.797   5.431   5.932
 3467SOL     OW11299   2.515   1.976   6.672
 3467SOL    HW111300   2.469   1.968   6.761
 3467SOL    HW211301   2.448   2.000   6.602
 3468SOL     OW11302   2.796   5.486   3.152
 3468SOL    HW111303   2.723   5.514   3.090
 3468SOL    HW211304   2.863   5.560   3.160
 3469SOL     OW11305   6.258   2.372   4.390
 3469SOL    HW111306   6.311   2.357   4.306
 3469SOL    HW211307   6.183   2.435   4.371
 3470SOL     OW11308   0.687   5.485   1.413
 3470SOL    HW111309   0.746   5.550   1.462
 3470SOL    HW211310   0.743   5.410   1.379
 3471SOL     OW11311   4.233   5.384   5.258
 3471SOL    HW111312   4.162   5.339   5.203
 3471SOL    HW211313   4.193   5.462   5.307
 3472SOL     OW11314   2.248   1.347   4.117
 3472SOL    HW111315   2.347   1.348   4.134
 3472SOL    HW211316   2.204   1.290   4.186
 3473SOL     OW11317   5.519   1.870   5.891
 3473SOL    HW111318   5.595   1.806   5.877
 3473SOL    HW211319   5.522   1.906   5.985
 3474SOL     OW11320   3.087   4.956   1.744
 3474SOL    HW111321   3.183   4.958   1.772
 3474SOL    HW211322   3.033   4.910   1.813
 3475SOL     OW11323   1.035   6.667   3.739
 3475SOL    HW111324   0.958   6.676   3.801
 3475SOL    HW211325   1.092   6.589   3.766
 3476SOL     OW11326   3.798   0.531   4.998
 3476SOL    HW111327   3.862   0.608   4.993
 3476SOL    HW211328   3.846   0.446   4.976
 3477SOL     OW11329   2.920   5.431   0.833
 3477SOL    HW111330   2.879   5.503   0.777
 3477SOL    HW211331   3.013   5.412   0.801
 3478SOL     OW11332   2.261   6.062   5.645
 3478SOL    HW111333   2.197   6.063   5.722
 3478SOL    HW211334   2.337   6.124   5.664
 3479SOL     OW11335   0.857   0.235   2.652
 3479SOL    HW111336   0.812   0.182   2.580
 3479SOL    HW211337   0.897   0.172   2.720
 3480SOL     OW11338   6.862   1.529   4.244
 3480SOL    HW111339   6.869   1.432   4.267
 3480SOL    HW211340   6.936   1.579   4.288
 3481SOL     OW11341   4.260   7.004   5.878
 3481SOL    HW111342   4.358   7.021   5.870
 3481SOL    HW211343   4.239   6.912   5.844
 3482SOL     OW11344   5.928   1.305   1.514
 3482SOL    HW111345   6.002   1.239   1.501
 3482SOL    HW211346   5.965   1.398   1.513
 3483SOL     OW11347   2.570   0.495   1.145
 3483SOL    HW111348   2.568   0.401   1.111
 3483SOL    HW211349   2.529   0.556   1.078
 3484SOL     OW11350   3.133   3.057   3.163
 3484SOL    HW111351   3.200   3.064   3.089
 3484SOL    HW211352   3.049   3.105   3.137
 3485SOL     OW11353   2.123   1.503   5.021
 3485SOL    HW111354   2.046   1.467   5.073
 3485SOL    HW211355   2.093   1.578   4.962
 3486SOL     OW11356   3.695   1.553   2.258
 3486SOL    HW111357   3.600   1.549   2.229
 3486SOL    HW211358   3.704   1.516   2.351
 3487SOL     OW11359   5.786   2.047   6.658
 3487SOL    HW111360   5.767   2.118   6.590
 3487SOL    HW211361   5.703   2.027   6.710
 3488SOL     OW11362   6.633   3.151   3.673
 3488SOL    HW111363   6.613   3.161   3.770
 3488SOL    HW211364   6.628   3.239   3.627
 3489SOL     OW11365   3.213   6.761   0.747
 3489SOL    HW111366   3.251   6.797   0.832
 3489SOL    HW211367   3.255   6.672   0.727
 3490SOL     OW11368   4.762   4.044   0.535
 3490SOL    HW111369   4.797   3.992   0.612
 3490SOL    HW211370   4.712   3.983   0.473
 3491SOL     OW11371   6.887   2.948   5.483
 3491SOL    HW111372   6.837   2.862   5.471
 3491SOL    HW211373   6.912   2.984   5.393
 3492SOL     OW11374   0.915   5.596   6.982
 3492SOL    HW111375   1.013   5.599   6.962
 3492SOL    HW211376   0.894   5.662   0.027
 3493SOL     OW11377   6.069   4.981   0.795
 3493SOL    HW111378   6.107   5.068   0.826
 3493SOL    HW211379   6.137   4.909   0.805
 3494SOL     OW11380   3.908   6.980   0.409
 3494SOL    HW111381   3.964   0.031   0.383
 3494SOL    HW211382   3.962   6.918   0.465
 3495SOL     OW11383   3.949   4.775   1.899
 3495SOL    HW111384   3.874   4.746   1.958
 3495SOL    HW211385   3.920   4.853   1.843
 3496SOL     OW11386   1.227   2.889   1.449
 3496SOL    HW111387   1.224   2.838   1.535
 3496SOL    HW211388   1.216   2.987   1.468
 3497SOL     OW11389   4.391   0.559   3.224
 3497SOL    HW111390   4.395   0.560   3.124
 3497SOL    HW211391   4.370   0.467   3.256
 3498SOL     OW11392   2.854   1.765   1.100
 3498SOL    HW111393   2.927   1.799   1.158
 3498SOL    HW211394   2.766   1.796   1.136
 3499SOL     OW11395   6.952   3.358   4.304
 3499SOL    HW111396   6.853   3.353   4.312
 3499SOL    HW211397   6.988   3.417   4.376
 3500SOL     OW11398   6.415   4.401   6.262
 3500SOL    HW111399   6.456   4.400   6.353
 3500SOL    HW211400   6.327   4.447   6.266
 3501SOL     OW11401   0.673   4.599   4.931
 3501SOL    HW111402   0.750   4.658   4.953
 3501SOL    HW211403   0.658   4.599   4.832
 3502SOL     OW11404   0.283   2.090   1.970
 3502SOL    HW111405   0.278   2.119   2.066
 3502SOL    HW211406   0.299   1.992   1.966
 3503SOL     OW11407   4.690   5.822   5.284
 3503SOL    HW111408   4.705   5.764   5.364
 3503SOL    HW211409   4.768   5.884   5.273
 3504SOL     OW11410   2.799   3.521   1.364
 3504SOL    HW111411   2.836   3.566   1.283
 3504SOL    HW211412   2.873   3.486   1.421
 3505SOL     OW11413   5.036   5.871   5.070
 3505SOL    HW111414   4.993   5.931   5.002
 3505SOL    HW211415   5.125   5.840   5.035
 3506SOL     OW11416   4.094   5.848   4.618
 3506SOL    HW111417   4.016   5.905   4.594
 3506SOL    HW211418   4.168   5.863   4.552
 3507SOL     OW11419   1.398   0.830   6.564
 3507SOL    HW111420   1.494   0.803   6.560
 3507SOL    HW211421   1.385   0.896   6.639
 3508SOL     OW11422   5.088   2.496   0.155
 3508SOL    HW111423   5.070   2.587   0.193
 3508SOL    HW211424   5.094   2.430   0.230
 3509SOL     OW11425   5.820   6.261   6.767
 3509SOL    HW111426   5.797   6.349   6.727
 3509SOL    HW211427   5.911   6.234   6.736
 3510SOL     OW11428   1.624   2.255   1.738
 3510SOL    HW111429   1.575   2.321   1.681
 3510SOL    HW211430   1.616   2.164   1.698
 3511SOL     OW11431   1.620   3.501   0.038
 3511SOL    HW111432   1.706   3.471   0.077
 3511SOL    HW211433   1.569   3.422   0.004
 3512SOL     OW11434   1.116   3.783   0.424
 3512SOL    HW111435   1.108   3.758   0.327
 3512SOL    HW211436   1.174   3.717   0.471
 3513SOL     OW11437   6.738   4.259   0.947
 3513SOL    HW111438   6.685   4.197   0.889
 3513SOL    HW211439   6.827   4.276   0.904
 3514SOL     OW11440   0.445   6.589   1.443
 3514SOL    HW111441   0.354   6.627   1.461
 3514SOL    HW211442   0.488   6.641   1.369
 3515SOL     OW11443   3.391   5.894   2.488
 3515SOL    HW111444   3.310   5.901   2.547
 3515SOL    HW211445   3.369   5.928   2.397
 3516SOL     OW11446   3.193   0.476   0.565
 3516SOL    HW111447   3.197   0.537   0.644
 3516SOL    HW211448   3.210   0.382   0.595
 3517SOL     OW11449   0.829   1.496   0.386
 3517SOL    HW111450   0.788   1.495   0.295
 3517SOL    HW211451   0.859   1.589   0.408
 3518SOL     OW11452   5.162   3.628   6.127
 3518SOL    HW111453   5.214   3.629   6.042
 3518SOL    HW211454   5.116   3.540   6.138
 3519SOL     OW11455   0.858   6.277   6.658
 3519SOL    HW111456   0.850   6.337   6.738
 3519SOL    HW211457   0.787   6.206   6.663
 3520SOL     OW11458   4.072   4.359   1.169
 3520SOL    HW111459   4.120   4.318   1.092
 3520SOL    HW211460   3.987   4.308   1.186
 3521SOL     OW11461   5.797   2.917   1.644
 3521SOL    HW111462   5.843   2.832   1.617
 3521SOL    HW211463   5.728   2.941   1.577
 3522SOL     OW11464   2.888   5.288   1.874
 3522SOL    HW111465   2.919   5.205   1.921
 3522SOL    HW211466   2.927   5.291   1.783
 3523SOL     OW11467   3.066   4.773   5.170
 3523SOL    HW111468   3.030   4.681   5.183
 3523SOL    HW211469   3.050   4.802   5.076
 3524SOL     OW11470   2.713   0.722   0.877
 3524SOL    HW111471   2.633   0.679   0.835
 3524SOL    HW211472   2.782   0.653   0.895
 3525SOL     OW11473   0.151   3.137   1.996
 3525SOL    HW111474   0.172   3.047   2.036
 3525SOL    HW211475   0.056   3.161   2.019
 3526SOL     OW11476   1.091   0.541   3.315
 3526SOL    HW111477   1.070   0.637   3.295
 3526SOL    HW211478   1.026   0.506   3.382
 3527SOL     OW11479   5.082   2.691   6.297
 3527SOL    HW111480   5.045   2.741   6.218
 3527SOL    HW211481   5.156   2.744   6.338
 3528SOL     OW11482   0.880   5.933   2.669
 3528SOL    HW111483   0.915   5.981   2.749
 3528SOL    HW211484   0.791   5.892   2.692
 3529SOL     OW11485   4.387   6.895   5.577
 3529SOL    HW111486   4.440   6.955   5.637
 3529SOL    HW211487   4.420   6.903   5.483
 3530SOL     OW11488   2.791   5.999   2.424
 3530SOL    HW111489   2.805   6.086   2.471
 3530SOL    HW211490   2.735   5.938   2.481
 3531SOL     OW11491   5.338   4.020   0.319
 3531SOL    HW111492   5.318   3.924   0.300
 3531SOL    HW211493   5.253   4.073   0.313
 3532SOL     OW11494   2.401   0.902   0.167
 3532SOL    HW111495   2.469   0.942   0.228
 3532SOL    HW211496   2.445   0.834   0.108
 3533SOL     OW11497   0.985   1.909   3.096
 3533SOL    HW111498   1.057   1.855   3.052
 3533SOL    HW211499   0.951   1.977   3.031
 3534SOL     OW11500   6.301   1.635   5.343
 3534SOL    HW111501   6.204   1.633   5.319
 3534SOL    HW211502   6.333   1.730   5.341
 3535SOL     OW11503   6.593   5.347   7.005
 3535SOL    HW111504   6.514   5.334   6.944
 3535SOL    HW211505   6.675   5.312   6.960
 3536SOL     OW11506   1.439   3.027   3.296
 3536SOL    HW111507   1.480   3.107   3.253
 3536SOL    HW211508   1.428   3.043   3.394
 3537SOL     OW11509   2.713   5.698   0.918
 3537SOL    HW111510   2.651   5.648   0.979
 3537SOL    HW211511   2.661   5.746   0.848
 3538SOL     OW11512   2.989   6.887   3.212
 3538SOL    HW111513   3.049   6.966   3.225
 3538SOL    HW211514   2.960   6.851   3.301
 3539SOL     OW11515   5.616   4.095   5.520
 3539SOL    HW111516   5.549   4.055   5.583
 3539SOL    HW211517   5.579   4.092   5.427
 3540SOL     OW11518   2.063   3.253   6.938
 3540SOL    HW111519   2.012   3.203   6.867
 3540SOL    HW211520   2.161   3.245   6.920
 3541SOL     OW11521   2.598   3.051   0.676
 3541SOL    HW111522   2.603   3.150   0.662
 3541SOL    HW211523   2.585   3.006   0.588
 3542SOL     OW11524   5.732   2.971   6.973
 3542SOL    HW111525   5.782   2.939   0.026
 3542SOL    HW211526   5.698   2.892   6.921
 3543SOL     OW11527   1.608   3.249   3.178
 3543SOL    HW111528   1.639   3.234   3.273
 3543SOL    HW211529   1.634   3.341   3.149
 3544SOL     OW11530   3.296   4.004   6.452
 3544SOL    HW111531   3.296   4.100   6.424
 3544SOL    HW211532   3.225   3.989   6.521
 3545SOL     OW11533   3.354   5.124   0.347
 3545SOL    HW111534   3.443   5.165   0.369
 3545SOL    HW211535   3.329   5.061   0.421
 3546SOL     OW11536   6.727   4.076   3.406
 3546SOL    HW111537   6.661   4.146   3.379
 3546SOL    HW211538   6.775   4.042   3.325
 3547SOL     OW11539   6.807   3.379   4.979
 3547SOL    HW111540   6.862   3.453   4.941
 3547SOL    HW211541   6.789   3.397   5.076
 3548SOL     OW11542   4.675   1.791   6.210
 3548SOL    HW111543   4.576   1.775   6.211
 3548SOL    HW211544   4.698   1.865   6.274
 3549SOL     OW11545   1.958   5.872   6.158
 3549SOL    HW111546   2.048   5.837   6.186
 3549SOL    HW211547   1.896   5.794   6.143
 3550SOL     OW11548   4.699   2.069   5.122
 3550SOL    HW111549   4.780   2.085   5.179
 3550SOL    HW211550   4.685   1.970   5.111
 3551SOL     OW11551   3.754   1.897   5.435
 3551SOL    HW111552   3.685   1.950   5.485
 3551SOL    HW211553   3.733   1.900   5.337
 3552SOL     OW11554   6.878   5.622   1.259
 3552SOL    HW111555   6.928   5.596   1.341
 3552SOL    HW211556   6.859   5.721   1.262
 3553SOL     OW11557   3.346   5.976   6.186
 3553SOL    HW111558   3.265   5.926   6.216
 3553SOL    HW211559   3.321   6.041   6.115
 3554SOL     OW11560   3.867   3.693   1.082
 3554SOL    HW111561   3.793   3.750   1.046
 3554SOL    HW211562   3.873   3.704   1.181
 3555SOL     OW11563   1.489   2.165   4.298
 3555SOL    HW111564   1.395   2.162   4.264
 3555SOL    HW211565   1.490   2.210   4.388
 3556SOL     OW11566   3.839   1.182   4.806
 3556SOL    HW111567   3.781   1.140   4.877
 3556SOL    HW211568   3.917   1.227   4.850
 3557SOL     OW11569   0.332   0.557   2.811
 3557SOL    HW111570   0.427   0.586   2.798
 3557SOL    HW211571   0.294   0.526   2.724
 3558SOL     OW11572   2.472   6.188   0.496
 3558SOL    HW111573   2.449   6.138   0.413
 3558SOL    HW211574   2.505   6.280   0.471
 3559SOL     OW11575   3.191   6.437   4.487
 3559SOL    HW111576   3.204   6.338   4.481
 3559SOL    HW211577   3.114   6.456   4.548
 3560SOL     OW11578   1.871   4.795   4.801
 3560SOL    HW111579   1.834   4.859   4.868
 3560SOL    HW211580   1.956   4.755   4.837
 3561SOL     OW11581   5.894   4.318   4.775
 3561SOL    HW111582   5.903   4.255   4.852
 3561SOL    HW211583   5.825   4.387   4.796
 3562SOL     OW11584   2.488   1.570   4.740
 3562SOL    HW111585   2.567   1.564   4.678
 3562SOL    HW211586   2.490   1.492   4.803
 3563SOL     OW11587   6.223   2.196   5.906
 3563SOL    HW111588   6.283   2.122   5.935
 3563SOL    HW211589   6.209   2.191   5.807
 3564SOL     OW11590   0.625   4.649   2.894
 3564SOL    HW111591   0.663   4.662   2.802
 3564SOL    HW211592   0.653   4.560   2.929
 3565SOL     OW11593   3.514   4.914   3.005
 3565SOL    HW111594   3.491   4.983   2.936
 3565SOL    HW211595   3.430   4.887   3.053
 3566SOL     OW11596   0.111   1.014   5.092
 3566SOL    HW111597   0.140   1.015   5.188
 3566SOL    HW211598   0.141   1.098   5.047
 3567SOL     OW11599   0.416   3.476   6.353
 3567SOL    HW111600   0.467   3.421   6.287
 3567SOL    HW211601   0.347   3.420   6.398
 3568SOL     OW11602   6.519   4.371   5.793
 3568SOL    HW111603   6.491   4.457   5.750
 3568SOL    HW211604   6.546   4.388   5.887
 3569SOL     OW11605   2.417   1.801   5.781
 3569SOL    HW111606   2.321   1.777   5.768
 3569SOL    HW211607   2.466   1.723   5.818
 3570SOL     OW11608   5.532   0.536   5.252
 3570SOL    HW111609   5.450   0.568   5.205
 3570SOL    HW211610   5.506   0.470   5.324
 3571SOL     OW11611   0.011   6.100   0.020
 3571SOL    HW111612   0.002   6.163   6.969
 3571SOL    HW211613   0.101   6.057   0.017
 3572SOL     OW11614   5.473   3.852   3.798
 3572SOL    HW111615   5.383   3.891   3.777
 3572SOL    HW211616   5.465   3.795   3.881
 3573SOL     OW11617   0.634   3.590   4.441
 3573SOL    HW111618   0.624   3.665   4.376
 3573SOL    HW211619   0.661   3.627   4.530
 3574SOL     OW11620   0.427   4.902   0.199
 3574SOL    HW111621   0.417   4.953   0.114
 3574SOL    HW211622   0.493   4.828   0.186
 3575SOL     OW11623   6.333   4.986   3.137
 3575SOL    HW111624   6.431   4.998   3.154
 3575SOL    HW211625   6.320   4.942   3.048
 3576SOL     OW11626   1.327   1.486   5.446
 3576SOL    HW111627   1.269   1.548   5.498
 3576SOL    HW211628   1.318   1.393   5.484
 3577SOL     OW11629   1.384   2.444   6.426
 3577SOL    HW111630   1.361   2.503   6.348
 3577SOL    HW211631   1.482   2.450   6.444
 3578SOL     OW11632   4.282   3.369   6.708
 3578SOL    HW111633   4.220   3.318   6.649
 3578SOL    HW211634   4.229   3.419   6.776
 3579SOL     OW11635   6.448   4.015   4.886
 3579SOL    HW111636   6.493   4.100   4.912
 3579SOL    HW211637   6.397   4.029   4.801
 3580SOL     OW11638   6.224   1.647   1.388
 3580SOL    HW111639   6.300   1.708   1.411
 3580SOL    HW211640   6.212   1.644   1.289
 3581SOL     OW11641   6.840   0.413   3.190
 3581SOL    HW111642   6.778   0.437   3.265
 3581SOL    HW211643   6.802   0.336   3.139
 3582SOL     OW11644   0.609   2.173   6.276
 3582SOL    HW111645   0.647   2.247   6.331
 3582SOL    HW211646   0.526   2.138   6.320
 3583SOL     OW11647   0.589   4.186   6.953
 3583SOL    HW111648   0.660   4.218   7.016
 3583SOL    HW211649   0.578   4.252   6.879
 3584SOL     OW11650   6.109   6.092   6.442
 3584SOL    HW111651   6.196   6.055   6.475
 3584SOL    HW211652   6.115   6.192   6.439
 3585SOL     OW11653   2.882   5.126   5.244
 3585SOL    HW111654   2.882   5.188   5.165
 3585SOL    HW211655   2.864   5.033   5.214
 3586SOL     OW11656   6.523   3.027   5.494
 3586SOL    HW111657   6.446   3.089   5.479
 3586SOL    HW211658   6.573   3.055   5.575
 3587SOL     OW11659   2.923   6.207   0.613
 3587SOL    HW111660   2.962   6.174   0.527
 3587SOL    HW211661   2.997   6.225   0.678
 3588SOL     OW11662   1.376   2.504   5.610
 3588SOL    HW111663   1.377   2.601   5.583
 3588SOL    HW211664   1.411   2.449   5.534
 3589SOL     OW11665   3.220   0.738   4.692
 3589SOL    HW111666   3.223   0.783   4.603
 3589SOL    HW211667   3.300   0.764   4.746
 3590SOL     OW11668   0.137   4.274   6.428
 3590SOL    HW111669   0.210   4.315   6.373
 3590SOL    HW211670   0.057   4.257   6.371
 3591SOL     OW11671   5.537   3.135   0.024
 3591SOL    HW111672   5.577   3.226   0.030
 3591SOL    HW211673   5.608   3.069   0.000
 3592SOL     OW11674   5.321   3.571   3.512
 3592SOL    HW111675   5.275   3.515   3.443
 3592SOL    HW211676   5.420   3.571   3.493
 3593SOL     OW11677   2.590   6.124   4.352
 3593SOL    HW111678   2.662   6.160   4.294
 3593SOL    HW211679   2.501   6.154   4.318
 3594SOL     OW11680   4.001   1.138   2.823
 3594SOL    HW111681   4.020   1.134   2.725
 3594SOL    HW211682   4.053   1.067   2.871
 3595SOL     OW11683   2.447   5.988   5.320
 3595SOL    HW111684   2.352   6.018   5.311
 3595SOL    HW211685   2.481   5.956   5.232
 3596SOL     OW11686   6.235   1.634   2.584
 3596SOL    HW111687   6.173   1.681   2.647
 3596SOL    HW211688   6.202   1.541   2.569
 3597SOL     OW11689   3.017   5.795   4.398
 3597SOL    HW111690   2.993   5.728   4.327
 3597SOL    HW211691   3.008   5.752   4.488
 3598SOL     OW11692   1.074   0.555   5.747
 3598SOL    HW111693   1.129   0.627   5.790
 3598SOL    HW211694   0.977   0.575   5.760
 3599SOL     OW11695   0.949   1.994   5.587
 3599SOL    HW111696   0.938   1.970   5.491
 3599SOL    HW211697   0.860   2.019   5.625
 3600SOL     OW11698   0.053   3.303   0.327
 3600SOL    HW111699   0.079   3.222   0.275
 3600SOL    HW211700   6.981   3.313   0.328
 3601SOL     OW11701   7.024   3.990   0.662
 3601SOL    HW111702   0.061   3.914   0.665
 3601SOL    HW211703   6.945   3.965   0.606
 3602SOL     OW11704   2.074   1.406   1.020
 3602SOL    HW111705   2.136   1.468   1.069
 3602SOL    HW211706   2.062   1.323   1.074
 3603SOL     OW11707   3.784   5.951   3.880
 3603SOL    HW111708   3.848   5.907   3.816
 3603SOL    HW211709   3.779   6.049   3.859
 3604SOL     OW11710   6.690   3.705   3.638
 3604SOL    HW111711   6.691   3.801   3.664
 3604SOL    HW211712   6.607   3.661   3.673
 3605SOL     OW11713   6.035   4.739   5.943
 3605SOL    HW111714   6.055   4.835   5.961
 3605SOL    HW211715   5.972   4.704   6.011
 3606SOL     OW11716   6.736   4.992   5.835
 3606SOL    HW111717   6.710   4.926   5.905
 3606SOL    HW211718   6.664   5.060   5.825
 3607SOL     OW11719   5.132   6.575   0.548
 3607SOL    HW111720   5.189   6.549   0.626
 3607SOL    HW211721   5.190   6.598   0.470
 3608SOL     OW11722   6.506   1.652   2.141
 3608SOL    HW111723   6.470   1.669   2.233
 3608SOL    HW211724   6.430   1.633   2.079
 3609SOL     OW11725   6.642   1.140   4.385
 3609SOL    HW111726   6.543   1.140   4.400
 3609SOL    HW211727   6.685   1.073   4.447
 3610SOL     OW11728   0.955   0.659   5.295
 3610SOL    HW111729   0.891   0.708   5.355
 3610SOL    HW211730   1.024   0.613   5.352
 3611SOL     OW11731   3.673   4.627   5.337
 3611SOL    HW111732   3.751   4.627   5.399
 3611SOL    HW211733   3.613   4.703   5.359
 3612SOL     OW11734   0.081   6.933   5.769
 3612SOL    HW111735   0.020   6.924   5.848
 3612SOL    HW211736   0.030   6.974   5.693
 3613SOL     OW11737   5.549   5.005   0.887
 3613SOL    HW111738   5.642   4.990   0.853
 3613SOL    HW211739   5.487   4.940   0.843
 3614SOL     OW11740   3.807   3.342   3.880
 3614SOL    HW111741   3.833   3.249   3.854
 3614SOL    HW211742   3.811   3.402   3.800
 3615SOL     OW11743   5.910   6.407   6.099
 3615SOL    HW111744   5.958   6.443   6.179
 3615SOL    HW211745   5.811   6.408   6.116
 3616SOL     OW11746   6.741   2.095   6.308
 3616SOL    HW111747   6.841   2.098   6.304
 3616SOL    HW211748   6.712   2.069   6.400
 3617SOL     OW11749   5.464   1.655   6.353
 3617SOL    HW111750   5.421   1.725   6.410
 3617SOL    HW211751   5.452   1.679   6.256
 3618SOL     OW11752   1.482   2.101   5.228
 3618SOL    HW111753   1.518   2.190   5.199
 3618SOL    HW211754   1.557   2.044   5.263
 3619SOL     OW11755   6.411   1.829   3.671
 3619SOL    HW111756   6.328   1.882   3.653
 3619SOL    HW211757   6.474   1.837   3.593
 3620SOL     OW11758   6.248   6.282   6.219
 3620SOL    HW111759   6.307   6.355   6.255
 3620SOL    HW211760   6.153   6.312   6.220
 3621SOL     OW11761   2.641   2.521   6.254
 3621SOL    HW111762   2.738   2.498   6.241
 3621SOL    HW211763   2.586   2.441   6.232
 3622SOL     OW11764   2.144   2.162   3.135
 3622SOL    HW111765   2.210   2.178   3.061
 3622SOL    HW211766   2.060   2.125   3.096
 3623SOL     OW11767   6.028   5.569   3.986
 3623SOL    HW111768   5.941   5.588   4.032
 3623SOL    HW211769   6.104   5.594   4.046
 3624SOL     OW11770   2.765   6.444   2.305
 3624SOL    HW111771   2.809   6.506   2.371
 3624SOL    HW211772   2.711   6.498   2.240
 3625SOL     OW11773   5.996   3.303   6.947
 3625SOL    HW111774   5.938   3.280   6.869
 3625SOL    HW211775   6.051   3.384   6.924
 3626SOL     OW11776   1.467   4.055   5.459
 3626SOL    HW111777   1.497   4.148   5.481
 3626SOL    HW211778   1.547   3.996   5.448
 3627SOL     OW11779   4.134   3.280   3.240
 3627SOL    HW111780   4.106   3.204   3.181
 3627SOL    HW211781   4.169   3.244   3.326
 3628SOL     OW11782   2.283   6.800   1.752
 3628SOL    HW111783   2.200   6.856   1.756
 3628SOL    HW211784   2.363   6.857   1.771
 3629SOL     OW11785   6.061   2.332   4.810
 3629SOL    HW111786   6.153   2.294   4.796
 3629SOL    HW211787   5.992   2.266   4.781
 3630SOL     OW11788   5.682   3.148   3.850
 3630SOL    HW111789   5.678   3.181   3.944
 3630SOL    HW211790   5.778   3.133   3.825
 3631SOL     OW11791   1.787   0.359   4.089
 3631SOL    HW111792   1.762   0.444   4.135
 3631SOL    HW211793   1.705   0.318   4.048
 3632SOL     OW11794   5.217   0.413   0.582
 3632SOL    HW111795   5.136   0.424   0.640
 3632SOL    HW211796   5.200   0.455   0.493
 3633SOL     OW11797   2.856   2.124   5.860
 3633SOL    HW111798   2.858   2.110   5.958
 3633SOL    HW211799   2.763   2.147   5.831
 3634SOL     OW11800   0.799   5.422   5.184
 3634SOL    HW111801   0.859   5.501   5.197
 3634SOL    HW211802   0.852   5.345   5.147
 3635SOL     OW11803   2.788   0.238   5.543
 3635SOL    HW111804   2.730   0.195   5.474
 3635SOL    HW211805   2.760   0.333   5.556
 3636SOL     OW11806   1.198   6.242   5.922
 3636SOL    HW111807   1.250   6.194   5.993
 3636SOL    HW211808   1.147   6.175   5.867
 3637SOL     OW11809   6.660   1.628   1.224
 3637SOL    HW111810   6.690   1.652   1.316
 3637SOL    HW211811   6.621   1.709   1.179
 3638SOL     OW11812   7.015   4.800   4.538
 3638SOL    HW111813   6.987   4.850   4.456
 3638SOL    HW211814   6.999   4.702   4.525
 3639SOL     OW11815   4.070   4.022   1.014
 3639SOL    HW111816   4.131   3.958   1.061
 3639SOL    HW211817   4.121   4.104   0.990
 3640SOL     OW11818   3.510   6.898   6.665
 3640SOL    HW111819   3.596   6.914   6.617
 3640SOL    HW211820   3.529   6.880   6.761
 3641SOL     OW11821   4.831   2.487   4.649
 3641SOL    HW111822   4.747   2.540   4.647
 3641SOL    HW211823   4.842   2.438   4.563
 3642SOL     OW11824   4.957   1.152   6.555
 3642SOL    HW111825   4.906   1.194   6.480
 3642SOL    HW211826   5.049   1.131   6.524
 3643SOL     OW11827   2.468   5.668   4.864
 3643SOL    HW111828   2.443   5.616   4.782
 3643SOL    HW211829   2.407   5.643   4.939
 3644SOL     OW11830   0.172   1.172   1.403
 3644SOL    HW111831   0.118   1.096   1.440
 3644SOL    HW211832   0.238   1.137   1.337
 3645SOL     OW11833   5.837   1.100   3.771
 3645SOL    HW111834   5.796   1.189   3.750
 3645SOL    HW211835   5.768   1.041   3.812
 3646SOL     OW11836   6.739   5.025   6.534
 3646SOL    HW111837   6.668   5.049   6.599
 3646SOL    HW211838   6.709   4.946   6.480
 3647SOL     OW11839   2.392   3.872   0.647
 3647SOL    HW111840   2.349   3.930   0.578
 3647SOL    HW211841   2.448   3.928   0.708
 3648SOL     OW11842   3.224   5.667   2.806
 3648SOL    HW111843   3.231   5.579   2.852
 3648SOL    HW211844   3.235   5.741   2.873
 3649SOL     OW11845   4.849   3.016   1.663
 3649SOL    HW111846   4.771   2.993   1.720
 3649SOL    HW211847   4.921   2.948   1.675
 3650SOL     OW11848   0.042   5.455   0.074
 3650SOL    HW111849   0.123   5.434   0.128
 3650SOL    HW211850   0.063   5.528   0.009
 3651SOL     OW11851   0.479   5.617   2.981
 3651SOL    HW111852   0.565   5.665   2.996
 3651SOL    HW211853   0.485   5.526   3.024
 3652SOL     OW11854   5.609   6.360   3.281
 3652SOL    HW111855   5.553   6.281   3.306
 3652SOL    HW211856   5.702   6.329   3.261
 3653SOL     OW11857   6.598   0.702   3.581
 3653SOL    HW111858   6.643   0.675   3.496
 3653SOL    HW211859   6.499   0.689   3.571
 3654SOL     OW11860   1.762   0.005   0.234
 3654SOL    HW111861   1.713   0.012   0.321
 3654SOL    HW211862   1.842   0.064   0.237
 3655SOL     OW11863   1.173   6.886   3.590
 3655SOL    HW111864   1.271   6.884   3.570
 3655SOL    HW211865   1.149   6.808   3.649
 3656SOL     OW11866   1.495   3.264   2.081
 3656SOL    HW111867   1.489   3.348   2.026
 3656SOL    HW211868   1.546   3.195   2.030
 3657SOL     OW11869   4.839   5.714   6.027
 3657SOL    HW111870   4.895   5.788   5.988
 3657SOL    HW211871   4.884   5.680   6.110
 3658SOL     OW11872   1.061   5.984   3.480
 3658SOL    HW111873   1.118   6.065   3.494
 3658SOL    HW211874   1.045   5.939   3.569
 3659SOL     OW11875   3.029   3.254   5.966
 3659SOL    HW111876   2.932   3.254   5.943
 3659SOL    HW211877   3.060   3.161   5.982
 3660SOL     OW11878   4.898   6.819   2.163
 3660SOL    HW111879   4.990   6.787   2.188
 3660SOL    HW211880   4.885   6.812   2.064
 3661SOL     OW11881   4.611   1.968   6.574
 3661SOL    HW111882   4.571   1.975   6.665
 3661SOL    HW211883   4.541   1.940   6.509
 3662SOL     OW11884   4.323   1.040   3.816
 3662SOL    HW111885   4.299   1.135   3.795
 3662SOL    HW211886   4.403   1.013   3.762
 3663SOL     OW11887   1.965   1.613   0.708
 3663SOL    HW111888   1.964   1.670   0.626
 3663SOL    HW211889   1.986   1.519   0.683
 3664SOL     OW11890   4.839   2.365   1.210
 3664SOL    HW111891   4.767   2.434   1.218
 3664SOL    HW211892   4.901   2.391   1.136
 3665SOL     OW11893   0.611   5.694   5.535
 3665SOL    HW111894   0.688   5.740   5.492
 3665SOL    HW211895   0.526   5.739   5.507
 3666SOL     OW11896   1.829   4.190   2.605
 3666SOL    HW111897   1.793   4.188   2.698
 3666SOL    HW211898   1.766   4.241   2.546
 3667SOL     OW11899   6.527   0.316   0.616
 3667SOL    HW111900   6.532   0.415   0.625
 3667SOL    HW211901   6.618   0.276   0.631
 3668SOL     OW11902   1.761   0.496   1.918
 3668SOL    HW111903   1.699   0.437   1.866
 3668SOL    HW211904   1.854   0.487   1.882
 3669SOL     OW11905   6.172   0.839   4.600
 3669SOL    HW111906   6.187   0.898   4.679
 3669SOL    HW211907   6.181   0.743   4.627
 3670SOL     OW11908   2.212   4.185   0.732
 3670SOL    HW111909   2.309   4.181   0.707
 3670SOL    HW211910   2.183   4.097   0.770
 3671SOL     OW11911   6.268   0.224   4.240
 3671SOL    HW111912   6.360   0.255   4.218
 3671SOL    HW211913   6.238   0.266   4.325
 3672SOL     OW11914   5.604   1.400   1.298
 3672SOL    HW111915   5.525   1.384   1.356
 3672SOL    HW211916   5.610   1.329   1.228
 3673SOL     OW11917   3.429   0.267   5.907
 3673SOL    HW111918   3.459   0.209   5.831
 3673SOL    HW211919   3.338   0.238   5.937
 3674SOL     OW11920   0.318   0.464   5.565
 3674SOL    HW111921   0.268   0.523   5.502
 3674SOL    HW211922   0.266   0.380   5.579
 3675SOL     OW11923   2.088   3.051   5.033
 3675SOL    HW111924   2.053   2.976   4.977
 3675SOL    HW211925   2.188   3.049   5.033
 3676SOL     OW11926   4.515   4.920   4.799
 3676SOL    HW111927   4.503   5.009   4.756
 3676SOL    HW211928   4.612   4.897   4.802
 3677SOL     OW11929   1.101   6.475   3.222
 3677SOL    HW111930   1.014   6.523   3.234
 3677SOL    HW211931   1.103   6.432   3.132
 3678SOL     OW11932   0.950   3.724   3.959
 3678SOL    HW111933   1.004   3.803   3.987
 3678SOL    HW211934   1.006   3.642   3.963
 3679SOL     OW11935   1.401   0.802   3.548
 3679SOL    HW111936   1.412   0.900   3.566
 3679SOL    HW211937   1.417   0.784   3.451
 3680SOL     OW11938   5.418   2.576   3.737
 3680SOL    HW111939   5.434   2.492   3.685
 3680SOL    HW211940   5.451   2.565   3.830
 3681SOL     OW11941   0.694   0.743   5.095
 3681SOL    HW111942   0.600   0.778   5.087
 3681SOL    HW211943   0.695   0.646   5.071
 3682SOL     OW11944   5.987   2.366   6.622
 3682SOL    HW111945   5.927   2.298   6.580
 3682SOL    HW211946   5.975   2.454   6.577
 3683SOL     OW11947   0.250   6.750   4.198
 3683SOL    HW111948   0.328   6.730   4.257
 3683SOL    HW211949   0.167   6.711   4.238
 3684SOL     OW11950   1.714   3.768   0.036
 3684SOL    HW111951   1.741   3.814   0.120
 3684SOL    HW211952   1.698   3.671   0.055
 3685SOL     OW11953   6.537   6.198   6.515
 3685SOL    HW111954   6.555   6.206   6.613
 3685SOL    HW211955   6.453   6.146   6.501
 3686SOL     OW11956   6.236   5.665   3.618
 3686SOL    HW111957   6.181   5.671   3.534
 3686SOL    HW211958   6.211   5.739   3.680
 3687SOL     OW11959   3.873   6.479   5.485
 3687SOL    HW111960   3.884   6.531   5.569
 3687SOL    HW211961   3.963   6.466   5.442
 3688SOL     OW11962   1.039   3.692   6.530
 3688SOL    HW111963   1.132   3.724   6.546
 3688SOL    HW211964   1.039   3.592   6.521
 3689SOL     OW11965   1.510   0.438   6.454
 3689SOL    HW111966   1.560   0.440   6.541
 3689SOL    HW211967   1.415   0.463   6.469
 3690SOL     OW11968   4.284   0.193   6.426
 3690SOL    HW111969   4.241   0.272   6.381
 3690SOL    HW211970   4.231   0.169   6.507
 3691SOL     OW11971   2.632   2.580   0.088
 3691SOL    HW111972   2.665   2.563   0.181
 3691SOL    HW211973   2.536   2.607   0.091
 3692SOL     OW11974   0.962   6.138   4.903
 3692SOL    HW111975   0.894   6.203   4.868
 3692SOL    HW211976   0.946   6.124   5.001
 3693SOL     OW11977   2.052   2.805   2.495
 3693SOL    HW111978   2.073   2.795   2.592
 3693SOL    HW211979   2.133   2.784   2.441
 3694SOL     OW11980   0.763   5.702   3.050
 3694SOL    HW111981   0.741   5.775   3.115
 3694SOL    HW211982   0.856   5.670   3.066
 3695SOL     OW11983   6.756   2.862   2.612
 3695SOL    HW111984   6.771   2.926   2.536
 3695SOL    HW211985   6.786   2.771   2.584
 3696SOL     OW11986   3.344   5.693   5.328
 3696SOL    HW111987   3.360   5.787   5.357
 3696SOL    HW211988   3.248   5.682   5.302
 3697SOL     OW11989   0.248   5.866   3.459
 3697SOL    HW111990   0.338   5.843   3.422
 3697SOL    HW211991   0.195   5.783   3.474
 3698SOL     OW11992   2.908   6.286   4.895
 3698SOL    HW111993   2.816   6.324   4.889
 3698SOL    HW211994   2.903   6.187   4.905
 3699SOL     OW11995   6.703   3.335   3.014
 3699SOL    HW111996   6.746   3.245   3.014
 3699SOL    HW211997   6.732   3.386   2.933
 3700SOL     OW11998   0.225   0.118   4.599
 3700SOL    HW111999   0.218   0.154   4.692
 3700SOL    HW212000   0.137   0.128   4.553
 3701SOL     OW12001   0.767   0.618   3.735
 3701SOL    HW112002   0.753   0.706   3.781
 3701SOL    HW212003   0.784   0.547   3.804
 3702SOL     OW12004   4.704   0.137   2.058
 3702SOL    HW112005   4.632   0.069   2.047
 3702SOL    HW212006   4.791   0.091   2.074
 3703SOL     OW12007   4.768   2.946   6.617
 3703SOL    HW112008   4.816   2.878   6.562
 3703SOL    HW212009   4.786   3.037   6.581
 3704SOL     OW12010   2.835   0.360   1.559
 3704SOL    HW112011   2.846   0.454   1.590
 3704SOL    HW212012   2.757   0.354   1.497
 3705SOL     OW12013   5.441   6.186   3.674
 3705SOL    HW112014   5.478   6.100   3.709
 3705SOL    HW212015   5.343   6.177   3.661
 3706SOL     OW12016   1.015   3.406   4.610
 3706SOL    HW112017   1.084   3.479   4.603
 3706SOL    HW212018   1.061   3.318   4.615
 3707SOL     OW12019   6.110   3.478   5.139
 3707SOL    HW112020   6.079   3.475   5.234
 3707SOL    HW212021   6.036   3.450   5.079
 3708SOL     OW12022   6.326   0.889   6.394
 3708SOL    HW112023   6.244   0.911   6.448
 3708SOL    HW212024   6.340   0.959   6.325
 3709SOL     OW12025   3.990   0.757   0.149
 3709SOL    HW112026   4.019   0.662   0.134
 3709SOL    HW212027   3.891   0.764   0.139
 3710SOL     OW12028   6.779   6.096   0.554
 3710SOL    HW112029   6.843   6.162   0.516
 3710SOL    HW212030   6.686   6.133   0.551
 3711SOL     OW12031   6.944   6.691   1.990
 3711SOL    HW112032   6.941   6.678   2.089
 3711SOL    HW212033   7.016   6.632   1.951
 3712SOL     OW12034   6.777   6.149   0.173
 3712SOL    HW112035   6.763   6.053   0.193
 3712SOL    HW212036   6.871   6.175   0.196
 3713SOL     OW12037   1.452   6.203   4.500
 3713SOL    HW112038   1.431   6.292   4.459
 3713SOL    HW212039   1.372   6.170   4.550
 3714SOL     OW12040   4.681   5.334   5.077
 3714SOL    HW112041   4.743   5.406   5.108
 3714SOL    HW212042   4.586   5.364   5.088
 3715SOL     OW12043   6.112   4.178   3.775
 3715SOL    HW112044   6.098   4.144   3.868
 3715SOL    HW212045   6.184   4.125   3.731
 3716SOL     OW12046   6.230   6.964   5.424
 3716SOL    HW112047   6.316   7.005   5.455
 3716SOL    HW212048   6.245   6.920   5.335
 3717SOL     OW12049   5.657   5.264   6.447
 3717SOL    HW112050   5.706   5.334   6.396
 3717SOL    HW212051   5.558   5.283   6.443
 3718SOL     OW12052   2.282   0.361   5.752
 3718SOL    HW112053   2.368   0.334   5.709
 3718SOL    HW212054   2.278   0.321   5.844
 3719SOL     OW12055   5.664   4.619   0.923
 3719SOL    HW112056   5.689   4.623   0.827
 3719SOL    HW212057   5.566   4.598   0.932
 3720SOL     OW12058   6.041   2.532   5.553
 3720SOL    HW112059   6.124   2.525   5.607
 3720SOL    HW212060   5.967   2.480   5.598
 3721SOL     OW12061   5.331   4.601   0.903
 3721SOL    HW112062   5.242   4.555   0.892
 3721SOL    HW212063   5.344   4.625   0.999
 3722SOL     OW12064   6.516   7.027   2.671
 3722SOL    HW112065   6.422   7.013   2.640
 3722SOL    HW212066   6.541   0.095   2.659
 3723SOL     OW12067   5.966   6.347   1.578
 3723SOL    HW112068   6.034   6.295   1.630
 3723SOL    HW212069   6.012   6.422   1.529
 3724SOL     OW12070   2.126   5.206   6.522
 3724SOL    HW112071   2.179   5.203   6.607
 3724SOL    HW212072   2.032   5.235   6.541
 3725SOL     OW12073   5.278   5.957   0.303
 3725SOL    HW112074   5.281   5.891   0.378
 3725SOL    HW212075   5.327   6.040   0.329
 3726SOL     OW12076   6.474   4.871   0.781
 3726SOL    HW112077   6.499   4.959   0.820
 3726SOL    HW212078   6.382   4.846   0.811
 3727SOL     OW12079   6.901   2.753   5.769
 3727SOL    HW112080   6.898   2.665   5.817
 3727SOL    HW212081   6.979   2.754   5.706
 3728SOL     OW12082   1.474   3.954   0.070
 3728SOL    HW112083   1.560   3.935   0.023
 3728SOL    HW212084   1.405   3.887   0.043
 3729SOL     OW12085   1.649   2.230   3.484
 3729SOL    HW112086   1.742   2.225   3.519
 3729SOL    HW212087   1.590   2.166   3.534
 3730SOL     OW12088   2.761   5.200   6.211
 3730SOL    HW112089   2.853   5.172   6.183
 3730SOL    HW212090   2.731   5.143   6.287
 3731SOL     OW12091   4.352   0.123   0.866
 3731SOL    HW112092   4.436   0.160   0.905
 3731SOL    HW212093   4.283   0.116   0.938
 3732SOL     OW12094   1.627   2.430   6.831
 3732SOL    HW112095   1.629   2.360   6.761
 3732SOL    HW212096   1.551   2.414   6.894
 3733SOL     OW12097   1.308   3.171   1.584
 3733SOL    HW112098   1.272   3.212   1.500
 3733SOL    HW212099   1.256   3.204   1.662
 3734SOL     OW12100   4.301   1.575   1.665
 3734SOL    HW112101   4.307   1.658   1.720
 3734SOL    HW212102   4.229   1.516   1.701
 3735SOL     OW12103   1.776   1.285   3.803
 3735SOL    HW112104   1.804   1.302   3.708
 3735SOL    HW212105   1.737   1.193   3.810
 3736SOL     OW12106   6.935   3.459   1.560
 3736SOL    HW112107   6.923   3.374   1.510
 3736SOL    HW212108   6.911   3.446   1.657
 3737SOL     OW12109   5.188   0.227   2.742
 3737SOL    HW112110   5.118   0.262   2.804
 3737SOL    HW212111   5.175   0.266   2.651
 3738SOL     OW12112   6.853   6.264   2.700
 3738SOL    HW112113   6.771   6.318   2.681
 3738SOL    HW212114   6.915   6.269   2.621
 3739SOL     OW12115   2.119   4.932   1.645
 3739SOL    HW112116   2.124   5.027   1.677
 3739SOL    HW212117   2.207   4.887   1.660
 3740SOL     OW12118   4.363   0.232   0.139
 3740SOL    HW112119   4.437   0.168   0.117
 3740SOL    HW212120   4.394   0.297   0.208
 3741SOL     OW12121   4.762   3.241   1.524
 3741SOL    HW112122   4.836   3.308   1.527
 3741SOL    HW212123   4.792   3.156   1.567
 3742SOL     OW12124   2.240   2.252   6.042
 3742SOL    HW112125   2.306   2.308   5.992
 3742SOL    HW212126   2.163   2.231   5.983
 3743SOL     OW12127   5.741   4.184   0.941
 3743SOL    HW112128   5.657   4.138   0.971
 3743SOL    HW212129   5.719   4.252   0.870
 3744SOL     OW12130   0.639   5.824   2.749
 3744SOL    HW112131   0.687   5.736   2.757
 3744SOL    HW212132   0.541   5.809   2.761
 3745SOL     OW12133   3.575   5.231   2.015
 3745SOL    HW112134   3.643   5.172   2.059
 3745SOL    HW212135   3.622   5.302   1.963
 3746SOL     OW12136   4.595   1.709   2.589
 3746SOL    HW112137   4.559   1.802   2.577
 3746SOL    HW212138   4.680   1.700   2.537
 3747SOL     OW12139   3.404   6.583   5.983
 3747SOL    HW112140   3.456   6.645   5.923
 3747SOL    HW212141   3.407   6.616   6.077
 3748SOL     OW12142   5.044   0.836   1.810
 3748SOL    HW112143   4.945   0.834   1.798
 3748SOL    HW212144   5.089   0.812   1.724
 3749SOL     OW12145   1.543   6.671   4.029
 3749SOL    HW112146   1.617   6.708   4.084
 3749SOL    HW212147   1.509   6.742   3.967
 3750SOL     OW12148   2.121   4.455   0.321
 3750SOL    HW112149   2.116   4.543   0.367
 3750SOL    HW212150   2.155   4.468   0.228
 3751SOL     OW12151   6.375   3.491   2.131
 3751SOL    HW112152   6.468   3.528   2.119
 3751SOL    HW212153   6.324   3.550   2.193
 3752SOL     OW12154   4.688   0.538   5.810
 3752SOL    HW112155   4.706   0.607   5.881
 3752SOL    HW212156   4.730   0.567   5.724
 3753SOL     OW12157   6.430   0.257   5.125
 3753SOL    HW112158   6.477   0.310   5.055
 3753SOL    HW212159   6.430   0.160   5.100
 3754SOL     OW12160   2.780   0.628   1.956
 3754SOL    HW112161   2.723   0.546   1.962
 3754SOL    HW212162   2.865   0.606   1.909
 3755SOL     OW12163   3.376   5.558   4.745
 3755SOL    HW112164   3.336   5.633   4.691
 3755SOL    HW212165   3.453   5.593   4.799
 3756SOL     OW12166   3.452   5.601   6.574
 3756SOL    HW112167   3.437   5.625   6.670
 3756SOL    HW212168   3.497   5.512   6.569
 3757SOL     OW12169   6.288   5.370   1.757
 3757SOL    HW112170   6.320   5.276   1.771
 3757SOL    HW212171   6.366   5.432   1.754
 3758SOL     OW12172   1.692   1.187   4.744
 3758SOL    HW112173   1.780   1.149   4.772
 3758SOL    HW212174   1.707   1.263   4.681
 3759SOL     OW12175   4.497   0.615   5.252
 3759SOL    HW112176   4.595   0.618   5.231
 3759SOL    HW212177   4.482   0.642   5.347
 3760SOL     OW12178   0.500   0.802   3.122
 3760SOL    HW112179   0.434   0.868   3.087
 3760SOL    HW212180   0.561   0.848   3.187
 3761SOL     OW12181   6.774   0.988   4.630
 3761SOL    HW112182   6.824   0.999   4.716
 3761SOL    HW212183   6.782   0.894   4.598
 3762SOL     OW12184   1.415   4.477   1.715
 3762SOL    HW112185   1.374   4.448   1.801
 3762SOL    HW212186   1.344   4.484   1.645
 3763SOL     OW12187   6.679   3.983   0.814
 3763SOL    HW112188   6.760   3.961   0.869
 3763SOL    HW212189   6.707   4.003   0.720
 3764SOL     OW12190   2.011   6.924   2.876
 3764SOL    HW112191   1.911   6.921   2.868
 3764SOL    HW212192   2.050   6.961   2.792
 3765SOL     OW12193   6.451   1.457   1.248
 3765SOL    HW112194   6.441   1.457   1.347
 3765SOL    HW212195   6.527   1.518   1.222
 3766SOL     OW12196   2.078   1.967   4.477
 3766SOL    HW112197   2.144   1.914   4.529
 3766SOL    HW212198   2.065   2.056   4.521
 3767SOL     OW12199   3.406   4.171   6.183
 3767SOL    HW112200   3.328   4.165   6.246
 3767SOL    HW212201   3.375   4.207   6.095
 3768SOL     OW12202   1.230   0.951   4.763
 3768SOL    HW112203   1.257   0.872   4.709
 3768SOL    HW212204   1.270   0.944   4.854
 3769SOL     OW12205   5.748   5.876   5.436
 3769SOL    HW112206   5.783   5.969   5.451
 3769SOL    HW212207   5.790   5.837   5.354
 3770SOL     OW12208   1.170   0.789   6.880
 3770SOL    HW112209   1.160   0.859   6.951
 3770SOL    HW212210   1.162   0.832   6.790
 3771SOL     OW12211   5.695   4.169   6.421
 3771SOL    HW112212   5.638   4.100   6.376
 3771SOL    HW212213   5.669   4.176   6.517
 3772SOL     OW12214   1.036   6.873   0.550
 3772SOL    HW112215   1.031   6.941   0.478
 3772SOL    HW212216   1.122   6.883   0.600
 3773SOL     OW12217   5.771   3.346   5.697
 3773SOL    HW112218   5.787   3.281   5.772
 3773SOL    HW212219   5.682   3.390   5.710
 3774SOL     OW12220   5.676   5.504   1.926
 3774SOL    HW112221   5.620   5.543   1.854
 3774SOL    HW212222   5.624   5.433   1.975
 3775SOL     OW12223   4.056   4.773   3.698
 3775SOL    HW112224   4.045   4.809   3.605
 3775SOL    HW212225   3.971   4.788   3.749
 3776SOL     OW12226   3.676   2.897   6.308
 3776SOL    HW112227   3.667   2.861   6.215
 3776SOL    HW212228   3.602   2.961   6.326
 3777SOL     OW12229   2.531   6.027   3.754
 3777SOL    HW112230   2.491   6.117   3.740
 3777SOL    HW212231   2.618   6.021   3.705
 3778SOL     OW12232   2.405   6.249   3.623
 3778SOL    HW112233   2.355   6.284   3.703
 3778SOL    HW212234   2.354   6.172   3.585
 3779SOL     OW12235   0.392   4.733   0.905
 3779SOL    HW112236   0.393   4.669   0.982
 3779SOL    HW212237   0.303   4.729   0.859
 3780SOL     OW12238   0.144   3.190   3.701
 3780SOL    HW112239   0.169   3.282   3.731
 3780SOL    HW212240   0.180   3.123   3.767
 3781SOL     OW12241   0.766   6.739   4.315
 3781SOL    HW112242   0.696   6.801   4.351
 3781SOL    HW212243   0.812   6.694   4.391
 3782SOL     OW12244   3.712   6.676   2.352
 3782SOL    HW112245   3.623   6.705   2.317
 3782SOL    HW212246   3.748   6.746   2.414
 3783SOL     OW12247   6.564   5.432   4.269
 3783SOL    HW112248   6.647   5.437   4.213
 3783SOL    HW212249   6.589   5.425   4.366
 3784SOL     OW12250   5.319   2.562   2.354
 3784SOL    HW112251   5.224   2.588   2.372
 3784SOL    HW212252   5.380   2.634   2.388
 3785SOL     OW12253   1.089   3.030   5.198
 3785SOL    HW112254   1.135   2.984   5.121
 3785SOL    HW212255   1.152   3.038   5.275
 3786SOL     OW12256   2.143   3.489   2.892
 3786SOL    HW112257   2.239   3.472   2.869
 3786SOL    HW212258   2.101   3.403   2.922
 3787SOL     OW12259   5.447   0.290   2.805
 3787SOL    HW112260   5.518   0.311   2.739
 3787SOL    HW212261   5.358   0.287   2.759
 3788SOL     OW12262   5.981   5.029   5.180
 3788SOL    HW112263   5.973   5.047   5.278
 3788SOL    HW212264   5.983   5.115   5.130
 3789SOL     OW12265   6.947   3.704   2.993
 3789SOL    HW112266   6.857   3.684   2.953
 3789SOL    HW212267   6.991   3.619   3.019
 3790SOL     OW12268   1.165   5.053   6.515
 3790SOL    HW112269   1.153   4.960   6.481
 3790SOL    HW212270   1.084   5.081   6.566
 3791SOL     OW12271   5.104   2.024   0.008
 3791SOL    HW112272   5.018   2.069   7.010
 3791SOL    HW212273   5.114   1.940   6.983
 3792SOL     OW12274   1.285   1.602   4.338
 3792SOL    HW112275   1.302   1.594   4.240
 3792SOL    HW212276   1.303   1.696   4.368
 3793SOL     OW12277   5.579   6.692   1.233
 3793SOL    HW112278   5.642   6.623   1.267
 3793SOL    HW212279   5.491   6.683   1.279
 3794SOL     OW12280   1.814   3.171   1.704
 3794SOL    HW112281   1.881   3.218   1.645
 3794SOL    HW212282   1.728   3.160   1.654
 3795SOL     OW12283   3.260   5.157   1.384
 3795SOL    HW112284   3.309   5.215   1.318
 3795SOL    HW212285   3.163   5.153   1.359
 3796SOL     OW12286   4.166   1.988   0.933
 3796SOL    HW112287   4.112   1.946   0.860
 3796SOL    HW212288   4.224   1.918   0.975
 3797SOL     OW12289   0.850   4.088   3.461
 3797SOL    HW112290   0.926   4.032   3.430
 3797SOL    HW212291   0.775   4.082   3.395
 3798SOL     OW12292   3.284   6.458   2.408
 3798SOL    HW112293   3.278   6.533   2.342
 3798SOL    HW212294   3.378   6.450   2.440
 3799SOL     OW12295   0.094   2.753   3.714
 3799SOL    HW112296   0.148   2.794   3.641
 3799SOL    HW212297   0.015   2.812   3.734
 3800SOL     OW12298   5.453   2.251   4.047
 3800SOL    HW112299   5.388   2.227   4.119
 3800SOL    HW212300   5.443   2.347   4.023
 3801SOL     OW12301   5.484   6.791   1.735
 3801SOL    HW112302   5.423   6.748   1.667
 3801SOL    HW212303   5.432   6.856   1.790
 3802SOL     OW12304   0.044   1.629   2.375
 3802SOL    HW112305   0.036   1.622   2.275
 3802SOL    HW212306   0.036   1.725   2.402
 3803SOL     OW12307   4.055   3.673   3.836
 3803SOL    HW112308   4.138   3.727   3.850
 3803SOL    HW212309   4.047   3.606   3.910
 3804SOL     OW12310   3.617   1.442   4.270
 3804SOL    HW112311   3.660   1.383   4.338
 3804SOL    HW212312   3.645   1.537   4.285
 3805SOL     OW12313   1.753   2.538   1.642
 3805SOL    HW112314   1.793   2.602   1.578
 3805SOL    HW212315   1.781   2.445   1.619
 3806SOL     OW12316   3.576   3.330   6.057
 3806SOL    HW112317   3.660   3.282   6.032
 3806SOL    HW212318   3.575   3.420   6.012
 3807SOL     OW12319   1.814   4.115   3.564
 3807SOL    HW112320   1.784   4.139   3.472
 3807SOL    HW212321   1.791   4.019   3.583
 3808SOL     OW12322   4.415   0.539   6.557
 3808SOL    HW112323   4.406   0.628   6.513
 3808SOL    HW212324   4.330   0.488   6.549
 3809SOL     OW12325   5.723   2.485   2.056
 3809SOL    HW112326   5.731   2.514   1.961
 3809SOL    HW212327   5.762   2.556   2.115
 3810SOL     OW12328   6.671   2.664   3.206
 3810SOL    HW112329   6.624   2.585   3.165
 3810SOL    HW212330   6.732   2.705   3.139
 3811SOL     OW12331   7.004   6.124   4.410
 3811SOL    HW112332   0.050   6.095   4.348
 3811SOL    HW212333   6.925   6.064   4.398
 3812SOL     OW12334   3.466   4.926   5.940
 3812SOL    HW112335   3.463   5.018   5.900
 3812SOL    HW212336   3.560   4.891   5.936
 3813SOL     OW12337   5.950   3.753   0.954
 3813SOL    HW112338   6.004   3.702   1.022
 3813SOL    HW212339   5.872   3.795   0.999
 3814SOL     OW12340   0.282   0.088   3.900
 3814SOL    HW112341   0.326   0.131   3.821
 3814SOL    HW212342   0.309   7.020   3.905
 3815SOL     OW12343   4.346   2.686   1.055
 3815SOL    HW112344   4.297   2.750   0.996
 3815SOL    HW212345   4.347   2.595   1.012
 3816SOL     OW12346   0.946   5.558   5.717
 3816SOL    HW112347   1.023   5.510   5.759
 3816SOL    HW212348   0.863   5.542   5.771
 3817SOL     OW12349   5.143   3.427   1.908
 3817SOL    HW112350   5.221   3.374   1.874
 3817SOL    HW212351   5.058   3.382   1.882
 3818SOL     OW12352   6.934   0.834   0.939
 3818SOL    HW112353   6.952   0.834   1.037
 3818SOL    HW212354   7.013   0.871   0.890
 3819SOL     OW12355   6.066   4.457   2.367
 3819SOL    HW112356   5.985   4.489   2.416
 3819SOL    HW212357   6.147   4.471   2.424
 3820SOL     OW12358   6.490   6.335   3.449
 3820SOL    HW112359   6.521   6.428   3.470
 3820SOL    HW212360   6.562   6.270   3.473
 3821SOL     OW12361   1.358   1.436   2.038
 3821SOL    HW112362   1.321   1.390   1.957
 3821SOL    HW212363   1.317   1.397   2.120
 3822SOL     OW12364   2.352   6.855   6.275
 3822SOL    HW112365   2.428   6.908   6.239
 3822SOL    HW212366   2.362   6.759   6.249
 3823SOL     OW12367   4.334   3.735   6.732
 3823SOL    HW112368   4.423   3.700   6.762
 3823SOL    HW212369   4.299   3.676   6.659
 3824SOL     OW12370   0.792   2.420   0.504
 3824SOL    HW112371   0.850   2.428   0.424
 3824SOL    HW212372   0.792   2.326   0.537
 3825SOL     OW12373   1.041   4.258   0.324
 3825SOL    HW112374   1.013   4.207   0.406
 3825SOL    HW212375   1.049   4.355   0.347
 3826SOL     OW12376   6.813   3.569   1.337
 3826SOL    HW112377   6.861   3.531   1.416
 3826SOL    HW212378   6.877   3.620   1.279
 3827SOL     OW12379   0.792   0.677   1.368
 3827SOL    HW112380   0.742   0.592   1.383
 3827SOL    HW212381   0.812   0.687   1.270
 3828SOL     OW12382   3.562   3.750   4.578
 3828SOL    HW112383   3.623   3.784   4.506
 3828SOL    HW212384   3.510   3.826   4.616
 3829SOL     OW12385   0.536   5.174   1.820
 3829SOL    HW112386   0.589   5.094   1.791
 3829SOL    HW212387   0.441   5.163   1.791
 3830SOL     OW12388   0.391   1.477   5.848
 3830SOL    HW112389   0.491   1.480   5.857
 3830SOL    HW212390   0.357   1.389   5.879
 3831SOL     OW12391   4.429   2.321   2.627
 3831SOL    HW112392   4.433   2.324   2.727
 3831SOL    HW212393   4.472   2.237   2.594
 3832SOL     OW12394   6.749   0.899   2.442
 3832SOL    HW112395   6.729   0.896   2.540
 3832SOL    HW212396   6.845   0.875   2.426
 3833SOL     OW12397   1.003   6.240   6.253
 3833SOL    HW112398   1.027   6.262   6.347
 3833SOL    HW212399   0.933   6.303   6.220
 3834SOL     OW12400   3.792   4.284   1.099
 3834SOL    HW112401   3.775   4.366   1.044
 3834SOL    HW212402   3.780   4.203   1.042
 3835SOL     OW12403   3.922   6.160   5.466
 3835SOL    HW112404   3.985   6.223   5.513
 3835SOL    HW212405   3.948   6.154   5.370
 3836SOL     OW12406   7.012   4.760   5.866
 3836SOL    HW112407   6.924   4.803   5.887
 3836SOL    HW212408   0.050   4.830   5.837
 3837SOL     OW12409   4.423   4.921   5.536
 3837SOL    HW112410   4.357   4.855   5.572
 3837SOL    HW212411   4.421   4.918   5.436
 3838SOL     OW12412   1.083   2.575   3.513
 3838SOL    HW112413   1.177   2.604   3.532
 3838SOL    HW212414   1.053   2.509   3.582
 3839SOL     OW12415   4.945   1.684   2.872
 3839SOL    HW112416   5.037   1.684   2.910
 3839SOL    HW212417   4.946   1.726   2.781
 3840SOL     OW12418   3.147   1.793   6.622
 3840SOL    HW112419   3.189   1.802   6.532
 3840SOL    HW212420   3.098   1.706   6.628
 3841SOL     OW12421   0.850   3.401   4.384
 3841SOL    HW112422   0.772   3.461   4.402
 3841SOL    HW212423   0.912   3.402   4.462
 3842SOL     OW12424   2.125   2.839   3.353
 3842SOL    HW112425   2.204   2.800   3.400
 3842SOL    HW212426   2.147   2.931   3.321
 3843SOL     OW12427   5.362   3.369   2.334
 3843SOL    HW112428   5.406   3.280   2.328
 3843SOL    HW212429   5.273   3.366   2.288
 3844SOL     OW12430   1.379   3.391   6.174
 3844SOL    HW112431   1.424   3.368   6.087
 3844SOL    HW212432   1.284   3.419   6.156
 3845SOL     OW12433   2.440   5.315   6.097
 3845SOL    HW112434   2.529   5.317   6.144
 3845SOL    HW212435   2.450   5.355   6.006
 3846SOL     OW12436   0.785   4.296   3.976
 3846SOL    HW112437   0.772   4.200   4.001
 3846SOL    HW212438   0.713   4.325   3.914
 3847SOL     OW12439   5.269   2.948   4.438
 3847SOL    HW112440   5.215   2.999   4.371
 3847SOL    HW212441   5.277   3.001   4.522
 3848SOL     OW12442   4.952   3.983   2.805
 3848SOL    HW112443   4.945   3.940   2.895
 3848SOL    HW212444   5.042   4.026   2.796
 3849SOL     OW12445   1.313   1.187   6.122
 3849SOL    HW112446   1.278   1.114   6.180
 3849SOL    HW212447   1.251   1.202   6.046
 3850SOL     OW12448   2.962   2.995   1.774
 3850SOL    HW112449   2.933   2.900   1.773
 3850SOL    HW212450   2.954   3.032   1.866
 3851SOL     OW12451   0.114   4.754   3.763
 3851SOL    HW112452   0.198   4.734   3.712
 3851SOL    HW212453   0.134   4.821   3.835
 3852SOL     OW12454   3.501   5.956   3.879
 3852SOL    HW112455   3.597   5.961   3.907
 3852SOL    HW212456   3.451   6.032   3.921
 3853SOL     OW12457   0.978   3.437   3.398
 3853SOL    HW112458   0.901   3.497   3.377
 3853SOL    HW212459   0.964   3.396   3.488
 3854SOL     OW12460   1.148   2.492   2.615
 3854SOL    HW112461   1.071   2.481   2.552
 3854SOL    HW212462   1.132   2.570   2.675
 3855SOL     OW12463   4.309   6.202   6.436
 3855SOL    HW112464   4.409   6.204   6.438
 3855SOL    HW212465   4.278   6.169   6.347
 3856SOL     OW12466   0.405   0.717   5.982
 3856SOL    HW112467   0.429   0.668   6.065
 3856SOL    HW212468   0.407   0.655   5.904
 3857SOL     OW12469   0.661   6.115   6.498
 3857SOL    HW112470   0.575   6.138   6.543
 3857SOL    HW212471   0.643   6.082   6.406
 3858SOL     OW12472   3.100   1.147   5.796
 3858SOL    HW112473   3.024   1.082   5.799
 3858SOL    HW212474   3.068   1.234   5.759
 3859SOL     OW12475   6.654   1.158   1.842
 3859SOL    HW112476   6.747   1.133   1.868
 3859SOL    HW212477   6.617   1.221   1.910
 3860SOL     OW12478   1.599   1.477   4.142
 3860SOL    HW112479   1.607   1.562   4.195
 3860SOL    HW212480   1.523   1.486   4.078
 3861SOL     OW12481   4.471   5.416   4.188
 3861SOL    HW112482   4.496   5.462   4.273
 3861SOL    HW212483   4.407   5.341   4.208
 3862SOL     OW12484   0.234   0.992   4.413
 3862SOL    HW112485   0.309   0.926   4.415
 3862SOL    HW212486   0.269   1.081   4.381
 3863SOL     OW12487   5.994   2.190   0.044
 3863SOL    HW112488   5.957   2.220   0.132
 3863SOL    HW212489   5.930   2.213   6.999
 3864SOL     OW12490   1.944   0.375   5.778
 3864SOL    HW112491   1.951   0.281   5.744
 3864SOL    HW212492   1.970   0.378   5.874
 3865SOL     OW12493   3.861   0.875   1.158
 3865SOL    HW112494   3.787   0.924   1.204
 3865SOL    HW212495   3.872   0.785   1.200
 3866SOL     OW12496   3.806   0.504   0.370
 3866SOL    HW112497   3.889   0.482   0.320
 3866SOL    HW212498   3.822   0.493   0.468
 3867SOL     OW12499   0.464   5.449   3.204
 3867SOL    HW112500   0.480   5.389   3.283
 3867SOL    HW212501   0.381   5.419   3.156
 3868SOL     OW12502   3.192   0.648   0.364
 3868SOL    HW112503   3.097   0.658   0.334
 3868SOL    HW212504   3.200   0.568   0.424
 3869SOL     OW12505   6.193   3.203   4.861
 3869SOL    HW112506   6.156   3.208   4.768
 3869SOL    HW212507   6.289   3.230   4.860
 3870SOL     OW12508   6.832   6.738   0.540
 3870SOL    HW112509   6.781   6.714   0.458
 3870SOL    HW212510   6.927   6.706   0.531
 3871SOL     OW12511   4.042   0.844   3.225
 3871SOL    HW112512   4.059   0.799   3.138
 3871SOL    HW212513   4.049   0.778   3.299
 3872SOL     OW12514   3.066   3.085   4.058
 3872SOL    HW112515   3.125   3.047   4.129
 3872SOL    HW212516   3.092   3.048   3.969
 3873SOL     OW12517   6.204   3.967   1.027
 3873SOL    HW112518   6.207   3.869   1.005
 3873SOL    HW212519   6.125   3.985   1.086
 3874SOL     OW12520   4.361   6.106   0.622
 3874SOL    HW112521   4.404   6.150   0.701
 3874SOL    HW212522   4.343   6.174   0.551
 3875SOL     OW12523   2.182   3.151   2.329
 3875SOL    HW112524   2.255   3.121   2.267
 3875SOL    HW212525   2.171   3.250   2.322
 3876SOL     OW12526   3.216   5.419   1.042
 3876SOL    HW112527   3.167   5.431   1.128
 3876SOL    HW212528   3.155   5.444   0.966
 3877SOL     OW12529   6.208   2.487   1.276
 3877SOL    HW112530   6.242   2.495   1.370
 3877SOL    HW212531   6.284   2.461   1.216
 3878SOL     OW12532   3.717   6.481   4.781
 3878SOL    HW112533   3.646   6.539   4.743
 3878SOL    HW212534   3.804   6.498   4.734
 3879SOL     OW12535   5.904   4.910   1.096
 3879SOL    HW112536   5.813   4.947   1.111
 3879SOL    HW212537   5.914   4.883   1.000
 3880SOL     OW12538   5.554   4.690   4.198
 3880SOL    HW112539   5.525   4.781   4.169
 3880SOL    HW212540   5.626   4.699   4.267
 3881SOL     OW12541   1.284   3.013   2.008
 3881SOL    HW112542   1.321   3.071   2.081
 3881SOL    HW212543   1.355   2.952   1.974
 3882SOL     OW12544   1.176   1.411   6.285
 3882SOL    HW112545   1.271   1.402   6.256
 3882SOL    HW212546   1.119   1.433   6.206
 3883SOL     OW12547   4.628   1.250   2.234
 3883SOL    HW112548   4.637   1.244   2.334
 3883SOL    HW212549   4.719   1.256   2.193
 3884SOL     OW12550   1.332   5.805   2.476
 3884SOL    HW112551   1.385   5.885   2.503
 3884SOL    HW212552   1.291   5.820   2.386
 3885SOL     OW12553   5.830   5.928   2.735
 3885SOL    HW112554   5.855   5.992   2.809
 3885SOL    HW212555   5.911   5.907   2.681
 3886SOL     OW12556   5.516   5.340   5.157
 3886SOL    HW112557   5.554   5.254   5.123
 3886SOL    HW212558   5.586   5.387   5.211
 3887SOL     OW12559   0.988   0.485   0.100
 3887SOL    HW112560   0.960   0.424   0.026
 3887SOL    HW212561   1.084   0.510   0.088
 3888SOL     OW12562   6.912   0.568   4.769
 3888SOL    HW112563   7.009   0.592   4.778
 3888SOL    HW212564   6.900   0.504   4.693
 3889SOL     OW12565   0.233   3.931   0.418
 3889SOL    HW112566   0.319   3.884   0.439
 3889SOL    HW212567   0.246   4.030   0.425
 3890SOL     OW12568   6.291   5.057   3.595
 3890SOL    HW112569   6.299   5.132   3.529
 3890SOL    HW212570   6.286   5.094   3.688
 3891SOL     OW12571   5.586   4.189   4.331
 3891SOL    HW112572   5.551   4.282   4.328
 3891SOL    HW212573   5.653   4.175   4.258
 3892SOL     OW12574   0.142   1.809   1.437
 3892SOL    HW112575   0.156   1.790   1.534
 3892SOL    HW212576   0.221   1.859   1.402
 3893SOL     OW12577   4.330   4.214   0.586
 3893SOL    HW112578   4.291   4.302   0.612
 3893SOL    HW212579   4.349   4.212   0.488
 3894SOL     OW12580   4.601   0.631   0.573
 3894SOL    HW112581   4.582   0.621   0.475
 3894SOL    HW212582   4.517   0.618   0.625
 3895SOL     OW12583   1.832   0.742   5.117
 3895SOL    HW112584   1.780   0.808   5.173
 3895SOL    HW212585   1.930   0.754   5.135
 3896SOL     OW12586   0.143   1.137   5.691
 3896SOL    HW112587   0.161   1.220   5.639
 3896SOL    HW212588   0.227   1.105   5.734
 3897SOL     OW12589   3.685   5.532   2.630
 3897SOL    HW112590   3.593   5.571   2.626
 3897SOL    HW212591   3.725   5.547   2.720
 3898SOL     OW12592   2.652   3.489   5.677
 3898SOL    HW112593   2.721   3.504   5.749
 3898SOL    HW212594   2.651   3.567   5.615
 3899SOL     OW12595   5.124   6.786   4.956
 3899SOL    HW112596   5.094   6.848   4.884
 3899SOL    HW212597   5.045   6.756   5.010
 3900SOL     OW12598   5.361   3.090   4.110
 3900SOL    HW112599   5.276   3.108   4.158
 3900SOL    HW212600   5.365   3.146   4.028
 3901SOL     OW12601   2.374   6.986   5.537
 3901SOL    HW112602   2.328   6.939   5.462
 3901SOL    HW212603   2.328   6.966   5.624
 3902SOL     OW12604   5.628   3.295   1.853
 3902SOL    HW112605   5.615   3.197   1.838
 3902SOL    HW212606   5.726   3.314   1.863
 3903SOL     OW12607   3.547   6.003   6.356
 3903SOL    HW112608   3.460   6.003   6.308
 3903SOL    HW212609   3.610   6.068   6.312
 3904SOL     OW12610   2.569   1.303   5.361
 3904SOL    HW112611   2.664   1.331   5.352
 3904SOL    HW212612   2.562   1.203   5.357
 3905SOL     OW12613   0.204   0.030   6.498
 3905SOL    HW112614   0.242   0.005   6.587
 3905SOL    HW212615   0.223   0.126   6.479
 3906SOL     OW12616   4.703   5.337   6.066
 3906SOL    HW112617   4.784   5.284   6.089
 3906SOL    HW212618   4.679   5.397   6.143
 3907SOL     OW12619   6.093   0.278   4.525
 3907SOL    HW112620   6.191   0.285   4.542
 3907SOL    HW212621   6.044   0.344   4.582
 3908SOL     OW12622   1.575   2.620   0.596
 3908SOL    HW112623   1.665   2.585   0.620
 3908SOL    HW212624   1.519   2.627   0.678
 3909SOL     OW12625   0.219   5.291   5.582
 3909SOL    HW112626   0.148   5.348   5.622
 3909SOL    HW212627   0.188   5.256   5.494
 3910SOL     OW12628   3.163   3.065   1.615
 3910SOL    HW112629   3.108   3.109   1.544
 3910SOL    HW212630   3.104   3.026   1.684
 3911SOL     OW12631   4.969   1.204   6.817
 3911SOL    HW112632   4.909   1.149   6.876
 3911SOL    HW212633   4.964   1.168   6.724
 3912SOL     OW12634   4.502   0.354   5.584
 3912SOL    HW112635   4.433   0.314   5.523
 3912SOL    HW212636   4.460   0.427   5.638
 3913SOL     OW12637   1.704   6.819   6.038
 3913SOL    HW112638   1.643   6.822   6.117
 3913SOL    HW212639   1.682   6.739   5.982
 3914SOL     OW12640   3.676   1.181   0.864
 3914SOL    HW112641   3.708   1.272   0.888
 3914SOL    HW212642   3.747   1.113   0.885
 3915SOL     OW12643   3.885   4.913   2.216
 3915SOL    HW112644   3.806   4.895   2.157
 3915SOL    HW212645   3.866   4.880   2.308
 3916SOL     OW12646   2.113   6.159   3.754
 3916SOL    HW112647   2.089   6.251   3.723
 3916SOL    HW212648   2.029   6.107   3.773
 3917SOL     OW12649   6.810   5.672   0.468
 3917SOL    HW112650   6.761   5.702   0.386
 3917SOL    HW212651   6.772   5.718   0.548
 3918SOL     OW12652   4.816   6.550   1.974
 3918SOL    HW112653   4.872   6.609   1.915
 3918SOL    HW212654   4.818   6.457   1.938
 3919SOL     OW12655   2.331   6.046   6.349
 3919SOL    HW112656   2.251   6.092   6.386
 3919SOL    HW212657   2.305   5.956   6.314
 3920SOL     OW12658   3.230   2.788   0.453
 3920SOL    HW112659   3.311   2.788   0.511
 3920SOL    HW212660   3.236   2.713   0.387
 3921SOL     OW12661   0.123   3.616   1.619
 3921SOL    HW112662   0.057   3.543   1.601
 3921SOL    HW212663   0.085   3.704   1.589
 3922SOL     OW12664   5.824   4.060   1.857
 3922SOL    HW112665   5.732   4.099   1.863
 3922SOL    HW212666   5.823   3.984   1.791
 3923SOL     OW12667   7.024   2.300   6.627
 3923SOL    HW112668   0.075   2.312   6.567
 3923SOL    HW212669   7.005   2.385   6.675
 3924SOL     OW12670   0.498   5.178   3.318
 3924SOL    HW112671   0.507   5.087   3.278
 3924SOL    HW212672   0.553   5.183   3.402
 3925SOL     OW12673   2.979   4.892   0.534
 3925SOL    HW112674   3.013   4.964   0.474
 3925SOL    HW212675   2.893   4.857   0.499
 3926SOL     OW12676   6.988   5.875   3.202
 3926SOL    HW112677   6.893   5.857   3.176
 3926SOL    HW212678   7.011   5.970   3.181
 3927SOL     OW12679   6.412   3.265   3.483
 3927SOL    HW112680   6.369   3.267   3.573
 3927SOL    HW212681   6.357   3.210   3.421
 3928SOL     OW12682   3.050   6.365   5.680
 3928SOL    HW112683   2.974   6.411   5.724
 3928SOL    HW212684   3.018   6.315   5.600
 3929SOL     OW12685   6.885   1.311   5.633
 3929SOL    HW112686   6.847   1.268   5.715
 3929SOL    HW212687   6.895   1.409   5.649
 3930SOL     OW12688   2.232   1.737   3.710
 3930SOL    HW112689   2.175   1.723   3.630
 3930SOL    HW212690   2.253   1.648   3.752
 3931SOL     OW12691   1.582   1.814   2.479
 3931SOL    HW112692   1.508   1.873   2.446
 3931SOL    HW212693   1.640   1.867   2.542
 3932SOL     OW12694   1.456   4.296   2.557
 3932SOL    HW112695   1.452   4.238   2.476
 3932SOL    HW212696   1.490   4.243   2.635
 3933SOL     OW12697   1.821   6.504   0.203
 3933SOL    HW112698   1.792   6.421   0.251
 3933SOL    HW212699   1.749   6.532   0.139
 3934SOL     OW12700   0.117   0.907   0.711
 3934SOL    HW112701   0.192   0.842   0.721
 3934SOL    HW212702   0.137   0.990   0.764
 3935SOL     OW12703   2.479   0.135   6.826
 3935SOL    HW112704   2.458   0.203   6.756
 3935SOL    HW212705   2.396   0.084   6.848
 3936SOL     OW12706   6.623   4.933   5.479
 3936SOL    HW112707   6.633   4.998   5.404
 3936SOL    HW212708   6.699   4.944   5.543
 3937SOL     OW12709   6.764   0.817   2.719
 3937SOL    HW112710   6.782   0.887   2.788
 3937SOL    HW212711   6.845   0.760   2.708
 3938SOL     OW12712   0.237   1.562   4.102
 3938SOL    HW112713   0.203   1.478   4.144
 3938SOL    HW212714   0.219   1.560   4.004
 3939SOL     OW12715   2.503   1.757   2.302
 3939SOL    HW112716   2.454   1.675   2.271
 3939SOL    HW212717   2.448   1.838   2.284
 3940SOL     OW12718   4.405   4.991   2.056
 3940SOL    HW112719   4.316   4.998   2.101
 3940SOL    HW212720   4.470   4.945   2.117
 3941SOL     OW12721   4.989   2.125   6.727
 3941SOL    HW112722   4.986   2.041   6.674
 3941SOL    HW212723   4.904   2.135   6.779
 3942SOL     OW12724   0.298   0.307   6.464
 3942SOL    HW112725   0.369   0.299   6.394
 3942SOL    HW212726   0.248   0.392   6.452
 3943SOL     OW12727   0.821   4.095   3.022
 3943SOL    HW112728   0.820   4.194   3.004
 3943SOL    HW212729   0.788   4.046   2.941
 3944SOL     OW12730   5.213   3.369   4.771
 3944SOL    HW112731   5.114   3.384   4.769
 3944SOL    HW212732   5.259   3.449   4.733
 3945SOL     OW12733   1.027   2.344   2.000
 3945SOL    HW112734   0.973   2.360   1.917
 3945SOL    HW212735   1.080   2.260   1.989
 3946SOL     OW12736   5.481   5.860   6.321
 3946SOL    HW112737   5.573   5.892   6.300
 3946SOL    HW212738   5.486   5.770   6.366
 3947SOL     OW12739   6.004   5.354   0.914
 3947SOL    HW112740   5.991   5.445   0.952
 3947SOL    HW212741   5.929   5.295   0.944
 3948SOL     OW12742   0.733   5.700   1.801
 3948SOL    HW112743   0.686   5.612   1.808
 3948SOL    HW212744   0.704   5.760   1.875
 3949SOL     OW12745   5.460   0.467   3.011
 3949SOL    HW112746   5.468   0.386   2.953
 3949SOL    HW212747   5.397   0.532   2.969
 3950SOL     OW12748   2.319   3.788   1.601
 3950SOL    HW112749   2.241   3.771   1.542
 3950SOL    HW212750   2.376   3.705   1.605
 3951SOL     OW12751   6.381   6.706   0.657
 3951SOL    HW112752   6.462   6.648   0.661
 3951SOL    HW212753   6.390   6.770   0.580
 3952SOL     OW12754   6.441   3.639   2.552
 3952SOL    HW112755   6.400   3.716   2.601
 3952SOL    HW212756   6.525   3.669   2.507
 3953SOL     OW12757   4.011   3.979   1.386
 3953SOL    HW112758   3.984   4.057   1.330
 3953SOL    HW212759   4.111   3.977   1.394
 3954SOL     OW12760   5.258   5.293   5.184
 3954SOL    HW112761   5.243   5.253   5.275
 3954SOL    HW212762   5.356   5.301   5.166
 3955SOL     OW12763   3.045   5.231   6.251
 3955SOL    HW112764   3.096   5.307   6.292
 3955SOL    HW212765   3.001   5.178   6.324
 3956SOL     OW12766   0.073   0.925   3.012
 3956SOL    HW112767   0.111   0.922   3.105
 3956SOL    HW212768   0.090   0.838   2.966
 3957SOL     OW12769   4.617   6.427   3.754
 3957SOL    HW112770   4.689   6.417   3.823
 3957SOL    HW212771   4.573   6.339   3.739
 3958SOL     OW12772   5.467   0.570   5.776
 3958SOL    HW112773   5.550   0.522   5.749
 3958SOL    HW212774   5.478   0.608   5.868
 3959SOL     OW12775   4.079   6.541   0.871
 3959SOL    HW112776   4.116   6.630   0.899
 3959SOL    HW212777   4.153   6.481   0.842
 3960SOL     OW12778   4.537   1.276   6.925
 3960SOL    HW112779   4.493   1.349   6.978
 3960SOL    HW212780   4.488   1.261   6.840
 3961SOL     OW12781   5.299   2.338   2.580
 3961SOL    HW112782   5.335   2.428   2.556
 3961SOL    HW212783   5.241   2.346   2.661
 3962SOL     OW12784   2.675   4.653   6.857
 3962SOL    HW112785   2.768   4.681   6.833
 3962SOL    HW212786   2.657   4.675   6.953
 3963SOL     OW12787   4.636   4.793   4.292
 3963SOL    HW112788   4.619   4.783   4.194
 3963SOL    HW212789   4.733   4.812   4.308
 3964SOL     OW12790   3.809   5.045   3.621
 3964SOL    HW112791   3.874   5.104   3.573
 3964SOL    HW212792   3.716   5.065   3.591
 3965SOL     OW12793   4.769   3.306   6.000
 3965SOL    HW112794   4.799   3.213   5.977
 3965SOL    HW212795   4.673   3.303   6.030
 3966SOL     OW12796   5.146   5.856   0.702
 3966SOL    HW112797   5.127   5.946   0.741
 3966SOL    HW212798   5.080   5.836   0.630
 3967SOL     OW12799   1.488   3.749   2.162
 3967SOL    HW112800   1.420   3.716   2.097
 3967SOL    HW212801   1.576   3.763   2.115
 3968SOL     OW12802   4.885   0.349   0.902
 3968SOL    HW112803   4.821   0.340   0.825
 3968SOL    HW212804   4.841   0.318   0.986
 3969SOL     OW12805   1.496   3.862   2.556
 3969SOL    HW112806   1.549   3.806   2.492
 3969SOL    HW212807   1.539   3.861   2.646
 3970SOL     OW12808   5.755   5.747   3.826
 3970SOL    HW112809   5.766   5.719   3.730
 3970SOL    HW212810   5.833   5.802   3.854
 3971SOL     OW12811   2.449   4.884   1.700
 3971SOL    HW112812   2.474   4.980   1.690
 3971SOL    HW212813   2.502   4.843   1.774
 3972SOL     OW12814   0.900   5.255   0.421
 3972SOL    HW112815   0.990   5.210   0.418
 3972SOL    HW212816   0.899   5.330   0.355
 3973SOL     OW12817   1.056   4.781   5.826
 3973SOL    HW112818   1.083   4.706   5.766
 3973SOL    HW212819   1.116   4.860   5.810
 3974SOL     OW12820   1.378   1.021   4.380
 3974SOL    HW112821   1.350   1.112   4.350
 3974SOL    HW212822   1.477   1.016   4.385
 3975SOL     OW12823   6.085   0.916   5.078
 3975SOL    HW112824   6.182   0.940   5.068
 3975SOL    HW212825   6.063   0.909   5.175
 3976SOL     OW12826   1.483   6.531   1.679
 3976SOL    HW112827   1.393   6.551   1.717
 3976SOL    HW212828   1.511   6.606   1.618
 3977SOL     OW12829   2.744   4.223   5.340
 3977SOL    HW112830   2.682   4.299   5.358
 3977SOL    HW212831   2.836   4.259   5.325
 3978SOL     OW12832   5.381   6.102   5.138
 3978SOL    HW112833   5.423   6.018   5.174
 3978SOL    HW212834   5.336   6.151   5.212
 3979SOL     OW12835   3.053   5.806   0.438
 3979SOL    HW112836   3.079   5.742   0.366
 3979SOL    HW212837   2.989   5.761   0.500
 3980SOL     OW12838   0.255   5.427   0.240
 3980SOL    HW112839   0.248   5.484   0.322
 3980SOL    HW212840   0.292   5.338   0.265
 3981SOL     OW12841   2.186   1.060   0.551
 3981SOL    HW112842   2.251   1.114   0.497
 3981SOL    HW212843   2.093   1.073   0.515
 3982SOL     OW12844   1.770   0.107   4.329
 3982SOL    HW112845   1.683   0.151   4.355
 3982SOL    HW212846   1.758   0.008   4.328
 3983SOL     OW12847   5.142   5.253   4.487
 3983SOL    HW112848   5.200   5.221   4.562
 3983SOL    HW212849   5.121   5.350   4.499
 3984SOL     OW12850   6.778   1.069   2.849
 3984SOL    HW112851   6.866   1.098   2.887
 3984SOL    HW212852   6.744   1.140   2.787
 3985SOL     OW12853   3.768   4.511   6.642
 3985SOL    HW112854   3.749   4.413   6.649
 3985SOL    HW212855   3.682   4.561   6.632
 3986SOL     OW12856   6.483   1.942   3.246
 3986SOL    HW112857   6.408   2.006   3.258
 3986SOL    HW212858   6.465   1.859   3.299
 3987SOL     OW12859   2.968   5.346   3.524
 3987SOL    HW112860   2.927   5.426   3.481
 3987SOL    HW212861   2.927   5.263   3.486
 3988SOL     OW12862   4.279   4.100   0.014
 3988SOL    HW112863   4.329   4.020   0.049
 3988SOL    HW212864   4.343   4.163   6.997
 3989SOL     OW12865   6.681   2.699   6.936
 3989SOL    HW112866   6.666   2.685   6.838
 3989SOL    HW212867   6.643   2.622   6.987
 3990SOL     OW12868   5.277   2.327   3.420
 3990SOL    HW112869   5.201   2.268   3.446
 3990SOL    HW212870   5.266   2.355   3.325
 3991SOL     OW12871   5.558   0.864   2.321
 3991SOL    HW112872   5.549   0.941   2.384
 3991SOL    HW212873   5.597   0.896   2.235
 3992SOL     OW12874   3.922   2.424   6.919
 3992SOL    HW112875   4.011   2.468   6.905
 3992SOL    HW212876   3.932   2.349   6.985
 3993SOL     OW12877   1.057   1.300   2.868
 3993SOL    HW112878   1.151   1.313   2.837
 3993SOL    HW212879   1.030   1.375   2.929
 3994SOL     OW12880   0.826   0.781   6.099
 3994SOL    HW112881   0.785   0.872   6.094
 3994SOL    HW212882   0.904   0.783   6.161
 3995SOL     OW12883   2.066   3.503   5.262
 3995SOL    HW112884   1.981   3.550   5.235
 3995SOL    HW212885   2.054   3.404   5.252
 3996SOL     OW12886   1.085   1.084   3.908
 3996SOL    HW112887   1.122   1.007   3.856
 3996SOL    HW212888   1.046   1.051   3.994
 3997SOL     OW12889   4.991   1.147   3.777
 3997SOL    HW112890   4.969   1.231   3.826
 3997SOL    HW212891   4.937   1.143   3.692
 3998SOL     OW12892   4.076   1.368   3.895
 3998SOL    HW112893   4.158   1.351   3.841
 3998SOL    HW212894   4.053   1.286   3.948
 3999SOL     OW12895   5.915   3.388   3.881
 3999SOL    HW112896   5.974   3.311   3.904
 3999SOL    HW212897   5.915   3.401   3.781
 4000SOL     OW12898   3.273   5.916   2.926
 4000SOL    HW112899   3.208   5.933   2.999
 4000SOL    HW212900   3.337   5.993   2.919
 4001SOL     OW12901   2.447   2.267   4.030
 4001SOL    HW112902   2.510   2.256   3.953
 4001SOL    HW212903   2.498   2.261   4.116
 4002SOL     OW12904   3.046   3.350   0.873
 4002SOL    HW112905   3.053   3.398   0.960
 4002SOL    HW212906   2.950   3.329   0.854
 4003SOL     OW12907   3.120   6.159   3.867
 4003SOL    HW112908   3.146   6.203   3.954
 4003SOL    HW212909   3.114   6.060   3.881
 4004SOL     OW12910   5.256   1.835   4.698
 4004SOL    HW112911   5.158   1.837   4.715
 4004SOL    HW212912   5.286   1.740   4.686
 4005SOL     OW12913   4.347   5.501   0.318
 4005SOL    HW112914   4.399   5.438   0.376
 4005SOL    HW212915   4.373   5.595   0.339
 4006SOL     OW12916   3.623   5.644   3.316
 4006SOL    HW112917   3.720   5.636   3.339
 4006SOL    HW212918   3.589   5.732   3.347
 4007SOL     OW12919   0.582   2.600   0.815
 4007SOL    HW112920   0.585   2.688   0.863
 4007SOL    HW212921   0.557   2.616   0.719
 4008SOL     OW12922   2.940   1.910   3.756
 4008SOL    HW112923   2.950   1.967   3.838
 4008SOL    HW212924   2.994   1.827   3.766
 4009SOL     OW12925   5.284   3.348   1.338
 4009SOL    HW112926   5.256   3.272   1.280
 4009SOL    HW212927   5.327   3.312   1.421
 4010SOL     OW12928   2.593   2.874   1.521
 4010SOL    HW112929   2.581   2.951   1.584
 4010SOL    HW212930   2.516   2.871   1.457
 4011SOL     OW12931   0.386   0.777   2.500
 4011SOL    HW112932   0.370   0.812   2.407
 4011SOL    HW212933   0.410   0.680   2.495
 4012SOL     OW12934   4.354   5.840   1.455
 4012SOL    HW112935   4.368   5.741   1.462
 4012SOL    HW212936   4.353   5.867   1.359
 4013SOL     OW12937   2.495   0.191   5.643
 4013SOL    HW112938   2.568   0.230   5.587
 4013SOL    HW212939   2.460   0.109   5.599
 4014SOL     OW12940   4.730   6.050   2.833
 4014SOL    HW112941   4.687   6.141   2.838
 4014SOL    HW212942   4.732   6.019   2.738
 4015SOL     OW12943   4.995   5.317   6.103
 4015SOL    HW112944   5.083   5.295   6.145
 4015SOL    HW212945   4.962   5.405   6.138
 4016SOL     OW12946   2.731   5.634   6.418
 4016SOL    HW112947   2.670   5.712   6.405
 4016SOL    HW212948   2.683   5.564   6.470
 4017SOL     OW12949   0.545   5.964   0.682
 4017SOL    HW112950   0.603   5.883   0.689
 4017SOL    HW212951   0.467   5.944   0.623
 4018SOL     OW12952   5.177   6.187   3.315
 4018SOL    HW112953   5.102   6.224   3.370
 4018SOL    HW212954   5.147   6.102   3.272
 4019SOL     OW12955   5.856   3.699   2.753
 4019SOL    HW112956   5.949   3.735   2.745
 4019SOL    HW212957   5.816   3.731   2.839
 4020SOL     OW12958   5.161   2.018   5.886
 4020SOL    HW112959   5.163   2.083   5.962
 4020SOL    HW212960   5.164   2.069   5.799
 4021SOL     OW12961   3.577   4.138   6.423
 4021SOL    HW112962   3.480   4.150   6.403
 4021SOL    HW212963   3.625   4.109   6.340
 4022SOL     OW12964   4.166   0.469   6.795
 4022SOL    HW112965   4.183   0.384   6.845
 4022SOL    HW212966   4.178   0.452   6.697
 4023SOL     OW12967   6.242   1.768   4.811
 4023SOL    HW112968   6.339   1.768   4.837
 4023SOL    HW212969   6.187   1.743   4.890
 4024SOL     OW12970   3.418   6.127   2.967
 4024SOL    HW112971   3.395   6.222   2.949
 4024SOL    HW212972   3.489   6.097   2.903
 4025SOL     OW12973   1.105   6.174   3.755
 4025SOL    HW112974   1.032   6.206   3.694
 4025SOL    HW212975   1.188   6.158   3.703
 4026SOL     OW12976   6.048   5.877   4.148
 4026SOL    HW112977   5.999   5.878   4.061
 4026SOL    HW212978   6.091   5.788   4.161
 4027SOL     OW12979   3.683   4.156   2.012
 4027SOL    HW112980   3.754   4.118   1.952
 4027SOL    HW212981   3.629   4.222   1.961
 4028SOL     OW12982   1.287   1.818   3.934
 4028SOL    HW112983   1.221   1.887   3.902
 4028SOL    HW212984   1.353   1.799   3.861
 4029SOL     OW12985   1.927   4.450   6.568
 4029SOL    HW112986   2.018   4.487   6.586
 4029SOL    HW212987   1.857   4.507   6.611
 4030SOL     OW12988   1.411   1.897   6.008
 4030SOL    HW112989   1.440   1.948   6.089
 4030SOL    HW212990   1.365   1.813   6.037
 4031SOL     OW12991   4.943   6.018   3.274
 4031SOL    HW112992   5.017   5.954   3.257
 4031SOL    HW212993   4.949   6.053   3.367
 4032SOL     OW12994   6.288   6.943   2.917
 4032SOL    HW112995   6.337   6.859   2.895
 4032SOL    HW212996   6.334   6.990   2.993
 4033SOL     OW12997   3.583   2.944   3.715
 4033SOL    HW112998   3.681   2.965   3.711
 4033SOL    HW212999   3.549   2.929   3.622
 4034SOL     OW13000   5.576   1.297   5.309
 4034SOL    HW113001   5.501   1.233   5.330
 4034SOL    HW213002   5.658   1.269   5.357
 4035SOL     OW13003   6.699   3.864   1.122
 4035SOL    HW113004   6.667   3.957   1.140
 4035SOL    HW213005   6.798   3.865   1.108
 4036SOL     OW13006   5.608   6.838   2.241
 4036SOL    HW113007   5.597   6.816   2.144
 4036SOL    HW213008   5.538   6.790   2.294
 4037SOL     OW13009   2.201   2.631   0.419
 4037SOL    HW113010   2.283   2.573   0.415
 4037SOL    HW213011   2.229   2.726   0.428
 4038SOL     OW13012   4.852   4.726   2.271
 4038SOL    HW113013   4.855   4.753   2.175
 4038SOL    HW213014   4.814   4.634   2.279
 4039SOL     OW13015   4.921   5.268   1.136
 4039SOL    HW113016   4.870   5.183   1.149
 4039SOL    HW213017   5.016   5.254   1.164
 4040SOL     OW13018   2.789   6.837   7.017
 4040SOL    HW113019   2.808   6.934   7.001
 4040SOL    HW213020   2.869   6.793   0.030
 4041SOL     OW13021   1.643   6.467   2.236
 4041SOL    HW113022   1.728   6.497   2.278
 4041SOL    HW213023   1.574   6.453   2.307
 4042SOL     OW13024   6.360   4.418   2.444
 4042SOL    HW113025   6.386   4.453   2.535
 4042SOL    HW213026   6.342   4.494   2.383
 4043SOL     OW13027   5.802   2.276   3.816
 4043SOL    HW113028   5.784   2.373   3.797
 4043SOL    HW213029   5.837   2.232   3.734
 4044SOL     OW13030   6.248   0.570   4.725
 4044SOL    HW113031   6.238   0.475   4.756
 4044SOL    HW213032   6.322   0.613   4.776
 4045SOL     OW13033   2.603   4.181   5.974
 4045SOL    HW113034   2.568   4.215   5.886
 4045SOL    HW213035   2.657   4.252   6.018
 4046SOL     OW13036   0.756   1.685   3.081
 4046SOL    HW113037   0.795   1.666   2.991
 4046SOL    HW213038   0.797   1.767   3.119
 4047SOL     OW13039   2.618   3.611   0.712
 4047SOL    HW113040   2.658   3.555   0.784
 4047SOL    HW213041   2.524   3.581   0.695
 4048SOL     OW13042   5.760   1.038   1.849
 4048SOL    HW113043   5.849   0.999   1.873
 4048SOL    HW213044   5.761   1.137   1.867
 4049SOL     OW13045   6.493   6.209   6.791
 4049SOL    HW113046   6.523   6.128   6.841
 4049SOL    HW213047   6.561   6.281   6.799
 4050SOL     OW13048   1.712   6.610   6.767
 4050SOL    HW113049   1.759   6.697   6.750
 4050SOL    HW213050   1.765   6.535   6.727
 4051SOL     OW13051   2.829   3.864   0.262
 4051SOL    HW113052   2.918   3.817   0.257
 4051SOL    HW213053   2.784   3.840   0.348
 4052SOL     OW13054   1.279   0.212   1.079
 4052SOL    HW113055   1.231   0.282   1.132
 4052SOL    HW213056   1.228   0.192   0.996
 4053SOL     OW13057   3.250   4.974   3.793
 4053SOL    HW113058   3.280   4.941   3.883
 4053SOL    HW213059   3.330   4.985   3.734
 4054SOL     OW13060   2.829   3.243   0.708
 4054SOL    HW113061   2.770   3.294   0.646
 4054SOL    HW213062   2.919   3.230   0.665
 4055SOL     OW13063   2.751   3.203   5.939
 4055SOL    HW113064   2.703   3.251   6.012
 4055SOL    HW213065   2.685   3.163   5.875
 4056SOL     OW13066   4.541   3.139   6.769
 4056SOL    HW113067   4.600   3.133   6.849
 4056SOL    HW213068   4.553   3.229   6.726
 4057SOL     OW13069   5.626   3.549   0.895
 4057SOL    HW113070   5.565   3.514   0.966
 4057SOL    HW213071   5.624   3.649   0.897
 4058SOL     OW13072   2.243   1.314   4.894
 4058SOL    HW113073   2.199   1.396   4.931
 4058SOL    HW213074   2.336   1.307   4.932
 4059SOL     OW13075   2.227   2.145   3.420
 4059SOL    HW113076   2.211   2.151   3.322
 4059SOL    HW213077   2.271   2.057   3.442
 4060SOL     OW13078   3.461   5.083   4.827
 4060SOL    HW113079   3.414   5.158   4.873
 4060SOL    HW213080   3.550   5.067   4.871
 4061SOL     OW13081   3.367   4.526   1.632
 4061SOL    HW113082   3.351   4.428   1.644
 4061SOL    HW213083   3.425   4.560   1.706
 4062SOL     OW13084   4.532   1.384   3.302
 4062SOL    HW113085   4.444   1.340   3.285
 4062SOL    HW213086   4.597   1.316   3.337
 4063SOL     OW13087   4.310   6.231   6.159
 4063SOL    HW113088   4.335   6.253   6.065
 4063SOL    HW213089   4.259   6.308   6.199
 4064SOL     OW13090   2.285   7.013   2.712
 4064SOL    HW113091   2.234   0.070   2.703
 4064SOL    HW213092   2.234   6.938   2.670
 4065SOL     OW13093   0.579   7.012   0.525
 4065SOL    HW113094   0.539   6.925   0.555
 4065SOL    HW213095   0.673   7.019   0.559
 4066SOL     OW13096   5.574   4.948   1.651
 4066SOL    HW113097   5.666   4.953   1.688
 4066SOL    HW213098   5.541   5.040   1.629
 4067SOL     OW13099   5.318   1.886   3.320
 4067SOL    HW113100   5.238   1.936   3.286
 4067SOL    HW213101   5.386   1.879   3.247
 4068SOL     OW13102   4.646   0.269   5.039
 4068SOL    HW113103   4.714   0.302   5.105
 4068SOL    HW213104   4.568   0.229   5.088
 4069SOL     OW13105   4.585   4.204   0.694
 4069SOL    HW113106   4.635   4.159   0.620
 4069SOL    HW213107   4.497   4.236   0.660
 4070SOL     OW13108   1.735   3.216   2.567
 4070SOL    HW113109   1.680   3.241   2.488
 4070SOL    HW213110   1.744   3.116   2.571
 4071SOL     OW13111   1.390   0.719   5.389
 4071SOL    HW113112   1.441   0.660   5.326
 4071SOL    HW213113   1.303   0.676   5.411
 4072SOL     OW13114   1.815   6.712   4.493
 4072SOL    HW113115   1.904   6.679   4.526
 4072SOL    HW213116   1.767   6.757   4.569
 4073SOL     OW13117   1.930   5.486   5.779
 4073SOL    HW113118   1.881   5.498   5.693
 4073SOL    HW213119   1.896   5.404   5.825
 4074SOL     OW13120   0.175   2.746   1.987
 4074SOL    HW113121   0.146   2.801   2.065
 4074SOL    HW213122   0.271   2.722   1.996
 4075SOL     OW13123   4.622   1.957   2.438
 4075SOL    HW113124   4.628   2.038   2.380
 4075SOL    HW213125   4.698   1.895   2.417
 4076SOL     OW13126   2.339   4.194   5.348
 4076SOL    HW113127   2.349   4.166   5.444
 4076SOL    HW213128   2.362   4.117   5.288
 4077SOL     OW13129   2.941   6.641   0.570
 4077SOL    HW113130   2.963   6.738   0.578
 4077SOL    HW213131   2.996   6.600   0.497
 4078SOL     OW13132   6.355   4.973   2.024
 4078SOL    HW113133   6.277   4.934   1.975
 4078SOL    HW213134   6.331   5.065   2.056
 4079SOL     OW13135   1.304   0.422   3.495
 4079SOL    HW113136   1.393   0.455   3.465
 4079SOL    HW213137   1.233   0.455   3.432
 4080SOL     OW13138   2.975   4.051   0.544
 4080SOL    HW113139   2.920   4.127   0.579
 4080SOL    HW213140   3.016   4.003   0.621
 4081SOL     OW13141   2.294   0.807   5.104
 4081SOL    HW113142   2.225   0.762   5.048
 4081SOL    HW213143   2.385   0.773   5.078
 4082SOL     OW13144   1.258   1.709   6.159
 4082SOL    HW113145   1.283   1.617   6.191
 4082SOL    HW213146   1.171   1.704   6.111
 4083SOL     OW13147   6.075   4.550   3.218
 4083SOL    HW113148   5.999   4.497   3.256
 4083SOL    HW213149   6.132   4.585   3.292
 4084SOL     OW13150   4.864   3.108   3.203
 4084SOL    HW113151   4.841   3.013   3.182
 4084SOL    HW213152   4.812   3.139   3.282
 4085SOL     OW13153   2.583   5.614   1.164
 4085SOL    HW113154   2.616   5.646   1.253
 4085SOL    HW213155   2.565   5.516   1.168
 4086SOL     OW13156   0.030   5.193   0.005
 4086SOL    HW113157   0.076   5.193   6.944
 4086SOL    HW213158   0.012   5.287   0.034
 4087SOL     OW13159   3.303   0.369   2.835
 4087SOL    HW113160   3.245   0.401   2.910
 4087SOL    HW213161   3.399   0.388   2.857
 4088SOL     OW13162   6.412   1.100   5.563
 4088SOL    HW113163   6.364   1.136   5.483
 4088SOL    HW213164   6.423   1.173   5.630
 4089SOL     OW13165   6.955   5.594   4.283
 4089SOL    HW113166   0.010   5.538   4.287
 4089SOL    HW213167   6.921   5.610   4.376
 4090SOL     OW13168   2.071   6.799   5.017
 4090SOL    HW113169   2.054   6.898   5.019
 4090SOL    HW213170   2.004   6.755   4.958
 4091SOL     OW13171   1.035   4.999   0.734
 4091SOL    HW113172   1.083   4.942   0.667
 4091SOL    HW213173   1.093   5.075   0.761
 4092SOL     OW13174   4.902   3.125   4.920
 4092SOL    HW113175   4.893   3.037   4.872
 4092SOL    HW213176   4.918   3.198   4.853
 4093SOL     OW13177   6.226   5.697   1.680
 4093SOL    HW113178   6.128   5.691   1.699
 4093SOL    HW213179   6.277   5.675   1.763
 4094SOL     OW13180   0.257   4.575   6.758
 4094SOL    HW113181   0.278   4.478   6.769
 4094SOL    HW213182   0.334   4.630   6.791
 4095SOL     OW13183   0.452   3.342   6.969
 4095SOL    HW113184   0.394   3.396   6.907
 4095SOL    HW213185   0.504   3.404   7.027
 4096SOL     OW13186   2.324   1.255   6.596
 4096SOL    HW113187   2.235   1.297   6.579
 4096SOL    HW213188   2.368   1.301   6.674
 4097SOL     OW13189   6.242   4.430   5.371
 4097SOL    HW113190   6.151   4.399   5.398
 4097SOL    HW213191   6.247   4.530   5.378
 4098SOL     OW13192   2.018   3.328   1.536
 4098SOL    HW113193   2.043   3.242   1.492
 4098SOL    HW213194   2.059   3.404   1.487
 4099SOL     OW13195   4.322   5.011   0.139
 4099SOL    HW113196   4.392   5.077   0.110
 4099SOL    HW213197   4.240   5.061   0.168
 4100SOL     OW13198   0.890   0.977   3.684
 4100SOL    HW113199   0.925   1.062   3.722
 4100SOL    HW213200   0.790   0.980   3.682
 4101SOL     OW13201   6.430   0.636   6.436
 4101SOL    HW113202   6.390   0.727   6.430
 4101SOL    HW213203   6.484   0.628   6.520
 4102SOL     OW13204   2.170   0.734   0.256
 4102SOL    HW113205   2.226   0.711   0.336
 4102SOL    HW213206   2.219   0.799   0.199
 4103SOL     OW13207   0.012   6.933   2.123
 4103SOL    HW113208   7.010   6.863   2.058
 4103SOL    HW213209   6.974   7.008   2.123
 4104SOL     OW13210   0.010   5.628   2.988
 4104SOL    HW113211   0.074   5.676   2.928
 4104SOL    HW213212   0.038   5.640   3.083
 4105SOL     OW13213   4.783   1.377   1.603
 4105SOL    HW113214   4.856   1.444   1.589
 4105SOL    HW213215   4.821   1.292   1.639
 4106SOL     OW13216   6.909   2.304   4.185
 4106SOL    HW113217   6.828   2.357   4.208
 4106SOL    HW213218   6.928   2.312   4.087
 4107SOL     OW13219   0.391   6.277   6.588
 4107SOL    HW113220   0.302   6.276   6.542
 4107SOL    HW213221   0.380   6.246   6.683
 4108SOL     OW13222   0.748   5.544   3.691
 4108SOL    HW113223   0.664   5.539   3.746
 4108SOL    HW213224   0.825   5.564   3.751
 4109SOL     OW13225   6.080   5.466   3.740
 4109SOL    HW113226   6.057   5.518   3.822
 4109SOL    HW213227   6.148   5.516   3.686
 4110SOL     OW13228   4.787   2.905   6.902
 4110SOL    HW113229   4.766   2.930   6.808
 4110SOL    HW213230   4.753   2.813   6.920
 4111SOL     OW13231   6.160   5.399   6.331
 4111SOL    HW113232   6.219   5.322   6.308
 4111SOL    HW213233   6.141   5.400   6.429
 4112SOL     OW13234   4.960   6.668   4.720
 4112SOL    HW113235   4.961   6.592   4.785
 4112SOL    HW213236   4.869   6.675   4.679
 4113SOL     OW13237   4.138   5.336   4.906
 4113SOL    HW113238   4.078   5.308   4.981
 4113SOL    HW213239   4.082   5.370   4.829
 4114SOL     OW13240   6.138   1.671   3.492
 4114SOL    HW113241   6.062   1.667   3.428
 4114SOL    HW213242   6.129   1.753   3.549
 4115SOL     OW13243   3.007   4.817   3.513
 4115SOL    HW113244   2.964   4.787   3.598
 4115SOL    HW213245   3.048   4.907   3.525
 4116SOL     OW13246   5.277   2.168   3.070
 4116SOL    HW113247   5.297   2.259   3.035
 4116SOL    HW213248   5.228   2.175   3.157
 4117SOL     OW13249   1.377   1.985   2.390
 4117SOL    HW113250   1.313   2.034   2.449
 4117SOL    HW213251   1.391   2.036   2.305
 4118SOL     OW13252   6.141   6.382   6.637
 4118SOL    HW113253   6.223   6.439   6.640
 4118SOL    HW213254   6.138   6.323   6.718
 4119SOL     OW13255   2.836   0.788   3.626
 4119SOL    HW113256   2.867   0.780   3.531
 4119SOL    HW213257   2.916   0.791   3.686
 4120SOL     OW13258   3.729   1.511   6.445
 4120SOL    HW113259   3.819   1.472   6.465
 4120SOL    HW213260   3.690   1.467   6.364
 4121SOL     OW13261   6.755   6.281   2.312
 4121SOL    HW113262   6.838   6.269   2.367
 4121SOL    HW213263   6.762   6.225   2.229
 4122SOL     OW13264   0.201   5.889   4.795
 4122SOL    HW113265   0.143   5.821   4.751
 4122SOL    HW213266   0.265   5.844   4.857
 4123SOL     OW13267   3.922   5.573   4.484
 4123SOL    HW113268   4.020   5.567   4.466
 4123SOL    HW213269   3.875   5.602   4.400
 4124SOL     OW13270   6.689   6.225   0.816
 4124SOL    HW113271   6.697   6.317   0.855
 4124SOL    HW213272   6.697   6.231   0.716
 4125SOL     OW13273   4.970   2.810   2.863
 4125SOL    HW113274   5.039   2.774   2.800
 4125SOL    HW213275   4.879   2.788   2.830
 4126SOL     OW13276   1.628   3.026   2.233
 4126SOL    HW113277   1.583   3.108   2.269
 4126SOL    HW213278   1.610   2.949   2.294
 4127SOL     OW13279   4.089   2.070   4.242
 4127SOL    HW113280   4.076   1.975   4.212
 4127SOL    HW213281   4.047   2.082   4.332
 4128SOL     OW13282   0.401   3.121   1.847
 4128SOL    HW113283   0.439   3.036   1.883
 4128SOL    HW213284   0.304   3.126   1.870
 4129SOL     OW13285   3.182   2.497   0.435
 4129SOL    HW113286   3.221   2.405   0.441
 4129SOL    HW213287   3.090   2.492   0.396
 4130SOL     OW13288   6.320   2.864   0.583
 4130SOL    HW113289   6.254   2.920   0.533
 4130SOL    HW213290   6.376   2.813   0.519
 4131SOL     OW13291   6.018   0.705   2.724
 4131SOL    HW113292   6.012   0.793   2.678
 4131SOL    HW213293   6.043   0.719   2.820
 4132SOL     OW13294   6.068   4.448   3.926
 4132SOL    HW113295   6.017   4.476   4.008
 4132SOL    HW213296   6.088   4.351   3.932
 4133SOL     OW13297   5.166   6.146   1.140
 4133SOL    HW113298   5.232   6.073   1.161
 4133SOL    HW213299   5.186   6.185   1.051
 4134SOL     OW13300   2.210   3.598   0.929
 4134SOL    HW113301   2.112   3.593   0.910
 4134SOL    HW213302   2.246   3.507   0.947
 4135SOL     OW13303   0.575   1.928   2.452
 4135SOL    HW113304   0.492   1.982   2.438
 4135SOL    HW213305   0.550   1.835   2.479
 4136SOL     OW13306   0.821   3.632   1.444
 4136SOL    HW113307   0.838   3.718   1.396
 4136SOL    HW213308   0.740   3.641   1.502
 4137SOL     OW13309   1.628   2.923   0.081
 4137SOL    HW113310   1.537   2.883   0.073
 4137SOL    HW213311   1.661   2.950   7.018
 4138SOL     OW13312   4.008   5.251   1.254
 4138SOL    HW113313   4.031   5.165   1.208
 4138SOL    HW213314   4.068   5.263   1.334
 4139SOL     OW13315   1.459   2.183   3.872
 4139SOL    HW113316   1.486   2.128   3.952
 4139SOL    HW213317   1.391   2.250   3.900
 4140SOL     OW13318   3.064   2.116   3.547
 4140SOL    HW113319   3.064   2.128   3.646
 4140SOL    HW213320   3.023   2.028   3.525
 4141SOL     OW13321   4.919   6.861   6.541
 4141SOL    HW113322   4.999   6.822   6.495
 4141SOL    HW213323   4.950   6.931   6.606
 4142SOL     OW13324   6.683   3.625   1.753
 4142SOL    HW113325   6.745   3.663   1.821
 4142SOL    HW213326   6.589   3.633   1.785
 4143SOL     OW13327   5.747   3.209   0.817
 4143SOL    HW113328   5.782   3.118   0.841
 4143SOL    HW213329   5.815   3.278   0.840
 4144SOL     OW13330   5.313   1.523   0.767
 4144SOL    HW113331   5.312   1.426   0.789
 4144SOL    HW213332   5.380   1.541   0.695
 4145SOL     OW13333   1.222   6.117   0.518
 4145SOL    HW113334   1.233   6.180   0.441
 4145SOL    HW213335   1.131   6.075   0.513
 4146SOL     OW13336   6.178   6.872   4.056
 4146SOL    HW113337   6.170   6.864   3.957
 4146SOL    HW213338   6.262   6.826   4.086
 4147SOL     OW13339   5.699   4.438   6.044
 4147SOL    HW113340   5.749   4.515   6.083
 4147SOL    HW213341   5.630   4.406   6.109
 4148SOL     OW13342   2.997   0.073   5.445
 4148SOL    HW113343   3.007   0.085   5.347
 4148SOL    HW213344   2.920   0.129   5.477
 4149SOL     OW13345   0.883   2.799   0.903
 4149SOL    HW113346   0.891   2.721   0.840
 4149SOL    HW213347   0.918   2.881   0.859
 4150SOL     OW13348   6.560   2.715   5.526
 4150SOL    HW113349   6.619   2.749   5.599
 4150SOL    HW213350   6.537   2.619   5.542
 4151SOL     OW13351   2.038   0.023   4.995
 4151SOL    HW113352   2.109   0.065   4.938
 4151SOL    HW213353   1.948   0.058   4.967
 4152SOL     OW13354   3.712   5.381   1.801
 4152SOL    HW113355   3.809   5.355   1.802
 4152SOL    HW213356   3.679   5.383   1.706
 4153SOL     OW13357   6.638   5.168   1.204
 4153SOL    HW113358   6.583   5.094   1.165
 4153SOL    HW213359   6.595   5.201   1.288
 4154SOL     OW13360   0.233   5.864   3.121
 4154SOL    HW113361   0.257   5.815   3.037
 4154SOL    HW213362   0.134   5.859   3.136
 4155SOL     OW13363   6.554   2.101   1.345
 4155SOL    HW113364   6.503   2.180   1.377
 4155SOL    HW213365   6.605   2.061   1.421
 4156SOL     OW13366   6.288   5.276   5.156
 4156SOL    HW113367   6.278   5.180   5.180
 4156SOL    HW213368   6.227   5.298   5.080
 4157SOL     OW13369   6.211   6.003   2.216
 4157SOL    HW113370   6.135   5.999   2.281
 4157SOL    HW213371   6.266   6.085   2.234
 4158SOL     OW13372   1.837   2.888   1.442
 4158SOL    HW113373   1.915   2.883   1.505
 4158SOL    HW213374   1.752   2.879   1.493
 4159SOL     OW13375   2.866   2.047   2.757
 4159SOL    HW113376   2.906   2.029   2.847
 4159SOL    HW213377   2.896   2.137   2.725
 4160SOL     OW13378   5.800   0.330   6.866
 4160SOL    HW113379   5.829   0.425   6.876
 4160SOL    HW213380   5.838   0.275   6.940
 4161SOL     OW13381   2.002   2.126   1.689
 4161SOL    HW113382   2.004   2.028   1.706
 4161SOL    HW213383   2.063   2.172   1.755
 4162SOL     OW13384   6.214   5.879   0.928
 4162SOL    HW113385   6.148   5.885   1.003
 4162SOL    HW213386   6.262   5.792   0.932
 4163SOL     OW13387   5.503   1.068   2.780
 4163SOL    HW113388   5.471   0.973   2.789
 4163SOL    HW213389   5.461   1.110   2.699
 4164SOL     OW13390   0.391   6.902   5.577
 4164SOL    HW113391   0.443   6.951   5.647
 4164SOL    HW213392   0.349   6.820   5.618
 4165SOL     OW13393   4.524   0.045   5.725
 4165SOL    HW113394   4.542   0.023   5.821
 4165SOL    HW213395   4.564   0.134   5.703
 4166SOL     OW13396   6.335   0.687   1.315
 4166SOL    HW113397   6.245   0.657   1.283
 4166SOL    HW213398   6.400   0.612   1.307
 4167SOL     OW13399   2.403   4.698   5.797
 4167SOL    HW113400   2.374   4.644   5.718
 4167SOL    HW213401   2.454   4.778   5.766
 4168SOL     OW13402   0.410   4.158   0.493
 4168SOL    HW113403   0.429   4.235   0.433
 4168SOL    HW213404   0.471   4.082   0.471
 4169SOL     OW13405   6.150   4.047   4.970
 4169SOL    HW113406   6.200   3.962   4.988
 4169SOL    HW213407   6.205   4.125   4.998
 4170SOL     OW13408   4.838   2.960   5.183
 4170SOL    HW113409   4.879   3.038   5.135
 4170SOL    HW213410   4.739   2.971   5.186
 4171SOL     OW13411   1.301   4.794   0.950
 4171SOL    HW113412   1.340   4.835   0.868
 4171SOL    HW213413   1.201   4.798   0.944
 4172SOL     OW13414   3.066   3.074   0.683
 4172SOL    HW113415   3.101   3.075   0.776
 4172SOL    HW213416   3.141   3.093   0.619
 4173SOL     OW13417   4.717   2.862   5.679
 4173SOL    HW113418   4.764   2.878   5.592
 4173SOL    HW213419   4.644   2.928   5.690
 4174SOL     OW13420   4.757   1.494   2.953
 4174SOL    HW113421   4.796   1.464   3.040
 4174SOL    HW213422   4.816   1.564   2.912
 4175SOL     OW13423   1.324   4.646   5.291
 4175SOL    HW113424   1.333   4.590   5.208
 4175SOL    HW213425   1.397   4.624   5.355
 4176SOL     OW13426   4.523   6.679   0.982
 4176SOL    HW113427   4.623   6.674   0.979
 4176SOL    HW213428   4.489   6.610   1.046
 4177SOL     OW13429   5.287   4.898   4.504
 4177SOL    HW113430   5.330   4.826   4.448
 4177SOL    HW213431   5.195   4.869   4.531
 4178SOL     OW13432   4.747   0.251   2.699
 4178SOL    HW113433   4.663   0.252   2.752
 4178SOL    HW213434   4.725   0.263   2.602
 4179SOL     OW13435   5.797   4.079   3.648
 4179SOL    HW113436   5.824   4.163   3.600
 4179SOL    HW213437   5.847   4.074   3.735
 4180SOL     OW13438   5.125   3.215   0.921
 4180SOL    HW113439   5.037   3.259   0.939
 4180SOL    HW213440   5.122   3.120   0.951
 4181SOL     OW13441   5.363   1.109   6.686
 4181SOL    HW113442   5.324   1.179   6.746
 4181SOL    HW213443   5.327   1.120   6.593
 4182SOL     OW13444   0.245   5.405   3.707
 4182SOL    HW113445   0.249   5.504   3.700
 4182SOL    HW213446   0.336   5.369   3.729
 4183SOL     OW13447   2.663   1.011   0.705
 4183SOL    HW113448   2.753   1.030   0.743
 4183SOL    HW213449   2.600   0.986   0.779
 4184SOL     OW13450   3.831   0.346   2.302
 4184SOL    HW113451   3.771   0.309   2.232
 4184SOL    HW213452   3.788   0.426   2.344
 4185SOL     OW13453   0.522   4.072   2.846
 4185SOL    HW113454   0.468   4.077   2.930
 4185SOL    HW213455   0.537   4.164   2.810
 4186SOL     OW13456   3.036   5.871   6.238
 4186SOL    HW113457   3.021   5.777   6.266
 4186SOL    HW213458   3.018   5.932   6.315
 4187SOL     OW13459   2.973   3.659   6.971
 4187SOL    HW113460   3.072   3.656   6.955
 4187SOL    HW213461   2.930   3.583   6.921
 4188SOL     OW13462   5.312   0.640   5.111
 4188SOL    HW113463   5.245   0.566   5.106
 4188SOL    HW213464   5.265   0.728   5.113
 4189SOL     OW13465   3.561   4.968   3.903
 4189SOL    HW113466   3.530   4.962   3.808
 4189SOL    HW213467   3.489   4.936   3.964
 4190SOL     OW13468   0.789   6.649   0.890
 4190SOL    HW113469   0.826   6.559   0.870
 4190SOL    HW213470   0.768   6.697   0.805
 4191SOL     OW13471   5.453   3.773   5.464
 4191SOL    HW113472   5.390   3.784   5.387
 4191SOL    HW213473   5.528   3.713   5.438
 4192SOL     OW13474   1.582   1.594   2.137
 4192SOL    HW113475   1.531   1.511   2.159
 4192SOL    HW213476   1.553   1.629   2.048
 4193SOL     OW13477   5.620   0.769   0.546
 4193SOL    HW113478   5.592   0.859   0.578
 4193SOL    HW213479   5.720   0.761   0.552
 4194SOL     OW13480   5.084   0.366   4.435
 4194SOL    HW113481   5.034   0.373   4.348
 4194SOL    HW213482   5.118   0.456   4.461
 4195SOL     OW13483   4.114   5.218   1.532
 4195SOL    HW113484   4.185   5.241   1.465
 4195SOL    HW213485   4.088   5.300   1.583
 4196SOL     OW13486   7.003   2.410   2.710
 4196SOL    HW113487   0.058   2.447   2.752
 4196SOL    HW213488   6.928   2.412   2.777
 4197SOL     OW13489   4.206   4.888   5.795
 4197SOL    HW113490   4.194   4.815   5.729
 4197SOL    HW213491   4.304   4.904   5.811
 4198SOL     OW13492   0.072   1.303   1.809
 4198SOL    HW113493   7.027   1.297   1.877
 4198SOL    HW213494   0.136   1.227   1.822
 4199SOL     OW13495   1.133   2.177   5.487
 4199SOL    HW113496   1.073   2.116   5.540
 4199SOL    HW213497   1.121   2.271   5.519
 4200SOL     OW13498   2.921   0.581   5.955
 4200SOL    HW113499   2.921   0.644   6.032
 4200SOL    HW213500   2.984   0.614   5.884
 4201SOL     OW13501   6.162   0.334   3.597
 4201SOL    HW113502   6.208   0.245   3.596
 4201SOL    HW213503   6.147   0.363   3.692
 4202SOL     OW13504   2.774   5.210   6.690
 4202SOL    HW113505   2.742   5.164   6.607
 4202SOL    HW213506   2.763   5.148   6.768
 4203SOL     OW13507   5.190   4.328   0.672
 4203SOL    HW113508   5.174   4.374   0.759
 4203SOL    HW213509   5.191   4.229   0.686
 4204SOL     OW13510   3.982   3.551   5.327
 4204SOL    HW113511   4.030   3.629   5.287
 4204SOL    HW213512   3.918   3.512   5.261
 4205SOL     OW13513   4.023   6.186   5.213
 4205SOL    HW113514   4.089   6.259   5.233
 4205SOL    HW213515   4.055   6.133   5.134
 4206SOL     OW13516   6.565   1.905   5.047
 4206SOL    HW113517   6.579   1.851   5.130
 4206SOL    HW213518   6.584   1.848   4.967
 4207SOL     OW13519   2.127   3.026   1.595
 4207SOL    HW113520   2.130   3.081   1.512
 4207SOL    HW213521   2.197   3.058   1.659
 4208SOL     OW13522   0.034   3.635   5.862
 4208SOL    HW113523   0.065   3.675   5.948
 4208SOL    HW213524   0.061   3.694   5.786
 4209SOL     OW13525   0.103   6.499   3.111
 4209SOL    HW113526   0.115   6.527   3.206
 4209SOL    HW213527   0.175   6.434   3.086
 4210SOL     OW13528   3.942   3.257   2.748
 4210SOL    HW113529   3.893   3.175   2.778
 4210SOL    HW213530   3.996   3.293   2.824
 4211SOL     OW13531   3.331   1.092   5.249
 4211SOL    HW113532   3.301   1.155   5.321
 4211SOL    HW213533   3.403   1.136   5.195
 4212SOL     OW13534   6.508   2.173   3.497
 4212SOL    HW113535   6.556   2.211   3.418
 4212SOL    HW213536   6.552   2.088   3.525
 4213SOL     OW13537   3.060   0.242   2.763
 4213SOL    HW113538   3.145   0.291   2.742
 4213SOL    HW213539   3.014   0.217   2.677
 4214SOL     OW13540   0.552   5.801   5.231
 4214SOL    HW113541   0.650   5.800   5.248
 4214SOL    HW213542   0.515   5.892   5.253
 4215SOL     OW13543   4.904   6.846   5.137
 4215SOL    HW113544   4.906   6.922   5.072
 4215SOL    HW213545   4.809   6.824   5.159
 4216SOL     OW13546   1.157   0.866   2.377
 4216SOL    HW113547   1.101   0.835   2.300
 4216SOL    HW213548   1.241   0.813   2.381
 4217SOL     OW13549   1.230   0.695   2.635
 4217SOL    HW113550   1.282   0.627   2.685
 4217SOL    HW213551   1.278   0.719   2.550
 4218SOL     OW13552   3.383   0.169   1.448
 4218SOL    HW113553   3.393   0.257   1.493
 4218SOL    HW213554   3.458   0.109   1.476
 4219SOL     OW13555   4.346   5.876   4.479
 4219SOL    HW113556   4.399   5.831   4.407
 4219SOL    HW213557   4.390   5.860   4.567
 4220SOL     OW13558   6.089   3.387   2.032
 4220SOL    HW113559   6.016   3.448   2.001
 4220SOL    HW213560   6.177   3.420   1.995
 4221SOL     OW13561   6.143   4.573   5.751
 4221SOL    HW113562   6.080   4.630   5.803
 4221SOL    HW213563   6.160   4.488   5.801
 4222SOL     OW13564   6.594   0.876   3.281
 4222SOL    HW113565   6.596   0.944   3.355
 4222SOL    HW213566   6.558   0.917   3.198
 4223SOL     OW13567   4.002   3.761   0.859
 4223SOL    HW113568   4.065   3.832   0.891
 4223SOL    HW213569   3.935   3.742   0.930
 4224SOL     OW13570   5.491   5.326   4.715
 4224SOL    HW113571   5.430   5.254   4.680
 4224SOL    HW213572   5.532   5.375   4.638
 4225SOL     OW13573   2.042   2.456   4.986
 4225SOL    HW113574   2.047   2.545   5.031
 4225SOL    HW213575   2.030   2.385   5.056
 4226SOL     OW13576   0.846   6.108   2.916
 4226SOL    HW113577   0.926   6.112   2.976
 4226SOL    HW213578   0.766   6.081   2.970
 4227SOL     OW13579   4.101   5.875   1.632
 4227SOL    HW113580   4.184   5.858   1.580
 4227SOL    HW213581   4.124   5.914   1.721
 4228SOL     OW13582   0.171   6.280   5.634
 4228SOL    HW113583   0.153   6.349   5.564
 4228SOL    HW213584   0.089   6.267   5.690
 4229SOL     OW13585   4.850   5.759   5.733
 4229SOL    HW113586   4.872   5.721   5.823
 4229SOL    HW213587   4.814   5.851   5.743
 4230SOL     OW13588   1.930   6.673   3.042
 4230SOL    HW113589   1.938   6.575   3.024
 4230SOL    HW213590   2.018   6.718   3.027
 4231SOL     OW13591   5.219   6.942   5.971
 4231SOL    HW113592   5.257   6.854   5.944
 4231SOL    HW213593   5.235   7.009   5.898
 4232SOL     OW13594   1.434   4.236   3.629
 4232SOL    HW113595   1.472   4.327   3.648
 4232SOL    HW213596   1.494   4.188   3.565
 4233SOL     OW13597   6.821   0.704   5.635
 4233SOL    HW113598   6.829   0.659   5.545
 4233SOL    HW213599   6.768   0.788   5.625
 4234SOL     OW13600   2.298   5.267   5.197
 4234SOL    HW113601   2.369   5.297   5.133
 4234SOL    HW213602   2.281   5.169   5.184
 4235SOL     OW13603   6.840   4.516   6.072
 4235SOL    HW113604   6.905   4.485   6.142
 4235SOL    HW213605   6.889   4.537   5.987
 4236SOL     OW13606   6.411   4.657   1.924
 4236SOL    HW113607   6.393   4.698   2.013
 4236SOL    HW213608   6.364   4.569   1.917
 4237SOL     OW13609   6.479   4.931   3.923
 4237SOL    HW113610   6.490   4.923   3.824
 4237SOL    HW213611   6.547   4.874   3.969
 4238SOL     OW13612   1.286   6.779   2.718
 4238SOL    HW113613   1.296   6.764   2.620
 4238SOL    HW213614   1.320   6.871   2.741
 4239SOL     OW13615   4.946   1.440   3.371
 4239SOL    HW113616   4.942   1.413   3.275
 4239SOL    HW213617   5.017   1.510   3.382
 4240SOL     OW13618   2.095   5.607   0.520
 4240SOL    HW113619   2.072   5.694   0.477
 4240SOL    HW213620   2.012   5.552   0.532
 4241SOL     OW13621   5.773   1.216   0.888
 4241SOL    HW113622   5.863   1.259   0.901
 4241SOL    HW213623   5.703   1.287   0.882
 4242SOL     OW13624   2.968   2.030   4.030
 4242SOL    HW113625   2.869   2.028   4.044
 4242SOL    HW213626   3.014   2.052   4.117
 4243SOL     OW13627   5.740   2.322   3.513
 4243SOL    HW113628   5.779   2.392   3.573
 4243SOL    HW213629   5.810   2.253   3.493
 4244SOL     OW13630   4.186   4.286   1.445
 4244SOL    HW113631   4.190   4.310   1.348
 4244SOL    HW213632   4.208   4.189   1.456
 4245SOL     OW13633   6.307   1.986   6.262
 4245SOL    HW113634   6.252   2.064   6.293
 4245SOL    HW213635   6.254   1.901   6.273
 4246SOL     OW13636   6.639   4.141   2.949
 4246SOL    HW113637   6.606   4.122   2.856
 4246SOL    HW213638   6.589   4.219   2.986
 4247SOL     OW13639   2.322   6.436   3.809
 4247SOL    HW113640   2.303   6.433   3.907
 4247SOL    HW213641   2.410   6.480   3.793
 4248SOL     OW13642   3.034   1.831   4.384
 4248SOL    HW113643   3.049   1.926   4.356
 4248SOL    HW213644   3.045   1.771   4.305
 4249SOL     OW13645   6.501   2.876   5.121
 4249SOL    HW113646   6.485   2.809   5.048
 4249SOL    HW213647   6.522   2.965   5.081
 4250SOL     OW13648   0.033   4.272   2.833
 4250SOL    HW113649   6.993   4.311   2.895
 4250SOL    HW213650   0.125   4.282   2.872
 4251SOL     OW13651   5.973   4.599   1.118
 4251SOL    HW113652   5.934   4.604   1.211
 4251SOL    HW213653   5.901   4.573   1.054
 4252SOL     OW13654   5.973   6.670   5.274
 4252SOL    HW113655   5.878   6.703   5.276
 4252SOL    HW213656   6.028   6.730   5.216
 4253SOL     OW13657   3.286   6.605   1.034
 4253SOL    HW113658   3.364   6.650   0.990
 4253SOL    HW213659   3.243   6.542   0.970
 4254SOL     OW13660   1.007   2.758   2.442
 4254SOL    HW113661   0.993   2.805   2.355
 4254SOL    HW213662   0.946   2.679   2.448
 4255SOL     OW13663   5.565   3.523   3.754
 4255SOL    HW113664   5.580   3.620   3.735
 4255SOL    HW213665   5.626   3.494   3.828
 4256SOL     OW13666   1.444   6.874   0.900
 4256SOL    HW113667   1.460   6.777   0.920
 4256SOL    HW213668   1.483   6.929   0.974
 4257SOL     OW13669   3.301   0.417   4.282
 4257SOL    HW113670   3.349   0.350   4.339
 4257SOL    HW213671   3.368   0.468   4.229
 4258SOL     OW13672   5.782   6.483   1.321
 4258SOL    HW113673   5.827   6.448   1.403
 4258SOL    HW213674   5.758   6.407   1.261
 4259SOL     OW13675   2.718   1.135   0.239
 4259SOL    HW113676   2.673   1.050   0.266
 4259SOL    HW213677   2.816   1.119   0.226
 4260SOL     OW13678   4.789   0.060   6.145
 4260SOL    HW113679   4.756   0.153   6.164
 4260SOL    HW213680   4.795   0.047   6.046
 4261SOL     OW13681   2.265   0.269   2.307
 4261SOL    HW113682   2.267   0.357   2.260
 4261SOL    HW213683   2.279   0.282   2.405
 4262SOL     OW13684   0.252   4.376   5.798
 4262SOL    HW113685   0.324   4.340   5.739
 4262SOL    HW213686   0.270   4.471   5.821
 4263SOL     OW13687   3.258   6.631   3.383
 4263SOL    HW113688   3.190   6.576   3.433
 4263SOL    HW213689   3.264   6.599   3.289
 4264SOL     OW13690   6.959   2.133   2.666
 4264SOL    HW113691   6.921   2.107   2.577
 4264SOL    HW213692   6.982   2.230   2.665
 4265SOL     OW13693   5.579   1.405   0.867
 4265SOL    HW113694   5.567   1.504   0.860
 4265SOL    HW213695   5.492   1.363   0.894
 4266SOL     OW13696   1.852   5.173   0.359
 4266SOL    HW113697   1.929   5.235   0.341
 4266SOL    HW213698   1.773   5.225   0.389
 4267SOL     OW13699   1.820   3.371   5.054
 4267SOL    HW113700   1.811   3.381   4.955
 4267SOL    HW213701   1.795   3.457   5.098
 4268SOL     OW13702   1.286   6.447   6.207
 4268SOL    HW113703   1.212   6.380   6.207
 4268SOL    HW213704   1.373   6.401   6.187
 4269SOL     OW13705   1.976   1.010   1.495
 4269SOL    HW113706   1.993   0.946   1.570
 4269SOL    HW213707   1.880   1.039   1.496
 4270SOL     OW13708   3.234   2.937   4.544
 4270SOL    HW113709   3.161   2.877   4.573
 4270SOL    HW213710   3.310   2.932   4.610
 4271SOL     OW13711   0.427   0.541   6.688
 4271SOL    HW113712   0.395   0.631   6.659
 4271SOL    HW213713   0.350   0.486   6.720
 4272SOL     OW13714   0.640   3.794   4.969
 4272SOL    HW113715   0.583   3.719   5.003
 4272SOL    HW213716   0.677   3.845   5.047
 4273SOL     OW13717   4.553   6.142   5.198
 4273SOL    HW113718   4.636   6.187   5.231
 4273SOL    HW213719   4.569   6.108   5.105
 4274SOL     OW13720   2.045   6.957   2.513
 4274SOL    HW113721   2.063   7.014   2.433
 4274SOL    HW213722   2.075   6.863   2.494
 4275SOL     OW13723   6.641   1.554   5.074
 4275SOL    HW113724   6.661   1.472   5.127
 4275SOL    HW213725   6.597   1.622   5.132
 4276SOL     OW13726   1.401   4.149   4.101
 4276SOL    HW113727   1.376   4.160   4.197
 4276SOL    HW213728   1.426   4.238   4.063
 4277SOL     OW13729   6.165   5.153   4.007
 4277SOL    HW113730   6.207   5.136   4.096
 4277SOL    HW213731   6.209   5.232   3.964
 4278SOL     OW13732   0.518   0.624   4.259
 4278SOL    HW113733   0.511   0.526   4.273
 4278SOL    HW213734   0.552   0.642   4.166
 4279SOL     OW13735   3.153   6.884   5.216
 4279SOL    HW113736   3.077   6.858   5.276
 4279SOL    HW213737   3.128   6.965   5.164
 4280SOL     OW13738   5.384   0.792   5.446
 4280SOL    HW113739   5.460   0.797   5.510
 4280SOL    HW213740   5.402   0.719   5.379
 4281SOL     OW13741   1.834   5.100   4.283
 4281SOL    HW113742   1.862   5.136   4.194
 4281SOL    HW213743   1.741   5.066   4.278
 4282SOL     OW13744   3.512   3.256   0.021
 4282SOL    HW113745   3.608   3.238   0.001
 4282SOL    HW213746   3.455   3.216   6.976
 4283SOL     OW13747   2.234   1.230   3.866
 4283SOL    HW113748   2.326   1.198   3.845
 4283SOL    HW213749   2.237   1.292   3.945
 4284SOL     OW13750   4.667   5.673   1.548
 4284SOL    HW113751   4.692   5.688   1.452
 4284SOL    HW213752   4.568   5.660   1.555
 4285SOL     OW13753   1.110   0.274   5.783
 4285SOL    HW113754   1.036   0.255   5.719
 4285SOL    HW213755   1.128   0.372   5.787
 4286SOL     OW13756   4.861   5.710   6.842
 4286SOL    HW113757   4.841   5.627   6.894
 4286SOL    HW213758   4.912   5.686   6.759
 4287SOL     OW13759   5.725   1.292   6.912
 4287SOL    HW113760   5.714   1.200   6.949
 4287SOL    HW213761   5.658   1.308   6.840
 4288SOL     OW13762   1.096   6.079   3.134
 4288SOL    HW113763   1.094   5.980   3.117
 4288SOL    HW213764   1.166   6.100   3.203
 4289SOL     OW13765   6.426   3.177   0.915
 4289SOL    HW113766   6.458   3.198   1.008
 4289SOL    HW213767   6.388   3.085   0.913
 4290SOL     OW13768   2.782   0.038   2.501
 4290SOL    HW113769   2.699   0.035   2.557
 4290SOL    HW213770   2.771   7.004   2.423
 4291SOL     OW13771   4.235   3.791   1.480
 4291SOL    HW113772   4.313   3.784   1.542
 4291SOL    HW213773   4.232   3.710   1.421
 4292SOL     OW13774   6.356   4.224   6.719
 4292SOL    HW113775   6.264   4.194   6.692
 4292SOL    HW213776   6.351   4.316   6.757
 4293SOL     OW13777   0.615   2.837   0.311
 4293SOL    HW113778   0.582   2.826   0.218
 4293SOL    HW213779   0.538   2.855   0.372
 4294SOL     OW13780   3.438   2.476   6.951
 4294SOL    HW113781   3.464   2.554   7.008
 4294SOL    HW213782   3.338   2.471   6.946
 4295SOL     OW13783   3.582   6.239   4.841
 4295SOL    HW113784   3.647   6.176   4.798
 4295SOL    HW213785   3.591   6.329   4.800
 4296SOL     OW13786   3.986   0.806   0.574
 4296SOL    HW113787   3.995   0.744   0.653
 4296SOL    HW213788   3.897   0.793   0.531
 4297SOL     OW13789   5.569   0.896   6.620
 4297SOL    HW113790   5.532   0.963   6.684
 4297SOL    HW213791   5.552   0.803   6.655
 4298SOL     OW13792   2.972   5.985   6.489
 4298SOL    HW113793   2.898   5.934   6.533
 4298SOL    HW213794   2.936   6.070   6.451
 4299SOL     OW13795   0.526   2.911   0.040
 4299SOL    HW113796   0.480   2.940   6.983
 4299SOL    HW213797   0.603   2.851   0.016
 4300SOL     OW13798   3.692   0.660   0.188
 4300SOL    HW113799   3.641   0.600   0.127
 4300SOL    HW213800   3.727   0.606   0.265
 4301SOL     OW13801   3.187   1.493   1.019
 4301SOL    HW113802   3.243   1.453   0.947
 4301SOL    HW213803   3.202   1.592   1.023
 4302SOL     OW13804   1.085   6.934   5.368
 4302SOL    HW113805   1.137   6.882   5.435
 4302SOL    HW213806   1.005   6.974   5.412
 4303SOL     OW13807   5.792   4.914   3.915
 4303SOL    HW113808   5.752   5.006   3.916
 4303SOL    HW213809   5.804   4.883   3.821
 4304SOL     OW13810   2.972   3.795   4.112
 4304SOL    HW113811   2.986   3.832   4.203
 4304SOL    HW213812   2.932   3.865   4.052
 4305SOL     OW13813   6.268   0.926   4.191
 4305SOL    HW113814   6.184   0.877   4.166
 4305SOL    HW213815   6.244   1.012   4.237
 4306SOL     OW13816   6.344   3.695   6.716
 4306SOL    HW113817   6.332   3.748   6.800
 4306SOL    HW213818   6.436   3.653   6.716
 4307SOL     OW13819   5.012   3.285   6.426
 4307SOL    HW113820   5.088   3.350   6.414
 4307SOL    HW213821   4.930   3.334   6.453
 4308SOL     OW13822   5.401   5.599   6.401
 4308SOL    HW113823   5.392   5.500   6.388
 4308SOL    HW213824   5.435   5.617   6.494
 4309SOL     OW13825   1.339   1.497   0.117
 4309SOL    HW113826   1.382   1.483   0.028
 4309SOL    HW213827   1.408   1.491   0.189
 4310SOL     OW13828   1.683   2.360   2.942
 4310SOL    HW113829   1.597   2.406   2.921
 4310SOL    HW213830   1.701   2.366   3.040
 4311SOL     OW13831   1.762   5.870   3.336
 4311SOL    HW113832   1.823   5.947   3.349
 4311SOL    HW213833   1.748   5.854   3.238
 4312SOL     OW13834   1.173   4.815   0.582
 4312SOL    HW113835   1.209   4.845   0.494
 4312SOL    HW213836   1.130   4.725   0.571
 4313SOL     OW13837   5.029   1.545   1.513
 4313SOL    HW113838   5.103   1.537   1.579
 4313SOL    HW213839   4.999   1.640   1.509
 4314SOL     OW13840   5.768   1.320   4.236
 4314SOL    HW113841   5.825   1.317   4.154
 4314SOL    HW213842   5.752   1.416   4.261
 4315SOL     OW13843   2.662   0.110   1.728
 4315SOL    HW113844   2.657   0.192   1.785
 4315SOL    HW213845   2.757   0.080   1.721
 4316SOL     OW13846   5.121   0.161   0.918
 4316SOL    HW113847   5.179   0.224   0.970
 4316SOL    HW213848   5.036   0.207   0.893
 4317SOL     OW13849   4.390   1.526   4.774
 4317SOL    HW113850   4.490   1.518   4.772
 4317SOL    HW213851   4.359   1.521   4.869
 4318SOL     OW13852   1.133   3.138   3.668
 4318SOL    HW113853   1.118   3.221   3.723
 4318SOL    HW213854   1.121   3.057   3.727
 4319SOL     OW13855   2.511   2.916   0.142
 4319SOL    HW113856   2.486   2.825   0.175
 4319SOL    HW213857   2.429   2.974   0.140
 4320SOL     OW13858   0.733   6.072   2.303
 4320SOL    HW113859   0.679   6.095   2.222
 4320SOL    HW213860   0.737   6.152   2.363
 4321SOL     OW13861   6.947   0.225   4.237
 4321SOL    HW113862   6.997   0.241   4.152
 4321SOL    HW213863   6.968   0.133   4.271
 4322SOL     OW13864   6.052   2.017   6.641
 4322SOL    HW113865   6.098   2.068   6.713
 4322SOL    HW213866   5.953   2.023   6.654
 4323SOL     OW13867   4.903   4.079   1.455
 4323SOL    HW113868   4.905   3.994   1.402
 4323SOL    HW213869   4.809   4.111   1.463
 4324SOL     OW13870   5.894   3.939   6.380
 4324SOL    HW113871   5.868   3.917   6.286
 4324SOL    HW213872   5.845   4.021   6.410
 4325SOL     OW13873   1.869   0.818   0.897
 4325SOL    HW113874   1.927   0.899   0.893
 4325SOL    HW213875   1.773   0.845   0.890
 4326SOL     OW13876   5.555   3.073   4.588
 4326SOL    HW113877   5.523   3.129   4.512
 4326SOL    HW213878   5.631   3.016   4.558
 4327SOL     OW13879   6.037   5.459   2.229
 4327SOL    HW113880   6.008   5.446   2.134
 4327SOL    HW213881   5.965   5.428   2.291
 4328SOL     OW13882   4.280   3.786   6.218
 4328SOL    HW113883   4.293   3.885   6.231
 4328SOL    HW213884   4.185   3.763   6.235
 4329SOL     OW13885   4.249   1.446   6.690
 4329SOL    HW113886   4.173   1.436   6.754
 4329SOL    HW213887   4.321   1.380   6.713
 4330SOL     OW13888   2.800   0.526   4.808
 4330SOL    HW113889   2.844   0.510   4.896
 4330SOL    HW213890   2.847   0.598   4.759
 4331SOL     OW13891   4.747   3.061   0.919
 4331SOL    HW113892   4.782   3.004   0.993
 4331SOL    HW213893   4.814   3.132   0.897
 4332SOL     OW13894   5.522   4.777   2.473
 4332SOL    HW113895   5.479   4.690   2.498
 4332SOL    HW213896   5.478   4.813   2.390
 4333SOL     OW13897   4.125   0.683   5.368
 4333SOL    HW113898   4.165   0.773   5.354
 4333SOL    HW213899   4.160   0.644   5.454
 4334SOL     OW13900   1.770   1.937   2.676
 4334SOL    HW113901   1.765   2.024   2.626
 4334SOL    HW213902   1.862   1.927   2.714
 4335SOL     OW13903   3.357   4.143   3.666
 4335SOL    HW113904   3.358   4.138   3.566
 4335SOL    HW213905   3.437   4.194   3.697
 4336SOL     OW13906   1.086   6.483   5.881
 4336SOL    HW113907   1.142   6.553   5.925
 4336SOL    HW213908   1.111   6.393   5.917
 4337SOL     OW13909   0.856   4.295   0.549
 4337SOL    HW113910   0.794   4.223   0.518
 4337SOL    HW213911   0.905   4.264   0.631
 4338SOL     OW13912   4.838   5.686   3.916
 4338SOL    HW113913   4.768   5.653   3.979
 4338SOL    HW213914   4.881   5.768   3.955
 4339SOL     OW13915   6.510   3.689   5.218
 4339SOL    HW113916   6.561   3.727   5.295
 4339SOL    HW213917   6.491   3.593   5.236
 4340SOL     OW13918   6.044   4.297   1.805
 4340SOL    HW113919   5.975   4.238   1.846
 4340SOL    HW213920   6.004   4.385   1.782
 4341SOL     OW13921   0.798   5.723   2.227
 4341SOL    HW113922   0.781   5.819   2.203
 4341SOL    HW213923   0.728   5.665   2.186
 4342SOL     OW13924   6.427   3.714   3.758
 4342SOL    HW113925   6.392   3.649   3.826
 4342SOL    HW213926   6.350   3.753   3.707
 4343SOL     OW13927   2.357   6.288   6.155
 4343SOL    HW113928   2.426   6.299   6.083
 4343SOL    HW213929   2.386   6.217   6.218
 4344SOL     OW13930   1.652   5.365   3.102
 4344SOL    HW113931   1.617   5.332   3.014
 4344SOL    HW213932   1.738   5.413   3.088
 4345SOL     OW13933   1.882   3.013   5.415
 4345SOL    HW113934   1.976   3.003   5.447
 4345SOL    HW213935   1.881   3.034   5.317
 4346SOL     OW13936   1.850   3.207   2.104
 4346SOL    HW113937   1.813   3.295   2.074
 4346SOL    HW213938   1.852   3.204   2.204
 4347SOL     OW13939   5.802   0.005   2.830
 4347SOL    HW113940   5.723   0.036   2.882
 4347SOL    HW213941   5.772   6.981   2.750
 4348SOL     OW13942   0.169   3.998   3.189
 4348SOL    HW113943   0.074   3.997   3.220
 4348SOL    HW213944   0.179   3.939   3.109
 4349SOL     OW13945   6.628   2.364   2.579
 4349SOL    HW113946   6.638   2.265   2.588
 4349SOL    HW213947   6.599   2.402   2.667
 4350SOL     OW13948   5.070   2.309   3.757
 4350SOL    HW113949   5.160   2.270   3.739
 4350SOL    HW213950   5.079   2.406   3.779
 4351SOL     OW13951   2.150   6.786   1.323
 4351SOL    HW113952   2.239   6.803   1.281
 4351SOL    HW213953   2.114   6.872   1.360
 4352SOL     OW13954   0.556   2.561   2.466
 4352SOL    HW113955   0.528   2.524   2.555
 4352SOL    HW213956   0.531   2.658   2.461
 4353SOL     OW13957   3.501   4.053   0.098
 4353SOL    HW113958   3.529   4.054   0.002
 4353SOL    HW213959   3.558   4.118   0.150
 4354SOL     OW13960   2.272   6.479   5.497
 4354SOL    HW113961   2.306   6.401   5.445
 4354SOL    HW213962   2.229   6.545   5.435
 4355SOL     OW13963   3.273   0.576   2.401
 4355SOL    HW113964   3.354   0.536   2.358
 4355SOL    HW213965   3.206   0.600   2.331
 4356SOL     OW13966   5.088   4.447   1.419
 4356SOL    HW113967   5.008   4.388   1.430
 4356SOL    HW213968   5.169   4.402   1.457
 4357SOL     OW13969   5.988   0.457   0.113
 4357SOL    HW113970   5.985   0.357   0.113
 4357SOL    HW213971   5.985   0.491   0.019
 4358SOL     OW13972   6.891   5.851   0.007
 4358SOL    HW113973   6.869   5.850   6.937
 4358SOL    HW213974   6.980   5.894   0.022
 4359SOL     OW13975   1.769   2.133   6.136
 4359SOL    HW113976   1.776   2.036   6.112
 4359SOL    HW213977   1.745   2.186   6.055
 4360SOL     OW13978   1.332   2.197   3.141
 4360SOL    HW113979   1.377   2.116   3.101
 4360SOL    HW213980   1.318   2.182   3.238
 4361SOL     OW13981   3.128   2.770   1.347
 4361SOL    HW113982   3.134   2.690   1.406
 4361SOL    HW213983   3.032   2.798   1.340
 4362SOL     OW13984   6.547   4.281   3.331
 4362SOL    HW113985   6.560   4.370   3.374
 4362SOL    HW213986   6.511   4.293   3.238
 4363SOL     OW13987   5.509   2.545   6.881
 4363SOL    HW113988   5.444   2.572   6.952
 4363SOL    HW213989   5.459   2.497   6.808
 4364SOL     OW13990   3.558   3.550   5.648
 4364SOL    HW113991   3.515   3.589   5.566
 4364SOL    HW213992   3.514   3.589   5.729
 4365SOL     OW13993   2.138   2.575   1.978
 4365SOL    HW113994   2.174   2.663   1.947
 4365SOL    HW213995   2.040   2.570   1.957
 4366SOL     OW13996   5.679   6.072   0.486
 4366SOL    HW113997   5.650   6.013   0.411
 4366SOL    HW213998   5.643   6.036   0.572
 4367SOL     OW13999   2.228   4.609   4.524
 4367SOL    HW114000   2.249   4.702   4.556
 4367SOL    HW214001   2.311   4.554   4.523
 4368SOL     OW14002   3.860   4.720   1.274
 4368SOL    HW114003   3.817   4.688   1.189
 4368SOL    HW214004   3.793   4.772   1.327
 4369SOL     OW14005   3.602   5.251   3.918
 4369SOL    HW114006   3.568   5.157   3.924
 4369SOL    HW214007   3.692   5.251   3.875
 4370SOL     OW14008   4.694   4.809   2.874
 4370SOL    HW114009   4.636   4.760   2.939
 4370SOL    HW214010   4.638   4.871   2.820
 4371SOL     OW14011   0.484   1.051   1.639
 4371SOL    HW114012   0.458   0.961   1.673
 4371SOL    HW214013   0.475   1.053   1.539
 4372SOL     OW14014   4.227   1.053   3.245
 4372SOL    HW114015   4.153   0.986   3.235
 4372SOL    HW214016   4.227   1.114   3.166
 4373SOL     OW14017   0.372   2.193   6.486
 4373SOL    HW114018   0.326   2.130   6.424
 4373SOL    HW214019   0.419   2.141   6.557
 4374SOL     OW14020   0.956   1.927   1.821
 4374SOL    HW114021   0.967   1.883   1.910
 4374SOL    HW214022   1.039   1.979   1.800
 4375SOL     OW14023   3.934   1.085   3.344
 4375SOL    HW114024   3.885   1.100   3.258
 4375SOL    HW214025   3.964   0.990   3.349
 4376SOL     OW14026   6.268   6.691   3.189
 4376SOL    HW114027   6.245   6.748   3.110
 4376SOL    HW214028   6.366   6.696   3.207
 4377SOL     OW14029   5.418   3.965   6.883
 4377SOL    HW114030   5.508   3.926   6.863
 4377SOL    HW214031   5.419   4.003   6.976
 4378SOL     OW14032   1.978   1.449   2.696
 4378SOL    HW114033   1.946   1.531   2.649
 4378SOL    HW214034   2.076   1.438   2.680
 4379SOL     OW14035   2.125   0.871   2.432
 4379SOL    HW114036   2.139   0.790   2.489
 4379SOL    HW214037   2.028   0.895   2.432
 4380SOL     OW14038   1.707   0.441   2.605
 4380SOL    HW114039   1.721   0.528   2.652
 4380SOL    HW214040   1.736   0.366   2.665
 4381SOL     OW14041   0.333   6.310   5.312
 4381SOL    HW114042   0.292   6.395   5.346
 4381SOL    HW214043   0.269   6.264   5.251
 4382SOL     OW14044   1.012   3.447   5.362
 4382SOL    HW114045   0.972   3.386   5.431
 4382SOL    HW214046   0.955   3.529   5.353
 4383SOL     OW14047   0.571   3.164   6.492
 4383SOL    HW114048   0.629   3.234   6.451
 4383SOL    HW214049   0.547   3.191   6.585
 4384SOL     OW14050   6.585   0.517   4.609
 4384SOL    HW114051   6.538   0.556   4.688
 4384SOL    HW214052   6.520   0.498   4.536
 4385SOL     OW14053   4.715   2.740   5.012
 4385SOL    HW114054   4.654   2.756   5.090
 4385SOL    HW214055   4.805   2.777   5.031
 4386SOL     OW14056   1.775   3.625   5.173
 4386SOL    HW114057   1.808   3.702   5.118
 4386SOL    HW214058   1.677   3.637   5.193
 4387SOL     OW14059   6.548   2.509   1.717
 4387SOL    HW114060   6.630   2.525   1.772
 4387SOL    HW214061   6.572   2.501   1.621
 4388SOL     OW14062   3.901   2.024   5.805
 4388SOL    HW114063   3.929   2.070   5.889
 4388SOL    HW214064   3.903   1.925   5.818
 4389SOL     OW14065   0.118   3.595   1.059
 4389SOL    HW114066   0.024   3.561   1.049
 4389SOL    HW214067   0.171   3.529   1.112
 4390SOL     OW14068   4.354   6.821   1.379
 4390SOL    HW114069   4.388   6.915   1.386
 4390SOL    HW214070   4.258   6.818   1.408
 4391SOL     OW14071   2.541   5.068   6.942
 4391SOL    HW114072   2.636   5.097   6.950
 4391SOL    HW214073   2.531   5.007   6.864
 4392SOL     OW14074   1.089   2.331   5.101
 4392SOL    HW114075   1.156   2.257   5.091
 4392SOL    HW214076   1.092   2.390   5.019
 4393SOL     OW14077   6.277   0.892   1.515
 4393SOL    HW114078   6.306   0.836   1.438
 4393SOL    HW214079   6.202   0.847   1.564
 4394SOL     OW14080   6.879   5.870   2.315
 4394SOL    HW114081   6.880   5.771   2.320
 4394SOL    HW214082   6.800   5.905   2.365
 4395SOL     OW14083   1.991   0.766   1.937
 4395SOL    HW114084   1.931   0.838   1.972
 4395SOL    HW214085   1.959   0.677   1.972
 4396SOL     OW14086   1.893   1.669   3.900
 4396SOL    HW114087   1.973   1.685   3.958
 4396SOL    HW214088   1.923   1.645   3.807
 4397SOL     OW14089   1.678   2.595   4.372
 4397SOL    HW114090   1.703   2.517   4.429
 4397SOL    HW214091   1.756   2.619   4.314
 4398SOL     OW14092   1.496   3.350   5.927
 4398SOL    HW114093   1.527   3.438   5.891
 4398SOL    HW214094   1.570   3.284   5.922
 4399SOL     OW14095   3.683   6.098   2.304
 4399SOL    HW114096   3.595   6.057   2.283
 4399SOL    HW214097   3.749   6.027   2.327
 4400SOL     OW14098   2.203   6.881   4.256
 4400SOL    HW114099   2.224   6.838   4.344
 4400SOL    HW214100   2.255   6.836   4.184
 4401SOL     OW14101   3.200   6.537   5.404
 4401SOL    HW114102   3.189   6.544   5.503
 4401SOL    HW214103   3.155   6.614   5.359
 4402SOL     OW14104   1.349   0.048   2.758
 4402SOL    HW114105   1.441   0.087   2.768
 4402SOL    HW214106   1.315   0.066   2.665
 4403SOL     OW14107   1.371   6.355   0.007
 4403SOL    HW114108   1.377   6.455   0.003
 4403SOL    HW214109   1.276   6.328   7.019
 4404SOL     OW14110   1.145   6.269   5.411
 4404SOL    HW114111   1.200   6.190   5.438
 4404SOL    HW214112   1.176   6.304   5.323
 4405SOL     OW14113   1.839   4.867   1.952
 4405SOL    HW114114   1.816   4.922   2.033
 4405SOL    HW214115   1.761   4.868   1.889
 4406SOL     OW14116   7.000   2.841   0.461
 4406SOL    HW114117   0.023   2.907   0.516
 4406SOL    HW214118   6.903   2.848   0.483
 4407SOL     OW14119   7.021   5.374   1.981
 4407SOL    HW114120   0.015   5.276   1.982
 4407SOL    HW214121   0.058   5.422   2.041
 4408SOL     OW14122   2.040   0.118   0.297
 4408SOL    HW114123   2.046   0.025   0.260
 4408SOL    HW214124   2.124   0.168   0.276
 4409SOL     OW14125   4.368   1.419   1.279
 4409SOL    HW114126   4.458   1.389   1.309
 4409SOL    HW214127   4.303   1.343   1.284
 4410SOL     OW14128   0.619   5.618   6.921
 4410SOL    HW114129   0.711   5.656   6.921
 4410SOL    HW214130   0.571   5.648   7.004
 4411SOL     OW14131   3.680   4.289   5.265
 4411SOL    HW114132   3.642   4.306   5.356
 4411SOL    HW214133   3.766   4.339   5.254
 4412SOL     OW14134   4.540   6.312   4.101
 4412SOL    HW114135   4.551   6.279   4.007
 4412SOL    HW214136   4.614   6.276   4.157
 4413SOL     OW14137   5.562   5.425   3.728
 4413SOL    HW114138   5.519   5.509   3.762
 4413SOL    HW214139   5.621   5.448   3.651
 4414SOL     OW14140   3.360   5.801   1.142
 4414SOL    HW114141   3.416   5.722   1.168
 4414SOL    HW214142   3.303   5.777   1.064
 4415SOL     OW14143   4.503   3.278   0.477
 4415SOL    HW114144   4.525   3.196   0.529
 4415SOL    HW214145   4.404   3.293   0.478
 4416SOL     OW14146   4.533   1.824   3.890
 4416SOL    HW114147   4.621   1.836   3.843
 4416SOL    HW214148   4.498   1.913   3.919
 4417SOL     OW14149   5.498   4.037   3.569
 4417SOL    HW114150   5.488   3.970   3.643
 4417SOL    HW214151   5.583   4.088   3.582
 4418SOL     OW14152   6.211   2.063   3.028
 4418SOL    HW114153   6.115   2.087   3.046
 4418SOL    HW214154   6.231   1.975   3.069
 4419SOL     OW14155   6.265   0.017   5.873
 4419SOL    HW114156   6.325   0.005   5.793
 4419SOL    HW214157   6.235   6.955   5.906
 4420SOL     OW14158   3.951   1.584   2.138
 4420SOL    HW114159   3.961   1.677   2.103
 4420SOL    HW214160   3.872   1.579   2.200
 4421SOL     OW14161   1.852   1.565   5.149
 4421SOL    HW114162   1.832   1.508   5.070
 4421SOL    HW214163   1.832   1.661   5.127
 4422SOL     OW14164   1.005   4.500   6.423
 4422SOL    HW114165   0.913   4.512   6.462
 4422SOL    HW214166   1.042   4.411   6.452
 4423SOL     OW14167   0.321   3.994   5.690
 4423SOL    HW114168   0.267   4.000   5.606
 4423SOL    HW214169   0.394   4.063   5.687
 4424SOL     OW14170   5.273   6.841   4.585
 4424SOL    HW114171   5.369   6.850   4.559
 4424SOL    HW214172   5.251   6.744   4.598
 4425SOL     OW14173   2.092   4.680   0.457
 4425SOL    HW114174   2.043   4.766   0.446
 4425SOL    HW214175   2.157   4.688   0.533
 4426SOL     OW14176   0.765   1.506   4.202
 4426SOL    HW114177   0.771   1.605   4.192
 4426SOL    HW214178   0.689   1.483   4.263
 4427SOL     OW14179   5.675   6.832   3.212
 4427SOL    HW114180   5.629   6.784   3.137
 4427SOL    HW214181   5.751   6.885   3.176
 4428SOL     OW14182   4.311   0.716   4.246
 4428SOL    HW114183   4.385   0.649   4.246
 4428SOL    HW214184   4.285   0.737   4.152
 4429SOL     OW14185   3.212   0.034   2.572
 4429SOL    HW114186   3.302   0.073   2.594
 4429SOL    HW214187   3.156   0.103   2.527
 4430SOL     OW14188   5.025   4.551   5.081
 4430SOL    HW114189   5.066   4.460   5.083
 4430SOL    HW214190   5.047   4.600   5.165
 4431SOL     OW14191   2.930   0.804   3.352
 4431SOL    HW114192   3.017   0.794   3.303
 4431SOL    HW214193   2.910   0.901   3.364
 4432SOL     OW14194   2.714   3.381   6.171
 4432SOL    HW114195   2.791   3.442   6.151
 4432SOL    HW214196   2.628   3.433   6.165
 4433SOL     OW14197   6.798   2.782   4.315
 4433SOL    HW114198   6.734   2.805   4.242
 4433SOL    HW214199   6.834   2.866   4.356
 4434SOL     OW14200   5.494   1.752   3.075
 4434SOL    HW114201   5.529   1.722   3.164
 4434SOL    HW214202   5.570   1.786   3.019
 4435SOL     OW14203   4.220   3.540   1.358
 4435SOL    HW114204   4.272   3.460   1.388
 4435SOL    HW214205   4.150   3.512   1.293
 4436SOL     OW14206   4.151   1.225   1.304
 4436SOL    HW114207   4.082   1.264   1.243
 4436SOL    HW214208   4.111   1.209   1.394
 4437SOL     OW14209   1.082   3.157   2.901
 4437SOL    HW114210   1.100   3.113   2.989
 4437SOL    HW214211   1.052   3.251   2.916
 4438SOL     OW14212   4.675   6.784   6.228
 4438SOL    HW114213   4.583   6.823   6.217
 4438SOL    HW214214   4.737   6.854   6.265
 4439SOL     OW14215   0.038   4.704   1.824
 4439SOL    HW114216   0.023   4.703   1.923
 4439SOL    HW214217   0.111   4.640   1.801
 4440SOL     OW14218   2.515   5.010   0.716
 4440SOL    HW114219   2.444   5.025   0.784
 4440SOL    HW214220   2.596   5.064   0.740
 4441SOL     OW14221   0.216   1.299   1.037
 4441SOL    HW114222   0.140   1.287   1.100
 4441SOL    HW214223   0.226   1.396   1.014
 4442SOL     OW14224   1.260   5.624   4.706
 4442SOL    HW114225   1.181   5.681   4.683
 4442SOL    HW214226   1.234   5.527   4.700
 4443SOL     OW14227   1.271   3.327   5.603
 4443SOL    HW114228   1.303   3.399   5.665
 4443SOL    HW214229   1.209   3.366   5.536
 4444SOL     OW14230   4.355   3.518   0.039
 4444SOL    HW114231   4.436   3.538   0.094
 4444SOL    HW214232   4.369   3.433   7.015
 4445SOL     OW14233   1.050   6.065   6.829
 4445SOL    HW114234   0.972   6.025   6.781
 4445SOL    HW214235   1.118   6.095   6.762
 4446SOL     OW14236   5.684   2.194   0.558
 4446SOL    HW114237   5.660   2.102   0.588
 4446SOL    HW214238   5.656   2.207   0.463
 4447SOL     OW14239   6.075   4.007   4.731
 4447SOL    HW114240   6.132   3.945   4.678
 4447SOL    HW214241   6.122   4.032   4.816
 4448SOL     OW14242   2.671   6.233   0.716
 4448SOL    HW114243   2.605   6.230   0.640
 4448SOL    HW214244   2.764   6.225   0.680
 4449SOL     OW14245   5.133   0.975   6.306
 4449SOL    HW114246   5.200   0.908   6.339
 4449SOL    HW214247   5.093   0.943   6.220
 4450SOL     OW14248   3.007   1.968   6.767
 4450SOL    HW114249   3.080   1.918   6.720
 4450SOL    HW214250   2.952   2.017   6.700
 4451SOL     OW14251   4.385   5.249   4.924
 4451SOL    HW114252   4.414   5.326   4.981
 4451SOL    HW214253   4.292   5.265   4.892
 4452SOL     OW14254   5.783   5.672   4.077
 4452SOL    HW114255   5.748   5.707   3.990
 4452SOL    HW214256   5.752   5.731   4.152
 4453SOL     OW14257   1.255   2.803   1.691
 4453SOL    HW114258   1.332   2.856   1.725
 4453SOL    HW214259   1.264   2.708   1.723
 4454SOL     OW14260   1.805   1.670   0.169
 4454SOL    HW114261   1.821   1.660   0.071
 4454SOL    HW214262   1.869   1.611   0.219
 4455SOL     OW14263   5.508   6.039   5.502
 4455SOL    HW114264   5.555   6.000   5.581
 4455SOL    HW214265   5.574   6.057   5.429
 4456SOL     OW14266   2.533   5.931   2.802
 4456SOL    HW114267   2.457   5.902   2.861
 4456SOL    HW214268   2.496   5.975   2.720
 4457SOL     OW14269   3.571   1.839   3.605
 4457SOL    HW114270   3.630   1.772   3.559
 4457SOL    HW214271   3.479   1.801   3.615
 4458SOL     OW14272   2.421   3.296   1.438
 4458SOL    HW114273   2.402   3.342   1.352
 4458SOL    HW214274   2.411   3.197   1.426
 4459SOL     OW14275   3.926   2.021   4.453
 4459SOL    HW114276   3.905   2.036   4.550
 4459SOL    HW214277   3.841   2.009   4.402
 4460SOL     OW14278   0.676   2.703   6.617
 4460SOL    HW114279   0.748   2.655   6.667
 4460SOL    HW214280   0.592   2.648   6.617
 4461SOL     OW14281   1.944   0.913   1.198
 4461SOL    HW114282   1.886   0.852   1.145
 4461SOL    HW214283   1.970   0.867   1.283
 4462SOL     OW14284   5.887   4.508   1.862
 4462SOL    HW114285   5.948   4.587   1.852
 4462SOL    HW214286   5.847   4.508   1.953
 4463SOL     OW14287   4.997   1.363   1.311
 4463SOL    HW114288   5.017   1.268   1.333
 4463SOL    HW214289   5.013   1.420   1.392
 4464SOL     OW14290   0.424   6.201   0.689
 4464SOL    HW114291   0.470   6.113   0.698
 4464SOL    HW214292   0.333   6.187   0.650
 4465SOL     OW14293   2.503   5.079   0.455
 4465SOL    HW114294   2.415   5.112   0.420
 4465SOL    HW214295   2.498   5.069   0.554
 4466SOL     OW14296   1.178   1.844   2.893
 4466SOL    HW114297   1.246   1.779   2.859
 4466SOL    HW214298   1.202   1.936   2.862
 4467SOL     OW14299   2.492   5.250   3.294
 4467SOL    HW114300   2.556   5.174   3.280
 4467SOL    HW214301   2.413   5.238   3.235
 4468SOL     OW14302   2.131   4.020   1.075
 4468SOL    HW114303   2.078   4.103   1.059
 4468SOL    HW214304   2.162   3.983   0.988
 4469SOL     OW14305   3.041   0.877   1.166
 4469SOL    HW114306   3.041   0.857   1.068
 4469SOL    HW214307   3.093   0.807   1.214
 4470SOL     OW14308   0.967   1.763   2.711
 4470SOL    HW114309   1.044   1.779   2.773
 4470SOL    HW214310   0.955   1.664   2.698
 4471SOL     OW14311   1.389   3.009   6.776
 4471SOL    HW114312   1.374   2.985   6.680
 4471SOL    HW214313   1.416   2.928   6.827
 4472SOL     OW14314   0.262   1.948   1.084
 4472SOL    HW114315   0.330   1.920   1.016
 4472SOL    HW214316   0.301   1.939   1.175
 4473SOL     OW14317   5.608   2.723   4.133
 4473SOL    HW114318   5.529   2.665   4.114
 4473SOL    HW214319   5.577   2.812   4.166
 4474SOL     OW14320   3.263   6.768   1.843
 4474SOL    HW114321   3.259   6.821   1.758
 4474SOL    HW214322   3.181   6.787   1.898
 4475SOL     OW14323   1.331   3.646   1.944
 4475SOL    HW114324   1.243   3.653   1.993
 4475SOL    HW214325   1.319   3.677   1.850
 4476SOL     OW14326   6.368   0.562   4.058
 4476SOL    HW114327   6.288   0.508   4.031
 4476SOL    HW214328   6.341   0.657   4.070
 4477SOL     OW14329   1.502   0.672   5.675
 4477SOL    HW114330   1.499   0.606   5.599
 4477SOL    HW214331   1.561   0.638   5.747
 4478SOL     OW14332   2.553   0.088   2.321
 4478SOL    HW114333   2.570   0.173   2.272
 4478SOL    HW214334   2.618   0.019   2.290
 4479SOL     OW14335   0.746   2.126   1.479
 4479SOL    HW114336   0.786   2.218   1.471
 4479SOL    HW214337   0.647   2.132   1.468
 4480SOL     OW14338   0.187   4.562   5.202
 4480SOL    HW114339   0.184   4.506   5.284
 4480SOL    HW214340   0.214   4.506   5.123
 4481SOL     OW14341   2.064   5.064   4.910
 4481SOL    HW114342   2.012   5.149   4.909
 4481SOL    HW214343   2.081   5.035   4.816
 4482SOL     OW14344   2.282   2.727   5.486
 4482SOL    HW114345   2.333   2.741   5.402
 4482SOL    HW214346   2.345   2.703   5.560
 4483SOL     OW14347   7.025   2.514   1.916
 4483SOL    HW114348   0.030   2.546   1.826
 4483SOL    HW214349   7.021   2.592   1.979
 4484SOL     OW14350   2.672   2.343   6.966
 4484SOL    HW114351   2.675   2.426   7.023
 4484SOL    HW214352   2.580   2.332   6.929
 4485SOL     OW14353   5.454   2.711   5.059
 4485SOL    HW114354   5.383   2.739   4.994
 4485SOL    HW214355   5.532   2.673   5.009
 4486SOL     OW14356   6.038   5.266   4.990
 4486SOL    HW114357   5.976   5.344   4.989
 4486SOL    HW214358   6.038   5.223   4.900
 4487SOL     OW14359   3.036   3.261   0.311
 4487SOL    HW114360   3.018   3.347   0.262
 4487SOL    HW214361   2.955   3.235   0.364
 4488SOL     OW14362   1.331   3.347   4.741
 4488SOL    HW114363   1.253   3.320   4.798
 4488SOL    HW214364   1.415   3.308   4.778
 4489SOL     OW14365   4.828   5.763   4.777
 4489SOL    HW114366   4.788   5.750   4.868
 4489SOL    HW214367   4.910   5.706   4.768
 4490SOL     OW14368   5.484   1.818   1.897
 4490SOL    HW114369   5.560   1.776   1.848
 4490SOL    HW214370   5.425   1.866   1.832
 4491SOL     OW14371   0.184   3.444   3.439
 4491SOL    HW114372   0.147   3.351   3.435
 4491SOL    HW214373   0.284   3.440   3.443
 4492SOL     OW14374   5.906   3.482   1.614
 4492SOL    HW114375   5.933   3.408   1.676
 4492SOL    HW214376   5.987   3.526   1.576
 4493SOL     OW14377   4.939   6.373   5.079
 4493SOL    HW114378   4.978   6.384   4.988
 4493SOL    HW214379   4.958   6.456   5.133
 4494SOL     OW14380   0.714   1.067   6.029
 4494SOL    HW114381   0.660   1.144   6.062
 4494SOL    HW214382   0.809   1.097   6.016
 4495SOL     OW14383   4.756   6.833   3.552
 4495SOL    HW114384   4.693   6.755   3.554
 4495SOL    HW214385   4.704   6.917   3.539
 4496SOL     OW14386   5.092   6.086   0.820
 4496SOL    HW114387   5.056   6.168   0.775
 4496SOL    HW214388   5.160   6.112   0.888
 4497SOL     OW14389   4.431   2.379   6.646
 4497SOL    HW114390   4.531   2.373   6.648
 4497SOL    HW214391   4.404   2.469   6.612
 4498SOL     OW14392   6.867   4.668   6.673
 4498SOL    HW114393   6.785   4.720   6.694
 4498SOL    HW214394   6.842   4.575   6.647
 4499SOL     OW14395   6.325   3.050   3.302
 4499SOL    HW114396   6.313   3.054   3.203
 4499SOL    HW214397   6.403   2.991   3.323
 4500SOL     OW14398   3.997   4.129   6.677
 4500SOL    HW114399   4.071   4.173   6.626
 4500SOL    HW214400   4.034   4.052   6.729
 4501SOL     OW14401   6.425   3.314   3.034
 4501SOL    HW114402   6.431   3.408   3.068
 4501SOL    HW214403   6.517   3.281   3.013
 4502SOL     OW14404   1.194   3.804   0.063
 4502SOL    HW114405   1.249   3.758   7.021
 4502SOL    HW214406   1.133   3.738   0.106
 4503SOL     OW14407   3.835   6.765   1.857
 4503SOL    HW114408   3.901   6.709   1.906
 4503SOL    HW214409   3.744   6.750   1.896
 4504SOL     OW14410   6.257   1.601   4.204
 4504SOL    HW114411   6.183   1.549   4.246
 4504SOL    HW214412   6.237   1.614   4.107
 4505SOL     OW14413   6.600   4.888   1.545
 4505SOL    HW114414   6.613   4.968   1.603
 4505SOL    HW214415   6.603   4.805   1.601
 4506SOL     OW14416   5.023   2.570   3.841
 4506SOL    HW114417   5.085   2.646   3.824
 4506SOL    HW214418   4.933   2.605   3.869
 4507SOL     OW14419   0.288   3.378   3.948
 4507SOL    HW114420   0.211   3.418   3.997
 4507SOL    HW214421   0.307   3.432   3.866
 4508SOL     OW14422   1.081   4.790   0.288
 4508SOL    HW114423   1.002   4.844   0.314
 4508SOL    HW214424   1.116   4.821   0.200
 4509SOL     OW14425   5.090   1.982   3.201
 4509SOL    HW114426   5.011   1.940   3.247
 4509SOL    HW214427   5.123   1.920   3.130
 4510SOL     OW14428   4.681   1.118   4.562
 4510SOL    HW114429   4.654   1.102   4.657
 4510SOL    HW214430   4.746   1.194   4.558
 4511SOL     OW14431   6.281   3.603   0.469
 4511SOL    HW114432   6.369   3.625   0.511
 4511SOL    HW214433   6.277   3.506   0.448
 4512SOL     OW14434   3.252   1.425   6.001
 4512SOL    HW114435   3.276   1.520   5.980
 4512SOL    HW214436   3.327   1.364   5.973
 4513SOL     OW14437   1.082   5.442   6.499
 4513SOL    HW114438   1.140   5.505   6.448
 4513SOL    HW214439   1.074   5.356   6.448
 4514SOL     OW14440   3.617   2.639   6.167
 4514SOL    HW114441   3.711   2.651   6.135
 4514SOL    HW214442   3.611   2.555   6.222
 4515SOL     OW14443   5.853   2.163   5.658
 4515SOL    HW114444   5.872   2.256   5.689
 4515SOL    HW214445   5.759   2.157   5.627
 4516SOL     OW14446   2.465   0.205   6.295
 4516SOL    HW114447   2.379   0.159   6.274
 4516SOL    HW214448   2.448   0.301   6.315
 4517SOL     OW14449   4.526   6.927   6.758
 4517SOL    HW114450   4.577   6.906   6.842
 4517SOL    HW214451   4.539   6.853   6.692
 4518SOL     OW14452   0.580   6.863   1.348
 4518SOL    HW114453   0.653   6.860   1.417
 4518SOL    HW214454   0.621   6.878   1.258
 4519SOL     OW14455   4.937   6.812   0.053
 4519SOL    HW114456   4.905   6.855   0.138
 4519SOL    HW214457   4.915   6.715   0.055
 4520SOL     OW14458   4.008   5.869   6.115
 4520SOL    HW114459   3.966   5.923   6.187
 4520SOL    HW214460   4.016   5.774   6.144
 4521SOL     OW14461   5.097   2.084   4.979
 4521SOL    HW114462   5.168   2.144   4.940
 4521SOL    HW214463   5.010   2.102   4.934
 4522SOL     OW14464   5.726   4.420   2.898
 4522SOL    HW114465   5.732   4.459   2.806
 4522SOL    HW214466   5.649   4.356   2.901
 4523SOL     OW14467   1.031   4.002   7.007
 4523SOL    HW114468   1.073   4.076   6.955
 4523SOL    HW214469   1.102   3.941   0.014
 4524SOL     OW14470   5.950   3.304   2.687
 4524SOL    HW114471   5.957   3.288   2.589
 4524SOL    HW214472   6.038   3.337   2.722
 4525SOL     OW14473   3.519   2.020   5.856
 4525SOL    HW114474   3.429   2.015   5.900
 4525SOL    HW214475   3.588   1.983   5.918
 4526SOL     OW14476   6.817   0.178   6.821
 4526SOL    HW114477   6.733   0.230   6.839
 4526SOL    HW214478   6.895   0.241   6.820
 4527SOL     OW14479   6.284   7.002   2.546
 4527SOL    HW114480   6.279   0.048   2.479
 4527SOL    HW214481   6.213   7.014   2.615
 4528SOL     OW14482   4.125   0.637   6.339
 4528SOL    HW114483   4.148   0.689   6.256
 4528SOL    HW214484   4.066   0.692   6.398
 4529SOL     OW14485   2.098   1.442   5.674
 4529SOL    HW114486   2.028   1.422   5.743
 4529SOL    HW214487   2.165   1.368   5.672
 4530SOL     OW14488   2.220   5.988   3.281
 4530SOL    HW114489   2.297   6.019   3.226
 4530SOL    HW214490   2.247   5.986   3.378
 4531SOL     OW14491   1.121   3.508   6.135
 4531SOL    HW114492   1.130   3.548   6.044
 4531SOL    HW214493   1.063   3.426   6.129
 4532SOL     OW14494   5.654   0.801   2.784
 4532SOL    HW114495   5.693   0.803   2.876
 4532SOL    HW214496   5.728   0.807   2.717
 4533SOL     OW14497   1.992   1.025   3.293
 4533SOL    HW114498   1.937   1.106   3.274
 4533SOL    HW214499   1.932   0.951   3.325
 4534SOL     OW14500   4.694   2.410   5.205
 4534SOL    HW114501   4.773   2.360   5.171
 4534SOL    HW214502   4.634   2.433   5.128
 4535SOL     OW14503   3.882   1.428   1.894
 4535SOL    HW114504   3.900   1.446   1.991
 4535SOL    HW214505   3.826   1.501   1.856
 4536SOL     OW14506   3.045   2.156   4.606
 4536SOL    HW114507   3.010   2.215   4.533
 4536SOL    HW214508   2.991   2.169   4.688
 4537SOL     OW14509   4.099   3.416   1.772
 4537SOL    HW114510   4.045   3.347   1.821
 4537SOL    HW214511   4.194   3.385   1.766
 4538SOL     OW14512   2.815   1.003   2.646
 4538SOL    HW114513   2.792   0.908   2.667
 4538SOL    HW214514   2.867   1.043   2.722
 4539SOL     OW14515   2.338   5.794   4.460
 4539SOL    HW114516   2.420   5.852   4.462
 4539SOL    HW214517   2.353   5.712   4.515
 4540SOL     OW14518   2.525   1.185   1.029
 4540SOL    HW114519   2.569   1.100   1.059
 4540SOL    HW214520   2.593   1.258   1.022
 4541SOL     OW14521   5.588   1.450   0.063
 4541SOL    HW114522   5.630   1.401   7.014
 4541SOL    HW214523   5.523   1.391   0.109
 4542SOL     OW14524   6.912   2.253   1.229
 4542SOL    HW114525   6.858   2.250   1.145
 4542SOL    HW214526   6.981   2.325   1.222
 4543SOL     OW14527   5.042   2.071   1.223
 4543SOL    HW114528   4.959   2.110   1.263
 4543SOL    HW214529   5.122   2.111   1.268
 4544SOL     OW14530   3.624   5.001   0.442
 4544SOL    HW114531   3.613   5.031   0.536
 4544SOL    HW214532   3.596   4.905   0.435
 4545SOL     OW14533   6.960   3.712   5.440
 4545SOL    HW114534   6.906   3.630   5.461
 4545SOL    HW214535   6.919   3.791   5.484
 4546SOL     OW14536   2.765   0.032   4.862
 4546SOL    HW114537   2.804   0.017   4.771
 4546SOL    HW214538   2.808   6.998   4.928
 4547SOL     OW14539   6.379   1.651   0.329
 4547SOL    HW114540   6.360   1.580   0.397
 4547SOL    HW214541   6.326   1.634   0.247
 4548SOL     OW14542   2.518   2.466   3.311
 4548SOL    HW114543   2.614   2.436   3.314
 4548SOL    HW214544   2.498   2.520   3.392
 4549SOL     OW14545   4.917   3.895   2.254
 4549SOL    HW114546   4.850   3.929   2.321
 4549SOL    HW214547   4.876   3.896   2.163
 4550SOL     OW14548   1.029   4.524   3.205
 4550SOL    HW114549   1.073   4.471   3.132
 4550SOL    HW214550   1.055   4.620   3.197
 4551SOL     OW14551   0.981   3.775   5.059
 4551SOL    HW114552   0.971   3.817   4.969
 4551SOL    HW214553   0.914   3.814   5.122
 4552SOL     OW14554   5.512   2.405   1.036
 4552SOL    HW114555   5.550   2.326   0.988
 4552SOL    HW214556   5.437   2.443   0.982
 4553SOL     OW14557   5.411   4.193   6.558
 4553SOL    HW114558   5.476   4.167   6.629
 4553SOL    HW214559   5.438   4.152   6.471
 4554SOL     OW14560   6.906   0.104   1.729
 4554SOL    HW114561   6.866   0.147   1.648
 4554SOL    HW214562   6.832   0.077   1.792
 4555SOL     OW14563   1.288   0.974   6.328
 4555SOL    HW114564   1.373   1.019   6.300
 4555SOL    HW214565   1.306   0.913   6.405
 4556SOL     OW14566   6.459   3.250   4.835
 4556SOL    HW114567   6.475   3.336   4.884
 4556SOL    HW214568   6.534   3.186   4.854
 4557SOL     OW14569   5.460   5.278   4.131
 4557SOL    HW114570   5.429   5.278   4.036
 4557SOL    HW214571   5.390   5.238   4.190
 4558SOL     OW14572   6.417   3.679   4.608
 4558SOL    HW114573   6.427   3.579   4.615
 4558SOL    HW214574   6.508   3.721   4.612
 4559SOL     OW14575   7.004   3.356   2.825
 4559SOL    HW114576   0.009   3.262   2.822
 4559SOL    HW214577   0.024   3.405   2.898
 4560SOL     OW14578   6.113   4.242   2.188
 4560SOL    HW114579   6.020   4.216   2.162
 4560SOL    HW214580   6.109   4.311   2.261
 4561SOL     OW14581   3.879   1.702   3.343
 4561SOL    HW114582   3.781   1.681   3.346
 4561SOL    HW214583   3.893   1.785   3.288
 4562SOL     OW14584   1.605   0.453   0.328
 4562SOL    HW114585   1.571   0.378   0.385
 4562SOL    HW214586   1.690   0.424   0.283
 4563SOL     OW14587   6.921   3.430   0.733
 4563SOL    HW114588   6.938   3.345   0.683
 4563SOL    HW214589   6.958   3.507   0.681
 4564SOL     OW14590   6.413   5.728   1.906
 4564SOL    HW114591   6.507   5.726   1.939
 4564SOL    HW214592   6.368   5.810   1.940
 4565SOL     OW14593   1.332   1.388   4.467
 4565SOL    HW114594   1.310   1.478   4.429
 4565SOL    HW214595   1.368   1.329   4.395
 4566SOL     OW14596   0.278   3.430   1.198
 4566SOL    HW114597   0.376   3.448   1.191
 4566SOL    HW214598   0.264   3.349   1.256
 4567SOL     OW14599   0.108   1.369   6.793
 4567SOL    HW114600   0.081   1.299   6.860
 4567SOL    HW214601   0.085   1.337   6.701
 4568SOL     OW14602   1.422   3.643   5.419
 4568SOL    HW114603   1.366   3.707   5.365
 4568SOL    HW214604   1.458   3.572   5.359
 4569SOL     OW14605   3.144   0.407   3.075
 4569SOL    HW114606   3.050   0.394   3.108
 4569SOL    HW214607   3.200   0.445   3.148
 4570SOL     OW14608   6.214   6.299   2.162
 4570SOL    HW114609   6.201   6.336   2.070
 4570SOL    HW214610   6.215   6.375   2.228
 4571SOL     OW14611   4.370   2.951   6.679
 4571SOL    HW114612   4.421   2.865   6.683
 4571SOL    HW214613   4.429   3.026   6.711
 4572SOL     OW14614   2.370   1.016   6.707
 4572SOL    HW114615   2.373   1.029   6.806
 4572SOL    HW214616   2.360   1.105   6.662
 4573SOL     OW14617   0.452   6.996   0.103
 4573SOL    HW114618   0.461   6.928   0.031
 4573SOL    HW214619   0.380   0.034   0.078
 4574SOL     OW14620   5.465   4.105   0.085
 4574SOL    HW114621   5.415   4.085   0.169
 4574SOL    HW214622   5.535   4.174   0.104
 4575SOL     OW14623   5.705   0.320   5.112
 4575SOL    HW114624   5.635   0.275   5.056
 4575SOL    HW214625   5.664   0.396   5.162
 4576SOL     OW14626   2.698   4.826   5.402
 4576SOL    HW114627   2.738   4.879   5.326
 4576SOL    HW214628   2.741   4.736   5.406
 4577SOL     OW14629   1.651   2.579   3.166
 4577SOL    HW114630   1.672   2.484   3.191
 4577SOL    HW214631   1.553   2.596   3.181
 4578SOL     OW14632   1.004   1.569   4.328
 4578SOL    HW114633   1.092   1.526   4.308
 4578SOL    HW214634   0.932   1.528   4.272
 4579SOL     OW14635   4.709   0.836   2.096
 4579SOL    HW114636   4.781   0.772   2.119
 4579SOL    HW214637   4.688   0.893   2.176
 4580SOL     OW14638   5.743   3.928   1.121
 4580SOL    HW114639   5.714   3.854   1.182
 4580SOL    HW214640   5.664   3.986   1.099
 4581SOL     OW14641   3.072   6.301   2.419
 4581SOL    HW114642   3.153   6.360   2.420
 4581SOL    HW214643   3.049   6.276   2.325
 4582SOL     OW14644   4.908   0.953   3.448
 4582SOL    HW114645   4.926   0.913   3.359
 4582SOL    HW214646   4.973   0.917   3.515
 4583SOL     OW14647   2.723   1.403   6.679
 4583SOL    HW114648   2.790   1.356   6.622
 4583SOL    HW214649   2.660   1.455   6.620
 4584SOL     OW14650   1.474   5.978   5.043
 4584SOL    HW114651   1.456   6.044   4.971
 4584SOL    HW214652   1.484   5.887   5.003
 4585SOL     OW14653   2.153   4.462   3.341
 4585SOL    HW114654   2.089   4.411   3.285
 4585SOL    HW214655   2.183   4.404   3.417
 4586SOL     OW14656   4.661   3.856   0.342
 4586SOL    HW114657   4.748   3.807   0.337
 4586SOL    HW214658   4.585   3.791   0.335
 4587SOL     OW14659   3.404   3.639   4.304
 4587SOL    HW114660   3.308   3.623   4.284
 4587SOL    HW214661   3.458   3.623   4.221
 4588SOL     OW14662   3.235   2.964   6.075
 4588SOL    HW114663   3.317   2.907   6.068
 4588SOL    HW214664   3.176   2.946   5.996
 4589SOL     OW14665   5.300   6.912   1.888
 4589SOL    HW114666   5.218   6.942   1.839
 4589SOL    HW214667   5.338   6.990   1.940
 4590SOL     OW14668   3.990   5.490   1.134
 4590SOL    HW114669   4.030   5.571   1.179
 4590SOL    HW214670   4.017   5.408   1.185
 4591SOL     OW14671   1.673   0.483   5.099
 4591SOL    HW114672   1.573   0.480   5.104
 4591SOL    HW214673   1.704   0.578   5.109
 4592SOL     OW14674   3.594   1.244   3.179
 4592SOL    HW114675   3.551   1.283   3.097
 4592SOL    HW214676   3.557   1.289   3.260
 4593SOL     OW14677   6.210   6.209   1.728
 4593SOL    HW114678   6.155   6.133   1.765
 4593SOL    HW214679   6.227   6.275   1.801
 4594SOL     OW14680   4.094   0.663   3.051
 4594SOL    HW114681   4.031   0.679   2.975
 4594SOL    HW214682   4.132   0.570   3.044
 4595SOL     OW14683   4.576   3.100   5.642
 4595SOL    HW114684   4.615   3.166   5.577
 4595SOL    HW214685   4.535   3.150   5.718
 4596SOL     OW14686   6.356   0.520   2.355
 4596SOL    HW114687   6.446   0.552   2.323
 4596SOL    HW214688   6.360   0.503   2.454
 4597SOL     OW14689   2.984   5.630   6.357
 4597SOL    HW114690   2.992   5.579   6.272
 4597SOL    HW214691   2.888   5.629   6.387
 4598SOL     OW14692   1.529   5.692   1.284
 4598SOL    HW114693   1.597   5.740   1.340
 4598SOL    HW214694   1.461   5.758   1.251
 4599SOL     OW14695   1.480   4.733   1.212
 4599SOL    HW114696   1.455   4.815   1.263
 4599SOL    HW214697   1.415   4.720   1.137
 4600SOL     OW14698   0.065   0.011   5.161
 4600SOL    HW114699   0.069   6.996   5.251
 4600SOL    HW214700   0.146   7.014   5.108
 4601SOL     OW14701   0.580   1.797   5.273
 4601SOL    HW114702   0.668   1.756   5.298
 4601SOL    HW214703   0.507   1.729   5.284
 4602SOL     OW14704   3.049   6.818   0.077
 4602SOL    HW114705   3.069   6.830   7.007
 4602SOL    HW214706   3.129   6.844   0.131
 4603SOL     OW14707   3.167   5.413   0.653
 4603SOL    HW114708   3.229   5.492   0.658
 4603SOL    HW214709   3.093   5.433   0.588
 4604SOL     OW14710   4.920   0.435   6.530
 4604SOL    HW114711   4.920   0.488   6.445
 4604SOL    HW214712   4.828   0.432   6.568
 4605SOL     OW14713   2.645   6.799   1.541
 4605SOL    HW114714   2.715   6.847   1.488
 4605SOL    HW214715   2.562   6.790   1.485
 4606SOL     OW14716   0.203   6.878   2.758
 4606SOL    HW114717   0.281   6.898   2.697
 4606SOL    HW214718   0.224   6.798   2.814
 4607SOL     OW14719   1.780   3.610   2.889
 4607SOL    HW114720   1.861   3.665   2.872
 4607SOL    HW214721   1.759   3.554   2.809
 4608SOL     OW14722   6.837   4.132   3.133
 4608SOL    HW114723   6.884   4.044   3.132
 4608SOL    HW214724   6.769   4.134   3.060
 4609SOL     OW14725   5.071   4.745   0.138
 4609SOL    HW114726   4.985   4.788   0.113
 4609SOL    HW214727   5.090   4.763   0.235
 4610SOL     OW14728   4.345   1.792   7.001
 4610SOL    HW114729   4.277   1.845   6.949
 4610SOL    HW214730   4.374   1.845   0.053
 4611SOL     OW14731   0.451   0.533   6.159
 4611SOL    HW114732   0.454   0.499   6.253
 4611SOL    HW214733   0.406   0.465   6.101
 4612SOL     OW14734   2.891   6.803   1.697
 4612SOL    HW114735   2.814   6.801   1.634
 4612SOL    HW214736   2.917   6.710   1.722
 4613SOL     OW14737   1.593   5.667   2.806
 4613SOL    HW114738   1.585   5.604   2.729
 4613SOL    HW214739   1.587   5.761   2.772
 4614SOL     OW14740   6.132   3.057   3.508
 4614SOL    HW114741   6.045   3.021   3.477
 4614SOL    HW214742   6.202   3.042   3.439
 4615SOL     OW14743   1.548   1.191   0.999
 4615SOL    HW114744   1.585   1.218   0.910
 4615SOL    HW214745   1.623   1.183   1.065
 4616SOL     OW14746   5.977   1.824   4.346
 4616SOL    HW114747   6.047   1.832   4.275
 4616SOL    HW214748   6.020   1.841   4.435
 4617SOL     OW14749   1.705   2.428   2.062
 4617SOL    HW114750   1.767   2.416   2.140
 4617SOL    HW214751   1.703   2.344   2.007
 4618SOL     OW14752   2.178   3.058   5.814
 4618SOL    HW114753   2.258   3.000   5.828
 4618SOL    HW214754   2.165   3.075   5.716
 4619SOL     OW14755   3.175   6.545   3.928
 4619SOL    HW114756   3.145   6.480   3.998
 4619SOL    HW214757   3.097   6.569   3.869
 4620SOL     OW14758   0.764   4.317   1.419
 4620SOL    HW114759   0.683   4.375   1.431
 4620SOL    HW214760   0.800   4.330   1.326
 4621SOL     OW14761   5.267   0.965   2.334
 4621SOL    HW114762   5.330   1.020   2.280
 4621SOL    HW214763   5.173   0.990   2.309
 4622SOL     OW14764   3.479   5.311   0.873
 4622SOL    HW114765   3.505   5.391   0.927
 4622SOL    HW214766   3.380   5.306   0.865
 4623SOL     OW14767   3.976   5.293   0.902
 4623SOL    HW114768   3.893   5.238   0.893
 4623SOL    HW214769   3.971   5.348   0.985
 4624SOL     OW14770   3.795   1.039   3.101
 4624SOL    HW114771   3.788   1.021   3.003
 4624SOL    HW214772   3.738   1.117   3.125
 4625SOL     OW14773   2.081   5.605   2.045
 4625SOL    HW114774   2.169   5.577   2.085
 4625SOL    HW214775   2.024   5.647   2.117
 4626SOL     OW14776   4.152   4.387   1.697
 4626SOL    HW114777   4.208   4.464   1.727
 4626SOL    HW214778   4.164   4.374   1.599
 4627SOL     OW14779   1.008   5.594   5.189
 4627SOL    HW114780   1.021   5.679   5.137
 4627SOL    HW214781   1.089   5.536   5.179
 4628SOL     OW14782   4.433   4.664   4.754
 4628SOL    HW114783   4.457   4.758   4.777
 4628SOL    HW214784   4.392   4.620   4.834
 4629SOL     OW14785   2.119   4.694   5.896
 4629SOL    HW114786   2.068   4.740   5.824
 4629SOL    HW214787   2.211   4.673   5.864
 4630SOL     OW14788   2.368   5.196   2.402
 4630SOL    HW114789   2.454   5.246   2.407
 4630SOL    HW214790   2.294   5.259   2.377
 4631SOL     OW14791   0.879   6.360   3.986
 4631SOL    HW114792   0.808   6.412   4.034
 4631SOL    HW214793   0.968   6.404   4.000
 4632SOL     OW14794   2.619   5.002   3.274
 4632SOL    HW114795   2.639   5.043   3.185
 4632SOL    HW214796   2.631   4.903   3.268
 4633SOL     OW14797   5.667   1.116   4.587
 4633SOL    HW114798   5.767   1.117   4.580
 4633SOL    HW214799   5.633   1.024   4.567
 4634SOL     OW14800   2.443   3.779   5.386
 4634SOL    HW114801   2.528   3.727   5.390
 4634SOL    HW214802   2.451   3.851   5.317
 4635SOL     OW14803   4.407   4.465   1.732
 4635SOL    HW114804   4.409   4.365   1.731
 4635SOL    HW214805   4.422   4.498   1.826
 4636SOL     OW14806   2.338   4.743   0.218
 4636SOL    HW114807   2.377   4.736   0.310
 4636SOL    HW214808   2.330   4.839   0.193
 4637SOL     OW14809   1.194   6.712   0.933
 4637SOL    HW114810   1.149   6.649   0.997
 4637SOL    HW214811   1.229   6.661   0.854
 4638SOL     OW14812   3.849   5.829   6.672
 4638SOL    HW114813   3.841   5.745   6.619
 4638SOL    HW214814   3.907   5.813   6.751
 4639SOL     OW14815   2.546   2.802   6.290
 4639SOL    HW114816   2.582   2.859   6.364
 4639SOL    HW214817   2.571   2.707   6.307
 4640SOL     OW14818   6.410   3.274   4.328
 4640SOL    HW114819   6.323   3.226   4.337
 4640SOL    HW214820   6.397   3.356   4.273
 4641SOL     OW14821   2.121   0.445   4.212
 4641SOL    HW114822   2.193   0.504   4.247
 4641SOL    HW214823   2.095   0.474   4.120
 4642SOL     OW14824   1.530   6.631   2.714
 4642SOL    HW114825   1.598   6.677   2.771
 4642SOL    HW214826   1.444   6.682   2.718
 4643SOL     OW14827   6.929   2.473   0.482
 4643SOL    HW114828   7.001   2.526   0.526
 4643SOL    HW214829   6.900   2.519   0.398
 4644SOL     OW14830   0.544   0.734   5.579
 4644SOL    HW114831   0.472   0.665   5.583
 4644SOL    HW214832   0.562   0.770   5.671
 4645SOL     OW14833   1.952   1.166   4.449
 4645SOL    HW114834   1.863   1.194   4.413
 4645SOL    HW214835   2.001   1.113   4.380
 4646SOL     OW14836   2.705   4.940   3.852
 4646SOL    HW114837   2.720   4.844   3.827
 4646SOL    HW214838   2.617   4.949   3.898
 4647SOL     OW14839   1.503   0.284   3.109
 4647SOL    HW114840   1.433   0.347   3.078
 4647SOL    HW214841   1.586   0.335   3.133
 4648SOL     OW14842   2.375   0.976   4.345
 4648SOL    HW114843   2.450   0.950   4.405
 4648SOL    HW214844   2.294   0.920   4.366
 4649SOL     OW14845   6.114   0.868   0.633
 4649SOL    HW114846   6.134   0.941   0.698
 4649SOL    HW214847   6.178   0.792   0.646
 4650SOL     OW14848   4.709   5.082   1.950
 4650SOL    HW114849   4.640   5.101   2.020
 4650SOL    HW214850   4.697   5.145   1.873
 4651SOL     OW14851   6.004   3.459   6.553
 4651SOL    HW114852   5.968   3.550   6.577
 4651SOL    HW214853   6.102   3.457   6.569
 4652SOL     OW14854   6.236   6.447   4.843
 4652SOL    HW114855   6.325   6.422   4.883
 4652SOL    HW214856   6.176   6.483   4.915
 4653SOL     OW14857   4.947   5.837   0.495
 4653SOL    HW114858   4.870   5.775   0.477
 4653SOL    HW214859   4.943   5.915   0.433
 4654SOL     OW14860   0.621   6.054   5.819
 4654SOL    HW114861   0.638   6.142   5.864
 4654SOL    HW214862   0.528   6.053   5.782
 4655SOL     OW14863   5.108   4.208   1.620
 4655SOL    HW114864   5.134   4.112   1.631
 4655SOL    HW214865   5.012   4.213   1.592
 4656SOL     OW14866   1.004   0.409   1.640
 4656SOL    HW114867   0.917   0.361   1.651
 4656SOL    HW214868   1.054   0.370   1.563
 4657SOL     OW14869   4.743   5.262   1.736
 4657SOL    HW114870   4.770   5.270   1.640
 4657SOL    HW214871   4.686   5.341   1.761
 4658SOL     OW14872   3.132   1.761   4.930
 4658SOL    HW114873   3.153   1.826   5.003
 4658SOL    HW214874   3.040   1.778   4.895
 4659SOL     OW14875   2.433   4.281   0.027
 4659SOL    HW114876   2.365   4.210   0.010
 4659SOL    HW214877   2.391   4.355   0.079
 4660SOL     OW14878   1.339   6.588   4.205
 4660SOL    HW114879   1.408   6.599   4.134
 4660SOL    HW214880   1.324   6.676   4.251
 4661SOL     OW14881   2.275   4.735   5.520
 4661SOL    HW114882   2.306   4.747   5.426
 4661SOL    HW214883   2.247   4.823   5.557
 4662SOL     OW14884   3.165   0.362   5.818
 4662SOL    HW114885   3.123   0.450   5.797
 4662SOL    HW214886   3.232   0.340   5.747
 4663SOL     OW14887   0.511   0.379   0.758
 4663SOL    HW114888   0.595   0.329   0.738
 4663SOL    HW214889   0.449   0.373   0.680
 4664SOL     OW14890   0.588   0.702   0.583
 4664SOL    HW114891   0.573   0.646   0.501
 4664SOL    HW214892   0.580   0.799   0.559
 4665SOL     OW14893   2.761   6.978   5.925
 4665SOL    HW114894   2.769   0.045   5.895
 4665SOL    HW214895   2.799   6.917   5.855
 4666SOL     OW14896   2.316   2.072   6.531
 4666SOL    HW114897   2.225   2.030   6.526
 4666SOL    HW214898   2.308   2.163   6.572
 4667SOL     OW14899   6.310   3.888   1.652
 4667SOL    HW114900   6.298   3.973   1.704
 4667SOL    HW214901   6.367   3.906   1.572
 4668SOL     OW14902   4.972   1.584   4.569
 4668SOL    HW114903   4.937   1.666   4.524
 4668SOL    HW214904   5.071   1.591   4.581
 4669SOL     OW14905   5.169   0.201   6.213
 4669SOL    HW114906   5.108   0.191   6.291
 4669SOL    HW214907   5.120   0.244   6.137
 4670SOL     OW14908   1.150   2.769   6.494
 4670SOL    HW114909   1.244   2.798   6.476
 4670SOL    HW214910   1.119   2.808   6.581
 4671SOL     OW14911   1.117   3.200   6.392
 4671SOL    HW114912   1.132   3.198   6.490
 4671SOL    HW214913   1.039   3.142   6.369
 4672SOL     OW14914   3.852   4.649   6.415
 4672SOL    HW114915   3.947   4.651   6.445
 4672SOL    HW214916   3.802   4.580   6.468
 4673SOL     OW14917   4.853   6.924   0.275
 4673SOL    HW114918   4.905   6.895   0.355
 4673SOL    HW214919   4.769   6.970   0.304
 4674SOL     OW14920   5.655   1.896   0.484
 4674SOL    HW114921   5.606   1.924   0.402
 4674SOL    HW214922   5.752   1.883   0.463
 4675SOL     OW14923   3.705   0.223   6.774
 4675SOL    HW114924   3.629   0.201   6.712
 4675SOL    HW214925   3.669   0.240   6.866
 4676SOL     OW14926   0.275   6.939   5.010
 4676SOL    HW114927   0.373   6.934   4.990
 4676SOL    HW214928   0.233   6.850   4.991
 4677SOL     OW14929   2.928   0.395   6.938
 4677SOL    HW114930   2.866   0.472   6.950
 4677SOL    HW214931   2.879   0.319   6.896
 4678SOL     OW14932   2.094   4.912   2.267
 4678SOL    HW114933   2.140   4.919   2.179
 4678SOL    HW214934   2.088   4.816   2.294
 4679SOL     OW14935   3.746   1.549   6.875
 4679SOL    HW114936   3.681   1.564   6.800
 4679SOL    HW214937   3.728   1.615   6.948
 4680SOL     OW14938   2.346   6.873   2.260
 4680SOL    HW114939   2.258   6.906   2.295
 4680SOL    HW214940   2.418   6.939   2.283
 4681SOL     OW14941   6.399   5.888   4.821
 4681SOL    HW114942   6.348   5.870   4.737
 4681SOL    HW214943   6.367   5.826   4.894
 4682SOL     OW14944   4.541   4.861   0.012
 4682SOL    HW114945   4.502   4.905   0.093
 4682SOL    HW214946   4.468   4.845   6.972
 4683SOL     OW14947   5.241   4.572   2.424
 4683SOL    HW114948   5.297   4.500   2.383
 4683SOL    HW214949   5.268   4.585   2.519
 4684SOL     OW14950   6.963   2.084   4.353
 4684SOL    HW114951   6.885   2.033   4.389
 4684SOL    HW214952   6.932   2.148   4.283
 4685SOL     OW14953   0.141   5.597   4.660
 4685SOL    HW114954   0.150   5.507   4.701
 4685SOL    HW214955   0.205   5.605   4.583
 4686SOL     OW14956   4.736   5.897   0.207
 4686SOL    HW114957   4.752   5.806   0.244
 4686SOL    HW214958   4.678   5.891   0.126
 4687SOL     OW14959   6.266   5.010   5.234
 4687SOL    HW114960   6.168   4.993   5.220
 4687SOL    HW214961   6.319   4.938   5.191
 4688SOL     OW14962   6.992   2.920   6.095
 4688SOL    HW114963   6.971   2.987   6.024
 4688SOL    HW214964   0.037   2.955   6.154
 4689SOL     OW14965   5.503   0.618   6.666
 4689SOL    HW114966   5.412   0.623   6.625
 4689SOL    HW214967   5.497   0.576   6.756
 4690SOL     OW14968   1.179   1.733   6.916
 4690SOL    HW114969   1.142   1.822   6.943
 4690SOL    HW214970   1.278   1.741   6.904
 4691SOL     OW14971   3.078   4.073   2.080
 4691SOL    HW114972   3.011   4.140   2.112
 4691SOL    HW214973   3.099   4.090   1.983
 4692SOL     OW14974   6.716   5.190   2.268
 4692SOL    HW114975   6.655   5.209   2.345
 4692SOL    HW214976   6.791   5.256   2.267
 4693SOL     OW14977   0.842   0.937   4.219
 4693SOL    HW114978   0.811   0.873   4.289
 4693SOL    HW214979   0.930   0.906   4.182
 4694SOL     OW14980   2.674   0.641   0.383
 4694SOL    HW114981   2.617   0.575   0.333
 4694SOL    HW214982   2.768   0.607   0.386
 4695SOL     OW14983   3.362   3.577   1.773
 4695SOL    HW114984   3.358   3.608   1.679
 4695SOL    HW214985   3.406   3.647   1.830
 4696SOL     OW14986   0.750   4.593   5.839
 4696SOL    HW114987   0.831   4.542   5.868
 4696SOL    HW214988   0.746   4.679   5.890
 4697SOL     OW14989   1.575   3.620   0.879
 4697SOL    HW114990   1.640   3.587   0.811
 4697SOL    HW214991   1.518   3.692   0.838
 4698SOL     OW14992   5.006   5.484   3.231
 4698SOL    HW114993   4.957   5.397   3.240
 4698SOL    HW214994   4.941   5.560   3.237
 4699SOL     OW14995   1.224   0.031   1.851
 4699SOL    HW114996   1.190   0.040   1.757
 4699SOL    HW214997   1.247   6.963   1.869
 4700SOL     OW14998   5.705   1.914   2.225
 4700SOL    HW114999   5.627   1.959   2.182
 4700SOL    HW215000   5.775   1.895   2.155
 4701SOL     OW15001   1.550   2.188   0.287
 4701SOL    HW115002   1.573   2.283   0.308
 4701SOL    HW215003   1.559   2.174   0.188
 4702SOL     OW15004   5.220   4.913   6.705
 4702SOL    HW115005   5.295   4.947   6.648
 4702SOL    HW215006   5.198   4.818   6.679
 4703SOL     OW15007   0.873   2.630   2.709
 4703SOL    HW115008   0.791   2.625   2.766
 4703SOL    HW215009   0.915   2.720   2.720
 4704SOL     OW15010   0.038   6.632   0.453
 4704SOL    HW115011   0.093   6.577   0.516
 4704SOL    HW215012   0.096   6.667   0.380
 4705SOL     OW15013   3.849   3.666   2.786
 4705SOL    HW115014   3.837   3.754   2.740
 4705SOL    HW215015   3.942   3.633   2.771
 4706SOL     OW15016   4.149   6.186   6.665
 4706SOL    HW115017   4.207   6.187   6.583
 4706SOL    HW215018   4.066   6.132   6.646
 4707SOL     OW15019   2.043   5.938   0.724
 4707SOL    HW115020   2.114   5.981   0.669
 4707SOL    HW215021   2.085   5.886   0.799
 4708SOL     OW15022   1.840   2.893   0.274
 4708SOL    HW115023   1.823   2.934   0.364
 4708SOL    HW215024   1.761   2.910   0.214
 4709SOL     OW15025   3.926   4.997   5.251
 4709SOL    HW115026   3.887   4.931   5.187
 4709SOL    HW215027   3.901   4.971   5.345
 4710SOL     OW15028   4.191   1.611   5.921
 4710SOL    HW115029   4.193   1.531   5.861
 4710SOL    HW215030   4.210   1.583   6.015
 4711SOL     OW15031   4.934   0.744   2.493
 4711SOL    HW115032   4.977   0.664   2.534
 4711SOL    HW215033   5.000   0.819   2.486
 4712SOL     OW15034   2.619   4.751   0.726
 4712SOL    HW115035   2.658   4.750   0.818
 4712SOL    HW215036   2.582   4.842   0.707
 4713SOL     OW15037   2.651   4.016   1.249
 4713SOL    HW115038   2.601   4.086   1.198
 4713SOL    HW215039   2.590   3.940   1.270
 4714SOL     OW15040   2.486   2.057   0.035
 4714SOL    HW115041   2.468   2.151   0.006
 4714SOL    HW215042   2.459   1.993   6.991
 4715SOL     OW15043   6.636   3.723   1.495
 4715SOL    HW115044   6.657   3.689   1.587
 4715SOL    HW215045   6.671   3.660   1.427
 4716SOL     OW15046   3.783   5.451   6.351
 4716SOL    HW115047   3.824   5.407   6.271
 4716SOL    HW215048   3.757   5.545   6.328
 4717SOL     OW15049   1.122   6.318   2.974
 4717SOL    HW115050   1.094   6.227   3.004
 4717SOL    HW215051   1.064   6.348   2.899
 4718SOL     OW15052   5.195   1.683   6.657
 4718SOL    HW115053   5.279   1.635   6.682
 4718SOL    HW215054   5.129   1.618   6.619
 4719SOL     OW15055   4.954   3.560   2.744
 4719SOL    HW115056   4.879   3.622   2.720
 4719SOL    HW215057   4.987   3.515   2.662
 4720SOL     OW15058   2.540   6.128   5.742
 4720SOL    HW115059   2.617   6.108   5.682
 4720SOL    HW215060   2.531   6.055   5.811
 4721SOL     OW15061   6.567   2.247   1.794
 4721SOL    HW115062   6.565   2.342   1.762
 4721SOL    HW215063   6.560   2.246   1.894
 4722SOL     OW15064   1.485   5.901   6.966
 4722SOL    HW115065   1.391   5.937   6.969
 4722SOL    HW215066   1.483   5.803   6.987
 4723SOL     OW15067   1.629   5.004   5.303
 4723SOL    HW115068   1.715   5.018   5.254
 4723SOL    HW215069   1.600   5.089   5.345
 4724SOL     OW15070   4.747   5.958   2.574
 4724SOL    HW115071   4.705   5.873   2.607
 4724SOL    HW215072   4.842   5.941   2.548
 4725SOL     OW15073   5.413   6.436   2.560
 4725SOL    HW115074   5.470   6.515   2.540
 4725SOL    HW215075   5.426   6.409   2.656
 4726SOL     OW15076   1.766   3.862   6.377
 4726SOL    HW115077   1.796   3.767   6.384
 4726SOL    HW215078   1.844   3.923   6.392
 4727SOL     OW15079   0.009   6.266   6.798
 4727SOL    HW115080   6.981   6.223   6.726
 4727SOL    HW215081   7.002   6.358   6.816
 4728SOL     OW15082   4.746   1.659   1.288
 4728SOL    HW115083   4.834   1.674   1.242
 4728SOL    HW215084   4.721   1.742   1.338
 4729SOL     OW15085   2.692   1.293   2.620
 4729SOL    HW115086   2.740   1.356   2.560
 4729SOL    HW215087   2.689   1.202   2.578
 4730SOL     OW15088   2.152   5.895   5.053
 4730SOL    HW115089   2.102   5.809   5.044
 4730SOL    HW215090   2.223   5.900   4.983
 4731SOL     OW15091   4.683   0.288   6.267
 4731SOL    HW115092   4.663   0.366   6.208
 4731SOL    HW215093   4.669   0.313   6.362
 4732SOL     OW15094   6.901   3.445   6.498
 4732SOL    HW115095   6.961   3.381   6.451
 4732SOL    HW215096   6.808   3.437   6.462
 4733SOL     OW15097   0.760   4.373   2.937
 4733SOL    HW115098   0.838   4.436   2.931
 4733SOL    HW215099   0.710   4.373   2.851
 4734SOL     OW15100   5.199   3.455   6.673
 4734SOL    HW115101   5.243   3.366   6.686
 4734SOL    HW215102   5.110   3.456   6.718
 4735SOL     OW15103   0.588   5.355   3.957
 4735SOL    HW115104   0.647   5.416   4.010
 4735SOL    HW215105   0.595   5.262   3.994
 4736SOL     OW15106   0.570   1.316   6.584
 4736SOL    HW115107   0.533   1.355   6.669
 4736SOL    HW215108   0.500   1.320   6.513
 4737SOL     OW15109   1.616   5.477   1.986
 4737SOL    HW115110   1.676   5.540   1.936
 4737SOL    HW215111   1.603   5.394   1.933
 4738SOL     OW15112   0.064   5.953   2.749
 4738SOL    HW115113   0.031   6.038   2.791
 4738SOL    HW215114   0.079   5.967   2.651
 4739SOL     OW15115   4.300   6.446   2.691
 4739SOL    HW115116   4.362   6.494   2.754
 4739SOL    HW215117   4.335   6.354   2.673
 4740SOL     OW15118   0.276   1.471   1.924
 4740SOL    HW115119   0.215   1.434   1.853
 4740SOL    HW215120   0.335   1.541   1.884
 4741SOL     OW15121   3.264   2.359   1.746
 4741SOL    HW115122   3.301   2.320   1.661
 4741SOL    HW215123   3.280   2.457   1.747
 4742SOL     OW15124   1.853   6.483   6.366
 4742SOL    HW115125   1.881   6.390   6.340
 4742SOL    HW215126   1.818   6.482   6.460
 4743SOL     OW15127   2.087   3.211   2.805
 4743SOL    HW115128   2.060   3.115   2.808
 4743SOL    HW215129   2.042   3.256   2.727
 4744SOL     OW15130   2.203   4.847   1.239
 4744SOL    HW115131   2.106   4.829   1.225
 4744SOL    HW215132   2.214   4.937   1.283
 4745SOL     OW15133   3.284   3.984   0.255
 4745SOL    HW115134   3.364   4.016   0.205
 4745SOL    HW215135   3.215   4.057   0.259
 4746SOL     OW15136   4.407   6.663   3.848
 4746SOL    HW115137   4.418   6.673   3.947
 4746SOL    HW215138   4.467   6.590   3.816
 4747SOL     OW15139   1.247   3.536   0.764
 4747SOL    HW115140   1.259   3.495   0.854
 4747SOL    HW215141   1.173   3.604   0.768
 4748SOL     OW15142   1.249   6.994   1.410
 4748SOL    HW115143   1.329   6.986   1.470
 4748SOL    HW215144   1.276   6.979   1.315
 4749SOL     OW15145   2.033   6.692   6.410
 4749SOL    HW115146   1.976   6.611   6.420
 4749SOL    HW215147   2.105   6.674   6.344
 4750SOL     OW15148   6.300   3.825   5.542
 4750SOL    HW115149   6.228   3.841   5.474
 4750SOL    HW215150   6.286   3.886   5.619
 4751SOL     OW15151   4.619   2.682   3.026
 4751SOL    HW115152   4.555   2.657   3.099
 4751SOL    HW215153   4.684   2.750   3.060
 4752SOL     OW15154   4.708   0.565   0.289
 4752SOL    HW115155   4.707   0.658   0.252
 4752SOL    HW215156   4.800   0.527   0.277
 4753SOL     OW15157   0.954   7.002   4.143
 4753SOL    HW115158   0.921   6.948   4.220
 4753SOL    HW215159   0.895   0.055   4.131
 4754SOL     OW15160   5.067   3.654   5.038
 4754SOL    HW115161   4.983   3.615   5.001
 4754SOL    HW215162   5.083   3.619   5.130
 4755SOL     OW15163   2.478   0.622   0.821
 4755SOL    HW115164   2.413   0.694   0.845
 4755SOL    HW215165   2.452   0.582   0.733
 4756SOL     OW15166   6.539   3.981   6.075
 4756SOL    HW115167   6.638   3.984   6.083
 4756SOL    HW215168   6.500   4.071   6.097
 4757SOL     OW15169   1.598   2.581   1.160
 4757SOL    HW115170   1.576   2.550   1.253
 4757SOL    HW215171   1.514   2.599   1.110
 4758SOL     OW15172   1.150   6.843   3.096
 4758SOL    HW115173   1.129   6.784   3.018
 4758SOL    HW215174   1.150   6.939   3.067
 4759SOL     OW15175   0.344   5.687   6.706
 4759SOL    HW115176   0.350   5.716   6.611
 4759SOL    HW215177   0.435   5.677   6.745
 4760SOL     OW15178   1.301   1.035   0.760
 4760SOL    HW115179   1.367   1.075   0.696
 4760SOL    HW215180   1.218   1.090   0.760
 4761SOL     OW15181   1.402   0.548   0.517
 4761SOL    HW115182   1.343   0.628   0.535
 4761SOL    HW215183   1.371   0.502   0.434
 4762SOL     OW15184   1.583   5.980   2.458
 4762SOL    HW115185   1.588   5.899   2.399
 4762SOL    HW215186   1.527   6.050   2.413
 4763SOL     OW15187   4.602   0.303   2.453
 4763SOL    HW115188   4.558   0.368   2.514
 4763SOL    HW215189   4.584   0.329   2.358
 4764SOL     OW15190   4.593   3.296   5.402
 4764SOL    HW115191   4.649   3.363   5.354
 4764SOL    HW215192   4.505   3.339   5.428
 4765SOL     OW15193   3.734   0.994   6.110
 4765SOL    HW115194   3.655   0.957   6.061
 4765SOL    HW215195   3.771   1.072   6.060
 4766SOL     OW15196   6.383   6.019   4.332
 4766SOL    HW115197   6.391   6.111   4.371
 4766SOL    HW215198   6.361   6.025   4.235
 4767SOL     OW15199   2.670   5.048   5.781
 4767SOL    HW115200   2.770   5.052   5.779
 4767SOL    HW215201   2.636   4.999   5.700
 4768SOL     OW15202   3.980   3.646   6.214
 4768SOL    HW115203   4.018   3.585   6.284
 4768SOL    HW215204   3.885   3.622   6.198
 4769SOL     OW15205   3.465   5.852   0.065
 4769SOL    HW115206   3.524   5.814   7.020
 4769SOL    HW215207   3.427   5.939   0.035
 4770SOL     OW15208   6.560   1.785   4.781
 4770SOL    HW115209   6.579   1.876   4.743
 4770SOL    HW215210   6.591   1.715   4.716
 4771SOL     OW15211   2.393   6.236   5.442
 4771SOL    HW115212   2.315   6.173   5.447
 4771SOL    HW215213   2.459   6.213   5.513
 4772SOL     OW15214   2.675   5.238   0.758
 4772SOL    HW115215   2.745   5.237   0.686
 4772SOL    HW215216   2.720   5.235   0.847
 4773SOL     OW15217   0.895   5.848   4.211
 4773SOL    HW115218   0.856   5.936   4.237
 4773SOL    HW215219   0.871   5.828   4.116
 4774SOL     OW15220   1.371   4.014   1.299
 4774SOL    HW115221   1.378   4.093   1.360
 4774SOL    HW215222   1.452   4.011   1.240
 4775SOL     OW15223   4.674   6.705   4.287
 4775SOL    HW115224   4.758   6.718   4.235
 4775SOL    HW215225   4.601   6.674   4.227
 4776SOL     OW15226   1.094   1.177   4.791
 4776SOL    HW115227   1.168   1.112   4.775
 4776SOL    HW215228   1.094   1.246   4.719
 4777SOL     OW15229   1.759   5.705   0.944
 4777SOL    HW115230   1.661   5.684   0.942
 4777SOL    HW215231   1.783   5.764   0.867
 4778SOL     OW15232   0.356   2.834   4.600
 4778SOL    HW115233   0.425   2.906   4.591
 4778SOL    HW215234   0.395   2.756   4.649
 4779SOL     OW15235   5.672   6.378   4.106
 4779SOL    HW115236   5.635   6.470   4.121
 4779SOL    HW215237   5.702   6.340   4.193
 4780SOL     OW15238   5.942   2.442   6.104
 4780SOL    HW115239   6.009   2.474   6.037
 4780SOL    HW215240   5.956   2.345   6.122
 4781SOL     OW15241   3.006   5.451   2.475
 4781SOL    HW115242   3.003   5.352   2.487
 4781SOL    HW215243   2.946   5.495   2.541
 4782SOL     OW15244   6.373   6.073   6.094
 4782SOL    HW115245   6.297   6.009   6.081
 4782SOL    HW215246   6.338   6.165   6.110
 4783SOL     OW15247   6.142   3.525   0.159
 4783SOL    HW115248   6.156   3.527   0.060
 4783SOL    HW215249   6.123   3.432   0.189
 4784SOL     OW15250   5.865   1.871   5.713
 4784SOL    HW115251   5.836   1.963   5.686
 4784SOL    HW215252   5.962   1.872   5.736
 4785SOL     OW15253   0.183   6.418   2.343
 4785SOL    HW115254   0.196   6.427   2.244
 4785SOL    HW215255   0.255   6.469   2.390
 4786SOL     OW15256   2.968   0.061   0.198
 4786SOL    HW115257   2.959   0.065   0.099
 4786SOL    HW215258   2.955   6.994   0.229
 4787SOL     OW15259   4.091   1.927   3.862
 4787SOL    HW115260   3.997   1.893   3.853
 4787SOL    HW215261   4.134   1.885   3.942
 4788SOL     OW15262   6.096   6.031   0.127
 4788SOL    HW115263   6.156   5.951   0.133
 4788SOL    HW215264   6.085   6.071   0.218
 4789SOL     OW15265   5.368   1.518   1.930
 4789SOL    HW115266   5.406   1.585   1.994
 4789SOL    HW215267   5.299   1.463   1.977
 4790SOL     OW15268   5.248   1.743   5.797
 4790SOL    HW115269   5.348   1.740   5.800
 4790SOL    HW215270   5.216   1.830   5.834
 4791SOL     OW15271   0.468   2.828   1.665
 4791SOL    HW115272   0.412   2.891   1.612
 4791SOL    HW215273   0.418   2.742   1.680
 4792SOL     OW15274   2.354   4.196   4.354
 4792SOL    HW115275   2.309   4.130   4.414
 4792SOL    HW215276   2.375   4.278   4.405
 4793SOL     OW15277   1.793   3.389   5.375
 4793SOL    HW115278   1.816   3.330   5.297
 4793SOL    HW215279   1.789   3.484   5.344
 4794SOL     OW15280   4.429   7.025   3.926
 4794SOL    HW115281   4.524   7.016   3.895
 4794SOL    HW215282   4.423   0.071   3.993
 4795SOL     OW15283   6.965   1.532   4.752
 4795SOL    HW115284   6.887   1.499   4.805
 4795SOL    HW215285   6.932   1.570   4.665
 4796SOL     OW15286   3.583   0.136   6.188
 4796SOL    HW115287   3.588   0.223   6.138
 4796SOL    HW215288   3.487   0.114   6.204
 4797SOL     OW15289   0.749   5.566   4.348
 4797SOL    HW115290   0.829   5.537   4.400
 4797SOL    HW215291   0.679   5.600   4.411
 4798SOL     OW15292   6.276   5.153   6.275
 4798SOL    HW115293   6.226   5.078   6.232
 4798SOL    HW215294   6.319   5.121   6.359
 4799SOL     OW15295   4.122   1.412   0.034
 4799SOL    HW115296   4.096   1.439   6.968
 4799SOL    HW215297   4.043   1.424   0.095
 4800SOL     OW15298   1.607   4.427   6.698
 4800SOL    HW115299   1.519   4.473   6.705
 4800SOL    HW215300   1.681   4.495   6.699
 4801SOL     OW15301   3.746   2.968   0.274
 4801SOL    HW115302   3.829   3.008   0.312
 4801SOL    HW215303   3.755   2.960   0.174
 4802SOL     OW15304   6.662   6.572   1.708
 4802SOL    HW115305   6.608   6.489   1.721
 4802SOL    HW215306   6.709   6.569   1.620
 4803SOL     OW15307   6.250   4.652   1.091
 4803SOL    HW115308   6.283   4.570   1.046
 4803SOL    HW215309   6.154   4.638   1.119
 4804SOL     OW15310   5.549   0.926   1.141
 4804SOL    HW115311   5.472   0.891   1.194
 4804SOL    HW215312   5.549   0.884   1.050
 4805SOL     OW15313   6.829   1.277   2.230
 4805SOL    HW115314   6.750   1.286   2.291
 4805SOL    HW215315   6.894   1.213   2.270
 4806SOL     OW15316   1.112   3.789   3.111
 4806SOL    HW115317   1.066   3.826   3.030
 4806SOL    HW215318   1.210   3.807   3.105
 4807SOL     OW15319   1.908   3.722   6.707
 4807SOL    HW115320   1.981   3.668   6.747
 4807SOL    HW215321   1.947   3.794   6.649
 4808SOL     OW15322   4.202   5.194   0.595
 4808SOL    HW115323   4.257   5.275   0.616
 4808SOL    HW215324   4.237   5.116   0.646
 4809SOL     OW15325   3.613   4.320   1.794
 4809SOL    HW115326   3.675   4.301   1.718
 4809SOL    HW215327   3.588   4.416   1.793
 4810SOL     OW15328   1.314   4.044   3.870
 4810SOL    HW115329   1.328   4.116   3.801
 4810SOL    HW215330   1.337   4.080   3.960
 4811SOL     OW15331   3.971   3.818   4.322
 4811SOL    HW115332   3.971   3.743   4.256
 4811SOL    HW215333   4.054   3.814   4.377
 4812SOL     OW15334   0.576   0.113   2.044
 4812SOL    HW115335   0.669   0.122   2.009
 4812SOL    HW215336   0.531   0.036   1.999
 4813SOL     OW15337   5.765   2.173   5.977
 4813SOL    HW115338   5.783   2.167   5.878
 4813SOL    HW215339   5.847   2.150   6.027
 4814SOL     OW15340   0.108   3.179   2.347
 4814SOL    HW115341   0.032   3.239   2.375
 4814SOL    HW215342   0.170   3.230   2.288
 4815SOL     OW15343   5.316   4.635   2.667
 4815SOL    HW115344   5.265   4.719   2.686
 4815SOL    HW215345   5.326   4.582   2.751
 4816SOL     OW15346   2.183   6.437   1.292
 4816SOL    HW115347   2.191   6.436   1.391
 4816SOL    HW215348   2.092   6.469   1.266
 4817SOL     OW15349   3.581   1.124   1.766
 4817SOL    HW115350   3.543   1.189   1.700
 4817SOL    HW215351   3.522   1.043   1.770
 4818SOL     OW15352   1.325   1.278   4.208
 4818SOL    HW115353   1.401   1.259   4.146
 4818SOL    HW215354   1.240   1.242   4.170
 4819SOL     OW15355   3.219   1.882   1.701
 4819SOL    HW115356   3.211   1.963   1.759
 4819SOL    HW215357   3.289   1.821   1.737
 4820SOL     OW15358   6.402   2.698   1.011
 4820SOL    HW115359   6.335   2.641   0.964
 4820SOL    HW215360   6.375   2.708   1.107
 4821SOL     OW15361   6.052   6.059   1.098
 4821SOL    HW115362   6.064   6.122   1.021
 4821SOL    HW215363   6.131   6.067   1.159
 4822SOL     OW15364   1.669   3.227   3.674
 4822SOL    HW115365   1.643   3.321   3.698
 4822SOL    HW215366   1.673   3.171   3.756
 4823SOL     OW15367   6.878   0.801   3.719
 4823SOL    HW115368   6.910   0.775   3.810
 4823SOL    HW215369   6.821   0.728   3.681
 4824SOL     OW15370   5.594   1.740   4.187
 4824SOL    HW115371   5.560   1.722   4.095
 4824SOL    HW215372   5.657   1.817   4.185
 4825SOL     OW15373   2.042   2.661   3.953
 4825SOL    HW115374   2.010   2.627   4.042
 4825SOL    HW215375   2.024   2.592   3.883
 4826SOL     OW15376   0.688   0.040   0.933
 4826SOL    HW115377   0.723   0.086   0.852
 4826SOL    HW215378   0.626   0.102   0.982
 4827SOL     OW15379   6.095   0.745   1.673
 4827SOL    HW115380   6.009   0.696   1.659
 4827SOL    HW215381   6.092   0.794   1.760
 4828SOL     OW15382   5.672   3.644   1.569
 4828SOL    HW115383   5.621   3.660   1.654
 4828SOL    HW215384   5.753   3.589   1.589
 4829SOL     OW15385   3.592   6.902   6.270
 4829SOL    HW115386   3.583   6.998   6.246
 4829SOL    HW215387   3.617   6.893   6.367
 4830SOL     OW15388   5.168   5.455   3.941
 4830SOL    HW115389   5.191   5.485   4.034
 4830SOL    HW215390   5.235   5.388   3.911
 4831SOL     OW15391   6.632   5.468   5.754
 4831SOL    HW115392   6.634   5.493   5.657
 4831SOL    HW215393   6.574   5.387   5.766
 4832SOL     OW15394   2.818   2.803   6.644
 4832SOL    HW115395   2.904   2.813   6.694
 4832SOL    HW215396   2.757   2.741   6.694
 4833SOL     OW15397   4.813   1.947   3.022
 4833SOL    HW115398   4.758   1.970   3.102
 4833SOL    HW215399   4.785   1.857   2.987
 4834SOL     OW15400   3.294   0.575   0.113
 4834SOL    HW115401   3.258   0.609   0.200
 4834SOL    HW215402   3.226   0.515   0.069
 4835SOL     OW15403   1.800   0.345   6.873
 4835SOL    HW115404   1.890   0.302   6.884
 4835SOL    HW215405   1.734   0.299   6.933
 4836SOL     OW15406   4.625   2.656   3.567
 4836SOL    HW115407   4.707   2.597   3.566
 4836SOL    HW215408   4.580   2.648   3.656
 4837SOL     OW15409   3.623   2.795   2.003
 4837SOL    HW115410   3.605   2.883   1.958
 4837SOL    HW215411   3.551   2.776   2.069
 4838SOL     OW15412   2.400   5.084   2.137
 4838SOL    HW115413   2.499   5.067   2.131
 4838SOL    HW215414   2.379   5.125   2.226
 4839SOL     OW15415   1.404   3.591   5.671
 4839SOL    HW115416   1.402   3.600   5.571
 4839SOL    HW215417   1.460   3.665   5.710
 4840SOL     OW15418   7.007   0.497   5.971
 4840SOL    HW115419   0.040   0.529   5.898
 4840SOL    HW215420   6.934   0.441   5.932
 4841SOL     OW15421   3.404   5.703   1.710
 4841SOL    HW115422   3.357   5.619   1.680
 4841SOL    HW215423   3.501   5.694   1.690
 4842SOL     OW15424   3.284   4.760   1.522
 4842SOL    HW115425   3.195   4.778   1.480
 4842SOL    HW215426   3.290   4.663   1.545
 4843SOL     OW15427   6.391   4.185   0.395
 4843SOL    HW115428   6.417   4.092   0.369
 4843SOL    HW215429   6.348   4.183   0.485
 4844SOL     OW15430   6.802   3.971   6.115
 4844SOL    HW115431   6.873   4.032   6.148
 4844SOL    HW215432   6.808   3.884   6.164
 4845SOL     OW15433   6.815   5.905   4.329
 4845SOL    HW115434   6.813   5.925   4.231
 4845SOL    HW215435   6.887   5.837   4.348
 4846SOL     OW15436   6.644   3.547   2.124
 4846SOL    HW115437   6.677   3.468   2.074
 4846SOL    HW215438   6.721   3.599   2.161
 4847SOL     OW15439   3.222   1.744   5.738
 4847SOL    HW115440   3.307   1.766   5.689
 4847SOL    HW215441   3.152   1.811   5.715
 4848SOL     OW15442   1.733   1.291   4.356
 4848SOL    HW115443   1.737   1.360   4.428
 4848SOL    HW215444   1.688   1.329   4.275
 4849SOL     OW15445   0.928   6.642   6.844
 4849SOL    HW115446   0.882   6.697   6.774
 4849SOL    HW215447   1.020   6.618   6.813
 4850SOL     OW15448   4.385   1.137   2.148
 4850SOL    HW115449   4.410   1.123   2.052
 4850SOL    HW215450   4.464   1.173   2.198
 4851SOL     OW15451   3.571   5.547   5.395
 4851SOL    HW115452   3.560   5.448   5.398
 4851SOL    HW215453   3.483   5.590   5.374
 4852SOL     OW15454   0.921   0.036   6.575
 4852SOL    HW115455   0.983   6.996   6.536
 4852SOL    HW215456   0.945   0.051   6.671
 4853SOL     OW15457   2.865   1.065   2.372
 4853SOL    HW115458   2.838   1.051   2.467
 4853SOL    HW215459   2.873   0.976   2.326
 4854SOL     OW15460   5.236   6.025   2.739
 4854SOL    HW115461   5.322   5.984   2.706
 4854SOL    HW215462   5.159   5.987   2.687
 4855SOL     OW15463   5.894   2.529   2.603
 4855SOL    HW115464   5.988   2.531   2.570
 4855SOL    HW215465   5.862   2.622   2.619
 4856SOL     OW15466   1.431   4.087   2.403
 4856SOL    HW115467   1.357   4.056   2.343
 4856SOL    HW215468   1.452   4.016   2.470
 4857SOL     OW15469   1.804   2.357   5.576
 4857SOL    HW115470   1.791   2.281   5.640
 4857SOL    HW215471   1.772   2.330   5.486
 4858SOL     OW15472   1.896   1.020   4.690
 4858SOL    HW115473   1.969   1.033   4.757
 4858SOL    HW215474   1.923   1.058   4.602
 4859SOL     OW15475   1.077   0.843   4.096
 4859SOL    HW115476   1.062   0.752   4.135
 4859SOL    HW215477   1.173   0.868   4.103
 4860SOL     OW15478   3.296   4.850   1.886
 4860SOL    HW115479   3.394   4.844   1.902
 4860SOL    HW215480   3.247   4.801   1.959
 4861SOL     OW15481   4.912   5.498   0.018
 4861SOL    HW115482   4.837   5.471   0.078
 4861SOL    HW215483   4.997   5.500   0.071
 4862SOL     OW15484   2.771   4.834   4.789
 4862SOL    HW115485   2.709   4.818   4.712
 4862SOL    HW215486   2.775   4.752   4.846
 4863SOL     OW15487   5.791   4.631   0.630
 4863SOL    HW115488   5.738   4.546   0.636
 4863SOL    HW215489   5.886   4.609   0.606
 4864SOL     OW15490   3.725   1.187   4.183
 4864SOL    HW115491   3.673   1.262   4.225
 4864SOL    HW215492   3.817   1.185   4.222
 4865SOL     OW15493   1.704   0.599   5.844
 4865SOL    HW115494   1.778   0.663   5.866
 4865SOL    HW215495   1.688   0.538   5.922
 4866SOL     OW15496   6.635   3.608   1.073
 4866SOL    HW115497   6.644   3.707   1.078
 4866SOL    HW215498   6.594   3.573   1.157
 4867SOL     OW15499   4.310   5.744   2.997
 4867SOL    HW115500   4.212   5.766   2.993
 4867SOL    HW215501   4.321   5.647   3.018
 4868SOL     OW15502   6.304   4.825   2.929
 4868SOL    HW115503   6.279   4.780   2.843
 4868SOL    HW215504   6.247   4.789   3.003
 4869SOL     OW15505   2.023   1.686   1.468
 4869SOL    HW115506   2.063   1.762   1.418
 4869SOL    HW215507   1.939   1.656   1.423
 4870SOL     OW15508   0.936   6.168   1.653
 4870SOL    HW115509   0.993   6.101   1.700
 4870SOL    HW215510   0.848   6.175   1.700
 4871SOL     OW15511   0.251   0.750   3.782
 4871SOL    HW115512   0.191   0.671   3.766
 4871SOL    HW215513   0.331   0.721   3.834
 4872SOL     OW15514   6.394   0.031   3.400
 4872SOL    HW115515   6.345   0.061   3.482
 4872SOL    HW215516   6.477   7.011   3.427
 4873SOL     OW15517   6.448   5.681   4.285
 4873SOL    HW115518   6.519   5.616   4.260
 4873SOL    HW215519   6.435   5.679   4.385
 4874SOL     OW15520   5.150   3.797   2.400
 4874SOL    HW115521   5.069   3.808   2.342
 4874SOL    HW215522   5.205   3.880   2.396
 4875SOL     OW15523   6.457   1.256   0.216
 4875SOL    HW115524   6.519   1.213   0.150
 4875SOL    HW215525   6.369   1.209   0.214
 4876SOL     OW15526   0.037   1.521   3.643
 4876SOL    HW115527   0.028   1.422   3.629
 4876SOL    HW215528   0.077   1.563   3.561
 4877SOL     OW15529   0.564   1.756   5.577
 4877SOL    HW115530   0.497   1.682   5.566
 4877SOL    HW215531   0.574   1.805   5.490
 4878SOL     OW15532   6.361   1.050   1.989
 4878SOL    HW115533   6.418   1.132   1.984
 4878SOL    HW215534   6.371   0.997   1.904
 4879SOL     OW15535   4.359   1.815   1.789
 4879SOL    HW115536   4.260   1.831   1.794
 4879SOL    HW215537   4.399   1.829   1.880
 4880SOL     OW15538   6.114   3.265   0.172
 4880SOL    HW115539   6.080   3.285   0.080
 4880SOL    HW215540   6.110   3.166   0.188
 4881SOL     OW15541   1.766   1.299   0.374
 4881SOL    HW115542   1.850   1.353   0.378
 4881SOL    HW215543   1.698   1.337   0.437
 4882SOL     OW15544   4.298   0.885   5.524
 4882SOL    HW115545   4.226   0.902   5.592
 4882SOL    HW215546   4.318   0.970   5.475
 4883SOL     OW15547   4.796   4.179   1.161
 4883SOL    HW115548   4.789   4.131   1.248
 4883SOL    HW215549   4.726   4.250   1.157
 4884SOL     OW15550   2.967   5.243   1.596
 4884SOL    HW115551   3.065   5.249   1.611
 4884SOL    HW215552   2.938   5.148   1.603
 4885SOL     OW15553   1.997   5.473   1.417
 4885SOL    HW115554   2.039   5.498   1.329
 4885SOL    HW215555   2.033   5.384   1.446
 4886SOL     OW15556   2.951   6.404   1.113
 4886SOL    HW115557   2.861   6.440   1.140
 4886SOL    HW215558   3.019   6.431   1.182
 4887SOL     OW15559   7.001   6.594   1.406
 4887SOL    HW115560   6.916   6.570   1.453
 4887SOL    HW215561   6.983   6.607   1.309
 4888SOL     OW15562   2.646   0.312   3.469
 4888SOL    HW115563   2.576   0.242   3.486
 4888SOL    HW215564   2.735   0.269   3.458
 4889SOL     OW15565   6.714   2.122   5.061
 4889SOL    HW115566   6.664   2.038   5.043
 4889SOL    HW215567   6.790   2.104   5.124
 4890SOL     OW15568   6.994   2.034   5.540
 4890SOL    HW115569   6.972   2.065   5.633
 4890SOL    HW215570   7.025   1.939   5.544
 4891SOL     OW15571   2.104   5.230   7.017
 4891SOL    HW115572   2.200   5.247   0.009
 4891SOL    HW215573   2.070   5.298   6.952
 4892SOL     OW15574   4.487   5.558   2.245
 4892SOL    HW115575   4.424   5.484   2.222
 4892SOL    HW215576   4.436   5.638   2.274
 4893SOL     OW15577   6.105   3.405   2.404
 4893SOL    HW115578   6.007   3.419   2.395
 4893SOL    HW215579   6.154   3.478   2.356
 4894SOL     OW15580   3.922   0.700   2.820
 4894SOL    HW115581   3.861   0.725   2.895
 4894SOL    HW215582   3.896   0.611   2.784
 4895SOL     OW15583   0.604   4.628   3.947
 4895SOL    HW115584   0.665   4.611   3.869
 4895SOL    HW215585   0.605   4.726   3.969
 4896SOL     OW15586   2.561   4.516   2.464
 4896SOL    HW115587   2.553   4.550   2.558
 4896SOL    HW215588   2.492   4.445   2.449
 4897SOL     OW15589   1.736   5.662   5.064
 4897SOL    HW115590   1.716   5.564   5.062
 4897SOL    HW215591   1.664   5.712   5.015
 4898SOL     OW15592   3.694   1.044   4.985
 4898SOL    HW115593   3.722   0.948   4.987
 4898SOL    HW215594   3.594   1.049   4.983
 4899SOL     OW15595   5.567   5.098   2.839
 4899SOL    HW115596   5.565   5.001   2.815
 4899SOL    HW215597   5.655   5.121   2.879
 4900SOL     OW15598   3.628   5.823   4.965
 4900SOL    HW115599   3.661   5.731   4.943
 4900SOL    HW215600   3.530   5.827   4.951
 4901SOL     OW15601   2.430   1.753   5.502
 4901SOL    HW115602   2.456   1.785   5.593
 4901SOL    HW215603   2.425   1.653   5.502
 4902SOL     OW15604   0.951   1.457   4.843
 4902SOL    HW115605   0.913   1.504   4.763
 4902SOL    HW215606   0.891   1.471   4.921
 4903SOL     OW15607   4.499   5.907   0.489
 4903SOL    HW115608   4.421   5.963   0.514
 4903SOL    HW215609   4.500   5.892   0.390
 4904SOL     OW15610   2.072   0.020   5.539
 4904SOL    HW115611   2.071   0.078   5.457
 4904SOL    HW215612   2.024   0.067   5.613
 4905SOL     OW15613   3.653   0.894   3.626
 4905SOL    HW115614   3.584   0.902   3.698
 4905SOL    HW215615   3.709   0.813   3.641
 4906SOL     OW15616   4.894   1.931   6.542
 4906SOL    HW115617   4.949   1.984   6.477
 4906SOL    HW215618   4.798   1.960   6.534
 4907SOL     OW15619   4.955   0.217   1.312
 4907SOL    HW115620   5.014   0.140   1.287
 4907SOL    HW215621   5.011   0.289   1.353
 4908SOL     OW15622   5.637   6.480   6.737
 4908SOL    HW115623   5.579   6.433   6.803
 4908SOL    HW215624   5.587   6.559   6.700
 4909SOL     OW15625   0.063   5.664   3.463
 4909SOL    HW115626   7.020   5.723   3.422
 4909SOL    HW215627   0.080   5.586   3.403
 4910SOL     OW15628   5.635   0.564   4.370
 4910SOL    HW115629   5.665   0.605   4.284
 4910SOL    HW215630   5.543   0.526   4.358
 4911SOL     OW15631   1.701   3.735   3.431
 4911SOL    HW115632   1.767   3.722   3.357
 4911SOL    HW215633   1.666   3.828   3.428
 4912SOL     OW15634   5.554   2.020   6.091
 4912SOL    HW115635   5.634   2.067   6.054
 4912SOL    HW215636   5.561   2.013   6.190
 4913SOL     OW15637   4.083   3.515   5.604
 4913SOL    HW115638   3.986   3.526   5.627
 4913SOL    HW215639   4.120   3.602   5.573
 4914SOL     OW15640   4.652   6.788   5.222
 4914SOL    HW115641   4.606   6.751   5.142
 4914SOL    HW215642   4.647   6.723   5.298
 4915SOL     OW15643   2.168   6.217   4.878
 4915SOL    HW115644   2.206   6.141   4.931
 4915SOL    HW215645   2.142   6.291   4.940
 4916SOL     OW15646   0.766   1.106   4.000
 4916SOL    HW115647   0.796   1.201   3.996
 4916SOL    HW215648   0.790   1.068   4.090
 4917SOL     OW15649   3.405   5.500   1.377
 4917SOL    HW115650   3.345   5.474   1.452
 4917SOL    HW215651   3.400   5.432   1.305
 4918SOL     OW15652   5.737   6.653   1.660
 4918SOL    HW115653   5.795   6.699   1.593
 4918SOL    HW215654   5.643   6.686   1.652
 4919SOL     OW15655   2.889   3.288   1.966
 4919SOL    HW115656   2.934   3.202   1.991
 4919SOL    HW215657   2.801   3.268   1.924
 4920SOL     OW15658   5.515   0.237   4.922
 4920SOL    HW115659   5.453   0.168   4.885
 4920SOL    HW215660   5.468   0.326   4.925
 4921SOL     OW15661   1.218   5.250   7.024
 4921SOL    HW115662   1.167   5.176   6.980
 4921SOL    HW215663   1.204   5.335   6.973
 4922SOL     OW15664   2.895   2.305   4.411
 4922SOL    HW115665   2.890   2.348   4.321
 4922SOL    HW215666   2.851   2.216   4.408
 4923SOL     OW15667   2.930   1.543   2.390
 4923SOL    HW115668   2.864   1.617   2.379
 4923SOL    HW215669   2.884   1.455   2.377
 4924SOL     OW15670   3.228   1.677   4.531
 4924SOL    HW115671   3.155   1.745   4.535
 4924SOL    HW215672   3.307   1.716   4.484
 4925SOL     OW15673   5.363   0.695   2.224
 4925SOL    HW115674   5.275   0.731   2.252
 4925SOL    HW215675   5.436   0.758   2.251
 4926SOL     OW15676   5.674   1.659   1.722
 4926SOL    HW115677   5.704   1.616   1.808
 4926SOL    HW215678   5.747   1.717   1.687
 4927SOL     OW15679   3.084   3.550   5.254
 4927SOL    HW115680   3.141   3.629   5.233
 4927SOL    HW215681   3.139   3.479   5.298
 4928SOL     OW15682   1.676   0.852   0.217
 4928SOL    HW115683   1.754   0.807   0.262
 4928SOL    HW215684   1.594   0.797   0.231
 4929SOL     OW15685   6.363   0.283   4.536
 4929SOL    HW115686   6.432   0.288   4.464
 4929SOL    HW215687   6.367   0.194   4.581
 4930SOL     OW15688   5.536   0.420   2.559
 4930SOL    HW115689   5.613   0.360   2.538
 4930SOL    HW215690   5.553   0.511   2.520
 4931SOL     OW15691   6.331   6.361   1.498
 4931SOL    HW115692   6.304   6.290   1.563
 4931SOL    HW215693   6.251   6.418   1.476
 4932SOL     OW15694   4.017   3.068   3.138
 4932SOL    HW115695   3.978   3.005   3.206
 4932SOL    HW215696   3.948   3.087   3.068
 4933SOL     OW15697   2.552   6.640   2.256
 4933SOL    HW115698   2.540   6.628   2.354
 4933SOL    HW215699   2.471   6.685   2.218
 4934SOL     OW15700   3.602   5.980   2.687
 4934SOL    HW115701   3.671   6.052   2.680
 4934SOL    HW215702   3.557   5.968   2.599
 4935SOL     OW15703   1.626   2.007   6.519
 4935SOL    HW115704   1.719   1.973   6.504
 4935SOL    HW215705   1.597   2.060   6.439
 4936SOL     OW15706   3.423   4.948   1.398
 4936SOL    HW115707   3.366   5.030   1.390
 4936SOL    HW215708   3.373   4.877   1.447
 4937SOL     OW15709   5.761   2.857   5.719
 4937SOL    HW115710   5.714   2.868   5.806
 4937SOL    HW215711   5.858   2.877   5.731
 4938SOL     OW15712   2.364   5.618   5.564
 4938SOL    HW115713   2.445   5.671   5.539
 4938SOL    HW215714   2.303   5.676   5.619
 4939SOL     OW15715   5.444   1.806   5.022
 4939SOL    HW115716   5.446   1.835   4.926
 4939SOL    HW215717   5.350   1.814   5.057
 4940SOL     OW15718   0.847   1.138   4.528
 4940SOL    HW115719   0.933   1.189   4.525
 4940SOL    HW215720   0.811   1.140   4.621
 4941SOL     OW15721   4.248   2.274   6.176
 4941SOL    HW115722   4.305   2.248   6.255
 4941SOL    HW215723   4.291   2.240   6.092
 4942SOL     OW15724   5.092   3.251   5.765
 4942SOL    HW115725   5.100   3.173   5.703
 4942SOL    HW215726   4.999   3.288   5.760
 4943SOL     OW15727   3.904   3.346   0.762
 4943SOL    HW115728   3.973   3.414   0.738
 4943SOL    HW215729   3.813   3.384   0.743
 4944SOL     OW15730   2.265   4.485   2.721
 4944SOL    HW115731   2.217   4.398   2.735
 4944SOL    HW215732   2.204   4.551   2.679
 4945SOL     OW15733   1.188   1.097   3.615
 4945SOL    HW115734   1.194   1.025   3.684
 4945SOL    HW215735   1.272   1.099   3.560
 4946SOL     OW15736   0.333   3.014   1.534
 4946SOL    HW115737   0.302   2.971   1.449
 4946SOL    HW215738   0.266   3.084   1.562
 4947SOL     OW15739   1.502   0.345   0.699
 4947SOL    HW115740   1.500   0.423   0.637
 4947SOL    HW215741   1.441   0.362   0.776
 4948SOL     OW15742   2.722   0.402   2.472
 4948SOL    HW115743   2.689   0.315   2.436
 4948SOL    HW215744   2.723   0.399   2.572
 4949SOL     OW15745   4.708   0.273   5.452
 4949SOL    HW115746   4.632   0.315   5.503
 4949SOL    HW215747   4.686   0.178   5.434
 4950SOL     OW15748   3.189   5.542   3.670
 4950SOL    HW115749   3.274   5.533   3.722
 4950SOL    HW215750   3.135   5.458   3.681
 4951SOL     OW15751   5.620   1.214   4.844
 4951SOL    HW115752   5.709   1.222   4.889
 4951SOL    HW215753   5.633   1.179   4.751
 4952SOL     OW15754   0.478   0.859   4.968
 4952SOL    HW115755   0.510   0.952   4.988
 4952SOL    HW215756   0.478   0.845   4.869
 4953SOL     OW15757   2.724   6.472   1.960
 4953SOL    HW115758   2.817   6.499   1.985
 4953SOL    HW215759   2.672   6.553   1.933
 4954SOL     OW15760   4.913   4.370   6.326
 4954SOL    HW115761   4.879   4.448   6.377
 4954SOL    HW215762   4.917   4.290   6.386
 4955SOL     OW15763   1.739   5.856   6.435
 4955SOL    HW115764   1.803   5.896   6.370
 4955SOL    HW215765   1.775   5.769   6.469
 4956SOL     OW15766   3.020   6.572   5.102
 4956SOL    HW115767   3.071   6.487   5.083
 4956SOL    HW215768   2.970   6.562   5.188
 4957SOL     OW15769   6.988   0.727   3.443
 4957SOL    HW115770   0.050   0.703   3.404
 4957SOL    HW215771   6.985   0.826   3.460
 4958SOL     OW15772   6.979   6.153   5.946
 4958SOL    HW115773   6.972   6.235   5.889
 4958SOL    HW215774   0.033   6.101   5.920
 4959SOL     OW15775   6.399   0.993   6.737
 4959SOL    HW115776   6.407   1.016   6.640
 4959SOL    HW215777   6.451   1.059   6.791
 4960SOL     OW15778   3.085   6.477   3.516
 4960SOL    HW115779   3.013   6.467   3.447
 4960SOL    HW215780   3.100   6.389   3.561
 4961SOL     OW15781   5.018   1.583   5.193
 4961SOL    HW115782   5.088   1.587   5.264
 4961SOL    HW215783   4.927   1.584   5.235
 4962SOL     OW15784   5.956   2.506   1.319
 4962SOL    HW115785   6.053   2.494   1.296
 4962SOL    HW215786   5.900   2.475   1.243
 4963SOL     OW15787   5.830   5.940   0.730
 4963SOL    HW115788   5.784   5.875   0.792
 4963SOL    HW215789   5.852   5.894   0.644
 4964SOL     OW15790   3.884   6.277   3.172
 4964SOL    HW115791   3.928   6.350   3.224
 4964SOL    HW215792   3.815   6.232   3.228
 4965SOL     OW15793   0.281   6.725   3.949
 4965SOL    HW115794   0.257   6.721   4.046
 4965SOL    HW215795   0.358   6.663   3.931
 4966SOL     OW15796   2.368   6.820   4.870
 4966SOL    HW115797   2.371   6.884   4.792
 4966SOL    HW215798   2.276   6.819   4.908
 4967SOL     OW15799   4.327   3.223   6.408
 4967SOL    HW115800   4.241   3.216   6.460
 4967SOL    HW215801   4.332   3.148   6.342
 4968SOL     OW15802   5.110   3.161   3.358
 4968SOL    HW115803   5.028   3.173   3.302
 4968SOL    HW215804   5.173   3.100   3.310
 4969SOL     OW15805   1.735   1.121   2.591
 4969SOL    HW115806   1.726   1.220   2.600
 4969SOL    HW215807   1.764   1.082   2.679
 4970SOL     OW15808   1.701   2.307   4.743
 4970SOL    HW115809   1.751   2.291   4.828
 4970SOL    HW215810   1.651   2.225   4.717
 4971SOL     OW15811   6.407   5.983   3.645
 4971SOL    HW115812   6.467   5.927   3.588
 4971SOL    HW215813   6.463   6.038   3.707
 4972SOL     OW15814   2.000   3.922   0.313
 4972SOL    HW115815   2.090   3.965   0.325
 4972SOL    HW215816   1.944   3.938   0.394
 4973SOL     OW15817   6.910   0.005   1.434
 4973SOL    HW115818   6.888   6.993   1.345
 4973SOL    HW215819   7.009   0.019   1.440
 4974SOL     OW15820   6.788   4.435   0.615
 4974SOL    HW115821   6.708   4.377   0.599
 4974SOL    HW215822   6.870   4.377   0.621
 4975SOL     OW15823   5.961   5.741   0.131
 4975SOL    HW115824   5.910   5.820   0.094
 4975SOL    HW215825   6.038   5.774   0.186
 4976SOL     OW15826   3.138   0.687   4.280
 4976SOL    HW115827   3.188   0.602   4.293
 4976SOL    HW215828   3.047   0.679   4.319
 4977SOL     OW15829   5.141   4.081   0.754
 4977SOL    HW115830   5.061   4.031   0.785
 4977SOL    HW215831   5.224   4.032   0.780
 4978SOL     OW15832   6.566   3.805   5.468
 4978SOL    HW115833   6.622   3.872   5.515
 4978SOL    HW215834   6.472   3.810   5.501
 4979SOL     OW15835   0.024   1.660   4.970
 4979SOL    HW115836   0.091   1.725   4.935
 4979SOL    HW215837   7.001   1.619   4.894
 4980SOL     OW15838   4.660   6.860   3.277
 4980SOL    HW115839   4.739   6.875   3.218
 4980SOL    HW215840   4.653   6.933   3.344
 4981SOL     OW15841   5.137   5.554   5.948
 4981SOL    HW115842   5.184   5.472   5.979
 4981SOL    HW215843   5.141   5.558   5.848
 4982SOL     OW15844   2.506   1.308   6.810
 4982SOL    HW115845   2.535   1.271   6.898
 4982SOL    HW215846   2.585   1.349   6.764
 4983SOL     OW15847   4.885   3.291   4.271
 4983SOL    HW115848   4.818   3.254   4.335
 4983SOL    HW215849   4.852   3.380   4.237
 4984SOL     OW15850   5.626   3.655   4.293
 4984SOL    HW115851   5.568   3.674   4.373
 4984SOL    HW215852   5.678   3.737   4.271
 4985SOL     OW15853   6.813   6.065   3.734
 4985SOL    HW115854   6.795   5.991   3.668
 4985SOL    HW215855   6.730   6.117   3.749
 4986SOL     OW15856   6.844   4.634   3.062
 4986SOL    HW115857   6.774   4.668   3.124
 4986SOL    HW215858   6.843   4.534   3.060
 4987SOL     OW15859   0.389   1.871   1.343
 4987SOL    HW115860   0.417   1.808   1.416
 4987SOL    HW215861   0.449   1.951   1.344
 4988SOL     OW15862   6.857   1.674   3.752
 4988SOL    HW115863   6.887   1.648   3.844
 4988SOL    HW215864   6.903   1.618   3.684
 4989SOL     OW15865   5.944   0.804   1.384
 4989SOL    HW115866   5.920   0.866   1.309
 4989SOL    HW215867   5.890   0.827   1.465
 4990SOL     OW15868   1.183   1.926   6.368
 4990SOL    HW115869   1.115   1.990   6.331
 4990SOL    HW215870   1.185   1.843   6.314
 4991SOL     OW15871   0.577   3.923   4.006
 4991SOL    HW115872   0.606   3.829   3.986
 4991SOL    HW215873   0.524   3.958   3.929
 4992SOL     OW15874   4.590   0.863   4.148
 4992SOL    HW115875   4.668   0.897   4.096
 4992SOL    HW215876   4.595   0.898   4.242
 4993SOL     OW15877   2.743   4.682   3.767
 4993SOL    HW115878   2.683   4.704   3.690
 4993SOL    HW215879   2.838   4.695   3.739
 4994SOL     OW15880   1.518   0.460   2.397
 4994SOL    HW115881   1.434   0.426   2.438
 4994SOL    HW215882   1.597   0.432   2.453
 4995SOL     OW15883   6.730   3.252   5.740
 4995SOL    HW115884   6.795   3.183   5.707
 4995SOL    HW215885   6.768   3.343   5.724
 4996SOL     OW15886   1.392   0.740   2.416
 4996SOL    HW115887   1.453   0.660   2.416
 4996SOL    HW215888   1.446   0.824   2.412
 4997SOL     OW15889   5.953   2.361   3.084
 4997SOL    HW115890   5.964   2.436   3.149
 4997SOL    HW215891   5.970   2.395   2.991
 4998SOL     OW15892   2.144   3.925   4.791
 4998SOL    HW115893   2.204   3.955   4.866
 4998SOL    HW215894   2.053   3.963   4.804
 4999SOL     OW15895   5.002   5.745   1.019
 4999SOL    HW115896   4.974   5.727   1.113
 4999SOL    HW215897   4.999   5.843   1.002
 5000SOL     OW15898   1.761   0.708   3.984
 5000SOL    HW115899   1.782   0.678   3.891
 5000SOL    HW215900   1.841   0.754   4.023
 5001SOL     OW15901   1.925   4.056   6.038
 5001SOL    HW115902   1.981   3.978   6.011
 5001SOL    HW215903   1.972   4.107   6.111
 5002SOL     OW15904   1.268   2.764   3.285
 5002SOL    HW115905   1.307   2.856   3.284
 5002SOL    HW215906   1.334   2.699   3.322
 5003SOL     OW15907   0.819   6.513   3.575
 5003SOL    HW115908   0.904   6.562   3.589
 5003SOL    HW215909   0.838   6.417   3.552
 5004SOL     OW15910   2.143   5.430   5.562
 5004SOL    HW115911   2.180   5.521   5.545
 5004SOL    HW215912   2.132   5.416   5.660
 5005SOL     OW15913   3.681   2.344   0.773
 5005SOL    HW115914   3.760   2.338   0.835
 5005SOL    HW215915   3.684   2.431   0.724
 5006SOL     OW15916   5.602   6.985   6.260
 5006SOL    HW115917   5.503   6.979   6.261
 5006SOL    HW215918   5.632   0.032   6.320
 5007SOL     OW15919   2.614   0.521   5.866
 5007SOL    HW115920   2.625   0.429   5.904
 5007SOL    HW215921   2.702   0.555   5.834
 5008SOL     OW15922   6.499   0.225   3.971
 5008SOL    HW115923   6.464   0.307   3.925
 5008SOL    HW215924   6.599   0.230   3.975
 5009SOL     OW15925   2.262   6.325   1.820
 5009SOL    HW115926   2.179   6.344   1.767
 5009SOL    HW215927   2.330   6.282   1.761
 5010SOL     OW15928   3.611   3.327   4.250
 5010SOL    HW115929   3.564   3.402   4.204
 5010SOL    HW215930   3.698   3.360   4.286
 5011SOL     OW15931   2.114   3.215   2.040
 5011SOL    HW115932   2.023   3.205   2.079
 5011SOL    HW215933   2.140   3.311   2.039
 5012SOL     OW15934   5.700   2.765   6.804
 5012SOL    HW115935   5.644   2.683   6.817
 5012SOL    HW215936   5.699   2.791   6.708
 5013SOL     OW15937   5.271   0.898   0.102
 5013SOL    HW115938   5.216   0.975   0.135
 5013SOL    HW215939   5.327   0.863   0.176
 5014SOL     OW15940   5.988   5.404   0.651
 5014SOL    HW115941   5.985   5.398   0.750
 5014SOL    HW215942   5.908   5.454   0.618
 5015SOL     OW15943   3.818   1.926   3.807
 5015SOL    HW115944   3.775   1.994   3.866
 5015SOL    HW215945   3.754   1.899   3.735
 5016SOL     OW15946   1.966   1.257   2.020
 5016SOL    HW115947   1.989   1.173   2.069
 5016SOL    HW215948   2.043   1.321   2.026
 5017SOL     OW15949   2.446   2.655   0.701
 5017SOL    HW115950   2.408   2.588   0.765
 5017SOL    HW215951   2.439   2.746   0.741
 5018SOL     OW15952   0.704   4.796   1.489
 5018SOL    HW115953   0.756   4.724   1.535
 5018SOL    HW215954   0.686   4.768   1.395
 5019SOL     OW15955   2.452   4.407   0.441
 5019SOL    HW115956   2.400   4.486   0.410
 5019SOL    HW215957   2.522   4.384   0.373
 5020SOL     OW15958   5.545   6.554   5.178
 5020SOL    HW115959   5.583   6.474   5.132
 5020SOL    HW215960   5.447   6.560   5.158
 5021SOL     OW15961   1.034   3.423   5.818
 5021SOL    HW115962   1.089   3.344   5.847
 5021SOL    HW215963   1.089   3.506   5.826
 5022SOL     OW15964   1.748   0.275   1.286
 5022SOL    HW115965   1.746   0.325   1.372
 5022SOL    HW215966   1.829   0.301   1.233
 5023SOL     OW15967   6.510   3.507   0.791
 5023SOL    HW115968   6.441   3.454   0.840
 5023SOL    HW215969   6.571   3.551   0.856
 5024SOL     OW15970   0.173   4.014   2.698
 5024SOL    HW115971   0.178   4.106   2.738
 5024SOL    HW215972   0.238   4.007   2.623
 5025SOL     OW15973   4.868   2.150   2.098
 5025SOL    HW115974   4.926   2.232   2.099
 5025SOL    HW215975   4.773   2.176   2.115
 5026SOL     OW15976   5.899   5.938   6.479
 5026SOL    HW115977   5.990   5.978   6.489
 5026SOL    HW215978   5.831   6.011   6.466
 5027SOL     OW15979   0.785   6.797   2.986
 5027SOL    HW115980   0.842   6.720   3.014
 5027SOL    HW215981   0.792   6.810   2.887
 5028SOL     OW15982   0.424   6.229   1.718
 5028SOL    HW115983   0.357   6.167   1.759
 5028SOL    HW215984   0.412   6.231   1.619
 5029SOL     OW15985   0.032   3.257   3.207
 5029SOL    HW115986   7.026   3.167   3.235
 5029SOL    HW215987   0.097   3.246   3.132
 5030SOL     OW15988   6.730   0.632   6.787
 5030SOL    HW115989   6.715   0.540   6.824
 5030SOL    HW215990   6.695   0.700   6.851
 5031SOL     OW15991   5.980   1.133   4.678
 5031SOL    HW115992   5.935   1.066   4.737
 5031SOL    HW215993   5.942   1.128   4.586
 5032SOL     OW15994   1.366   4.258   0.877
 5032SOL    HW115995   1.317   4.337   0.840
 5032SOL    HW215996   1.395   4.199   0.803
 5033SOL     OW15997   1.949   5.036   6.326
 5033SOL    HW115998   2.037   4.991   6.315
 5033SOL    HW215999   1.950   5.124   6.278
 5034SOL     OW16000   0.169   3.592   2.096
 5034SOL    HW116001   0.083   3.544   2.080
 5034SOL    HW216002   0.223   3.593   2.012
 5035SOL     OW16003   5.729   4.681   1.405
 5035SOL    HW116004   5.749   4.777   1.421
 5035SOL    HW216005   5.651   4.673   1.343
 5036SOL     OW16006   0.737   5.610   6.588
 5036SOL    HW116007   0.746   5.697   6.637
 5036SOL    HW216008   0.737   5.628   6.490
 5037SOL     OW16009   4.785   2.377   2.955
 5037SOL    HW116010   4.791   2.471   2.988
 5037SOL    HW216011   4.688   2.351   2.947
 5038SOL     OW16012   1.861   5.721   5.348
 5038SOL    HW116013   1.837   5.682   5.437
 5038SOL    HW216014   1.792   5.696   5.281
 5039SOL     OW16015   1.875   3.810   5.021
 5039SOL    HW116016   1.963   3.762   5.020
 5039SOL    HW216017   1.879   3.883   5.089
 5040SOL     OW16018   2.528   3.189   6.599
 5040SOL    HW116019   2.560   3.256   6.666
 5040SOL    HW216020   2.518   3.234   6.510
 5041SOL     OW16021   0.929   3.527   1.145
 5041SOL    HW116022   0.870   3.568   1.215
 5041SOL    HW216023   0.908   3.430   1.135
 5042SOL     OW16024   0.162   3.156   6.992
 5042SOL    HW116025   0.218   3.125   6.916
 5042SOL    HW216026   0.106   3.234   6.964
 5043SOL     OW16027   3.408   0.886   5.394
 5043SOL    HW116028   3.368   0.963   5.345
 5043SOL    HW216029   3.360   0.802   5.369
 5044SOL     OW16030   6.302   6.180   3.330
 5044SOL    HW116031   6.340   6.127   3.254
 5044SOL    HW216032   6.373   6.241   3.366
 5045SOL     OW16033   5.017   3.542   0.412
 5045SOL    HW116034   5.111   3.558   0.441
 5045SOL    HW216035   5.016   3.481   0.333
 5046SOL     OW16036   3.853   2.992   5.047
 5046SOL    HW116037   3.899   3.060   5.103
 5046SOL    HW216038   3.856   2.903   5.093
 5047SOL     OW16039   6.074   1.761   2.748
 5047SOL    HW116040   6.003   1.828   2.726
 5047SOL    HW216041   6.107   1.777   2.841
 5048SOL     OW16042   6.112   2.387   1.822
 5048SOL    HW116043   6.117   2.345   1.731
 5048SOL    HW216044   6.196   2.438   1.840
 5049SOL     OW16045   6.164   1.241   3.235
 5049SOL    HW116046   6.235   1.308   3.214
 5049SOL    HW216047   6.108   1.224   3.154
 5050SOL     OW16048   0.364   1.835   1.913
 5050SOL    HW116049   0.381   1.811   2.009
 5050SOL    HW216050   0.446   1.876   1.874
 5051SOL     OW16051   3.909   3.149   0.500
 5051SOL    HW116052   3.831   3.211   0.498
 5051SOL    HW216053   3.966   3.170   0.580
 5052SOL     OW16054   2.939   4.713   6.820
 5052SOL    HW116055   2.924   4.728   6.722
 5052SOL    HW216056   3.004   4.639   6.833
 5053SOL     OW16057   2.087   3.693   2.729
 5053SOL    HW116058   2.106   3.615   2.789
 5053SOL    HW216059   2.020   3.666   2.660
 5054SOL     OW16060   3.791   5.671   5.387
 5054SOL    HW116061   3.843   5.671   5.472
 5054SOL    HW216062   3.709   5.615   5.398
 5055SOL     OW16063   0.225   1.285   4.955
 5055SOL    HW116064   0.142   1.313   5.003
 5055SOL    HW216065   0.200   1.243   4.868
 5056SOL     OW16066   6.854   4.222   6.408
 5056SOL    HW116067   6.907   4.201   6.326
 5056SOL    HW216068   6.773   4.163   6.412
 5057SOL     OW16069   1.143   5.562   3.522
 5057SOL    HW116070   1.236   5.577   3.556
 5057SOL    HW216071   1.135   5.602   3.430
 5058SOL     OW16072   4.042   3.525   6.738
 5058SOL    HW116073   4.076   3.592   6.671
 5058SOL    HW216074   3.948   3.547   6.762
 5059SOL     OW16075   4.814   2.895   4.790
 5059SOL    HW116076   4.800   2.888   4.691
 5059SOL    HW216077   4.730   2.868   4.836
 5060SOL     OW16078   6.943   2.957   4.756
 5060SOL    HW116079   6.931   2.860   4.735
 5060SOL    HW216080   0.014   2.978   4.764
 5061SOL     OW16081   2.908   3.467   4.322
 5061SOL    HW116082   2.937   3.388   4.375
 5061SOL    HW216083   2.897   3.442   4.226
 5062SOL     OW16084   5.573   1.788   2.564
 5062SOL    HW116085   5.556   1.875   2.612
 5062SOL    HW216086   5.623   1.726   2.625
 5063SOL     OW16087   1.223   6.560   1.775
 5063SOL    HW116088   1.132   6.589   1.745
 5063SOL    HW216089   1.269   6.636   1.820
 5064SOL     OW16090   4.745   5.479   0.600
 5064SOL    HW116091   4.706   5.388   0.608
 5064SOL    HW216092   4.814   5.492   0.672
 5065SOL     OW16093   1.706   0.466   3.158
 5065SOL    HW116094   1.782   0.420   3.112
 5065SOL    HW216095   1.694   0.557   3.118
 5066SOL     OW16096   2.645   4.022   1.524
 5066SOL    HW116097   2.564   3.986   1.571
 5066SOL    HW216098   2.639   4.001   1.426
 5067SOL     OW16099   4.185   2.124   1.883
 5067SOL    HW116100   4.193   2.026   1.863
 5067SOL    HW216101   4.089   2.148   1.898
 5068SOL     OW16102   2.818   5.412   7.011
 5068SOL    HW116103   2.805   5.430   0.081
 5068SOL    HW216104   2.729   5.411   6.964
 5069SOL     OW16105   2.154   2.964   5.423
 5069SOL    HW116106   2.200   2.879   5.447
 5069SOL    HW216107   2.221   3.039   5.422
 5070SOL     OW16108   5.990   4.042   4.266
 5070SOL    HW116109   6.072   4.089   4.297
 5070SOL    HW216110   5.921   4.109   4.238
 5071SOL     OW16111   3.811   2.036   2.998
 5071SOL    HW116112   3.804   2.030   3.098
 5071SOL    HW216113   3.869   2.114   2.973
 5072SOL     OW16114   2.104   1.253   1.393
 5072SOL    HW116115   2.059   1.169   1.424
 5072SOL    HW216116   2.108   1.319   1.468
 5073SOL     OW16117   1.900   5.967   1.609
 5073SOL    HW116118   1.851   6.038   1.659
 5073SOL    HW216119   1.995   5.964   1.639
 5074SOL     OW16120   3.812   1.808   1.801
 5074SOL    HW116121   3.748   1.871   1.844
 5074SOL    HW216122   3.764   1.723   1.778
 5075SOL     OW16123   1.460   2.419   0.044
 5075SOL    HW116124   1.516   2.462   0.116
 5075SOL    HW216125   1.492   2.325   0.030
 5076SOL     OW16126   5.546   0.119   0.213
 5076SOL    HW116127   5.538   0.034   0.161
 5076SOL    HW216128   5.574   0.193   0.152
 5077SOL     OW16129   1.140   3.783   6.224
 5077SOL    HW116130   1.146   3.791   6.323
 5077SOL    HW216131   1.121   3.688   6.199
 5078SOL     OW16132   0.269   0.712   4.135
 5078SOL    HW116133   0.331   0.723   4.058
 5078SOL    HW216134   0.321   0.713   4.221
 5079SOL     OW16135   2.388   2.436   5.891
 5079SOL    HW116136   2.400   2.408   5.796
 5079SOL    HW216137   2.478   2.447   5.934
 5080SOL     OW16138   5.686   5.518   5.316
 5080SOL    HW116139   5.759   5.580   5.345
 5080SOL    HW216140   5.606   5.532   5.374
 5081SOL     OW16141   2.292   5.027   5.086
 5081SOL    HW116142   2.206   5.017   5.035
 5081SOL    HW216143   2.366   4.981   5.036
 5082SOL     OW16144   4.683   6.859   6.981
 5082SOL    HW116145   4.662   6.765   7.010
 5082SOL    HW216146   4.781   6.876   6.992
 5083SOL     OW16147   3.585   0.389   0.957
 5083SOL    HW116148   3.660   0.339   0.914
 5083SOL    HW216149   3.573   0.477   0.912
 5084SOL     OW16150   0.675   4.859   4.721
 5084SOL    HW116151   0.646   4.873   4.626
 5084SOL    HW216152   0.605   4.809   4.771
 5085SOL     OW16153   1.016   3.052   5.781
 5085SOL    HW116154   0.921   3.083   5.781
 5085SOL    HW216155   1.075   3.128   5.754
 5086SOL     OW16156   0.355   4.323   2.245
 5086SOL    HW116157   0.365   4.418   2.213
 5086SOL    HW216158   0.292   4.274   2.185
 5087SOL     OW16159   6.851   5.603   2.349
 5087SOL    HW116160   6.752   5.593   2.352
 5087SOL    HW216161   6.891   5.520   2.310
 5088SOL     OW16162   4.601   6.622   3.178
 5088SOL    HW116163   4.613   6.719   3.198
 5088SOL    HW216164   4.526   6.585   3.234
 5089SOL     OW16165   5.673   3.983   3.966
 5089SOL    HW116166   5.673   4.081   3.950
 5089SOL    HW216167   5.634   3.936   3.887
 5090SOL     OW16168   2.276   0.849   2.985
 5090SOL    HW116169   2.209   0.789   3.029
 5090SOL    HW216170   2.248   0.944   2.998
 5091SOL     OW16171   6.425   0.739   0.881
 5091SOL    HW116172   6.334   0.727   0.920
 5091SOL    HW216173   6.491   0.759   0.953
 5092SOL     OW16174   3.494   3.010   3.955
 5092SOL    HW116175   3.505   3.110   3.960
 5092SOL    HW216176   3.540   2.975   3.874
 5093SOL     OW16177   2.772   1.636   1.838
 5093SOL    HW116178   2.802   1.586   1.756
 5093SOL    HW216179   2.837   1.620   1.912
 5094SOL     OW16180   1.878   5.659   6.565
 5094SOL    HW116181   1.977   5.661   6.572
 5094SOL    HW216182   1.839   5.632   6.653
 5095SOL     OW16183   0.485   1.450   2.807
 5095SOL    HW116184   0.513   1.544   2.791
 5095SOL    HW216185   0.566   1.394   2.827
 5096SOL     OW16186   5.387   4.795   6.090
 5096SOL    HW116187   5.380   4.746   6.177
 5096SOL    HW216188   5.295   4.810   6.053
 5097SOL     OW16189   6.736   0.470   0.325
 5097SOL    HW116190   6.770   0.490   0.233
 5097SOL    HW216191   6.781   0.530   0.391
 5098SOL     OW16192   3.548   2.234   1.274
 5098SOL    HW116193   3.495   2.234   1.190
 5098SOL    HW216194   3.597   2.148   1.283
 5099SOL     OW16195   0.136   6.349   1.362
 5099SOL    HW116196   0.099   6.437   1.393
 5099SOL    HW216197   0.220   6.329   1.411
 5100SOL     OW16198   3.182   5.455   3.289
 5100SOL    HW116199   3.140   5.462   3.379
 5100SOL    HW216200   3.189   5.546   3.248
 5101SOL     OW16201   4.275   0.291   4.622
 5101SOL    HW116202   4.297   0.287   4.720
 5101SOL    HW216203   4.305   0.379   4.585
 5102SOL     OW16204   4.962   6.072   4.403
 5102SOL    HW116205   4.933   5.990   4.451
 5102SOL    HW216206   5.062   6.071   4.392
 5103SOL     OW16207   0.753   1.241   4.771
 5103SOL    HW116208   0.845   1.275   4.788
 5103SOL    HW216209   0.687   1.314   4.787
 5104SOL     OW16210   3.223   5.899   1.622
 5104SOL    HW116211   3.149   5.919   1.686
 5104SOL    HW216212   3.275   5.820   1.655
 5105SOL     OW16213   3.460   3.051   6.363
 5105SOL    HW116214   3.423   3.049   6.456
 5105SOL    HW216215   3.385   3.058   6.297
 5106SOL     OW16216   3.955   1.720   1.027
 5106SOL    HW116217   3.885   1.662   1.069
 5106SOL    HW216218   4.015   1.756   1.099
 5107SOL     OW16219   5.282   2.054   0.772
 5107SOL    HW116220   5.253   1.995   0.848
 5107SOL    HW216221   5.298   1.998   0.691
 5108SOL     OW16222   4.123   3.763   5.234
 5108SOL    HW116223   4.108   3.855   5.271
 5108SOL    HW216224   4.219   3.737   5.247
 5109SOL     OW16225   1.332   2.617   0.274
 5109SOL    HW116226   1.418   2.573   0.299
 5109SOL    HW216227   1.326   2.624   0.174
 5110SOL     OW16228   0.162   0.533   6.476
 5110SOL    HW116229   0.100   0.567   6.547
 5110SOL    HW216230   0.187   0.607   6.415
 5111SOL     OW16231   1.135   7.024   4.383
 5111SOL    HW116232   1.150   0.032   4.291
 5111SOL    HW216233   1.147   6.925   4.383
 5112SOL     OW16234   0.375   0.545   3.080
 5112SOL    HW116235   0.335   0.527   2.990
 5112SOL    HW216236   0.418   0.635   3.079
 5113SOL     OW16237   1.349   6.091   1.436
 5113SOL    HW116238   1.391   6.048   1.516
 5113SOL    HW216239   1.380   6.185   1.428
 5114SOL     OW16240   3.971   6.781   0.042
 5114SOL    HW116241   3.894   6.809   0.099
 5114SOL    HW216242   3.949   6.797   6.973
 5115SOL     OW16243   1.581   4.311   2.084
 5115SOL    HW116244   1.616   4.238   2.025
 5115SOL    HW216245   1.613   4.399   2.050
 5116SOL     OW16246   2.107   6.327   0.284
 5116SOL    HW116247   2.173   6.317   0.210
 5116SOL    HW216248   2.069   6.420   0.282
 5117SOL     OW16249   0.829   4.022   3.991
 5117SOL    HW116250   0.733   3.993   3.994
 5117SOL    HW216251   0.887   3.951   4.031
 5118SOL     OW16252   5.725   0.455   0.267
 5118SOL    HW116253   5.628   0.477   0.264
 5118SOL    HW216254   5.772   0.496   0.189
 5119SOL     OW16255   4.646   1.396   1.339
 5119SOL    HW116256   4.719   1.354   1.394
 5119SOL    HW216257   4.671   1.490   1.317
 5120SOL     OW16258   4.891   6.485   5.431
 5120SOL    HW116259   4.856   6.396   5.399
 5120SOL    HW216260   4.814   6.549   5.440
 5121SOL     OW16261   3.424   3.713   0.059
 5121SOL    HW116262   3.443   3.661   0.142
 5121SOL    HW216263   3.403   3.808   0.084
 5122SOL     OW16264   3.617   5.822   2.926
 5122SOL    HW116265   3.665   5.868   3.001
 5122SOL    HW216266   3.625   5.877   2.843
 5123SOL     OW16267   5.752   1.946   4.221
 5123SOL    HW116268   5.811   1.888   4.277
 5123SOL    HW216269   5.798   2.032   4.202
 5124SOL     OW16270   2.318   6.711   4.067
 5124SOL    HW116271   2.250   6.638   4.074
 5124SOL    HW216272   2.399   6.677   4.021
 5125SOL     OW16273   0.086   1.984   3.172
 5125SOL    HW116274   0.017   1.968   3.243
 5125SOL    HW216275   0.142   2.063   3.198
 5126SOL     OW16276   0.842   6.393   6.938
 5126SOL    HW116277   0.925   6.342   6.962
 5126SOL    HW216278   0.866   6.488   6.919
 5127SOL     OW16279   0.369   5.482   6.942
 5127SOL    HW116280   0.303   5.556   6.950
 5127SOL    HW216281   0.454   5.517   6.904
 5128SOL     OW16282   6.636   6.543   0.658
 5128SOL    HW116283   6.700   6.599   0.605
 5128SOL    HW216284   6.665   6.541   0.754
 5129SOL     OW16285   4.996   6.462   2.671
 5129SOL    HW116286   4.903   6.435   2.645
 5129SOL    HW216287   5.031   6.399   2.740
 5130SOL     OW16288   0.352   5.638   2.398
 5130SOL    HW116289   0.446   5.633   2.434
 5130SOL    HW216290   0.288   5.609   2.468
 5131SOL     OW16291   2.097   3.426   3.862
 5131SOL    HW116292   2.090   3.359   3.788
 5131SOL    HW216293   2.152   3.388   3.936
 5132SOL     OW16294   4.186   2.948   5.712
 5132SOL    HW116295   4.178   2.882   5.637
 5132SOL    HW216296   4.260   2.921   5.773
 5133SOL     OW16297   2.599   4.667   0.135
 5133SOL    HW116298   2.678   4.722   0.159
 5133SOL    HW216299   2.515   4.720   0.149
 5134SOL     OW16300   6.777   2.760   2.105
 5134SOL    HW116301   6.688   2.719   2.125
 5134SOL    HW216302   6.828   2.773   2.190
 5135SOL     OW16303   6.133   2.072   5.117
 5135SOL    HW116304   6.057   2.126   5.152
 5135SOL    HW216305   6.159   2.106   5.026
 5136SOL     OW16306   4.607   0.283   5.878
 5136SOL    HW116307   4.670   0.360   5.880
 5136SOL    HW216308   4.531   0.300   5.940
 5137SOL     OW16309   5.663   3.019   6.384
 5137SOL    HW116310   5.730   3.092   6.397
 5137SOL    HW216311   5.610   3.036   6.301
 5138SOL     OW16312   3.110   3.002   5.813
 5138SOL    HW116313   3.031   2.945   5.790
 5138SOL    HW216314   3.147   3.043   5.729
 5139SOL     OW16315   1.432   6.958   3.587
 5139SOL    HW116316   1.529   6.932   3.581
 5139SOL    HW216317   1.415   0.009   3.528
 5140SOL     OW16318   3.446   1.554   0.023
 5140SOL    HW116319   3.420   1.461   0.048
 5140SOL    HW216320   3.406   1.576   6.961
 5141SOL     OW16321   0.074   3.642   0.611
 5141SOL    HW116322   0.119   3.564   0.566
 5141SOL    HW216323   0.013   3.687   0.546
 5142SOL     OW16324   6.125   1.078   3.870
 5142SOL    HW116325   6.048   1.119   3.820
 5142SOL    HW216326   6.094   1.054   3.962
 5143SOL     OW16327   0.557   4.352   3.815
 5143SOL    HW116328   0.459   4.335   3.830
 5143SOL    HW216329   0.581   4.324   3.722
 5144SOL     OW16330   1.070   5.797   6.434
 5144SOL    HW116331   1.069   5.703   6.400
 5144SOL    HW216332   1.065   5.796   6.534
 5145SOL     OW16333   1.434   4.984   5.868
 5145SOL    HW116334   1.436   5.057   5.936
 5145SOL    HW216335   1.504   4.916   5.889
 5146SOL     OW16336   4.317   3.743   5.762
 5146SOL    HW116337   4.415   3.757   5.776
 5146SOL    HW216338   4.270   3.743   5.850
 5147SOL     OW16339   0.053   4.525   2.286
 5147SOL    HW116340   0.130   4.546   2.346
 5147SOL    HW216341   6.997   4.563   2.326
 5148SOL     OW16342   1.072   6.487   1.028
 5148SOL    HW116343   1.078   6.424   1.105
 5148SOL    HW216344   1.007   6.452   0.960
 5149SOL     OW16345   6.204   5.867   4.520
 5149SOL    HW116346   6.189   5.945   4.581
 5149SOL    HW216347   6.248   5.899   4.436
 5150SOL     OW16348   2.307   5.033   2.928
 5150SOL    HW116349   2.295   5.099   3.002
 5150SOL    HW216350   2.387   5.059   2.873
 5151SOL     OW16351   5.582   1.570   0.540
 5151SOL    HW116352   5.518   1.592   0.466
 5151SOL    HW216353   5.676   1.582   0.506
 5152SOL     OW16354   2.030   4.794   6.596
 5152SOL    HW116355   1.988   4.749   6.517
 5152SOL    HW216356   1.979   4.877   6.619
 5153SOL     OW16357   2.346   0.800   6.538
 5153SOL    HW116358   2.356   0.877   6.601
 5153SOL    HW216359   2.394   0.820   6.453
 5154SOL     OW16360   1.901   3.064   6.486
 5154SOL    HW116361   1.895   3.083   6.388
 5154SOL    HW216362   1.974   2.998   6.503
 5155SOL     OW16363   3.897   6.531   2.249
 5155SOL    HW116364   3.820   6.578   2.291
 5155SOL    HW216365   3.963   6.506   2.320
 5156SOL     OW16366   7.012   3.327   5.506
 5156SOL    HW116367   0.009   3.279   5.422
 5156SOL    HW216368   6.992   3.261   5.578
 5157SOL     OW16369   4.519   2.590   3.826
 5157SOL    HW116370   4.427   2.621   3.848
 5157SOL    HW216371   4.526   2.491   3.839
 5158SOL     OW16372   3.482   1.626   1.329
 5158SOL    HW116373   3.383   1.635   1.344
 5158SOL    HW216374   3.525   1.716   1.337
 5159SOL     OW16375   0.334   3.189   4.531
 5159SOL    HW116376   0.409   3.123   4.536
 5159SOL    HW216377   0.364   3.271   4.483
 5160SOL     OW16378   0.395   4.014   3.827
 5160SOL    HW116379   0.397   4.107   3.790
 5160SOL    HW216380   0.408   3.948   3.754
 5161SOL     OW16381   1.655   3.495   4.295
 5161SOL    HW116382   1.618   3.434   4.365
 5161SOL    HW216383   1.635   3.459   4.204
 5162SOL     OW16384   1.213   4.980   4.098
 5162SOL    HW116385   1.200   5.079   4.103
 5162SOL    HW216386   1.203   4.940   4.189
 5163SOL     OW16387   3.373   4.819   1.121
 5163SOL    HW116388   3.332   4.897   1.073
 5163SOL    HW216389   3.433   4.852   1.193
 5164SOL     OW16390   5.744   2.463   6.984
 5164SOL    HW116391   5.658   2.498   6.948
 5164SOL    HW216392   5.749   2.364   6.971
 5165SOL     OW16393   5.871   3.548   5.296
 5165SOL    HW116394   5.888   3.638   5.254
 5165SOL    HW216395   5.775   3.543   5.323
 5166SOL     OW16396   1.332   5.421   1.680
 5166SOL    HW116397   1.320   5.332   1.724
 5166SOL    HW216398   1.357   5.408   1.584
 5167SOL     OW16399   6.105   0.278   5.851
 5167SOL    HW116400   6.141   0.348   5.913
 5167SOL    HW216401   6.148   0.190   5.873
 5168SOL     OW16402   5.109   3.125   3.644
 5168SOL    HW116403   5.121   3.128   3.545
 5168SOL    HW216404   5.092   3.030   3.672
 5169SOL     OW16405   3.467   2.442   5.796
 5169SOL    HW116406   3.458   2.384   5.877
 5169SOL    HW216407   3.452   2.387   5.714
 5170SOL     OW16408   6.855   3.863   5.877
 5170SOL    HW116409   6.826   3.910   5.961
 5170SOL    HW216410   6.819   3.770   5.878
 5171SOL     OW16411   2.269   4.934   4.267
 5171SOL    HW116412   2.335   5.003   4.236
 5171SOL    HW216413   2.185   4.979   4.297
 5172SOL     OW16414   0.179   2.941   2.200
 5172SOL    HW116415   0.259   2.920   2.255
 5172SOL    HW216416   0.131   3.020   2.237
 5173SOL     OW16417   5.817   4.794   6.401
 5173SOL    HW116418   5.742   4.746   6.446
 5173SOL    HW216419   5.801   4.892   6.406
 5174SOL     OW16420   1.977   4.603   3.966
 5174SOL    HW116421   2.006   4.542   4.040
 5174SOL    HW216422   2.016   4.573   3.880
 5175SOL     OW16423   2.454   3.941   6.886
 5175SOL    HW116424   2.515   3.862   6.881
 5175SOL    HW216425   2.435   3.962   6.982
 5176SOL     OW16426   4.344   3.266   1.378
 5176SOL    HW116427   4.317   3.236   1.287
 5176SOL    HW216428   4.347   3.187   1.440
 5177SOL     OW16429   4.838   0.130   5.877
 5177SOL    HW116430   4.744   0.165   5.888
 5177SOL    HW216431   4.860   0.124   5.780
 5178SOL     OW16432   2.064   2.813   1.211
 5178SOL    HW116433   1.999   2.750   1.168
 5178SOL    HW216434   2.026   2.847   1.296
 5179SOL     OW16435   4.286   5.721   5.342
 5179SOL    HW116436   4.263   5.641   5.398
 5179SOL    HW216437   4.204   5.777   5.328
 5180SOL     OW16438   3.139   3.076   6.287
 5180SOL    HW116439   3.050   3.121   6.274
 5180SOL    HW216440   3.170   3.038   6.199
 5181SOL     OW16441   5.239   1.677   2.705
 5181SOL    HW116442   5.321   1.687   2.649
 5181SOL    HW216443   5.185   1.762   2.700
 5182SOL     OW16444   5.102   5.330   1.373
 5182SOL    HW116445   5.066   5.304   1.463
 5182SOL    HW216446   5.201   5.315   1.372
 5183SOL     OW16447   4.222   0.652   2.545
 5183SOL    HW116448   4.132   0.653   2.501
 5183SOL    HW216449   4.293   0.648   2.475
 5184SOL     OW16450   0.949   1.858   3.920
 5184SOL    HW116451   1.032   1.910   3.939
 5184SOL    HW216452   0.916   1.879   3.828
 5185SOL     OW16453   4.908   6.896   3.156
 5185SOL    HW116454   5.001   6.868   3.178
 5185SOL    HW216455   4.900   6.911   3.057
 5186SOL     OW16456   5.922   3.407   0.898
 5186SOL    HW116457   6.008   3.413   0.848
 5186SOL    HW216458   5.867   3.489   0.881
 5187SOL     OW16459   6.249   0.892   3.607
 5187SOL    HW116460   6.265   0.954   3.530
 5187SOL    HW216461   6.300   0.924   3.687
 5188SOL     OW16462   0.513   4.738   0.669
 5188SOL    HW116463   0.481   4.748   0.763
 5188SOL    HW216464   0.588   4.802   0.653
 5189SOL     OW16465   4.821   5.020   1.160
 5189SOL    HW116466   4.832   4.972   1.246
 5189SOL    HW216467   4.810   4.954   1.086
 5190SOL     OW16468   0.653   2.210   4.611
 5190SOL    HW116469   0.731   2.156   4.579
 5190SOL    HW216470   0.569   2.157   4.599
 5191SOL     OW16471   3.671   0.541   2.051
 5191SOL    HW116472   3.749   0.590   2.091
 5191SOL    HW216473   3.611   0.508   2.124
 5192SOL     OW16474   4.058   5.558   2.394
 5192SOL    HW116475   3.972   5.595   2.429
 5192SOL    HW216476   4.059   5.459   2.405
 5193SOL     OW16477   4.651   4.803   4.019
 5193SOL    HW116478   4.726   4.860   3.987
 5193SOL    HW216479   4.577   4.805   3.951
 5194SOL     OW16480   4.484   0.106   6.259
 5194SOL    HW116481   4.410   0.140   6.317
 5194SOL    HW216482   4.556   0.175   6.252
 5195SOL     OW16483   6.476   6.239   4.477
 5195SOL    HW116484   6.552   6.304   4.470
 5195SOL    HW216485   6.501   6.164   4.538
 5196SOL     OW16486   1.293   3.398   1.012
 5196SOL    HW116487   1.360   3.343   1.061
 5196SOL    HW216488   1.244   3.457   1.076
 5197SOL     OW16489   2.266   5.928   4.161
 5197SOL    HW116490   2.169   5.932   4.138
 5197SOL    HW216491   2.279   5.868   4.240
 5198SOL     OW16492   3.417   0.229   4.408
 5198SOL    HW116493   3.498   0.197   4.457
 5198SOL    HW216494   3.358   0.151   4.388
 5199SOL     OW16495   1.849   6.269   0.763
 5199SOL    HW116496   1.881   6.203   0.831
 5199SOL    HW216497   1.927   6.318   0.724
 5200SOL     OW16498   1.078   1.889   5.105
 5200SOL    HW116499   1.137   1.820   5.063
 5200SOL    HW216500   1.134   1.964   5.139
 5201SOL     OW16501   4.952   5.941   4.013
 5201SOL    HW116502   4.865   5.972   4.049
 5201SOL    HW216503   5.027   5.979   4.067
 5202SOL     OW16504   5.586   3.419   6.223
 5202SOL    HW116505   5.670   3.375   6.253
 5202SOL    HW216506   5.510   3.354   6.230
 5203SOL     OW16507   1.756   0.997   7.027
 5203SOL    HW116508   1.709   0.947   0.073
 5203SOL    HW216509   1.688   1.036   6.965
 5204SOL     OW16510   3.189   6.387   6.938
 5204SOL    HW116511   3.270   6.402   6.995
 5204SOL    HW216512   3.213   6.331   6.859
 5205SOL     OW16513   6.836   5.591   0.088
 5205SOL    HW116514   6.917   5.534   0.074
 5205SOL    HW216515   6.850   5.680   0.044
 5206SOL     OW16516   0.430   5.294   5.767
 5206SOL    HW116517   0.366   5.277   5.693
 5206SOL    HW216518   0.483   5.377   5.748
 5207SOL     OW16519   0.503   0.609   3.608
 5207SOL    HW116520   0.596   0.601   3.645
 5207SOL    HW216521   0.496   0.693   3.553
 5208SOL     OW16522   4.745   2.268   0.416
 5208SOL    HW116523   4.833   2.312   0.433
 5208SOL    HW216524   4.671   2.332   0.437
 5209SOL     OW16525   5.005   0.736   2.066
 5209SOL    HW116526   5.001   0.636   2.055
 5209SOL    HW216527   5.042   0.777   1.982
 5210SOL     OW16528   5.418   3.689   1.233
 5210SOL    HW116529   5.435   3.693   1.332
 5210SOL    HW216530   5.369   3.771   1.204
 5211SOL     OW16531   5.224   1.537   4.729
 5211SOL    HW116532   5.144   1.548   4.788
 5211SOL    HW216533   5.299   1.497   4.782
 5212SOL     OW16534   1.013   2.831   0.574
 5212SOL    HW116535   1.009   2.916   0.626
 5212SOL    HW216536   0.920   2.794   0.565
 5213SOL     OW16537   4.342   3.822   1.736
 5213SOL    HW116538   4.428   3.871   1.748
 5213SOL    HW216539   4.266   3.886   1.733
 5214SOL     OW16540   4.835   3.718   5.715
 5214SOL    HW116541   4.899   3.756   5.781
 5214SOL    HW216542   4.851   3.761   5.625
 5215SOL     OW16543   6.874   4.028   4.160
 5215SOL    HW116544   6.934   4.005   4.237
 5215SOL    HW216545   6.782   4.045   4.193
 5216SOL     OW16546   4.634   5.836   1.018
 5216SOL    HW116547   4.571   5.899   1.064
 5216SOL    HW216548   4.721   5.883   0.999
 5217SOL     OW16549   3.805   6.247   4.584
 5217SOL    HW116550   3.892   6.291   4.560
 5217SOL    HW216551   3.821   6.178   4.655
 5218SOL     OW16552   0.171   1.149   0.818
 5218SOL    HW116553   0.233   1.162   0.741
 5218SOL    HW216554   0.204   1.201   0.896
 5219SOL     OW16555   3.313   1.854   4.182
 5219SOL    HW116556   3.373   1.884   4.107
 5219SOL    HW216557   3.369   1.836   4.263
 5220SOL     OW16558   1.749   4.716   2.880
 5220SOL    HW116559   1.688   4.736   2.803
 5220SOL    HW216560   1.707   4.747   2.965
 5221SOL     OW16561   7.010   0.324   2.144
 5221SOL    HW116562   0.074   0.365   2.143
 5221SOL    HW216563   6.990   0.288   2.234
 5222SOL     OW16564   3.714   5.346   2.347
 5222SOL    HW116565   3.755   5.281   2.282
 5222SOL    HW216566   3.689   5.430   2.299
 5223SOL     OW16567   0.512   2.127   0.632
 5223SOL    HW116568   0.475   2.214   0.667
 5223SOL    HW216569   0.489   2.118   0.535
 5224SOL     OW16570   6.998   1.721   4.536
 5224SOL    HW116571   0.010   1.688   4.450
 5224SOL    HW216572   6.899   1.705   4.535
 5225SOL     OW16573   0.125   0.494   4.240
 5225SOL    HW116574   0.125   0.403   4.199
 5225SOL    HW216575   0.176   0.557   4.181
 5226SOL     OW16576   0.504   6.226   3.258
 5226SOL    HW116577   0.410   6.192   3.254
 5226SOL    HW216578   0.567   6.150   3.240
 5227SOL     OW16579   0.064   3.660   6.153
 5227SOL    HW116580   6.994   3.659   6.131
 5227SOL    HW216581   0.075   3.654   6.253
 5228SOL     OW16582   0.760   2.485   6.892
 5228SOL    HW116583   0.727   2.566   6.940
 5228SOL    HW216584   0.820   2.433   6.952
 5229SOL     OW16585   3.279   6.220   6.735
 5229SOL    HW116586   3.356   6.281   6.719
 5229SOL    HW216587   3.278   6.149   6.665
 5230SOL     OW16588   6.218   0.494   3.135
 5230SOL    HW116589   6.276   0.563   3.180
 5230SOL    HW216590   6.160   0.450   3.203
 5231SOL     OW16591   5.064   2.136   3.493
 5231SOL    HW116592   4.993   2.079   3.452
 5231SOL    HW216593   5.114   2.083   3.562
 5232SOL     OW16594   1.386   4.171   6.126
 5232SOL    HW116595   1.475   4.130   6.108
 5232SOL    HW216596   1.315   4.100   6.121
 5233SOL     OW16597   3.228   0.819   1.960
 5233SOL    HW116598   3.177   0.776   1.885
 5233SOL    HW216599   3.173   0.893   2.000
 5234SOL     OW16600   3.104   2.949   6.520
 5234SOL    HW116601   3.102   3.005   6.437
 5234SOL    HW216602   3.197   2.949   6.558
 5235SOL     OW16603   2.105   2.326   0.509
 5235SOL    HW116604   2.130   2.246   0.564
 5235SOL    HW216605   2.182   2.389   0.503
 5236SOL     OW16606   3.245   5.237   1.639
 5236SOL    HW116607   3.315   5.212   1.707
 5236SOL    HW216608   3.262   5.187   1.554
 5237SOL     OW16609   2.515   1.364   4.914
 5237SOL    HW116610   2.605   1.337   4.879
 5237SOL    HW216611   2.524   1.393   5.009
 5238SOL     OW16612   1.082   5.215   1.449
 5238SOL    HW116613   1.137   5.298   1.441
 5238SOL    HW216614   0.999   5.224   1.395
 5239SOL     OW16615   3.349   3.548   0.885
 5239SOL    HW116616   3.358   3.467   0.827
 5239SOL    HW216617   3.387   3.627   0.837
 5240SOL     OW16618   2.594   2.404   5.357
 5240SOL    HW116619   2.516   2.406   5.295
 5240SOL    HW216620   2.678   2.393   5.303
 5241SOL     OW16621   0.625   5.663   2.487
 5241SOL    HW116622   0.694   5.674   2.416
 5241SOL    HW216623   0.645   5.724   2.563
 5242SOL     OW16624   5.110   0.272   2.197
 5242SOL    HW116625   5.039   0.327   2.153
 5242SOL    HW216626   5.172   0.333   2.247
 5243SOL     OW16627   2.653   6.377   1.642
 5243SOL    HW116628   2.599   6.438   1.699
 5243SOL    HW216629   2.741   6.420   1.619
 5244SOL     OW16630   5.351   3.745   0.263
 5244SOL    HW116631   5.310   3.702   0.182
 5244SOL    HW216632   5.332   3.689   0.344
 5245SOL     OW16633   3.974   4.604   0.826
 5245SOL    HW116634   3.917   4.524   0.811
 5245SOL    HW216635   3.945   4.678   0.766
 5246SOL     OW16636   6.156   2.613   2.528
 5246SOL    HW116637   6.165   2.688   2.594
 5246SOL    HW216638   6.209   2.535   2.560
 5247SOL     OW16639   3.288   0.946   5.886
 5247SOL    HW116640   3.287   0.866   5.826
 5247SOL    HW216641   3.202   0.995   5.879
 5248SOL     OW16642   7.014   1.761   3.030
 5248SOL    HW116643   0.038   1.837   3.070
 5248SOL    HW216644   6.976   1.704   3.102
 5249SOL     OW16645   1.554   5.716   6.563
 5249SOL    HW116646   1.607   5.776   6.503
 5249SOL    HW216647   1.530   5.632   6.514
 5250SOL     OW16648   1.246   5.802   0.428
 5250SOL    HW116649   1.270   5.899   0.430
 5250SOL    HW216650   1.227   5.770   0.521
 5251SOL     OW16651   1.127   4.438   0.808
 5251SOL    HW116652   1.054   4.369   0.816
 5251SOL    HW216653   1.105   4.502   0.735
 5252SOL     OW16654   3.015   6.503   1.753
 5252SOL    HW116655   3.113   6.516   1.736
 5252SOL    HW216656   2.969   6.487   1.666
 5253SOL     OW16657   6.669   3.792   4.633
 5253SOL    HW116658   6.742   3.820   4.695
 5253SOL    HW216659   6.708   3.747   4.553
 5254SOL     OW16660   6.228   0.071   3.618
 5254SOL    HW116661   6.165   7.025   3.591
 5254SOL    HW216662   6.207   0.101   3.711
 5255SOL     OW16663   5.599   2.526   4.654
 5255SOL    HW116664   5.617   2.567   4.743
 5255SOL    HW216665   5.672   2.551   4.590
 5256SOL     OW16666   4.990   1.716   4.242
 5256SOL    HW116667   4.919   1.787   4.243
 5256SOL    HW216668   5.080   1.759   4.251
 5257SOL     OW16669   4.670   0.021   1.088
 5257SOL    HW116670   4.735   0.079   1.136
 5257SOL    HW216671   4.707   7.026   0.997
 5258SOL     OW16672   5.625   2.273   3.035
 5258SOL    HW116673   5.651   2.317   3.121
 5258SOL    HW216674   5.536   2.307   3.004
 5259SOL     OW16675   4.748   5.722   2.733
 5259SOL    HW116676   4.779   5.752   2.823
 5259SOL    HW216677   4.649   5.708   2.736
 5260SOL     OW16678   3.965   5.352   0.511
 5260SOL    HW116679   4.021   5.430   0.481
 5260SOL    HW216680   4.018   5.268   0.501
 5261SOL     OW16681   0.211   4.012   6.530
 5261SOL    HW116682   0.288   3.974   6.478
 5261SOL    HW216683   0.171   4.089   6.480
 5262SOL     OW16684   3.164   1.041   3.761
 5262SOL    HW116685   3.104   1.119   3.742
 5262SOL    HW216686   3.257   1.073   3.776
 5263SOL     OW16687   1.475   1.084   2.825
 5263SOL    HW116688   1.509   0.992   2.808
 5263SOL    HW216689   1.426   1.086   2.912
 5264SOL     OW16690   6.352   2.534   1.886
 5264SOL    HW116691   6.354   2.627   1.920
 5264SOL    HW216692   6.420   2.523   1.813
 5265SOL     OW16693   6.597   3.078   4.275
 5265SOL    HW116694   6.684   3.084   4.324
 5265SOL    HW216695   6.536   3.149   4.309
 5266SOL     OW16696   2.779   5.482   0.235
 5266SOL    HW116697   2.791   5.568   0.186
 5266SOL    HW216698   2.684   5.452   0.227
 5267SOL     OW16699   4.953   2.380   4.859
 5267SOL    HW116700   4.893   2.423   4.791
 5267SOL    HW216701   4.920   2.287   4.878
 5268SOL     OW16702   5.226   0.622   6.915
 5268SOL    HW116703   5.183   0.559   6.850
 5268SOL    HW216704   5.188   0.606   7.006
 5269SOL     OW16705   0.477   6.640   2.052
 5269SOL    HW116706   0.458   6.573   1.980
 5269SOL    HW216707   0.455   6.732   2.019
 5270SOL     OW16708   5.809   1.302   1.789
 5270SOL    HW116709   5.724   1.353   1.790
 5270SOL    HW216710   5.846   1.299   1.696
 5271SOL     OW16711   5.715   5.153   5.348
 5271SOL    HW116712   5.693   5.110   5.260
 5271SOL    HW216713   5.730   5.081   5.417
 5272SOL     OW16714   3.398   5.306   1.172
 5272SOL    HW116715   3.439   5.241   1.108
 5272SOL    HW216716   3.337   5.368   1.123
 5273SOL     OW16717   0.255   3.532   2.368
 5273SOL    HW116718   0.215   3.486   2.289
 5273SOL    HW216719   0.291   3.621   2.341
 5274SOL     OW16720   5.272   7.010   2.898
 5274SOL    HW116721   5.227   0.063   2.861
 5274SOL    HW216722   5.217   6.929   2.878
 5275SOL     OW16723   3.720   1.474   0.538
 5275SOL    HW116724   3.734   1.446   0.633
 5275SOL    HW216725   3.678   1.399   0.487
 5276SOL     OW16726   2.023   0.307   1.584
 5276SOL    HW116727   2.008   0.376   1.655
 5276SOL    HW216728   1.971   0.332   1.502
 5277SOL     OW16729   2.750   1.139   3.136
 5277SOL    HW116730   2.797   1.107   3.054
 5277SOL    HW216731   2.654   1.113   3.132
 5278SOL     OW16732   4.857   5.478   4.452
 5278SOL    HW116733   4.937   5.488   4.510
 5278SOL    HW216734   4.879   5.418   4.375
 5279SOL     OW16735   2.736   5.924   0.642
 5279SOL    HW116736   2.654   5.926   0.698
 5279SOL    HW216737   2.786   6.010   0.651
 5280SOL     OW16738   2.987   5.903   4.923
 5280SOL    HW116739   2.925   5.928   4.848
 5280SOL    HW216740   2.985   5.803   4.935
 5281SOL     OW16741   6.199   2.321   2.395
 5281SOL    HW116742   6.212   2.317   2.494
 5281SOL    HW216743   6.126   2.387   2.374
 5282SOL     OW16744   3.080   1.675   3.809
 5282SOL    HW116745   3.118   1.624   3.886
 5282SOL    HW216746   2.988   1.641   3.789
 5283SOL     OW16747   4.935   6.778   1.848
 5283SOL    HW116748   4.991   6.733   1.779
 5283SOL    HW216749   4.968   6.871   1.863
 5284SOL     OW16750   5.462   4.263   3.304
 5284SOL    HW116751   5.433   4.358   3.300
 5284SOL    HW216752   5.386   4.204   3.277
 5285SOL     OW16753   2.968   4.883   4.320
 5285SOL    HW116754   3.062   4.897   4.352
 5285SOL    HW216755   2.967   4.882   4.220
 5286SOL     OW16756   2.259   4.270   1.145
 5286SOL    HW116757   2.164   4.243   1.136
 5286SOL    HW216758   2.270   4.325   1.228
 5287SOL     OW16759   2.724   1.359   1.043
 5287SOL    HW116760   2.744   1.427   1.113
 5287SOL    HW216761   2.808   1.330   0.999
 5288SOL     OW16762   3.648   0.046   1.429
 5288SOL    HW116763   3.679   7.016   1.353
 5288SOL    HW216764   3.690   0.014   1.514
 5289SOL     OW16765   1.447   4.991   0.036
 5289SOL    HW116766   1.537   4.950   0.055
 5289SOL    HW216767   1.451   5.042   6.978
 5290SOL     OW16768   2.937   5.067   6.463
 5290SOL    HW116769   3.004   5.043   6.532
 5290SOL    HW216770   2.860   5.004   6.467
 5291SOL     OW16771   2.459   5.362   5.463
 5291SOL    HW116772   2.488   5.431   5.529
 5291SOL    HW216773   2.368   5.328   5.487
 5292SOL     OW16774   6.160   3.041   0.441
 5292SOL    HW116775   6.186   2.976   0.370
 5292SOL    HW216776   6.060   3.043   0.449
 5293SOL     OW16777   0.838   1.171   5.216
 5293SOL    HW116778   0.881   1.195   5.302
 5293SOL    HW216779   0.906   1.130   5.154
 5294SOL     OW16780   5.365   3.630   6.845
 5294SOL    HW116781   5.332   3.614   6.938
 5294SOL    HW216782   5.300   3.590   6.780
 5295SOL     OW16783   5.474   1.405   2.742
 5295SOL    HW116784   5.374   1.398   2.742
 5295SOL    HW216785   5.513   1.327   2.693
 5296SOL     OW16786   1.504   5.145   6.857
 5296SOL    HW116787   1.528   5.075   6.790
 5296SOL    HW216788   1.412   5.180   6.838
 5297SOL     OW16789   1.803   2.502   0.977
 5297SOL    HW116790   1.869   2.443   1.023
 5297SOL    HW216791   1.735   2.533   1.043
 5298SOL     OW16792   6.314   5.493   2.112
 5298SOL    HW116793   6.242   5.540   2.162
 5298SOL    HW216794   6.354   5.556   2.045
 5299SOL     OW16795   2.292   0.674   1.520
 5299SOL    HW116796   2.382   0.653   1.556
 5299SOL    HW216797   2.293   0.763   1.475
 5300SOL     OW16798   0.107   5.434   3.233
 5300SOL    HW116799   0.183   5.422   3.169
 5300SOL    HW216800   0.045   5.356   3.225
 5301SOL     OW16801   3.995   1.480   6.794
 5301SOL    HW116802   3.978   1.391   6.752
 5301SOL    HW216803   3.908   1.521   6.821
 5302SOL     OW16804   6.519   4.073   2.273
 5302SOL    HW116805   6.532   4.160   2.226
 5302SOL    HW216806   6.439   4.078   2.332
 5303SOL     OW16807   6.452   5.443   3.709
 5303SOL    HW116808   6.462   5.361   3.765
 5303SOL    HW216809   6.356   5.472   3.709
 5304SOL     OW16810   5.001   2.109   6.332
 5304SOL    HW116811   5.047   2.109   6.243
 5304SOL    HW216812   4.994   2.202   6.366
 5305SOL     OW16813   1.639   0.984   4.393
 5305SOL    HW116814   1.693   0.925   4.332
 5305SOL    HW216815   1.699   1.054   4.432
 5306SOL     OW16816   3.069   5.786   5.258
 5306SOL    HW116817   3.061   5.875   5.213
 5306SOL    HW216818   3.005   5.721   5.216
 5307SOL     OW16819   4.702   6.440   5.762
 5307SOL    HW116820   4.612   6.482   5.750
 5307SOL    HW216821   4.707   6.356   5.709
 5308SOL     OW16822   0.462   0.406   3.909
 5308SOL    HW116823   0.446   0.341   3.983
 5308SOL    HW216824   0.463   0.357   3.822
 5309SOL     OW16825   3.955   3.880   3.463
 5309SOL    HW116826   3.950   3.883   3.563
 5309SOL    HW216827   3.868   3.911   3.424
 5310SOL     OW16828   5.201   2.621   1.595
 5310SOL    HW116829   5.164   2.686   1.660
 5310SOL    HW216830   5.160   2.531   1.610
 5311SOL     OW16831   1.357   5.474   6.864
 5311SOL    HW116832   1.351   5.485   6.765
 5311SOL    HW216833   1.427   5.406   6.886
 5312SOL     OW16834   0.881   5.106   2.387
 5312SOL    HW116835   0.905   5.195   2.349
 5312SOL    HW216836   0.826   5.119   2.469
 5313SOL     OW16837   1.045   5.746   6.693
 5313SOL    HW116838   1.082   5.714   6.780
 5313SOL    HW216839   0.959   5.795   6.710
 5314SOL     OW16840   4.086   5.146   0.318
 5314SOL    HW116841   4.115   5.235   0.283
 5314SOL    HW216842   4.158   5.109   0.378
 5315SOL     OW16843   4.809   4.183   1.993
 5315SOL    HW116844   4.716   4.222   1.997
 5315SOL    HW216845   4.806   4.088   2.024
 5316SOL     OW16846   6.878   5.036   5.086
 5316SOL    HW116847   6.919   4.945   5.092
 5316SOL    HW216848   6.887   5.070   4.993
 5317SOL     OW16849   5.690   0.880   3.527
 5317SOL    HW116850   5.662   0.898   3.432
 5317SOL    HW216851   5.790   0.887   3.533
 5318SOL     OW16852   6.773   2.658   4.925
 5318SOL    HW116853   6.748   2.606   4.843
 5318SOL    HW216854   6.714   2.738   4.932
 5319SOL     OW16855   5.776   0.223   6.608
 5319SOL    HW116856   5.775   0.264   6.700
 5319SOL    HW216857   5.871   0.206   6.581
 5320SOL     OW16858   6.060   4.180   6.905
 5320SOL    HW116859   6.071   4.152   6.809
 5320SOL    HW216860   5.969   4.155   6.936
 5321SOL     OW16861   1.520   4.908   4.481
 5321SOL    HW116862   1.443   4.847   4.467
 5321SOL    HW216863   1.600   4.855   4.511
 5322SOL     OW16864   3.852   6.507   6.956
 5322SOL    HW116865   3.886   6.493   0.022
 5322SOL    HW216866   3.912   6.571   6.908
 5323SOL     OW16867   4.368   1.933   0.563
 5323SOL    HW116868   4.281   1.981   0.564
 5323SOL    HW216869   4.354   1.839   0.531
 5324SOL     OW16870   3.913   2.178   1.872
 5324SOL    HW116871   3.900   2.148   1.778
 5324SOL    HW216872   3.828   2.218   1.907
 5325SOL     OW16873   4.882   6.650   2.492
 5325SOL    HW116874   4.922   6.587   2.559
 5325SOL    HW216875   4.880   6.607   2.402
 5326SOL     OW16876   0.060   5.593   1.730
 5326SOL    HW116877   0.086   5.500   1.703
 5326SOL    HW216878   0.142   5.650   1.736
 5327SOL     OW16879   0.511   6.782   4.788
 5327SOL    HW116880   0.558   6.852   4.842
 5327SOL    HW216881   0.478   6.710   4.849
 5328SOL     OW16882   3.711   3.549   6.205
 5328SOL    HW116883   3.705   3.515   6.112
 5328SOL    HW216884   3.664   3.485   6.267
 5329SOL     OW16885   0.290   4.436   0.208
 5329SOL    HW116886   0.381   4.397   0.197
 5329SOL    HW216887   0.243   4.437   0.119
 5330SOL     OW16888   4.077   3.713   0.420
 5330SOL    HW116889   4.103   3.808   0.439
 5330SOL    HW216890   4.053   3.704   0.323
 5331SOL     OW16891   4.527   2.369   0.546
 5331SOL    HW116892   4.444   2.413   0.511
 5331SOL    HW216893   4.517   2.354   0.645
 5332SOL     OW16894   6.316   5.081   0.546
 5332SOL    HW116895   6.415   5.093   0.540
 5332SOL    HW216896   6.271   5.170   0.535
 5333SOL     OW16897   2.519   1.120   3.578
 5333SOL    HW116898   2.555   1.029   3.598
 5333SOL    HW216899   2.580   1.189   3.616
 5334SOL     OW16900   4.491   4.853   3.804
 5334SOL    HW116901   4.486   4.950   3.825
 5334SOL    HW216902   4.407   4.808   3.835
 5335SOL     OW16903   6.884   4.642   2.465
 5335SOL    HW116904   6.889   4.741   2.475
 5335SOL    HW216905   6.923   4.599   2.547
 5336SOL     OW16906   2.106   1.866   4.021
 5336SOL    HW116907   2.022   1.908   4.057
 5336SOL    HW216908   2.138   1.919   3.942
 5337SOL     OW16909   6.226   4.378   1.403
 5337SOL    HW116910   6.291   4.327   1.346
 5337SOL    HW216911   6.233   4.476   1.381
 5338SOL     OW16912   6.031   2.763   0.006
 5338SOL    HW116913   6.057   2.829   6.962
 5338SOL    HW216914   6.001   2.678   6.990
 5339SOL     OW16915   5.905   2.238   2.254
 5339SOL    HW116916   5.947   2.327   2.269
 5339SOL    HW216917   5.906   2.217   2.156
 5340SOL     OW16918   5.614   3.132   2.194
 5340SOL    HW116919   5.693   3.160   2.249
 5340SOL    HW216920   5.604   3.032   2.199
 5341SOL     OW16921   4.552   4.892   3.198
 5341SOL    HW116922   4.498   4.953   3.140
 5341SOL    HW216923   4.577   4.810   3.146
 5342SOL     OW16924   5.968   6.818   5.976
 5342SOL    HW116925   5.958   6.738   5.917
 5342SOL    HW216926   6.016   6.793   6.060
 5343SOL     OW16927   3.812   3.628   5.579
 5343SOL    HW116928   3.837   3.599   5.486
 5343SOL    HW216929   3.723   3.590   5.602
 5344SOL     OW16930   0.728   1.492   0.124
 5344SOL    HW116931   0.659   1.420   0.122
 5344SOL    HW216932   0.779   1.493   0.038
 5345SOL     OW16933   4.758   1.409   6.792
 5345SOL    HW116934   4.684   1.407   6.859
 5345SOL    HW216935   4.835   1.353   6.825
 5346SOL     OW16936   2.818   5.160   3.703
 5346SOL    HW116937   2.793   5.077   3.753
 5346SOL    HW216938   2.807   5.145   3.605
 5347SOL     OW16939   6.792   2.646   3.596
 5347SOL    HW116940   6.776   2.694   3.681
 5347SOL    HW216941   6.851   2.701   3.536
 5348SOL     OW16942   6.010   1.565   4.827
 5348SOL    HW116943   6.010   1.474   4.870
 5348SOL    HW216944   6.007   1.635   4.898
 5349SOL     OW16945   0.578   2.956   2.006
 5349SOL    HW116946   0.638   3.002   2.071
 5349SOL    HW216947   0.633   2.905   1.940
 5350SOL     OW16948   1.584   0.101   5.929
 5350SOL    HW116949   1.646   0.023   5.931
 5350SOL    HW216950   1.629   0.180   5.972
 5351SOL     OW16951   0.380   5.597   1.586
 5351SOL    HW116952   0.339   5.550   1.665
 5351SOL    HW216953   0.452   5.540   1.547
 5352SOL     OW16954   1.970   4.155   2.911
 5352SOL    HW116955   1.963   4.246   2.872
 5352SOL    HW216956   1.973   4.162   3.011
 5353SOL     OW16957   3.905   5.301   3.885
 5353SOL    HW116958   3.893   5.217   3.938
 5353SOL    HW216959   3.948   5.278   3.798
 5354SOL     OW16960   3.636   5.135   0.682
 5354SOL    HW116961   3.698   5.094   0.750
 5354SOL    HW216962   3.605   5.224   0.716
 5355SOL     OW16963   5.216   5.546   5.648
 5355SOL    HW116964   5.147   5.605   5.607
 5355SOL    HW216965   5.288   5.528   5.580
 5356SOL     OW16966   0.038   3.903   1.770
 5356SOL    HW116967   0.049   3.906   1.670
 5356SOL    HW216968   6.969   3.887   1.792
 5357SOL     OW16969   4.865   4.748   1.988
 5357SOL    HW116970   4.775   4.739   1.945
 5357SOL    HW216971   4.933   4.700   1.934
 5358SOL     OW16972   4.408   1.504   0.041
 5358SOL    HW116973   4.403   1.601   0.018
 5358SOL    HW216974   4.324   1.458   0.013
 5359SOL     OW16975   2.206   1.765   0.354
 5359SOL    HW116976   2.110   1.793   0.357
 5359SOL    HW216977   2.215   1.676   0.400
 5360SOL     OW16978   5.393   5.228   3.850
 5360SOL    HW116979   5.355   5.162   3.786
 5360SOL    HW216980   5.464   5.282   3.804
 5361SOL     OW16981   3.772   6.396   2.720
 5361SOL    HW116982   3.872   6.399   2.725
 5361SOL    HW216983   3.734   6.395   2.813
 5362SOL     OW16984   5.179   6.648   1.918
 5362SOL    HW116985   5.157   6.663   2.014
 5362SOL    HW216986   5.226   6.728   1.881
 5363SOL     OW16987   5.354   6.419   4.875
 5363SOL    HW116988   5.342   6.513   4.844
 5363SOL    HW216989   5.348   6.357   4.797
 5364SOL     OW16990   5.155   0.936   2.578
 5364SOL    HW116991   5.201   0.918   2.492
 5364SOL    HW216992   5.193   0.878   2.650
 5365SOL     OW16993   3.404   3.279   3.986
 5365SOL    HW116994   3.330   3.321   4.039
 5365SOL    HW216995   3.420   3.332   3.903
 5366SOL     OW16996   6.820   0.263   1.506
 5366SOL    HW116997   6.826   0.322   1.425
 5366SOL    HW216998   6.832   0.168   1.479
 5367SOL     OW16999   6.091   0.225   0.581
 5367SOL    HW117000   6.159   0.203   0.512
 5367SOL    HW217001   6.013   0.272   0.539
 5368SOL     OW17002   6.838   5.896   1.940
 5368SOL    HW117003   6.875   5.960   1.872
 5368SOL    HW217004   6.910   5.833   1.969
 5369SOL     OW17005   2.683   4.968   1.837
 5369SOL    HW117006   2.736   4.884   1.825
 5369SOL    HW217007   2.658   4.978   1.933
 5370SOL     OW17008   3.934   3.896   1.642
 5370SOL    HW117009   3.964   3.819   1.698
 5370SOL    HW217010   3.983   3.895   1.555
 5371SOL     OW17011   6.624   5.023   4.831
 5371SOL    HW117012   6.540   5.001   4.780
 5371SOL    HW217013   6.609   5.106   4.885
 5372SOL     OW17014   1.731   6.932   2.924
 5372SOL    HW117015   1.647   6.918   2.977
 5372SOL    HW217016   1.725   7.019   2.875
 5373SOL     OW17017   4.212   6.743   5.762
 5373SOL    HW117018   4.246   6.700   5.678
 5373SOL    HW217019   4.115   6.721   5.774
 5374SOL     OW17020   2.604   5.160   1.381
 5374SOL    HW117021   2.636   5.065   1.389
 5374SOL    HW217022   2.661   5.219   1.439
 5375SOL     OW17023   0.969   6.642   5.332
 5375SOL    HW117024   1.027   6.597   5.264
 5375SOL    HW217025   1.022   6.659   5.415
 5376SOL     OW17026   1.386   2.279   1.017
 5376SOL    HW117027   1.362   2.269   1.114
 5376SOL    HW217028   1.452   2.208   0.992
 5377SOL     OW17029   1.973   0.601   2.948
 5377SOL    HW117030   1.994   0.678   3.008
 5377SOL    HW217031   2.052   0.579   2.891
 5378SOL     OW17032   5.554   0.883   0.869
 5378SOL    HW117033   5.582   0.789   0.850
 5378SOL    HW217034   5.629   0.946   0.848
 5379SOL     OW17035   1.667   2.574   5.299
 5379SOL    HW117036   1.727   2.626   5.239
 5379SOL    HW217037   1.590   2.632   5.327
 5380SOL     OW17038   3.789   0.398   1.173
 5380SOL    HW117039   3.692   0.376   1.164
 5380SOL    HW217040   3.843   0.317   1.150
 5381SOL     OW17041   5.542   6.681   2.994
 5381SOL    HW117042   5.598   6.609   2.954
 5381SOL    HW217043   5.459   6.642   3.033
 5382SOL     OW17044   4.302   1.735   2.798
 5382SOL    HW117045   4.310   1.780   2.709
 5382SOL    HW217046   4.373   1.666   2.807
 5383SOL     OW17047   1.293   2.892   4.216
 5383SOL    HW117048   1.197   2.904   4.190
 5383SOL    HW217049   1.342   2.846   4.142
 5384SOL     OW17050   4.463   5.750   5.132
 5384SOL    HW117051   4.370   5.748   5.169
 5384SOL    HW217052   4.525   5.786   5.202
 5385SOL     OW17053   6.603   2.585   5.919
 5385SOL    HW117054   6.685   2.532   5.897
 5385SOL    HW217055   6.528   2.522   5.940
 5386SOL     OW17056   6.145   3.252   3.985
 5386SOL    HW117057   6.157   3.336   4.038
 5386SOL    HW217058   6.204   3.181   4.021
 5387SOL     OW17059   2.704   0.387   2.745
 5387SOL    HW117060   2.696   0.289   2.761
 5387SOL    HW217061   2.772   0.425   2.808
 5388SOL     OW17062   0.520   6.366   2.653
 5388SOL    HW117063   0.422   6.366   2.673
 5388SOL    HW217064   0.563   6.288   2.699
 5389SOL     OW17065   4.687   1.757   4.539
 5389SOL    HW117066   4.666   1.661   4.521
 5389SOL    HW217067   4.602   1.809   4.544
 5390SOL     OW17068   6.509   3.523   4.210
 5390SOL    HW117069   6.534   3.495   4.117
 5390SOL    HW217070   6.437   3.592   4.205
 5391SOL     OW17071   2.122   2.503   0.166
 5391SOL    HW117072   2.170   2.529   0.250
 5391SOL    HW217073   2.038   2.556   0.158
 5392SOL     OW17074   4.507   2.573   3.334
 5392SOL    HW117075   4.414   2.574   3.370
 5392SOL    HW217076   4.571   2.601   3.405
 5393SOL     OW17077   4.113   0.433   5.248
 5393SOL    HW117078   4.039   0.415   5.183
 5393SOL    HW217079   4.119   0.531   5.265
 5394SOL     OW17080   1.534   0.075   1.063
 5394SOL    HW117081   1.495   0.165   1.086
 5394SOL    HW217082   1.589   0.042   1.139
 5395SOL     OW17083   5.424   1.317   1.526
 5395SOL    HW117084   5.443   1.225   1.492
 5395SOL    HW217085   5.455   1.325   1.621
 5396SOL     OW17086   5.986   5.491   2.671
 5396SOL    HW117087   6.038   5.408   2.689
 5396SOL    HW217088   5.939   5.520   2.755
 5397SOL     OW17089   6.128   1.863   3.207
 5397SOL    HW117090   6.066   1.800   3.254
 5397SOL    HW217091   6.112   1.956   3.239
 5398SOL     OW17092   4.563   2.299   3.815
 5398SOL    HW117093   4.589   2.293   3.912
 5398SOL    HW217094   4.646   2.302   3.759
 5399SOL     OW17095   1.513   0.146   5.303
 5399SOL    HW117096   1.545   0.240   5.311
 5399SOL    HW217097   1.562   0.088   5.368
 5400SOL     OW17098   3.558   2.977   1.012
 5400SOL    HW117099   3.482   2.916   1.034
 5400SOL    HW217100   3.554   3.058   1.072
 5401SOL     OW17101   5.174   4.654   3.045
 5401SOL    HW117102   5.102   4.701   2.994
 5401SOL    HW217103   5.249   4.632   2.983
 5402SOL     OW17104   2.335   0.193   0.276
 5402SOL    HW117105   2.388   0.127   0.330
 5402SOL    HW217106   2.334   0.281   0.323
 5403SOL     OW17107   5.096   3.275   0.158
 5403SOL    HW117108   5.140   3.234   0.079
 5403SOL    HW217109   5.165   3.318   0.216
 5404SOL     OW17110   0.479   0.914   1.028
 5404SOL    HW117111   0.411   0.844   1.007
 5404SOL    HW217112   0.569   0.872   1.041
 5405SOL     OW17113   5.089   5.602   0.433
 5405SOL    HW117114   5.093   5.532   0.504
 5405SOL    HW217115   5.040   5.682   0.468
 5406SOL     OW17116   2.528   0.655   5.036
 5406SOL    HW117117   2.478   0.587   4.982
 5406SOL    HW217118   2.573   0.720   4.976
 5407SOL     OW17119   2.843   0.636   1.646
 5407SOL    HW117120   2.812   0.653   1.553
 5407SOL    HW217121   2.828   0.718   1.702
 5408SOL     OW17122   2.564   2.236   4.318
 5408SOL    HW117123   2.623   2.300   4.269
 5408SOL    HW217124   2.619   2.168   4.366
 5409SOL     OW17125   6.873   2.543   1.587
 5409SOL    HW117126   6.856   2.639   1.608
 5409SOL    HW217127   6.970   2.522   1.600
 5410SOL     OW17128   0.271   2.381   1.190
 5410SOL    HW117129   0.366   2.352   1.202
 5410SOL    HW217130   0.220   2.308   1.145
 5411SOL     OW17131   4.863   4.712   6.641
 5411SOL    HW117132   4.838   4.799   6.684
 5411SOL    HW217133   4.803   4.640   6.676
 5412SOL     OW17134   1.157   1.453   6.561
 5412SOL    HW117135   1.106   1.531   6.598
 5412SOL    HW217136   1.143   1.448   6.462
 5413SOL     OW17137   6.477   0.086   5.688
 5413SOL    HW117138   6.499   0.123   5.598
 5413SOL    HW217139   6.492   0.157   5.757
 5414SOL     OW17140   6.969   4.459   5.801
 5414SOL    HW117141   6.990   4.384   5.865
 5414SOL    HW217142   0.019   4.522   5.797
 5415SOL     OW17143   3.131   6.965   0.583
 5415SOL    HW117144   3.186   6.895   0.628
 5415SOL    HW217145   3.039   6.967   0.622
 5416SOL     OW17146   2.594   5.239   5.049
 5416SOL    HW117147   2.694   5.232   5.046
 5416SOL    HW217148   2.553   5.157   5.010
 5417SOL     OW17149   4.967   6.222   3.481
 5417SOL    HW117150   4.943   6.319   3.484
 5417SOL    HW217151   4.887   6.167   3.506
 5418SOL     OW17152   5.913   4.788   4.182
 5418SOL    HW117153   5.893   4.834   4.269
 5418SOL    HW217154   5.901   4.852   4.106
 5419SOL     OW17155   4.232   6.894   6.732
 5419SOL    HW117156   4.219   6.825   6.661
 5419SOL    HW217157   4.326   6.926   6.732
 5420SOL     OW17158   1.431   1.447   1.332
 5420SOL    HW117159   1.386   1.527   1.372
 5420SOL    HW217160   1.461   1.469   1.239
 5421SOL     OW17161   3.324   5.371   2.197
 5421SOL    HW117162   3.335   5.464   2.231
 5421SOL    HW217163   3.410   5.340   2.157
 5422SOL     OW17164   1.966   6.053   4.028
 5422SOL    HW117165   1.973   5.966   3.979
 5422SOL    HW217166   1.932   6.036   4.120
 5423SOL     OW17167   6.481   6.165   2.001
 5423SOL    HW117168   6.451   6.074   1.972
 5423SOL    HW217169   6.424   6.197   2.076
 5424SOL     OW17170   4.817   4.074   4.879
 5424SOL    HW117171   4.775   4.052   4.967
 5424SOL    HW217172   4.766   4.148   4.835
 5425SOL     OW17173   0.410   3.460   5.535
 5425SOL    HW117174   0.330   3.407   5.563
 5425SOL    HW217175   0.387   3.518   5.457
 5426SOL     OW17176   5.219   5.089   2.394
 5426SOL    HW117177   5.137   5.138   2.365
 5426SOL    HW217178   5.193   5.001   2.435
 5427SOL     OW17179   4.973   2.587   6.917
 5427SOL    HW117180   5.010   2.555   7.004
 5427SOL    HW217181   5.044   2.580   6.847
 5428SOL     OW17182   6.336   5.338   2.860
 5428SOL    HW117183   6.345   5.419   2.802
 5428SOL    HW217184   6.414   5.278   2.844
 5429SOL     OW17185   3.088   0.783   3.735
 5429SOL    HW117186   3.136   0.871   3.743
 5429SOL    HW217187   3.089   0.737   3.824
 5430SOL     OW17188   2.484   3.823   6.217
 5430SOL    HW117189   2.559   3.816   6.151
 5430SOL    HW217190   2.441   3.913   6.209
 5431SOL     OW17191   3.144   4.982   6.181
 5431SOL    HW117192   3.139   5.046   6.258
 5431SOL    HW217193   3.231   4.932   6.185
 5432SOL     OW17194   5.498   5.795   1.332
 5432SOL    HW117195   5.577   5.812   1.273
 5432SOL    HW217196   5.480   5.876   1.387
 5433SOL     OW17197   1.509   0.420   1.237
 5433SOL    HW117198   1.579   0.360   1.277
 5433SOL    HW217199   1.554   0.491   1.182
 5434SOL     OW17200   4.866   1.370   5.010
 5434SOL    HW117201   4.959   1.391   4.980
 5434SOL    HW217202   4.869   1.304   5.085
 5435SOL     OW17203   6.715   3.686   0.739
 5435SOL    HW117204   6.716   3.742   0.822
 5435SOL    HW217205   6.757   3.737   0.664
 5436SOL     OW17206   1.567   5.712   2.350
 5436SOL    HW117207   1.545   5.630   2.297
 5436SOL    HW217208   1.482   5.763   2.368
 5437SOL     OW17209   3.150   5.107   6.817
 5437SOL    HW117210   3.103   5.104   6.906
 5437SOL    HW217211   3.111   5.179   6.761
 5438SOL     OW17212   4.764   4.013   2.465
 5438SOL    HW117213   4.833   3.995   2.534
 5438SOL    HW217214   4.681   3.960   2.486
 5439SOL     OW17215   0.820   4.047   0.711
 5439SOL    HW117216   0.885   4.036   0.785
 5439SOL    HW217217   0.731   4.076   0.747
 5440SOL     OW17218   5.819   6.169   3.216
 5440SOL    HW117219   5.879   6.146   3.293
 5440SOL    HW217220   5.768   6.088   3.188
 5441SOL     OW17221   4.801   2.727   3.848
 5441SOL    HW117222   4.801   2.754   3.944
 5441SOL    HW217223   4.715   2.682   3.825
 5442SOL     OW17224   5.120   6.965   4.385
 5442SOL    HW117225   5.159   6.905   4.455
 5442SOL    HW217226   5.194   7.020   4.345
 5443SOL     OW17227   5.008   6.607   5.201
 5443SOL    HW117228   4.954   6.683   5.164
 5443SOL    HW217229   4.981   6.591   5.296
 5444SOL     OW17230   0.422   1.395   3.797
 5444SOL    HW117231   0.435   1.320   3.861
 5444SOL    HW217232   0.510   1.439   3.778
 5445SOL     OW17233   5.170   5.310   5.805
 5445SOL    HW117234   5.255   5.352   5.774
 5445SOL    HW217235   5.094   5.341   5.748
 5446SOL     OW17236   7.025   4.787   5.193
 5446SOL    HW117237   7.007   4.815   5.287
 5446SOL    HW217238   0.056   4.705   5.194
 5447SOL     OW17239   1.383   2.328   0.594
 5447SOL    HW117240   1.460   2.295   0.541
 5447SOL    HW217241   1.416   2.378   0.674
 5448SOL     OW17242   4.523   6.183   3.661
 5448SOL    HW117243   4.504   6.122   3.738
 5448SOL    HW217244   4.437   6.207   3.616
 5449SOL     OW17245   3.129   1.403   2.541
 5449SOL    HW117246   3.204   1.467   2.554
 5449SOL    HW217247   3.056   1.447   2.490
 5450SOL     OW17248   4.108   6.374   1.886
 5450SOL    HW117249   4.156   6.326   1.959
 5450SOL    HW217250   4.012   6.384   1.910
 5451SOL     OW17251   1.078   0.278   3.213
 5451SOL    HW117252   1.138   0.206   3.248
 5451SOL    HW217253   1.110   0.367   3.246
 5452SOL     OW17254   2.004   4.656   1.948
 5452SOL    HW117255   2.004   4.616   1.856
 5452SOL    HW217256   1.932   4.725   1.954
 5453SOL     OW17257   6.038   3.905   2.727
 5453SOL    HW117258   6.060   3.998   2.756
 5453SOL    HW217259   5.981   3.908   2.645
 5454SOL     OW17260   6.310   5.486   2.612
 5454SOL    HW117261   6.277   5.467   2.519
 5454SOL    HW217262   6.369   5.566   2.611
 5455SOL     OW17263   0.145   1.858   2.191
 5455SOL    HW117264   0.134   1.786   2.122
 5455SOL    HW217265   0.068   1.921   2.185
 5456SOL     OW17266   4.904   0.746   6.894
 5456SOL    HW117267   4.962   0.680   6.845
 5456SOL    HW217268   4.818   0.756   6.845
 5457SOL     OW17269   6.644   2.317   0.764
 5457SOL    HW117270   6.715   2.270   0.817
 5457SOL    HW217271   6.591   2.250   0.711
 5458SOL     OW17272   6.440   4.241   1.273
 5458SOL    HW117273   6.454   4.153   1.228
 5458SOL    HW217274   6.482   4.313   1.217
 5459SOL     OW17275   1.603   4.606   5.391
 5459SOL    HW117276   1.579   4.619   5.487
 5459SOL    HW217277   1.697   4.637   5.376
 5460SOL     OW17278   1.951   1.342   0.701
 5460SOL    HW117279   2.004   1.304   0.776
 5460SOL    HW217280   1.975   1.296   0.616
 5461SOL     OW17281   0.173   1.568   6.242
 5461SOL    HW117282   0.209   1.629   6.171
 5461SOL    HW217283   0.074   1.568   6.238
 5462SOL     OW17284   5.075   6.300   6.641
 5462SOL    HW117285   5.005   6.234   6.614
 5462SOL    HW217286   5.060   6.386   6.593
 5463SOL     OW17287   0.157   2.722   6.392
 5463SOL    HW117288   0.127   2.812   6.424
 5463SOL    HW217289   0.079   2.660   6.391
 5464SOL     OW17290   6.056   6.303   5.690
 5464SOL    HW117291   6.050   6.379   5.626
 5464SOL    HW217292   6.111   6.229   5.650
 5465SOL     OW17293   6.539   6.442   3.079
 5465SOL    HW117294   6.617   6.386   3.108
 5465SOL    HW217295   6.540   6.529   3.129
 5466SOL     OW17296   5.713   2.432   5.080
 5466SOL    HW117297   5.735   2.439   5.177
 5466SOL    HW217298   5.633   2.374   5.067
 5467SOL     OW17299   5.812   3.922   3.420
 5467SOL    HW117300   5.736   3.937   3.357
 5467SOL    HW217301   5.800   3.979   3.502
 5468SOL     OW17302   6.743   1.793   2.691
 5468SOL    HW117303   6.659   1.742   2.710
 5468SOL    HW217304   6.740   1.828   2.597
 5469SOL     OW17305   1.825   0.610   6.134
 5469SOL    HW117306   1.890   0.534   6.139
 5469SOL    HW217307   1.862   0.682   6.075
 5470SOL     OW17308   3.875   5.525   4.753
 5470SOL    HW117309   3.944   5.557   4.817
 5470SOL    HW217310   3.909   5.535   4.659
 5471SOL     OW17311   4.968   0.008   2.643
 5471SOL    HW117312   5.007   0.098   2.624
 5471SOL    HW217313   4.868   0.013   2.637
 5472SOL     OW17314   2.781   2.229   6.382
 5472SOL    HW117315   2.822   2.310   6.342
 5472SOL    HW217316   2.694   2.253   6.425
 5473SOL     OW17317   1.837   4.564   0.542
 5473SOL    HW117318   1.830   4.637   0.610
 5473SOL    HW217319   1.916   4.581   0.483
 5474SOL     OW17320   1.380   5.550   3.619
 5474SOL    HW117321   1.439   5.477   3.584
 5474SOL    HW217322   1.417   5.583   3.706
 5475SOL     OW17323   1.595   1.843   0.194
 5475SOL    HW117324   1.641   1.757   0.175
 5475SOL    HW217325   1.604   1.864   0.291
 5476SOL     OW17326   2.156   5.718   5.338
 5476SOL    HW117327   2.210   5.737   5.420
 5476SOL    HW217328   2.059   5.715   5.363
 5477SOL     OW17329   1.637   4.472   3.245
 5477SOL    HW117330   1.662   4.569   3.249
 5477SOL    HW217331   1.539   4.463   3.264
 5478SOL     OW17332   5.329   5.276   6.439
 5478SOL    HW117333   5.339   5.190   6.488
 5478SOL    HW217334   5.263   5.265   6.364
 5479SOL     OW17335   4.660   1.494   4.891
 5479SOL    HW117336   4.615   1.410   4.862
 5479SOL    HW217337   4.753   1.473   4.923
 5480SOL     OW17338   6.126   4.866   4.985
 5480SOL    HW117339   6.090   4.816   4.907
 5480SOL    HW217340   6.053   4.918   5.029
 5481SOL     OW17341   3.877   1.095   5.822
 5481SOL    HW117342   3.941   1.018   5.827
 5481SOL    HW217343   3.853   1.112   5.727
 5482SOL     OW17344   3.876   3.601   2.039
 5482SOL    HW117345   3.845   3.569   1.949
 5482SOL    HW217346   3.886   3.522   2.100
 5483SOL     OW17347   6.643   2.844   5.804
 5483SOL    HW117348   6.741   2.834   5.785
 5483SOL    HW217349   6.616   2.783   5.878
 5484SOL     OW17350   6.789   6.601   3.946
 5484SOL    HW117351   6.760   6.522   3.891
 5484SOL    HW217352   6.888   6.608   3.944
 5485SOL     OW17353   2.779   0.371   4.566
 5485SOL    HW117354   2.836   0.392   4.487
 5485SOL    HW217355   2.822   0.405   4.649
 5486SOL     OW17356   1.583   0.279   3.893
 5486SOL    HW117357   1.566   0.186   3.925
 5486SOL    HW217358   1.633   0.275   3.807
 5487SOL     OW17359   6.021   3.748   7.025
 5487SOL    HW117360   6.109   3.712   0.030
 5487SOL    HW217361   5.995   3.827   0.055
 5488SOL     OW17362   4.407   1.971   0.177
 5488SOL    HW117363   4.465   1.928   0.246
 5488SOL    HW217364   4.338   2.028   0.222
 5489SOL     OW17365   1.434   4.761   1.936
 5489SOL    HW117366   1.371   4.744   1.860
 5489SOL    HW217367   1.512   4.814   1.903
 5490SOL     OW17368   3.405   0.306   0.357
 5490SOL    HW117369   3.428   0.244   0.432
 5490SOL    HW217370   3.306   0.312   0.347
 5491SOL     OW17371   1.401   4.555   6.465
 5491SOL    HW117372   1.426   4.464   6.435
 5491SOL    HW217373   1.373   4.552   6.561
 5492SOL     OW17374   1.098   1.250   5.961
 5492SOL    HW117375   1.031   1.293   6.022
 5492SOL    HW217376   1.120   1.312   5.886
 5493SOL     OW17377   3.732   3.237   5.381
 5493SOL    HW117378   3.779   3.268   5.463
 5493SOL    HW217379   3.771   3.150   5.351
 5494SOL     OW17380   6.653   3.016   0.827
 5494SOL    HW117381   6.572   2.957   0.831
 5494SOL    HW217382   6.628   3.107   0.858
 5495SOL     OW17383   3.635   3.434   0.769
 5495SOL    HW117384   3.607   3.516   0.718
 5495SOL    HW217385   3.615   3.446   0.866
 5496SOL     OW17386   3.659   5.879   1.335
 5496SOL    HW117387   3.687   5.784   1.347
 5496SOL    HW217388   3.645   5.897   1.237
 5497SOL     OW17389   0.490   2.063   3.113
 5497SOL    HW117390   0.575   2.105   3.145
 5497SOL    HW217391   0.462   1.991   3.177
 5498SOL     OW17392   4.816   1.099   7.009
 5498SOL    HW117393   4.756   1.019   7.008
 5498SOL    HW217394   4.780   1.166   0.046
 5499SOL     OW17395   0.429   0.835   3.470
 5499SOL    HW117396   0.498   0.882   3.416
 5499SOL    HW217397   0.381   0.902   3.528
 5500SOL     OW17398   2.175   5.842   7.019
 5500SOL    HW117399   2.241   5.776   6.983
 5500SOL    HW217400   2.174   5.836   0.091
 5501SOL     OW17401   3.545   6.973   1.765
 5501SOL    HW117402   3.543   6.903   1.836
 5501SOL    HW217403   3.633   6.970   1.717
 5502SOL     OW17404   6.018   4.198   6.109
 5502SOL    HW117405   6.059   4.107   6.115
 5502SOL    HW217406   5.973   4.219   6.196
 5503SOL     OW17407   0.905   5.090   2.723
 5503SOL    HW117408   0.871   5.181   2.743
 5503SOL    HW217409   0.828   5.026   2.718
 5504SOL     OW17410   2.960   0.903   5.025
 5504SOL    HW117411   3.003   0.948   5.103
 5504SOL    HW217412   2.861   0.917   5.030
 5505SOL     OW17413   1.850   5.972   4.856
 5505SOL    HW117414   1.789   6.006   4.784
 5505SOL    HW217415   1.944   5.966   4.820
 5506SOL     OW17416   6.881   0.394   4.963
 5506SOL    HW117417   6.903   0.470   4.902
 5506SOL    HW217418   6.861   0.312   4.909
 5507SOL     OW17419   2.797   6.707   3.376
 5507SOL    HW117420   2.775   6.803   3.363
 5507SOL    HW217421   2.769   6.655   3.295
 5508SOL     OW17422   2.325   1.415   0.076
 5508SOL    HW117423   2.285   1.338   0.125
 5508SOL    HW217424   2.412   1.441   0.119
 5509SOL     OW17425   0.266   6.114   0.427
 5509SOL    HW117426   0.199   6.058   0.379
 5509SOL    HW217427   0.252   6.210   0.404
 5510SOL     OW17428   4.773   6.532   6.850
 5510SOL    HW117429   4.788   6.592   6.771
 5510SOL    HW217430   4.726   6.449   6.820
 5511SOL     OW17431   1.735   0.509   3.561
 5511SOL    HW117432   1.667   0.552   3.501
 5511SOL    HW217433   1.818   0.491   3.508
 5512SOL     OW17434   6.304   2.153   0.532
 5512SOL    HW117435   6.267   2.224   0.592
 5512SOL    HW217436   6.319   2.191   0.441
 5513SOL     OW17437   5.152   4.311   5.088
 5513SOL    HW117438   5.242   4.312   5.132
 5513SOL    HW217439   5.163   4.293   4.990
 5514SOL     OW17440   5.282   5.455   2.810
 5514SOL    HW117441   5.190   5.487   2.834
 5514SOL    HW217442   5.298   5.367   2.855
 5515SOL     OW17443   6.174   3.426   1.327
 5515SOL    HW117444   6.127   3.339   1.332
 5515SOL    HW217445   6.150   3.482   1.407
 5516SOL     OW17446   1.864   3.110   0.511
 5516SOL    HW117447   1.766   3.118   0.491
 5516SOL    HW217448   1.916   3.156   0.439
 5517SOL     OW17449   2.747   2.173   2.405
 5517SOL    HW117450   2.762   2.218   2.493
 5517SOL    HW217451   2.678   2.101   2.415
 5518SOL     OW17452   6.460   5.658   6.154
 5518SOL    HW117453   6.488   5.589   6.221
 5518SOL    HW217454   6.374   5.700   6.184
 5519SOL     OW17455   5.319   3.977   2.906
 5519SOL    HW117456   5.308   4.008   2.811
 5519SOL    HW217457   5.254   3.904   2.925
 5520SOL     OW17458   0.734   4.659   2.645
 5520SOL    HW117459   0.829   4.636   2.667
 5520SOL    HW217460   0.711   4.622   2.555
 5521SOL     OW17461   4.156   5.702   2.167
 5521SOL    HW117462   4.127   5.627   2.226
 5521SOL    HW217463   4.246   5.735   2.198
 5522SOL     OW17464   2.109   3.527   1.340
 5522SOL    HW117465   2.097   3.624   1.360
 5522SOL    HW217466   2.038   3.497   1.276
 5523SOL     OW17467   3.409   6.876   2.822
 5523SOL    HW117468   3.471   6.827   2.760
 5523SOL    HW217469   3.434   6.972   2.826
 5524SOL     OW17470   6.835   5.829   4.790
 5524SOL    HW117471   6.750   5.776   4.786
 5524SOL    HW217472   6.902   5.790   4.728
 5525SOL     OW17473   7.014   4.532   0.017
 5525SOL    HW117474   0.061   4.587   7.005
 5525SOL    HW217475   7.023   4.437   7.014
 5526SOL     OW17476   6.018   3.667   4.587
 5526SOL    HW117477   5.956   3.744   4.571
 5526SOL    HW217478   6.089   3.695   4.651
 5527SOL     OW17479   0.576   3.177   2.813
 5527SOL    HW117480   0.485   3.210   2.787
 5527SOL    HW217481   0.634   3.254   2.837
 5528SOL     OW17482   0.744   2.165   6.038
 5528SOL    HW117483   0.683   2.167   6.118
 5528SOL    HW217484   0.811   2.239   6.045
 5529SOL     OW17485   2.072   0.166   4.618
 5529SOL    HW117486   2.116   0.193   4.532
 5529SOL    HW217487   2.137   0.176   4.693
 5530SOL     OW17488   6.887   1.878   1.919
 5530SOL    HW117489   6.893   1.959   1.860
 5530SOL    HW217490   6.937   1.802   1.878
 5531SOL     OW17491   3.886   2.986   4.452
 5531SOL    HW117492   3.860   2.980   4.549
 5531SOL    HW217493   3.856   2.904   4.404
 5532SOL     OW17494   1.778   1.221   1.143
 5532SOL    HW117495   1.864   1.170   1.146
 5532SOL    HW217496   1.760   1.262   1.233
 5533SOL     OW17497   2.857   0.669   2.508
 5533SOL    HW117498   2.829   0.580   2.470
 5533SOL    HW217499   2.916   0.716   2.443
 5534SOL     OW17500   1.346   3.113   6.266
 5534SOL    HW117501   1.271   3.145   6.325
 5534SOL    HW217502   1.355   3.174   6.187
 5535SOL     OW17503   0.051   3.485   3.064
 5535SOL    HW117504   0.150   3.495   3.073
 5535SOL    HW217505   0.019   3.413   3.126
 5536SOL     OW17506   2.932   1.039   4.235
 5536SOL    HW117507   2.994   1.046   4.157
 5536SOL    HW217508   2.842   1.011   4.203
 5537SOL     OW17509   3.397   1.531   4.686
 5537SOL    HW117510   3.379   1.434   4.669
 5537SOL    HW217511   3.336   1.587   4.629
 5538SOL     OW17512   3.121   6.953   4.894
 5538SOL    HW117513   3.084   6.945   4.801
 5538SOL    HW217514   3.192   7.024   4.895
 5539SOL     OW17515   0.705   1.935   0.909
 5539SOL    HW117516   0.744   1.876   0.979
 5539SOL    HW217517   0.773   1.954   0.839
 5540SOL     OW17518   5.107   3.355   2.223
 5540SOL    HW117519   5.124   3.343   2.125
 5540SOL    HW217520   5.026   3.303   2.249
 5541SOL     OW17521   5.150   3.101   6.001
 5541SOL    HW117522   5.120   3.151   5.919
 5541SOL    HW217523   5.206   3.161   6.058
 5542SOL     OW17524   5.746   6.018   5.789
 5542SOL    HW117525   5.796   6.087   5.841
 5542SOL    HW217526   5.746   5.932   5.839
 5543SOL     OW17527   1.624   5.334   6.406
 5543SOL    HW117528   1.619   5.263   6.336
 5543SOL    HW217529   1.695   5.400   6.380
 5544SOL     OW17530   5.519   5.534   5.862
 5544SOL    HW117531   5.610   5.571   5.845
 5544SOL    HW217532   5.462   5.605   5.905
 5545SOL     OW17533   4.871   1.156   2.386
 5545SOL    HW117534   4.891   1.108   2.301
 5545SOL    HW217535   4.891   1.254   2.375
 5546SOL     OW17536   1.177   6.442   3.799
 5546SOL    HW117537   1.161   6.343   3.800
 5546SOL    HW217538   1.252   6.463   3.736
 5547SOL     OW17539   3.935   0.769   4.970
 5547SOL    HW117540   3.916   0.797   5.064
 5547SOL    HW217541   4.007   0.827   4.931
 5548SOL     OW17542   6.439   4.129   5.663
 5548SOL    HW117543   6.483   4.204   5.714
 5548SOL    HW217544   6.439   4.150   5.566
 5549SOL     OW17545   3.679   4.383   1.359
 5549SOL    HW117546   3.758   4.398   1.418
 5549SOL    HW217547   3.710   4.355   1.268
 5550SOL     OW17548   2.390   4.491   2.015
 5550SOL    HW117549   2.357   4.400   1.991
 5550SOL    HW217550   2.386   4.551   1.935
 5551SOL     OW17551   1.466   6.503   2.462
 5551SOL    HW117552   1.413   6.587   2.457
 5551SOL    HW217553   1.521   6.503   2.546
 5552SOL     OW17554   6.210   0.824   6.847
 5552SOL    HW117555   6.281   0.892   6.827
 5552SOL    HW217556   6.246   0.733   6.826
 5553SOL     OW17557   4.563   6.430   6.424
 5553SOL    HW117558   4.626   6.506   6.410
 5553SOL    HW217559   4.469   6.464   6.424
 5554SOL     OW17560   4.961   2.325   0.763
 5554SOL    HW117561   5.059   2.340   0.747
 5554SOL    HW217562   4.911   2.410   0.745
 5555SOL     OW17563   1.107   3.776   2.312
 5555SOL    HW117564   1.072   3.687   2.342
 5555SOL    HW217565   1.163   3.816   2.385
 5556SOL     OW17566   6.179   1.375   3.484
 5556SOL    HW117567   6.160   1.473   3.491
 5556SOL    HW217568   6.164   1.344   3.390
 5557SOL     OW17569   4.141   6.152   2.118
 5557SOL    HW117570   4.092   6.078   2.163
 5557SOL    HW217571   4.135   6.235   2.175
 5558SOL     OW17572   3.145   3.487   6.426
 5558SOL    HW117573   3.221   3.438   6.469
 5558SOL    HW217574   3.177   3.574   6.390
 5559SOL     OW17575   1.905   0.451   2.173
 5559SOL    HW117576   1.841   0.528   2.178
 5559SOL    HW217577   1.854   0.366   2.160
 5560SOL     OW17578   0.121   5.280   1.128
 5560SOL    HW117579   0.189   5.280   1.201
 5560SOL    HW217580   0.029   5.287   1.167
 5561SOL     OW17581   2.156   0.803   4.345
 5561SOL    HW117582   2.077   0.797   4.405
 5561SOL    HW217583   2.125   0.813   4.250
 5562SOL     OW17584   3.889   3.004   6.829
 5562SOL    HW117585   3.853   3.030   6.739
 5562SOL    HW217586   3.986   3.028   6.835
 5563SOL     OW17587   3.091   4.964   2.931
 5563SOL    HW117588   3.096   4.918   3.020
 5563SOL    HW217589   3.109   5.061   2.943
 5564SOL     OW17590   4.838   0.263   0.532
 5564SOL    HW117591   4.798   0.192   0.475
 5564SOL    HW217592   4.768   0.298   0.595
 5565SOL     OW17593   3.852   2.370   5.997
 5565SOL    HW117594   3.789   2.298   6.028
 5565SOL    HW217595   3.880   2.352   5.903
 5566SOL     OW17596   1.466   4.690   6.944
 5566SOL    HW117597   1.481   4.777   6.990
 5566SOL    HW217598   1.458   4.617   7.012
 5567SOL     OW17599   6.933   3.342   1.160
 5567SOL    HW117600   6.924   3.426   1.106
 5567SOL    HW217601   6.946   3.265   1.098
 5568SOL     OW17602   5.304   0.864   3.258
 5568SOL    HW117603   5.251   0.784   3.229
 5568SOL    HW217604   5.245   0.945   3.255
 5569SOL     OW17605   2.033   1.853   2.403
 5569SOL    HW117606   2.053   1.825   2.497
 5569SOL    HW217607   2.117   1.886   2.359
 5570SOL     OW17608   6.599   4.048   4.557
 5570SOL    HW117609   6.602   4.055   4.457
 5570SOL    HW217610   6.622   3.955   4.585
 5571SOL     OW17611   5.893   5.953   1.262
 5571SOL    HW117612   5.933   6.006   1.187
 5571SOL    HW217613   5.875   6.013   1.340
 5572SOL     OW17614   0.974   3.899   4.816
 5572SOL    HW117615   0.940   3.973   4.758
 5572SOL    HW217616   1.020   3.831   4.760
 5573SOL     OW17617   1.586   5.800   4.859
 5573SOL    HW117618   1.587   5.740   4.779
 5573SOL    HW217619   1.655   5.871   4.848
 5574SOL     OW17620   6.968   2.061   2.179
 5574SOL    HW117621   6.885   2.028   2.135
 5574SOL    HW217622   7.022   2.114   2.113
 5575SOL     OW17623   6.848   1.187   1.068
 5575SOL    HW117624   6.901   1.229   1.141
 5575SOL    HW217625   6.751   1.207   1.082
 5576SOL     OW17626   0.924   4.978   1.683
 5576SOL    HW117627   0.907   4.932   1.770
 5576SOL    HW217628   1.004   4.937   1.640
 5577SOL     OW17629   2.970   2.832   0.244
 5577SOL    HW117630   3.066   2.811   0.221
 5577SOL    HW217631   2.964   2.855   0.341
 5578SOL     OW17632   3.690   3.641   1.580
 5578SOL    HW117633   3.689   3.658   1.678
 5578SOL    HW217634   3.764   3.578   1.558
 5579SOL     OW17635   0.376   3.526   0.351
 5579SOL    HW117636   0.341   3.613   0.315
 5579SOL    HW217637   0.305   3.482   0.406
 5580SOL     OW17638   4.629   2.490   5.527
 5580SOL    HW117639   4.680   2.450   5.450
 5580SOL    HW217640   4.583   2.417   5.578
 5581SOL     OW17641   2.193   0.465   2.068
 5581SOL    HW117642   2.228   0.372   2.055
 5581SOL    HW217643   2.096   0.461   2.092
 5582SOL     OW17644   3.348   3.398   6.604
 5582SOL    HW117645   3.396   3.475   6.647
 5582SOL    HW217646   3.409   3.352   6.539
 5583SOL     OW17647   4.606   1.171   2.549
 5583SOL    HW117648   4.698   1.147   2.580
 5583SOL    HW217649   4.591   1.269   2.561
 5584SOL     OW17650   6.701   4.544   4.529
 5584SOL    HW117651   6.645   4.476   4.482
 5584SOL    HW217652   6.795   4.540   4.495
 5585SOL     OW17653   5.782   5.700   3.141
 5585SOL    HW117654   5.733   5.772   3.092
 5585SOL    HW217655   5.810   5.734   3.231
 5586SOL     OW17656   0.280   2.934   5.903
 5586SOL    HW117657   0.246   3.023   5.874
 5586SOL    HW217658   0.259   2.921   6.000
 5587SOL     OW17659   4.098   6.461   0.396
 5587SOL    HW117660   4.155   6.388   0.434
 5587SOL    HW217661   4.029   6.488   0.464
 5588SOL     OW17662   2.279   5.217   3.139
 5588SOL    HW117663   2.209   5.179   3.200
 5588SOL    HW217664   2.262   5.314   3.125
 5589SOL     OW17665   6.750   3.521   5.491
 5589SOL    HW117666   6.787   3.494   5.579
 5589SOL    HW217667   6.696   3.605   5.502
 5590SOL     OW17668   0.144   6.134   3.470
 5590SOL    HW117669   0.170   6.038   3.476
 5590SOL    HW217670   0.226   6.190   3.456
 5591SOL     OW17671   6.025   1.571   1.544
 5591SOL    HW117672   6.105   1.599   1.491
 5591SOL    HW217673   5.944   1.571   1.484
 5592SOL     OW17674   2.059   5.750   2.644
 5592SOL    HW117675   2.139   5.711   2.597
 5592SOL    HW217676   1.977   5.727   2.593
 5593SOL     OW17677   0.762   2.683   0.585
 5593SOL    HW117678   0.762   2.584   0.568
 5593SOL    HW217679   0.686   2.725   0.535
 5594SOL     OW17680   4.822   1.166   6.080
 5594SOL    HW117681   4.751   1.234   6.066
 5594SOL    HW217682   4.806   1.118   6.166
 5595SOL     OW17683   0.203   1.285   4.455
 5595SOL    HW117684   0.142   1.299   4.377
 5595SOL    HW217685   0.297   1.278   4.423
 5596SOL     OW17686   4.621   0.876   2.399
 5596SOL    HW117687   4.655   0.825   2.478
 5596SOL    HW217688   4.615   0.973   2.422
 5597SOL     OW17689   4.754   2.898   4.497
 5597SOL    HW117690   4.829   2.834   4.514
 5597SOL    HW217691   4.749   2.917   4.398
 5598SOL     OW17692   5.359   4.056   4.281
 5598SOL    HW117693   5.341   4.052   4.183
 5598SOL    HW217694   5.442   4.109   4.297
 5599SOL     OW17695   0.976   1.996   2.522
 5599SOL    HW117696   0.957   1.930   2.594
 5599SOL    HW217697   1.013   1.948   2.442
 5600SOL     OW17698   1.345   1.593   1.760
 5600SOL    HW117699   1.441   1.581   1.784
 5600SOL    HW217700   1.304   1.504   1.740
 5601SOL     OW17701   1.974   0.392   6.055
 5601SOL    HW117702   1.993   0.297   6.080
 5601SOL    HW217703   2.060   0.436   6.029
 5602SOL     OW17704   0.394   1.554   0.918
 5602SOL    HW117705   0.340   1.601   0.848
 5602SOL    HW217706   0.415   1.617   0.993
 5603SOL     OW17707   5.654   2.790   0.440
 5603SOL    HW117708   5.716   2.861   0.408
 5603SOL    HW217709   5.578   2.781   0.376
 5604SOL     OW17710   6.393   2.102   4.945
 5604SOL    HW117711   6.463   2.052   4.996
 5604SOL    HW217712   6.388   2.068   4.851
 5605SOL     OW17713   0.084   1.677   5.507
 5605SOL    HW117714   0.035   1.666   5.420
 5605SOL    HW217715   0.025   1.648   5.582
 5606SOL     OW17716   4.863   6.602   0.612
 5606SOL    HW117717   4.824   6.565   0.528
 5606SOL    HW217718   4.963   6.603   0.606
 5607SOL     OW17719   5.244   1.221   2.539
 5607SOL    HW117720   5.205   1.134   2.507
 5607SOL    HW217721   5.174   1.292   2.533
 5608SOL     OW17722   5.366   0.018   4.307
 5608SOL    HW117723   5.422   7.000   4.376
 5608SOL    HW217724   5.389   7.008   4.216
 5609SOL     OW17725   3.157   5.781   0.885
 5609SOL    HW117726   3.095   5.767   0.962
 5609SOL    HW217727   3.110   5.829   0.811
 5610SOL     OW17728   3.742   5.862   0.204
 5610SOL    HW117729   3.667   5.833   0.146
 5610SOL    HW217730   3.724   5.955   0.238
 5611SOL     OW17731   1.282   6.262   2.749
 5611SOL    HW117732   1.211   6.273   2.819
 5611SOL    HW217733   1.283   6.168   2.716
 5612SOL     OW17734   3.797   2.333   6.516
 5612SOL    HW117735   3.741   2.331   6.434
 5612SOL    HW217736   3.787   2.423   6.561
 5613SOL     OW17737   6.208   4.296   3.065
 5613SOL    HW117738   6.153   4.363   3.115
 5613SOL    HW217739   6.164   4.207   3.067
 5614SOL     OW17740   4.569   2.112   4.346
 5614SOL    HW117741   4.614   2.091   4.259
 5614SOL    HW217742   4.518   2.198   4.336
 5615SOL     OW17743   0.069   1.674   4.284
 5615SOL    HW117744   0.041   1.755   4.232
 5615SOL    HW217745   0.141   1.626   4.235
 5616SOL     OW17746   2.507   1.491   5.159
 5616SOL    HW117747   2.449   1.569   5.185
 5616SOL    HW217748   2.487   1.414   5.218
 5617SOL     OW17749   2.836   6.487   5.857
 5617SOL    HW117750   2.738   6.471   5.844
 5617SOL    HW217751   2.854   6.585   5.861
 5618SOL     OW17752   0.101   4.977   3.941
 5618SOL    HW117753   0.108   5.031   3.858
 5618SOL    HW217754   0.187   4.985   3.993
 5619SOL     OW17755   3.167   3.737   5.495
 5619SOL    HW117756   3.113   3.746   5.412
 5619SOL    HW217757   3.137   3.656   5.545
 5620SOL     OW17758   4.381   3.795   0.875
 5620SOL    HW117759   4.471   3.781   0.833
 5620SOL    HW217760   4.319   3.836   0.808
 5621SOL     OW17761   2.159   2.174   0.284
 5621SOL    HW117762   2.148   2.244   0.354
 5621SOL    HW217763   2.244   2.124   0.301
 5622SOL     OW17764   4.423   0.390   6.061
 5622SOL    HW117765   4.482   0.463   6.097
 5622SOL    HW217766   4.350   0.371   6.127
 5623SOL     OW17767   2.947   5.524   5.202
 5623SOL    HW117768   3.014   5.490   5.267
 5623SOL    HW217769   2.867   5.560   5.250
 5624SOL     OW17770   1.064   4.244   3.999
 5624SOL    HW117771   1.118   4.260   3.916
 5624SOL    HW217772   0.980   4.196   3.975
 5625SOL     OW17773   6.323   1.148   5.013
 5625SOL    HW117774   6.289   1.084   4.943
 5625SOL    HW217775   6.409   1.187   4.982
 5626SOL     OW17776   2.790   6.163   4.105
 5626SOL    HW117777   2.785   6.260   4.128
 5626SOL    HW217778   2.712   6.139   4.047
 5627SOL     OW17779   0.755   5.696   6.297
 5627SOL    HW117780   0.854   5.702   6.286
 5627SOL    HW217781   0.719   5.625   6.237
 5628SOL     OW17782   1.137   2.427   0.336
 5628SOL    HW117783   1.136   2.456   0.431
 5628SOL    HW217784   1.205   2.480   0.285
 5629SOL     OW17785   3.673   4.082   3.207
 5629SOL    HW117786   3.664   4.052   3.112
 5629SOL    HW217787   3.752   4.142   3.216
 5630SOL     OW17788   1.683   3.916   0.279
 5630SOL    HW117789   1.757   3.983   0.286
 5630SOL    HW217790   1.596   3.964   0.262
 5631SOL     OW17791   4.577   1.858   0.846
 5631SOL    HW117792   4.675   1.849   0.828
 5631SOL    HW217793   4.550   1.954   0.835
 5632SOL     OW17794   2.947   2.430   6.280
 5632SOL    HW117795   3.021   2.438   6.347
 5632SOL    HW217796   2.962   2.496   6.206
 5633SOL     OW17797   6.076   4.012   3.992
 5633SOL    HW117798   6.062   3.918   3.961
 5633SOL    HW217799   6.045   4.021   4.087
 5634SOL     OW17800   2.229   4.663   4.231
 5634SOL    HW117801   2.284   4.616   4.301
 5634SOL    HW217802   2.231   4.762   4.247
 5635SOL     OW17803   2.124   4.368   5.299
 5635SOL    HW117804   2.059   4.346   5.372
 5635SOL    HW217805   2.200   4.303   5.300
 5636SOL     OW17806   4.298   6.226   4.201
 5636SOL    HW117807   4.385   6.269   4.178
 5636SOL    HW217808   4.304   6.185   4.292
 5637SOL     OW17809   5.203   0.067   3.382
 5637SOL    HW117810   5.228   7.021   3.319
 5637SOL    HW217811   5.144   0.031   3.454
 5638SOL     OW17812   6.095   3.846   1.378
 5638SOL    HW117813   6.194   3.852   1.391
 5638SOL    HW217814   6.066   3.915   1.312
 5639SOL     OW17815   0.672   1.436   1.903
 5639SOL    HW117816   0.760   1.475   1.876
 5639SOL    HW217817   0.598   1.493   1.868
 5640SOL     OW17818   3.227   0.698   3.492
 5640SOL    HW117819   3.197   0.751   3.571
 5640SOL    HW217820   3.207   0.748   3.408
 5641SOL     OW17821   0.940   5.122   5.187
 5641SOL    HW117822   0.872   5.156   5.252
 5641SOL    HW217823   0.955   5.025   5.203
 5642SOL     OW17824   1.702   6.476   5.537
 5642SOL    HW117825   1.606   6.467   5.562
 5642SOL    HW217826   1.727   6.405   5.472
 5643SOL     OW17827   4.469   1.298   5.507
 5643SOL    HW117828   4.455   1.395   5.489
 5643SOL    HW217829   4.521   1.286   5.592
 5644SOL     OW17830   3.265   0.335   5.129
 5644SOL    HW117831   3.356   0.374   5.115
 5644SOL    HW217832   3.237   0.349   5.224
 5645SOL     OW17833   6.308   4.608   3.956
 5645SOL    HW117834   6.378   4.607   3.884
 5645SOL    HW217835   6.243   4.534   3.940
 5646SOL     OW17836   1.500   5.501   3.270
 5646SOL    HW117837   1.542   5.437   3.205
 5646SOL    HW217838   1.572   5.543   3.326
 5647SOL     OW17839   4.737   6.019   1.785
 5647SOL    HW117840   4.671   5.989   1.716
 5647SOL    HW217841   4.827   5.982   1.763
 5648SOL     OW17842   2.376   5.902   2.563
 5648SOL    HW117843   2.324   5.821   2.589
 5648SOL    HW217844   2.401   5.896   2.466
 5649SOL     OW17845   1.124   6.851   4.000
 5649SOL    HW117846   1.078   6.764   3.982
 5649SOL    HW217847   1.062   6.911   4.051
 5650SOL     OW17848   1.122   5.654   1.203
 5650SOL    HW117849   1.094   5.565   1.165
 5650SOL    HW217850   1.209   5.681   1.161
 5651SOL     OW17851   1.793   1.444   1.003
 5651SOL    HW117852   1.779   1.362   1.058
 5651SOL    HW217853   1.889   1.448   0.974
 5652SOL     OW17854   6.086   6.268   0.887
 5652SOL    HW117855   6.153   6.231   0.822
 5652SOL    HW217856   6.134   6.313   0.962
 5653SOL     OW17857   6.373   6.533   6.637
 5653SOL    HW117858   6.343   6.612   6.582
 5653SOL    HW217859   6.440   6.563   6.705
 5654SOL     OW17860   0.987   6.348   4.285
 5654SOL    HW117861   1.038   6.388   4.209
 5654SOL    HW217862   0.900   6.397   4.296
 5655SOL     OW17863   0.442   2.749   3.939
 5655SOL    HW117864   0.509   2.713   3.874
 5655SOL    HW217865   0.366   2.685   3.947
 5656SOL     OW17866   6.642   4.050   6.360
 5656SOL    HW117867   6.611   3.963   6.399
 5656SOL    HW217868   6.676   4.034   6.267
 5657SOL     OW17869   5.796   3.247   6.215
 5657SOL    HW117870   5.857   3.234   6.294
 5657SOL    HW217871   5.850   3.274   6.135
 5658SOL     OW17872   2.846   3.150   6.292
 5658SOL    HW117873   2.785   3.099   6.352
 5658SOL    HW217874   2.796   3.224   6.248
 5659SOL     OW17875   3.570   3.371   6.359
 5659SOL    HW117876   3.488   3.376   6.302
 5659SOL    HW217877   3.610   3.280   6.352
 5660SOL     OW17878   4.623   6.742   5.793
 5660SOL    HW117879   4.714   6.704   5.809
 5660SOL    HW217880   4.584   6.773   5.880
 5661SOL     OW17881   1.892   6.459   4.744
 5661SOL    HW117882   1.866   6.392   4.674
 5661SOL    HW217883   1.887   6.416   4.834
 5662SOL     OW17884   2.877   6.777   2.997
 5662SOL    HW117885   2.886   6.815   3.089
 5662SOL    HW217886   2.963   6.731   2.971
 5663SOL     OW17887   2.734   2.390   0.783
 5663SOL    HW117888   2.686   2.407   0.869
 5663SOL    HW217889   2.809   2.456   0.773
 5664SOL     OW17890   6.966   3.751   4.152
 5664SOL    HW117891   6.959   3.850   4.141
 5664SOL    HW217892   6.901   3.721   4.223
 5665SOL     OW17893   1.136   0.664   0.829
 5665SOL    HW117894   1.173   0.754   0.807
 5665SOL    HW217895   1.048   0.652   0.783
 5666SOL     OW17896   6.534   0.059   3.688
 5666SOL    HW117897   6.484   0.142   3.660
 5666SOL    HW217898   6.625   0.060   3.646
 5667SOL     OW17899   1.227   5.002   4.912
 5667SOL    HW117900   1.285   5.066   4.863
 5667SOL    HW217901   1.233   5.019   5.010
 5668SOL     OW17902   5.779   3.511   3.231
 5668SOL    HW117903   5.723   3.464   3.163
 5668SOL    HW217904   5.854   3.558   3.186
 5669SOL     OW17905   6.401   3.925   0.734
 5669SOL    HW117906   6.487   3.941   0.782
 5669SOL    HW217907   6.335   3.882   0.796
 5670SOL     OW17908   1.433   3.686   3.950
 5670SOL    HW117909   1.365   3.665   3.880
 5670SOL    HW217910   1.511   3.734   3.908
 5671SOL     OW17911   6.059   6.549   5.526
 5671SOL    HW117912   6.022   6.621   5.585
 5671SOL    HW217913   6.042   6.573   5.430
 5672SOL     OW17914   5.172   4.034   6.363
 5672SOL    HW117915   5.205   4.059   6.272
 5672SOL    HW217916   5.243   3.986   6.413
 5673SOL     OW17917   1.820   6.391   1.264
 5673SOL    HW117918   1.873   6.329   1.322
 5673SOL    HW217919   1.880   6.463   1.229
 5674SOL     OW17920   1.451   4.661   4.727
 5674SOL    HW117921   1.525   4.596   4.744
 5674SOL    HW217922   1.363   4.615   4.737
 5675SOL     OW17923   4.534   2.718   6.676
 5675SOL    HW117924   4.561   2.656   6.749
 5675SOL    HW217925   4.610   2.778   6.652
 5676SOL     OW17926   2.409   1.830   3.062
 5676SOL    HW117927   2.412   1.790   2.970
 5676SOL    HW217928   2.428   1.928   3.057
 5677SOL     OW17929   0.672   0.728   0.947
 5677SOL    HW117930   0.697   0.682   0.861
 5677SOL    HW217931   0.753   0.731   1.007
 5678SOL     OW17932   4.139   0.395   2.991
 5678SOL    HW117933   4.203   0.324   3.020
 5678SOL    HW217934   4.137   0.399   2.891
 5679SOL     OW17935   5.701   0.944   4.081
 5679SOL    HW117936   5.611   0.941   4.037
 5679SOL    HW217937   5.736   0.851   4.091
 5680SOL     OW17938   1.428   5.072   6.487
 5680SOL    HW117939   1.457   5.167   6.474
 5680SOL    HW217940   1.332   5.063   6.464
 5681SOL     OW17941   0.663   3.580   1.846
 5681SOL    HW117942   0.647   3.667   1.892
 5681SOL    HW217943   0.642   3.505   1.909
 5682SOL     OW17944   2.432   5.193   4.351
 5682SOL    HW117945   2.514   5.151   4.312
 5682SOL    HW217946   2.418   5.161   4.444
 5683SOL     OW17947   3.694   1.687   6.237
 5683SOL    HW117948   3.709   1.622   6.312
 5683SOL    HW217949   3.611   1.662   6.188
 5684SOL     OW17950   2.236   3.564   5.908
 5684SOL    HW117951   2.332   3.586   5.924
 5684SOL    HW217952   2.219   3.469   5.933
 5685SOL     OW17953   2.755   1.824   3.325
 5685SOL    HW117954   2.731   1.791   3.416
 5685SOL    HW217955   2.853   1.813   3.309
 5686SOL     OW17956   3.444   1.322   5.063
 5686SOL    HW117957   3.526   1.354   5.109
 5686SOL    HW217958   3.391   1.401   5.031
 5687SOL     OW17959   0.767   5.855   5.995
 5687SOL    HW117960   0.739   5.932   5.938
 5687SOL    HW217961   0.810   5.890   6.079
 5688SOL     OW17962   1.417   2.385   2.926
 5688SOL    HW117963   1.381   2.306   2.976
 5688SOL    HW217964   1.397   2.469   2.977
 5689SOL     OW17965   2.478   1.208   2.162
 5689SOL    HW117966   2.388   1.212   2.206
 5689SOL    HW217967   2.513   1.301   2.150
 5690SOL     OW17968   1.222   5.958   7.011
 5690SOL    HW117969   1.176   5.994   6.930
 5690SOL    HW217970   1.173   5.987   0.065
 5691SOL     OW17971   3.761   0.829   2.281
 5691SOL    HW117972   3.787   0.740   2.243
 5691SOL    HW217973   3.815   0.901   2.238
 5692SOL     OW17974   5.385   4.442   0.497
 5692SOL    HW117975   5.323   4.384   0.551
 5692SOL    HW217976   5.435   4.504   0.558
 5693SOL     OW17977   4.577   1.462   1.766
 5693SOL    HW117978   4.501   1.508   1.720
 5693SOL    HW217979   4.643   1.430   1.697
 5694SOL     OW17980   0.941   0.822   2.638
 5694SOL    HW117981   1.033   0.782   2.643
 5694SOL    HW217982   0.938   0.906   2.690
 5695SOL     OW17983   1.944   1.456   3.288
 5695SOL    HW117984   2.041   1.446   3.310
 5695SOL    HW217985   1.928   1.546   3.248
 5696SOL     OW17986   0.706   6.533   4.149
 5696SOL    HW117987   0.668   6.458   4.202
 5696SOL    HW217988   0.728   6.610   4.210
 5697SOL     OW17989   5.651   2.234   2.343
 5697SOL    HW117990   5.742   2.220   2.304
 5697SOL    HW217991   5.586   2.173   2.298
 5698SOL     OW17992   1.723   4.510   4.102
 5698SOL    HW117993   1.752   4.591   4.154
 5698SOL    HW217994   1.743   4.524   4.005
 5699SOL     OW17995   1.429   2.051   2.715
 5699SOL    HW117996   1.334   2.077   2.733
 5699SOL    HW217997   1.464   2.107   2.640
 5700SOL     OW17998   6.360   6.530   3.974
 5700SOL    HW117999   6.374   6.605   4.038
 5700SOL    HW218000   6.268   6.493   3.985
 5701SOL     OW18001   0.372   0.202   1.509
 5701SOL    HW118002   0.278   0.210   1.540
 5701SOL    HW218003   0.403   0.107   1.520
 5702SOL     OW18004   2.342   6.212   4.018
 5702SOL    HW118005   2.416   6.144   4.016
 5702SOL    HW218006   2.263   6.176   3.968
 5703SOL     OW18007   6.980   4.268   6.952
 5703SOL    HW118008   6.967   4.250   6.854
 5703SOL    HW218009   6.923   4.205   7.005
 5704SOL     OW18010   5.055   4.065   3.458
 5704SOL    HW118011   4.967   4.027   3.429
 5704SOL    HW218012   5.126   4.036   3.393
 5705SOL     OW18013   4.749   6.292   6.710
 5705SOL    HW118014   4.797   6.220   6.760
 5705SOL    HW218015   4.797   6.311   6.624
 5706SOL     OW18016   5.288   2.857   2.213
 5706SOL    HW118017   5.222   2.914   2.263
 5706SOL    HW218018   5.378   2.866   2.255
 5707SOL     OW18019   6.311   0.063   1.051
 5707SOL    HW118020   6.304   6.993   1.072
 5707SOL    HW218021   6.304   0.077   0.953
 5708SOL     OW18022   4.781   5.637   2.053
 5708SOL    HW118023   4.746   5.723   2.090
 5708SOL    HW218024   4.803   5.649   1.956
 5709SOL     OW18025   0.374   1.342   2.569
 5709SOL    HW118026   0.445   1.317   2.503
 5709SOL    HW218027   0.417   1.385   2.649
 5710SOL     OW18028   3.550   2.043   0.258
 5710SOL    HW118029   3.554   1.961   0.316
 5710SOL    HW218030   3.582   2.122   0.311
 5711SOL     OW18031   4.973   1.140   1.690
 5711SOL    HW118032   5.024   1.222   1.717
 5711SOL    HW218033   5.015   1.100   1.609
 5712SOL     OW18034   6.132   6.562   0.119
 5712SOL    HW118035   6.231   6.548   0.110
 5712SOL    HW218036   6.094   6.495   0.182
 5713SOL     OW18037   2.886   3.971   1.661
 5713SOL    HW118038   2.793   3.990   1.630
 5713SOL    HW218039   2.893   3.875   1.687
 5714SOL     OW18040   6.722   6.230   1.335
 5714SOL    HW118041   6.732   6.137   1.372
 5714SOL    HW218042   6.800   6.251   1.277
 5715SOL     OW18043   7.012   7.017   2.770
 5715SOL    HW118044   6.924   6.973   2.790
 5715SOL    HW218045   0.057   6.948   2.769
 5716SOL     OW18046   1.378   5.694   5.777
 5716SOL    HW118047   1.452   5.711   5.711
 5716SOL    HW218048   1.298   5.747   5.750
 5717SOL     OW18049   1.508   5.117   0.699
 5717SOL    HW118050   1.497   5.018   0.703
 5717SOL    HW218051   1.435   5.156   0.644
 5718SOL     OW18052   1.453   3.828   0.713
 5718SOL    HW118053   1.469   3.768   0.634
 5718SOL    HW218054   1.508   3.910   0.703
 5719SOL     OW18055   2.642   3.547   0.359
 5719SOL    HW118056   2.600   3.637   0.349
 5719SOL    HW218057   2.728   3.556   0.409
 5720SOL     OW18058   1.106   6.814   4.627
 5720SOL    HW118059   1.111   6.914   4.627
 5720SOL    HW218060   1.129   6.780   4.718
 5721SOL     OW18061   6.156   4.201   0.889
 5721SOL    HW118062   6.060   4.193   0.862
 5721SOL    HW218063   6.184   4.118   0.936
 5722SOL     OW18064   6.517   2.345   4.946
 5722SOL    HW118065   6.580   2.324   5.021
 5722SOL    HW218066   6.465   2.263   4.922
 5723SOL     OW18067   4.336   3.960   0.318
 5723SOL    HW118068   4.237   3.970   0.318
 5723SOL    HW218069   4.379   4.049   0.335
 5724SOL     OW18070   5.992   2.967   4.095
 5724SOL    HW118071   5.926   2.908   4.142
 5724SOL    HW218072   6.079   2.918   4.085
 5725SOL     OW18073   6.683   4.783   4.015
 5725SOL    HW118074   6.676   4.683   4.017
 5725SOL    HW218075   6.779   4.810   4.009
 5726SOL     OW18076   0.056   5.468   3.925
 5726SOL    HW118077   6.983   5.471   3.925
 5726SOL    HW218078   0.090   5.493   3.834
 5727SOL     OW18079   6.107   2.608   4.519
 5727SOL    HW118080   6.183   2.664   4.486
 5727SOL    HW218081   6.106   2.608   4.619
 5728SOL     OW18082   5.120   6.567   5.576
 5728SOL    HW118083   5.109   6.641   5.642
 5728SOL    HW218084   5.030   6.540   5.542
 5729SOL     OW18085   1.662   1.459   6.621
 5729SOL    HW118086   1.662   1.448   6.521
 5729SOL    HW218087   1.568   1.471   6.653
 5730SOL     OW18088   5.820   4.657   6.146
 5730SOL    HW118089   5.799   4.700   6.234
 5730SOL    HW218090   5.758   4.692   6.076
 5731SOL     OW18091   6.733   0.396   2.768
 5731SOL    HW118092   6.733   0.455   2.848
 5731SOL    HW218093   6.815   0.338   2.769
 5732SOL     OW18094   0.472   6.158   3.914
 5732SOL    HW118095   0.489   6.234   3.850
 5732SOL    HW218096   0.431   6.082   3.864
 5733SOL     OW18097   3.505   6.312   5.092
 5733SOL    HW118098   3.583   6.283   5.147
 5733SOL    HW218099   3.507   6.266   5.003
 5734SOL     OW18100   1.165   0.559   5.460
 5734SOL    HW118101   1.212   0.471   5.468
 5734SOL    HW218102   1.106   0.573   5.540
 5735SOL     OW18103   3.589   1.496   0.834
 5735SOL    HW118104   3.539   1.552   0.901
 5735SOL    HW218105   3.545   1.407   0.826
 5736SOL     OW18106   6.766   4.317   0.200
 5736SOL    HW118107   6.815   4.257   0.263
 5736SOL    HW218108   6.760   4.274   0.110
 5737SOL     OW18109   5.483   6.054   0.737
 5737SOL    HW118110   5.420   6.104   0.796
 5737SOL    HW218111   5.475   5.956   0.756
 5738SOL     OW18112   1.888   2.935   5.837
 5738SOL    HW118113   1.864   2.886   5.753
 5738SOL    HW218114   1.986   2.958   5.835
 5739SOL     OW18115   1.728   1.448   6.347
 5739SOL    HW118116   1.773   1.359   6.354
 5739SOL    HW218117   1.795   1.519   6.327
 5740SOL     OW18118   4.197   4.935   0.733
 5740SOL    HW118119   4.201   4.881   0.816
 5740SOL    HW218120   4.193   4.874   0.654
 5741SOL     OW18121   0.146   5.385   4.266
 5741SOL    HW118122   0.156   5.383   4.167
 5741SOL    HW218123   0.112   5.297   4.298
 5742SOL     OW18124   5.210   6.509   2.925
 5742SOL    HW118125   5.302   6.497   2.888
 5742SOL    HW218126   5.197   6.447   3.003
 5743SOL     OW18127   2.413   6.549   5.074
 5743SOL    HW118128   2.494   6.535   5.018
 5743SOL    HW218129   2.440   6.589   5.161
 5744SOL     OW18130   4.734   0.304   1.155
 5744SOL    HW118131   4.806   0.285   1.222
 5744SOL    HW218132   4.649   0.326   1.203
 5745SOL     OW18133   3.885   1.435   4.365
 5745SOL    HW118134   3.922   1.343   4.349
 5745SOL    HW218135   3.892   1.489   4.281
 5746SOL     OW18136   4.594   0.875   0.882
 5746SOL    HW118137   4.645   0.932   0.818
 5746SOL    HW218138   4.514   0.926   0.915
 5747SOL     OW18139   0.054   5.340   2.874
 5747SOL    HW118140   7.009   5.280   2.840
 5747SOL    HW218141   0.014   5.415   2.925
 5748SOL     OW18142   1.754   4.640   1.178
 5748SOL    HW118143   1.754   4.591   1.090
 5748SOL    HW218144   1.661   4.667   1.201
 5749SOL     OW18145   2.887   0.645   4.386
 5749SOL    HW118146   2.866   0.727   4.439
 5749SOL    HW218147   2.812   0.580   4.394
 5750SOL     OW18148   5.705   5.244   4.909
 5750SOL    HW118149   5.797   5.236   4.870
 5750SOL    HW218150   5.639   5.261   4.835
 5751SOL     OW18151   2.513   2.527   4.545
 5751SOL    HW118152   2.517   2.625   4.567
 5751SOL    HW218153   2.597   2.483   4.577
 5752SOL     OW18154   5.973   1.300   6.273
 5752SOL    HW118155   5.969   1.200   6.272
 5752SOL    HW218156   5.919   1.334   6.350
 5753SOL     OW18157   3.519   3.801   6.412
 5753SOL    HW118158   3.469   3.884   6.436
 5753SOL    HW218159   3.534   3.799   6.313
 5754SOL     OW18160   5.451   6.010   1.485
 5754SOL    HW118161   5.464   6.109   1.484
 5754SOL    HW218162   5.451   5.978   1.580
 5755SOL     OW18163   3.108   3.561   5.758
 5755SOL    HW118164   3.137   3.494   5.827
 5755SOL    HW218165   3.090   3.514   5.672
 5756SOL     OW18166   7.001   5.372   3.602
 5756SOL    HW118167   6.997   5.279   3.637
 5756SOL    HW218168   0.069   5.399   3.590
 5757SOL     OW18169   6.526   6.389   2.404
 5757SOL    HW118170   6.532   6.483   2.439
 5757SOL    HW218171   6.607   6.368   2.350
 5758SOL     OW18172   2.706   2.028   4.077
 5758SOL    HW118173   2.670   2.008   4.168
 5758SOL    HW218174   2.671   1.960   4.012
 5759SOL     OW18175   4.767   2.149   6.895
 5759SOL    HW118176   4.766   2.049   6.903
 5759SOL    HW218177   4.692   2.187   6.949
 5760SOL     OW18178   1.952   6.558   1.967
 5760SOL    HW118179   2.000   6.646   1.971
 5760SOL    HW218180   1.877   6.565   1.901
 5761SOL     OW18181   5.769   0.708   5.290
 5761SOL    HW118182   5.680   0.666   5.309
 5761SOL    HW218183   5.836   0.637   5.272
 5762SOL     OW18184   5.170   0.079   0.257
 5762SOL    HW118185   5.180   0.102   0.161
 5762SOL    HW218186   5.180   0.161   0.313
 5763SOL     OW18187   1.062   0.041   0.345
 5763SOL    HW118188   0.996   0.015   0.275
 5763SOL    HW218189   1.150   0.061   0.302
 5764SOL     OW18190   5.644   4.796   5.989
 5764SOL    HW118191   5.658   4.874   5.928
 5764SOL    HW218192   5.548   4.792   6.017
 5765SOL     OW18193   6.380   4.750   6.462
 5765SOL    HW118194   6.313   4.729   6.533
 5765SOL    HW218195   6.334   4.761   6.374
 5766SOL     OW18196   2.667   1.221   1.796
 5766SOL    HW118197   2.568   1.230   1.808
 5766SOL    HW218198   2.686   1.166   1.714
 5767SOL     OW18199   2.247   6.743   0.417
 5767SOL    HW118200   2.225   6.671   0.482
 5767SOL    HW218201   2.261   6.703   0.326
 5768SOL     OW18202   6.720   0.201   2.996
 5768SOL    HW118203   6.732   0.177   2.899
 5768SOL    HW218204   6.627   0.236   3.009
 5769SOL     OW18205   2.797   0.131   3.158
 5769SOL    HW118206   2.829   0.090   3.072
 5769SOL    HW218207   2.707   0.171   3.144
 5770SOL     OW18208   0.076   0.205   0.605
 5770SOL    HW118209   0.123   0.118   0.622
 5770SOL    HW218210   7.009   0.187   0.578
 5771SOL     OW18211   1.571   6.709   1.491
 5771SOL    HW118212   1.529   6.800   1.500
 5771SOL    HW218213   1.669   6.720   1.474
 5772SOL     OW18214   5.815   2.772   0.724
 5772SOL    HW118215   5.904   2.743   0.689
 5772SOL    HW218216   5.745   2.754   0.655
 5773SOL     OW18217   5.620   6.875   3.940
 5773SOL    HW118218   5.681   6.937   3.989
 5773SOL    HW218219   5.654   6.861   3.847
 5774SOL     OW18220   2.442   4.478   3.516
 5774SOL    HW118221   2.451   4.469   3.417
 5774SOL    HW218222   2.414   4.572   3.538
 5775SOL     OW18223   1.630   0.616   1.071
 5775SOL    HW118224   1.646   0.578   0.980
 5775SOL    HW218225   1.714   0.611   1.124
 5776SOL     OW18226   6.534   0.698   6.140
 5776SOL    HW118227   6.523   0.719   6.237
 5776SOL    HW218228   6.596   0.764   6.098
 5777SOL     OW18229   6.026   0.927   4.369
 5777SOL    HW118230   6.078   0.912   4.452
 5777SOL    HW218231   5.982   0.841   4.341
 5778SOL     OW18232   2.430   0.556   2.374
 5778SOL    HW118233   2.525   0.534   2.396
 5778SOL    HW218234   2.424   0.588   2.280
 5779SOL     OW18235   3.599   0.654   0.854
 5779SOL    HW118236   3.504   0.684   0.863
 5779SOL    HW218237   3.660   0.731   0.874
 5780SOL     OW18238   6.503   5.200   1.472
 5780SOL    HW118239   6.541   5.291   1.492
 5780SOL    HW218240   6.455   5.165   1.553
 5781SOL     OW18241   2.246   4.220   4.780
 5781SOL    HW118242   2.215   4.181   4.866
 5781SOL    HW218243   2.290   4.148   4.725
 5782SOL     OW18244   1.699   1.353   1.351
 5782SOL    HW118245   1.609   1.395   1.359
 5782SOL    HW218246   1.743   1.351   1.440
 5783SOL     OW18247   1.665   1.483   0.571
 5783SOL    HW118248   1.708   1.573   0.561
 5783SOL    HW218249   1.654   1.461   0.668
 5784SOL     OW18250   0.700   6.226   0.274
 5784SOL    HW118251   0.716   6.129   0.295
 5784SOL    HW218252   0.635   6.264   0.341
 5785SOL     OW18253   1.176   1.155   1.083
 5785SOL    HW118254   1.194   1.060   1.056
 5785SOL    HW218255   1.235   1.180   1.159
 5786SOL     OW18256   1.370   3.166   1.282
 5786SOL    HW118257   1.399   3.071   1.273
 5786SOL    HW218258   1.287   3.181   1.227
 5787SOL     OW18259   5.852   2.259   4.448
 5787SOL    HW118260   5.842   2.170   4.492
 5787SOL    HW218261   5.857   2.246   4.349
 5788SOL     OW18262   2.898   0.196   1.111
 5788SOL    HW118263   2.811   0.155   1.138
 5788SOL    HW218264   2.972   0.158   1.167
 5789SOL     OW18265   4.050   2.727   6.647
 5789SOL    HW118266   4.149   2.718   6.637
 5789SOL    HW218267   4.022   2.818   6.617
 5790SOL     OW18268   6.564   5.650   4.646
 5790SOL    HW118269   6.573   5.722   4.578
 5790SOL    HW218270   6.617   5.570   4.618
 5791SOL     OW18271   3.206   1.342   2.238
 5791SOL    HW118272   3.176   1.247   2.230
 5791SOL    HW218273   3.191   1.374   2.331
 5792SOL     OW18274   5.235   3.399   3.336
 5792SOL    HW118275   5.312   3.394   3.272
 5792SOL    HW218276   5.195   3.309   3.347
 5793SOL     OW18277   5.814   2.544   5.312
 5793SOL    HW118278   5.856   2.609   5.248
 5793SOL    HW218279   5.762   2.595   5.381
 5794SOL     OW18280   3.121   6.735   6.243
 5794SOL    HW118281   3.133   6.701   6.336
 5794SOL    HW218282   3.064   6.817   6.244
 5795SOL     OW18283   1.099   6.005   1.781
 5795SOL    HW118284   1.122   5.959   1.695
 5795SOL    HW218285   1.130   5.948   1.858
 5796SOL     OW18286   4.690   1.390   6.506
 5796SOL    HW118287   4.707   1.486   6.481
 5796SOL    HW218288   4.721   1.375   6.600
 5797SOL     OW18289   5.822   1.652   0.708
 5797SOL    HW118290   5.837   1.585   0.635
 5797SOL    HW218291   5.741   1.626   0.761
 5798SOL     OW18292   0.445   3.578   4.916
 5798SOL    HW118293   0.402   3.589   4.826
 5798SOL    HW218294   0.503   3.497   4.915
 5799SOL     OW18295   1.091   6.681   2.867
 5799SOL    HW118296   1.039   6.620   2.806
 5799SOL    HW218297   1.174   6.711   2.821
 5800SOL     OW18298   0.446   6.943   0.859
 5800SOL    HW118299   0.455   6.847   0.886
 5800SOL    HW218300   0.526   6.995   0.892
 5801SOL     OW18301   2.418   2.635   2.539
 5801SOL    HW118302   2.453   2.542   2.531
 5801SOL    HW218303   2.437   2.670   2.630
 5802SOL     OW18304   6.533   2.469   3.090
 5802SOL    HW118305   6.474   2.402   3.135
 5802SOL    HW218306   6.510   2.474   2.993
 5803SOL     OW18307   1.443   4.420   4.025
 5803SOL    HW118308   1.383   4.499   4.016
 5803SOL    HW218309   1.523   4.444   4.079
 5804SOL     OW18310   6.481   6.389   3.754
 5804SOL    HW118311   6.431   6.464   3.797
 5804SOL    HW218312   6.451   6.380   3.659
 5805SOL     OW18313   1.568   3.662   1.187
 5805SOL    HW118314   1.480   3.706   1.166
 5805SOL    HW218315   1.551   3.570   1.221
 5806SOL     OW18316   0.643   3.435   3.672
 5806SOL    HW118317   0.572   3.391   3.727
 5806SOL    HW218318   0.603   3.465   3.585
 5807SOL     OW18319   1.391   5.973   1.178
 5807SOL    HW118320   1.365   6.053   1.124
 5807SOL    HW218321   1.376   5.993   1.275
 5808SOL     OW18322   6.380   6.729   4.153
 5808SOL    HW118323   6.444   6.805   4.145
 5808SOL    HW218324   6.407   6.670   4.229
 5809SOL     OW18325   0.736   2.093   5.776
 5809SOL    HW118326   0.670   2.144   5.722
 5809SOL    HW218327   0.736   2.126   5.870
 5810SOL     OW18328   4.489   6.708   5.009
 5810SOL    HW118329   4.483   6.757   4.922
 5810SOL    HW218330   4.512   6.612   4.992
 5811SOL     OW18331   2.898   2.702   6.162
 5811SOL    HW118332   2.884   2.796   6.131
 5811SOL    HW218333   2.919   2.703   6.260
 5812SOL     OW18334   5.903   3.040   0.577
 5812SOL    HW118335   5.851   3.123   0.597
 5812SOL    HW218336   5.879   2.969   0.643
 5813SOL     OW18337   3.856   6.237   1.011
 5813SOL    HW118338   3.934   6.230   0.948
 5813SOL    HW218339   3.798   6.156   1.001
 5814SOL     OW18340   6.617   1.904   2.359
 5814SOL    HW118341   6.546   1.835   2.366
 5814SOL    HW218342   6.630   1.930   2.264
 5815SOL     OW18343   6.384   1.545   3.952
 5815SOL    HW118344   6.365   1.624   3.893
 5815SOL    HW218345   6.482   1.526   3.951
 5816SOL     OW18346   0.493   5.182   2.409
 5816SOL    HW118347   0.512   5.266   2.460
 5816SOL    HW218348   0.453   5.114   2.470
 5817SOL     OW18349   5.496   3.950   5.069
 5817SOL    HW118350   5.396   3.949   5.074
 5817SOL    HW218351   5.530   3.856   5.066
 5818SOL     OW18352   1.139   6.512   4.817
 5818SOL    HW118353   1.043   6.538   4.816
 5818SOL    HW218354   1.148   6.415   4.795
 5819SOL     OW18355   3.083   4.889   0.246
 5819SOL    HW118356   3.154   4.912   0.179
 5819SOL    HW218357   3.085   4.956   0.320
 5820SOL     OW18358   5.435   5.003   2.259
 5820SOL    HW118359   5.381   4.991   2.176
 5820SOL    HW218360   5.380   5.050   2.328
 5821SOL     OW18361   6.965   0.989   1.429
 5821SOL    HW118362   0.005   0.951   1.493
 5821SOL    HW218363   6.877   1.000   1.476
 5822SOL     OW18364   1.551   2.101   2.962
 5822SOL    HW118365   1.511   2.071   2.875
 5822SOL    HW218366   1.588   2.194   2.951
 5823SOL     OW18367   2.437   6.424   4.495
 5823SOL    HW118368   2.424   6.347   4.433
 5823SOL    HW218369   2.363   6.425   4.563
 5824SOL     OW18370   0.739   6.990   2.207
 5824SOL    HW118371   0.767   6.917   2.145
 5824SOL    HW218372   0.673   0.022   2.161
 5825SOL     OW18373   6.665   6.889   4.815
 5825SOL    HW118374   6.644   6.792   4.829
 5825SOL    HW218375   6.754   6.910   4.854
 5826SOL     OW18376   6.997   0.544   5.195
 5826SOL    HW118377   6.997   0.623   5.134
 5826SOL    HW218378   7.010   0.461   5.142
 5827SOL     OW18379   1.549   3.516   4.945
 5827SOL    HW118380   1.571   3.420   4.925
 5827SOL    HW218381   1.519   3.524   5.040
 5828SOL     OW18382   5.263   6.533   3.905
 5828SOL    HW118383   5.223   6.604   3.848
 5828SOL    HW218384   5.352   6.507   3.869
 5829SOL     OW18385   1.748   0.883   4.886
 5829SOL    HW118386   1.793   0.803   4.927
 5829SOL    HW218387   1.816   0.939   4.839
 5830SOL     OW18388   3.609   4.936   5.472
 5830SOL    HW118389   3.639   4.885   5.553
 5830SOL    HW218390   3.531   4.993   5.496
 5831SOL     OW18391   1.105   1.624   5.267
 5831SOL    HW118392   1.167   1.612   5.190
 5831SOL    HW218393   1.157   1.626   5.352
 5832SOL     OW18394   3.253   4.580   1.153
 5832SOL    HW118395   3.298   4.668   1.137
 5832SOL    HW218396   3.174   4.572   1.092
 5833SOL     OW18397   4.148   3.802   5.559
 5833SOL    HW118398   4.060   3.823   5.603
 5833SOL    HW218399   4.219   3.793   5.629
 5834SOL     OW18400   6.700   4.366   6.736
 5834SOL    HW118401   6.717   4.286   6.794
 5834SOL    HW218402   6.680   4.335   6.643
 5835SOL     OW18403   5.350   0.821   2.749
 5835SOL    HW118404   5.301   0.780   2.826
 5835SOL    HW218405   5.442   0.782   2.743
 5836SOL     OW18406   4.094   6.191   2.392
 5836SOL    HW118407   4.003   6.208   2.431
 5836SOL    HW218408   4.134   6.277   2.362
 5837SOL     OW18409   3.804   4.372   0.499
 5837SOL    HW118410   3.821   4.291   0.555
 5837SOL    HW218411   3.795   4.346   0.403
 5838SOL     OW18412   3.164   2.022   1.455
 5838SOL    HW118413   3.254   2.003   1.415
 5838SOL    HW218414   3.158   1.980   1.545
 5839SOL     OW18415   0.616   2.500   2.181
 5839SOL    HW118416   0.617   2.403   2.207
 5839SOL    HW218417   0.572   2.553   2.253
 5840SOL     OW18418   0.431   3.788   2.102
 5840SOL    HW118419   0.364   3.726   2.062
 5840SOL    HW218420   0.512   3.792   2.044
 5841SOL     OW18421   4.238   0.681   1.589
 5841SOL    HW118422   4.232   0.781   1.590
 5841SOL    HW218423   4.326   0.654   1.548
 5842SOL     OW18424   3.848   1.931   0.439
 5842SOL    HW118425   3.836   2.029   0.426
 5842SOL    HW218426   3.896   1.915   0.525
 5843SOL     OW18427   1.798   3.765   1.031
 5843SOL    HW118428   1.867   3.776   1.103
 5843SOL    HW218429   1.713   3.731   1.072
 5844SOL     OW18430   0.578   6.923   5.005
 5844SOL    HW118431   0.654   6.862   5.030
 5844SOL    HW218432   0.568   6.993   5.075
 5845SOL     OW18433   6.860   6.845   1.623
 5845SOL    HW118434   6.768   6.807   1.617
 5845SOL    HW218435   6.866   6.927   1.566
 5846SOL     OW18436   6.553   3.766   4.961
 5846SOL    HW118437   6.490   3.837   4.930
 5846SOL    HW218438   6.559   3.767   5.060
 5847SOL     OW18439   2.531   3.054   1.711
 5847SOL    HW118440   2.589   3.105   1.774
 5847SOL    HW218441   2.440   3.096   1.709
 5848SOL     OW18442   2.531   6.026   4.027
 5848SOL    HW118443   2.515   5.942   4.079
 5848SOL    HW218444   2.525   6.006   3.929
 5849SOL     OW18445   2.416   6.240   5.164
 5849SOL    HW118446   2.363   6.320   5.137
 5849SOL    HW218447   2.425   6.238   5.263
 5850SOL     OW18448   1.348   2.620   2.020
 5850SOL    HW118449   1.383   2.539   2.067
 5850SOL    HW218450   1.248   2.621   2.024
 5851SOL     OW18451   5.878   3.179   4.543
 5851SOL    HW118452   5.978   3.183   4.535
 5851SOL    HW218453   5.837   3.244   4.479
 5852SOL     OW18454   4.683   5.816   3.533
 5852SOL    HW118455   4.663   5.834   3.629
 5852SOL    HW218456   4.598   5.809   3.482
 5853SOL     OW18457   3.667   5.223   5.344
 5853SOL    HW118458   3.604   5.165   5.395
 5853SOL    HW218459   3.754   5.229   5.393
 5854SOL     OW18460   3.575   4.685   5.729
 5854SOL    HW118461   3.518   4.724   5.801
 5854SOL    HW218462   3.521   4.677   5.645
 5855SOL     OW18463   1.950   2.169   3.969
 5855SOL    HW118464   1.914   2.127   3.886
 5855SOL    HW218465   2.049   2.182   3.960
 5856SOL     OW18466   1.715   6.919   2.495
 5856SOL    HW118467   1.812   6.942   2.481
 5856SOL    HW218468   1.704   6.878   2.586
 5857SOL     OW18469   0.174   3.436   5.665
 5857SOL    HW118470   0.165   3.527   5.705
 5857SOL    HW218471   0.091   3.413   5.614
 5858SOL     OW18472   2.498   1.153   3.123
 5858SOL    HW118473   2.472   1.198   3.209
 5858SOL    HW218474   2.416   1.129   3.072
 5859SOL     OW18475   5.895   6.778   1.480
 5859SOL    HW118476   5.987   6.810   1.460
 5859SOL    HW218477   5.830   6.825   1.421
 5860SOL     OW18478   0.653   4.306   3.544
 5860SOL    HW118479   0.739   4.273   3.583
 5860SOL    HW218480   0.673   4.381   3.480
 5861SOL     OW18481   5.908   0.457   5.269
 5861SOL    HW118482   5.873   0.396   5.199
 5861SOL    HW218483   6.006   0.441   5.282
 5862SOL     OW18484   6.612   5.797   2.106
 5862SOL    HW118485   6.626   5.819   2.202
 5862SOL    HW218486   6.687   5.835   2.052
 5863SOL     OW18487   2.833   0.891   4.538
 5863SOL    HW118488   2.912   0.950   4.520
 5863SOL    HW218489   2.842   0.851   4.629
 5864SOL     OW18490   3.650   3.623   3.431
 5864SOL    HW118491   3.674   3.720   3.421
 5864SOL    HW218492   3.624   3.605   3.526
 5865SOL     OW18493   5.837   1.451   5.715
 5865SOL    HW118494   5.786   1.514   5.774
 5865SOL    HW218495   5.867   1.498   5.632
 5866SOL     OW18496   3.230   3.326   1.333
 5866SOL    HW118497   3.307   3.360   1.388
 5866SOL    HW218498   3.144   3.361   1.371
 5867SOL     OW18499   1.983   2.152   1.322
 5867SOL    HW118500   2.040   2.192   1.394
 5867SOL    HW218501   1.961   2.222   1.254
 5868SOL     OW18502   1.044   1.682   6.001
 5868SOL    HW118503   0.967   1.723   6.051
 5868SOL    HW218504   1.046   1.719   5.908
 5869SOL     OW18505   1.185   4.733   3.512
 5869SOL    HW118506   1.253   4.713   3.442
 5869SOL    HW218507   1.191   4.663   3.584
 5870SOL     OW18508   4.224   4.702   5.604
 5870SOL    HW118509   4.207   4.692   5.506
 5870SOL    HW218510   4.227   4.612   5.646
 5871SOL     OW18511   3.431   3.411   3.714
 5871SOL    HW118512   3.427   3.386   3.617
 5871SOL    HW218513   3.482   3.496   3.724
 5872SOL     OW18514   3.962   5.885   1.395
 5872SOL    HW118515   4.019   5.895   1.476
 5872SOL    HW218516   3.866   5.901   1.419
 5873SOL     OW18517   2.578   5.343   2.330
 5873SOL    HW118518   2.563   5.411   2.401
 5873SOL    HW218519   2.660   5.366   2.277
 5874SOL     OW18520   2.113   4.231   5.051
 5874SOL    HW118521   2.112   4.294   5.129
 5874SOL    HW218522   2.167   4.150   5.074
 5875SOL     OW18523   3.573   2.257   0.012
 5875SOL    HW118524   3.574   2.276   0.110
 5875SOL    HW218525   3.530   2.333   6.991
 5876SOL     OW18526   4.100   3.792   2.357
 5876SOL    HW118527   4.186   3.837   2.379
 5876SOL    HW218528   4.100   3.700   2.395
 5877SOL     OW18529   5.961   6.575   1.071
 5877SOL    HW118530   6.010   6.657   1.099
 5877SOL    HW218531   5.894   6.550   1.142
 5878SOL     OW18532   1.429   5.831   3.513
 5878SOL    HW118533   1.408   5.746   3.560
 5878SOL    HW218534   1.492   5.885   3.568
 5879SOL     OW18535   6.403   3.278   0.148
 5879SOL    HW118536   6.457   3.350   0.191
 5879SOL    HW218537   6.307   3.287   0.175
 5880SOL     OW18538   2.816   5.488   1.314
 5880SOL    HW118539   2.749   5.437   1.368
 5880SOL    HW218540   2.831   5.578   1.357
 5881SOL     OW18541   0.002   4.536   3.471
 5881SOL    HW118542   6.986   4.447   3.484
 5881SOL    HW218543   0.093   4.535   3.513
 5882SOL     OW18544   5.752   0.339   0.784
 5882SOL    HW118545   5.723   0.321   0.878
 5882SOL    HW218546   5.713   0.425   0.752
 5883SOL     OW18547   0.206   2.427   6.468
 5883SOL    HW118548   0.226   2.521   6.493
 5883SOL    HW218549   0.287   2.371   6.481
 5884SOL     OW18550   2.087   1.077   3.540
 5884SOL    HW118551   2.161   1.041   3.598
 5884SOL    HW218552   2.081   1.022   3.457
 5885SOL     OW18553   6.535   6.979   1.433
 5885SOL    HW118554   6.553   0.028   1.372
 5885SOL    HW218555   6.542   7.010   1.528
 5886SOL     OW18556   0.461   2.317   4.809
 5886SOL    HW118557   0.520   2.289   4.734
 5886SOL    HW218558   0.514   2.367   4.877
 5887SOL     OW18559   4.182   1.385   3.521
 5887SOL    HW118560   4.152   1.477   3.544
 5887SOL    HW218561   4.104   1.322   3.526
 5888SOL     OW18562   2.832   6.590   2.729
 5888SOL    HW118563   2.779   6.649   2.790
 5888SOL    HW218564   2.923   6.577   2.768
 5889SOL     OW18565   1.970   6.998   1.428
 5889SOL    HW118566   2.057   7.012   1.475
 5889SOL    HW218567   1.896   0.008   1.484
 5890SOL     OW18568   1.234   0.136   5.304
 5890SOL    HW118569   1.184   0.050   5.309
 5890SOL    HW218570   1.332   0.118   5.313
 5891SOL     OW18571   4.084   3.158   6.230
 5891SOL    HW118572   4.128   3.103   6.300
 5891SOL    HW218573   4.127   3.140   6.141
 5892SOL     OW18574   1.226   6.233   1.863
 5892SOL    HW118575   1.207   6.326   1.833
 5892SOL    HW218576   1.193   6.168   1.795
 5893SOL     OW18577   1.202   3.587   3.504
 5893SOL    HW118578   1.285   3.545   3.467
 5893SOL    HW218579   1.121   3.544   3.463
 5894SOL     OW18580   1.081   5.035   3.060
 5894SOL    HW118581   1.085   5.062   2.964
 5894SOL    HW218582   1.078   5.117   3.118
 5895SOL     OW18583   5.412   2.568   4.295
 5895SOL    HW118584   5.435   2.482   4.341
 5895SOL    HW218585   5.336   2.612   4.342
 5896SOL     OW18586   4.037   1.787   0.226
 5896SOL    HW118587   4.126   1.785   0.272
 5896SOL    HW218588   3.968   1.825   0.287
 5897SOL     OW18589   3.999   6.991   2.082
 5897SOL    HW118590   3.991   6.892   2.078
 5897SOL    HW218591   4.072   7.021   2.021
 5898SOL     OW18592   1.895   0.329   3.015
 5898SOL    HW118593   1.948   0.411   2.991
 5898SOL    HW218594   1.947   0.272   3.077
 5899SOL     OW18595   5.592   0.005   5.516
 5899SOL    HW118596   5.630   0.048   5.435
 5899SOL    HW218597   5.494   7.018   5.504
 5900SOL     OW18598   4.314   5.293   3.796
 5900SOL    HW118599   4.302   5.346   3.880
 5900SOL    HW218600   4.374   5.216   3.815
 5901SOL     OW18601   2.615   0.596   6.428
 5901SOL    HW118602   2.598   0.686   6.387
 5901SOL    HW218603   2.707   0.593   6.466
 5902SOL     OW18604   0.042   2.088   0.779
 5902SOL    HW118605   0.034   2.018   0.850
 5902SOL    HW218606   6.992   2.082   0.717
 5903SOL     OW18607   5.295   3.865   0.803
 5903SOL    HW118608   5.364   3.883   0.733
 5903SOL    HW218609   5.277   3.766   0.807
 5904SOL     OW18610   0.021   3.682   2.456
 5904SOL    HW118611   0.007   3.775   2.488
 5904SOL    HW218612   0.119   3.664   2.446
 5905SOL     OW18613   5.885   6.105   2.945
 5905SOL    HW118614   5.923   6.182   2.995
 5905SOL    HW218615   5.795   6.082   2.981
 5906SOL     OW18616   5.357   0.974   4.467
 5906SOL    HW118617   5.357   1.048   4.534
 5906SOL    HW218618   5.443   0.923   4.475
 5907SOL     OW18619   1.541   6.337   1.874
 5907SOL    HW118620   1.522   6.389   1.791
 5907SOL    HW218621   1.519   6.393   1.954
 5908SOL     OW18622   1.092   2.463   5.606
 5908SOL    HW118623   1.047   2.444   5.693
 5908SOL    HW218624   1.190   2.477   5.622
 5909SOL     OW18625   0.645   5.290   0.573
 5909SOL    HW118626   0.585   5.212   0.590
 5909SOL    HW218627   0.735   5.258   0.545
 5910SOL     OW18628   0.797   2.893   3.334
 5910SOL    HW118629   0.872   2.842   3.293
 5910SOL    HW218630   0.823   2.989   3.343
 5911SOL     OW18631   6.958   5.591   6.659
 5911SOL    HW118632   6.953   5.565   6.563
 5911SOL    HW218633   6.878   5.555   6.708
 5912SOL     OW18634   6.444   1.471   5.486
 5912SOL    HW118635   6.381   1.527   5.431
 5912SOL    HW218636   6.466   1.520   5.570
 5913SOL     OW18637   5.177   2.975   0.398
 5913SOL    HW118638   5.239   3.025   0.336
 5913SOL    HW218639   5.087   3.018   0.396
 5914SOL     OW18640   1.169   6.842   6.562
 5914SOL    HW118641   1.238   6.890   6.508
 5914SOL    HW218642   1.094   6.813   6.503
 5915SOL     OW18643   3.502   6.219   0.196
 5915SOL    HW118644   3.552   6.186   0.115
 5915SOL    HW218645   3.456   6.304   0.174
 5916SOL     OW18646   7.010   6.896   2.496
 5916SOL    HW118647   7.024   6.986   2.456
 5916SOL    HW218648   6.986   6.906   2.593
 5917SOL     OW18649   3.250   3.969   5.618
 5917SOL    HW118650   3.240   3.879   5.575
 5917SOL    HW218651   3.340   4.007   5.594
 5918SOL     OW18652   1.832   5.495   6.345
 5918SOL    HW118653   1.847   5.550   6.262
 5918SOL    HW218654   1.872   5.542   6.424
 5919SOL     OW18655   3.209   3.969   3.314
 5919SOL    HW118656   3.144   3.957   3.239
 5919SOL    HW218657   3.183   3.909   3.390
 5920SOL     OW18658   5.276   1.426   6.376
 5920SOL    HW118659   5.223   1.427   6.461
 5920SOL    HW218660   5.347   1.496   6.380
 5921SOL     OW18661   4.020   4.991   6.621
 5921SOL    HW118662   3.958   5.031   6.553
 5921SOL    HW218663   3.967   4.937   6.686
 5922SOL     OW18664   6.287   3.550   3.903
 5922SOL    HW118665   6.254   3.565   3.996
 5922SOL    HW218666   6.209   3.533   3.843
 5923SOL     OW18667   0.163   0.926   1.588
 5923SOL    HW118668   0.221   0.963   1.660
 5923SOL    HW218669   0.212   0.851   1.542
 5924SOL     OW18670   5.998   6.722   3.243
 5924SOL    HW118671   6.095   6.730   3.222
 5924SOL    HW218672   5.966   6.805   3.288
 5925SOL     OW18673   4.152   6.081   1.857
 5925SOL    HW118674   4.091   6.140   1.804
 5925SOL    HW218675   4.158   6.115   1.951
 5926SOL     OW18676   4.600   4.338   2.569
 5926SOL    HW118677   4.633   4.271   2.636
 5926SOL    HW218678   4.664   4.344   2.493
 5927SOL     OW18679   1.063   3.654   2.061
 5927SOL    HW118680   0.996   3.586   2.090
 5927SOL    HW218681   1.102   3.699   2.142
 5928SOL     OW18682   3.814   7.011   1.681
 5928SOL    HW118683   3.844   0.050   1.749
 5928SOL    HW218684   3.866   6.926   1.692
 5929SOL     OW18685   5.981   1.168   5.625
 5929SOL    HW118686   6.026   1.252   5.654
 5929SOL    HW218687   6.048   1.094   5.623
 5930SOL     OW18688   0.481   2.820   2.512
 5930SOL    HW118689   0.457   2.870   2.429
 5930SOL    HW218690   0.403   2.820   2.574
 5931SOL     OW18691   5.978   6.004   2.384
 5931SOL    HW118692   6.040   5.964   2.452
 5931SOL    HW218693   5.884   5.977   2.405
 5932SOL     OW18694   3.233   6.918   6.516
 5932SOL    HW118695   3.294   6.838   6.514
 5932SOL    HW218696   3.285   6.998   6.546
 5933SOL     OW18697   6.767   5.260   3.882
 5933SOL    HW118698   6.825   5.188   3.920
 5933SOL    HW218699   6.756   5.333   3.950
 5934SOL     OW18700   3.553   3.248   5.664
 5934SOL    HW118701   3.541   3.332   5.611
 5934SOL    HW218702   3.479   3.241   5.732
 5935SOL     OW18703   0.594   6.413   5.347
 5935SOL    HW118704   0.653   6.344   5.389
 5935SOL    HW218705   0.505   6.372   5.325
 5936SOL     OW18706   2.933   3.620   2.682
 5936SOL    HW118707   2.950   3.600   2.778
 5936SOL    HW218708   2.843   3.663   2.673
 5937SOL     OW18709   5.996   2.952   2.393
 5937SOL    HW118710   6.090   2.964   2.359
 5937SOL    HW218711   5.940   3.029   2.362
 5938SOL     OW18712   5.907   5.832   4.924
 5938SOL    HW118713   5.890   5.924   4.889
 5938SOL    HW218714   5.939   5.774   4.850
 5939SOL     OW18715   3.193   5.951   4.236
 5939SOL    HW118716   3.276   5.897   4.244
 5939SOL    HW218717   3.120   5.908   4.289
 5940SOL     OW18718   4.214   5.052   3.679
 5940SOL    HW118719   4.206   4.957   3.708
 5940SOL    HW218720   4.257   5.105   3.752
 5941SOL     OW18721   5.873   2.784   3.362
 5941SOL    HW118722   5.864   2.818   3.456
 5941SOL    HW218723   5.783   2.765   3.325
 5942SOL     OW18724   5.605   3.333   6.552
 5942SOL    HW118725   5.625   3.401   6.623
 5942SOL    HW218726   5.691   3.295   6.517
 5943SOL     OW18727   3.848   3.475   6.544
 5943SOL    HW118728   3.765   3.481   6.489
 5943SOL    HW218729   3.862   3.562   6.592
 5944SOL     OW18730   1.006   2.821   0.286
 5944SOL    HW118731   0.988   2.839   0.383
 5944SOL    HW218732   0.982   2.727   0.264
 5945SOL     OW18733   0.131   6.049   5.461
 5945SOL    HW118734   0.149   6.127   5.522
 5945SOL    HW218735   0.064   6.076   5.392
 5946SOL     OW18736   3.120   4.495   0.229
 5946SOL    HW118737   3.145   4.411   0.181
 5946SOL    HW218738   3.194   4.562   0.221
 5947SOL     OW18739   3.148   3.531   3.814
 5947SOL    HW118740   3.244   3.550   3.792
 5947SOL    HW218741   3.143   3.450   3.872
 5948SOL     OW18742   4.508   4.703   2.244
 5948SOL    HW118743   4.558   4.786   2.269
 5948SOL    HW218744   4.571   4.625   2.244
 5949SOL     OW18745   4.534   5.614   0.890
 5949SOL    HW118746   4.594   5.534   0.900
 5949SOL    HW218747   4.571   5.690   0.943
 5950SOL     OW18748   4.866   2.308   5.409
 5950SOL    HW118749   4.894   2.403   5.392
 5950SOL    HW218750   4.925   2.246   5.357
 5951SOL     OW18751   0.840   5.668   4.839
 5951SOL    HW118752   0.745   5.637   4.840
 5951SOL    HW218753   0.853   5.736   4.911
 5952SOL     OW18754   4.249   5.370   3.231
 5952SOL    HW118755   4.325   5.319   3.271
 5952SOL    HW218756   4.207   5.429   3.300
 5953SOL     OW18757   6.820   4.337   5.110
 5953SOL    HW118758   6.813   4.436   5.106
 5953SOL    HW218759   6.912   4.308   5.083
 5954SOL     OW18760   0.317   5.579   5.616
 5954SOL    HW118761   0.316   5.587   5.516
 5954SOL    HW218762   0.306   5.483   5.641
 5955SOL     OW18763   4.414   5.549   1.423
 5955SOL    HW118764   4.330   5.525   1.373
 5955SOL    HW218765   4.492   5.503   1.382
 5956SOL     OW18766   5.661   1.441   3.947
 5956SOL    HW118767   5.667   1.404   3.854
 5956SOL    HW218768   5.623   1.534   3.942
 5957SOL     OW18769   2.565   1.836   3.932
 5957SOL    HW118770   2.604   1.744   3.942
 5957SOL    HW218771   2.468   1.834   3.957
 5958SOL     OW18772   4.421   0.599   2.934
 5958SOL    HW118773   4.395   0.558   2.847
 5958SOL    HW218774   4.400   0.697   2.932
 5959SOL     OW18775   4.203   2.501   5.663
 5959SOL    HW118776   4.106   2.481   5.677
 5959SOL    HW218777   4.237   2.449   5.584
 5960SOL     OW18778   2.825   6.564   3.974
 5960SOL    HW118779   2.896   6.595   3.910
 5960SOL    HW218780   2.865   6.550   4.064
 5961SOL     OW18781   4.511   1.232   1.870
 5961SOL    HW118782   4.593   1.188   1.906
 5961SOL    HW218783   4.537   1.313   1.818
 5962SOL     OW18784   5.218   5.944   6.184
 5962SOL    HW118785   5.254   5.971   6.274
 5962SOL    HW218786   5.162   5.862   6.195
 5963SOL     OW18787   3.290   3.758   6.830
 5963SOL    HW118788   3.338   3.724   6.749
 5963SOL    HW218789   3.356   3.772   6.904
 5964SOL     OW18790   2.653   0.289   4.219
 5964SOL    HW118791   2.692   0.368   4.172
 5964SOL    HW218792   2.722   0.218   4.228
 5965SOL     OW18793   1.875   0.600   6.986
 5965SOL    HW118794   1.941   0.557   0.020
 5965SOL    HW218795   1.837   0.531   6.924
 5966SOL     OW18796   1.135   6.934   6.154
 5966SOL    HW118797   1.042   6.934   6.189
 5966SOL    HW218798   1.151   6.852   6.098
 5967SOL     OW18799   1.958   0.631   5.697
 5967SOL    HW118800   1.940   0.543   5.740
 5967SOL    HW218801   1.900   0.642   5.617
 5968SOL     OW18802   5.697   3.039   0.302
 5968SOL    HW118803   5.619   2.982   0.276
 5968SOL    HW218804   5.779   3.007   0.253
 5969SOL     OW18805   5.051   1.437   6.583
 5969SOL    HW118806   4.971   1.475   6.537
 5969SOL    HW218807   5.024   1.362   6.642
 5970SOL     OW18808   0.277   4.388   0.845
 5970SOL    HW118809   0.313   4.321   0.780
 5970SOL    HW218810   0.244   4.468   0.795
 5971SOL     OW18811   6.326   0.196   1.486
 5971SOL    HW118812   6.349   0.120   1.424
 5971SOL    HW218813   6.378   0.186   1.570
 5972SOL     OW18814   5.149   5.705   6.356
 5972SOL    HW118815   5.239   5.665   6.373
 5972SOL    HW218816   5.107   5.729   6.443
 5973SOL     OW18817   1.391   3.105   2.973
 5973SOL    HW118818   1.343   3.156   2.902
 5973SOL    HW218819   1.326   3.071   3.040
 5974SOL     OW18820   4.948   0.411   0.194
 5974SOL    HW118821   4.980   0.400   0.288
 5974SOL    HW218822   4.981   0.499   0.158
 5975SOL     OW18823   4.054   6.210   0.761
 5975SOL    HW118824   4.100   6.132   0.719
 5975SOL    HW218825   4.117   6.288   0.763
 5976SOL     OW18826   3.430   3.135   5.430
 5976SOL    HW118827   3.489   3.173   5.501
 5976SOL    HW218828   3.482   3.071   5.373
 5977SOL     OW18829   0.580   5.711   0.413
 5977SOL    HW118830   0.513   5.766   0.464
 5977SOL    HW218831   0.649   5.676   0.476
 5978SOL     OW18832   3.741   5.408   1.127
 5978SOL    HW118833   3.755   5.319   1.172
 5978SOL    HW218834   3.830   5.451   1.112
 5979SOL     OW18835   6.669   0.890   2.095
 5979SOL    HW118836   6.651   0.970   2.151
 5979SOL    HW218837   6.583   0.857   2.055
 5980SOL     OW18838   3.404   2.992   2.159
 5980SOL    HW118839   3.426   3.078   2.113
 5980SOL    HW218840   3.344   2.937   2.101
 5981SOL     OW18841   4.883   1.613   0.455
 5981SOL    HW118842   4.940   1.575   0.528
 5981SOL    HW218843   4.891   1.713   0.455
 5982SOL     OW18844   5.998   2.338   2.784
 5982SOL    HW118845   5.969   2.242   2.778
 5982SOL    HW218846   5.933   2.395   2.734
 5983SOL     OW18847   1.356   0.875   4.102
 5983SOL    HW118848   1.399   0.861   4.191
 5983SOL    HW218849   1.415   0.835   4.031
 5984SOL     OW18850   5.702   6.599   3.709
 5984SOL    HW118851   5.665   6.690   3.690
 5984SOL    HW218852   5.781   6.582   3.651
 5985SOL     OW18853   6.520   2.571   3.610
 5985SOL    HW118854   6.512   2.620   3.696
 5985SOL    HW218855   6.606   2.595   3.565
 5986SOL     OW18856   4.117   4.059   5.744
 5986SOL    HW118857   4.039   4.038   5.684
 5986SOL    HW218858   4.176   4.126   5.700
 5987SOL     OW18859   5.432   0.778   4.769
 5987SOL    HW118860   5.477   0.772   4.858
 5987SOL    HW218861   5.338   0.745   4.776
 5988SOL     OW18862   3.617   1.051   6.658
 5988SOL    HW118863   3.651   1.143   6.676
 5988SOL    HW218864   3.648   1.021   6.568
 5989SOL     OW18865   1.574   5.237   5.433
 5989SOL    HW118866   1.636   5.301   5.388
 5989SOL    HW218867   1.497   5.287   5.472
 5990SOL     OW18868   3.877   4.123   0.598
 5990SOL    HW118869   3.850   4.095   0.690
 5990SOL    HW218870   3.830   4.066   0.531
 5991SOL     OW18871   4.293   5.971   6.744
 5991SOL    HW118872   4.261   6.061   6.714
 5991SOL    HW218873   4.285   5.906   6.669
 5992SOL     OW18874   3.592   6.809   1.976
 5992SOL    HW118875   3.551   6.718   1.980
 5992SOL    HW218876   3.648   6.824   2.057
 5993SOL     OW18877   5.380   4.127   6.144
 5993SOL    HW118878   5.373   4.111   6.046
 5993SOL    HW218879   5.361   4.224   6.164
 5994SOL     OW18880   6.659   2.660   1.266
 5994SOL    HW118881   6.698   2.641   1.176
 5994SOL    HW218882   6.651   2.575   1.318
 5995SOL     OW18883   4.805   2.797   1.872
 5995SOL    HW118884   4.808   2.726   1.942
 5995SOL    HW218885   4.810   2.887   1.916
 5996SOL     OW18886   1.567   5.257   1.841
 5996SOL    HW118887   1.544   5.246   1.744
 5996SOL    HW218888   1.543   5.173   1.891
 5997SOL     OW18889   0.801   6.629   3.314
 5997SOL    HW118890   0.863   6.706   3.331
 5997SOL    HW218891   0.762   6.598   3.401
 5998SOL     OW18892   5.901   0.571   1.662
 5998SOL    HW118893   5.877   0.504   1.732
 5998SOL    HW218894   5.897   0.527   1.572
 5999SOL     OW18895   2.670   3.260   0.963
 5999SOL    HW118896   2.710   3.352   0.965
 5999SOL    HW218897   2.710   3.209   0.888
 6000SOL     OW18898   0.982   6.004   0.513
 6000SOL    HW118899   0.887   6.034   0.511
 6000SOL    HW218900   0.986   5.906   0.495
 6001SOL     OW18901   5.573   5.109   6.939
 6001SOL    HW118902   5.611   5.130   6.849
 6001SOL    HW218903   5.493   5.050   6.929
 6002SOL     OW18904   6.708   6.981   5.697
 6002SOL    HW118905   6.614   6.999   5.668
 6002SOL    HW218906   6.719   7.006   5.793
 6003SOL     OW18907   5.835   2.537   4.483
 6003SOL    HW118908   5.932   2.558   4.484
 6003SOL    HW218909   5.821   2.439   4.470
 6004SOL     OW18910   6.446   2.292   3.727
 6004SOL    HW118911   6.454   2.387   3.694
 6004SOL    HW218912   6.470   2.229   3.653
 6005SOL     OW18913   5.754   4.802   4.900
 6005SOL    HW118914   5.763   4.709   4.865
 6005SOL    HW218915   5.699   4.856   4.836
 6006SOL     OW18916   2.986   0.090   5.141
 6006SOL    HW118917   3.057   0.134   5.087
 6006SOL    HW218918   2.896   0.124   5.113
 6007SOL     OW18919   0.039   3.272   6.328
 6007SOL    HW118920   6.999   3.198   6.331
 6007SOL    HW218921   0.045   3.308   6.235
 6008SOL     OW18922   2.117   4.770   4.977
 6008SOL    HW118923   2.127   4.753   5.075
 6008SOL    HW218924   2.069   4.857   4.964
 6009SOL     OW18925   4.367   5.808   3.494
 6009SOL    HW118926   4.284   5.850   3.530
 6009SOL    HW218927   4.374   5.827   3.396
 6010SOL     OW18928   0.773   4.610   3.738
 6010SOL    HW118929   0.816   4.524   3.712
 6010SOL    HW218930   0.800   4.681   3.673
 6011SOL     OW18931   4.853   3.177   2.746
 6011SOL    HW118932   4.856   3.228   2.832
 6011SOL    HW218933   4.825   3.238   2.672
 6012SOL     OW18934   6.480   0.668   0.174
 6012SOL    HW118935   6.490   0.733   0.249
 6012SOL    HW218936   6.482   0.575   0.210
 6013SOL     OW18937   4.547   1.424   2.451
 6013SOL    HW118938   4.475   1.478   2.495
 6013SOL    HW218939   4.533   1.426   2.352
 6014SOL     OW18940   3.499   3.879   4.153
 6014SOL    HW118941   3.475   3.845   4.244
 6014SOL    HW218942   3.508   3.979   4.156
 6015SOL     OW18943   6.228   3.739   4.378
 6015SOL    HW118944   6.141   3.735   4.427
 6015SOL    HW218945   6.303   3.721   4.441
 6016SOL     OW18946   5.461   1.983   5.641
 6016SOL    HW118947   5.436   1.895   5.601
 6016SOL    HW218948   5.493   1.970   5.734
 6017SOL     OW18949   6.681   5.135   5.306
 6017SOL    HW118950   6.696   5.231   5.330
 6017SOL    HW218951   6.725   5.116   5.218
 6018SOL     OW18952   3.112   1.199   5.038
 6018SOL    HW118953   3.197   1.251   5.035
 6018SOL    HW218954   3.126   1.111   4.992
 6019SOL     OW18955   0.666   3.497   5.488
 6019SOL    HW118956   0.569   3.477   5.506
 6019SOL    HW218957   0.708   3.532   5.571
 6020SOL     OW18958   0.920   5.502   0.552
 6020SOL    HW118959   0.895   5.410   0.521
 6020SOL    HW218960   0.842   5.544   0.598
 6021SOL     OW18961   4.956   0.254   2.884
 6021SOL    HW118962   4.899   0.268   2.965
 6021SOL    HW218963   4.899   0.247   2.803
 6022SOL     OW18964   6.811   1.764   3.321
 6022SOL    HW118965   6.758   1.784   3.239
 6022SOL    HW218966   6.855   1.675   3.311
 6023SOL     OW18967   5.241   0.167   1.969
 6023SOL    HW118968   5.341   0.167   1.968
 6023SOL    HW218969   5.209   0.215   2.050
 6024SOL     OW18970   0.524   4.382   0.927
 6024SOL    HW118971   0.426   4.389   0.912
 6024SOL    HW218972   0.558   4.297   0.888
 6025SOL     OW18973   3.748   1.503   3.614
 6025SOL    HW118974   3.691   1.559   3.555
 6025SOL    HW218975   3.791   1.430   3.560
 6026SOL     OW18976   6.941   5.513   5.061
 6026SOL    HW118977   6.841   5.515   5.062
 6026SOL    HW218978   6.977   5.570   5.135
 6027SOL     OW18979   0.055   3.374   6.084
 6027SOL    HW118980   0.141   3.329   6.059
 6027SOL    HW218981   0.072   3.472   6.099
 6028SOL     OW18982   5.311   4.888   0.802
 6028SOL    HW118983   5.258   4.808   0.832
 6028SOL    HW218984   5.263   4.971   0.829
 6029SOL     OW18985   2.557   0.169   3.825
 6029SOL    HW118986   2.523   0.076   3.836
 6029SOL    HW218987   2.530   0.225   3.903
 6030SOL     OW18988   5.149   3.639   4.682
 6030SOL    HW118989   5.065   3.695   4.678
 6030SOL    HW218990   5.158   3.587   4.597
 6031SOL     OW18991   1.840   5.939   4.278
 6031SOL    HW118992   1.910   5.926   4.348
 6031SOL    HW218993   1.750   5.916   4.315
 6032SOL     OW18994   2.668   5.120   2.972
 6032SOL    HW118995   2.637   5.042   2.918
 6032SOL    HW218996   2.713   5.186   2.912
 6033SOL     OW18997   2.227   3.023   2.610
 6033SOL    HW118998   2.185   2.993   2.524
 6033SOL    HW218999   2.210   3.121   2.623
 6034SOL     OW19000   0.701   0.224   6.234
 6034SOL    HW119001   0.716   0.303   6.175
 6034SOL    HW219002   0.744   0.240   6.323
 6035SOL     OW19003   1.251   0.385   2.471
 6035SOL    HW119004   1.210   0.328   2.400
 6035SOL    HW219005   1.179   0.430   2.524
 6036SOL     OW19006   5.871   4.935   1.372
 6036SOL    HW119007   5.859   5.034   1.365
 6036SOL    HW219008   5.923   4.901   1.293
 6037SOL     OW19009   3.494   0.190   0.595
 6037SOL    HW119010   3.498   0.264   0.663
 6037SOL    HW219011   3.450   0.110   0.636
 6038SOL     OW19012   1.146   2.494   6.551
 6038SOL    HW119013   1.224   2.441   6.517
 6038SOL    HW219014   1.151   2.587   6.515
 6039SOL     OW19015   4.103   3.714   3.305
 6039SOL    HW119016   4.046   3.792   3.332
 6039SOL    HW219017   4.064   3.630   3.342
 6040SOL     OW19018   2.027   1.407   0.381
 6040SOL    HW119019   2.081   1.477   0.428
 6040SOL    HW219020   2.088   1.345   0.332
 6041SOL     OW19021   3.433   2.222   5.267
 6041SOL    HW119022   3.451   2.217   5.365
 6041SOL    HW219023   3.361   2.289   5.249
 6042SOL     OW19024   3.863   6.919   3.069
 6042SOL    HW119025   3.939   6.958   3.122
 6042SOL    HW219026   3.865   6.956   2.976
 6043SOL     OW19027   1.349   0.529   4.488
 6043SOL    HW119028   1.352   0.617   4.534
 6043SOL    HW219029   1.280   0.471   4.532
 6044SOL     OW19030   2.593   2.104   1.962
 6044SOL    HW119031   2.606   2.169   2.037
 6044SOL    HW219032   2.681   2.082   1.921
 6045SOL     OW19033   5.359   3.439   3.938
 6045SOL    HW119034   5.338   3.345   3.913
 6045SOL    HW219035   5.450   3.443   3.979
 6046SOL     OW19036   3.474   2.901   0.574
 6046SOL    HW119037   3.564   2.877   0.612
 6046SOL    HW219038   3.423   2.955   0.641
 6047SOL     OW19039   5.570   2.396   1.298
 6047SOL    HW119040   5.577   2.403   1.198
 6047SOL    HW219041   5.490   2.342   1.322
 6048SOL     OW19042   4.930   5.635   5.256
 6048SOL    HW119043   4.962   5.720   5.214
 6048SOL    HW219044   4.938   5.642   5.356
 6049SOL     OW19045   5.108   4.830   6.040
 6049SOL    HW119046   5.066   4.774   6.111
 6049SOL    HW219047   5.067   4.921   6.040
 6050SOL     OW19048   2.264   5.235   1.095
 6050SOL    HW119049   2.228   5.181   1.019
 6050SOL    HW219050   2.361   5.215   1.107
 6051SOL     OW19051   2.291   6.539   2.656
 6051SOL    HW119052   2.249   6.448   2.663
 6051SOL    HW219053   2.296   6.580   2.747
 6052SOL     OW19054   5.546   1.410   1.751
 6052SOL    HW119055   5.565   1.494   1.700
 6052SOL    HW219056   5.476   1.428   1.820
 6053SOL     OW19057   3.980   0.821   6.103
 6053SOL    HW119058   3.967   0.724   6.085
 6053SOL    HW219059   3.892   0.864   6.124
 6054SOL     OW19060   3.152   4.235   0.670
 6054SOL    HW119061   3.186   4.179   0.745
 6054SOL    HW219062   3.143   4.178   0.588
 6055SOL     OW19063   3.814   5.735   5.878
 6055SOL    HW119064   3.887   5.788   5.921
 6055SOL    HW219065   3.845   5.642   5.862
 6056SOL     OW19066   5.106   3.129   5.143
 6056SOL    HW119067   5.061   3.214   5.171
 6056SOL    HW219068   5.093   3.114   5.045
 6057SOL     OW19069   5.817   0.474   1.992
 6057SOL    HW119070   5.832   0.512   2.084
 6057SOL    HW219071   5.856   0.382   1.988
 6058SOL     OW19072   5.567   4.070   0.458
 6058SOL    HW119073   5.484   4.052   0.407
 6058SOL    HW219074   5.630   3.993   0.450
 6059SOL     OW19075   5.346   4.500   5.514
 6059SOL    HW119076   5.429   4.553   5.495
 6059SOL    HW219077   5.341   4.480   5.612
 6060SOL     OW19078   2.633   3.276   6.852
 6060SOL    HW119079   2.682   3.190   6.842
 6060SOL    HW219080   2.697   3.352   6.851
 6061SOL     OW19081   4.827   4.197   0.867
 6061SOL    HW119082   4.819   4.232   0.774
 6061SOL    HW219083   4.862   4.103   0.865
 6062SOL     OW19084   2.399   1.574   6.875
 6062SOL    HW119085   2.417   1.476   6.883
 6062SOL    HW219086   2.341   1.604   6.951
 6063SOL     OW19087   3.481   3.765   5.854
 6063SOL    HW119088   3.381   3.769   5.847
 6063SOL    HW219089   3.518   3.858   5.855
 6064SOL     OW19090   0.904   0.730   1.083
 6064SOL    HW119091   0.955   0.644   1.073
 6064SOL    HW219092   0.964   0.798   1.124
 6065SOL     OW19093   0.289   5.803   1.776
 6065SOL    HW119094   0.330   5.762   1.695
 6065SOL    HW219095   0.282   5.902   1.764
 6066SOL     OW19096   5.797   0.973   5.086
 6066SOL    HW119097   5.737   0.973   5.166
 6066SOL    HW219098   5.892   0.982   5.115
 6067SOL     OW19099   4.869   1.318   5.522
 6067SOL    HW119100   4.957   1.294   5.480
 6067SOL    HW219101   4.865   1.280   5.614
 6068SOL     OW19102   5.010   2.187   4.297
 6068SOL    HW119103   5.003   2.173   4.198
 6068SOL    HW219104   5.035   2.101   4.341
 6069SOL     OW19105   6.483   4.058   5.349
 6069SOL    HW119106   6.572   4.064   5.304
 6069SOL    HW219107   6.473   3.968   5.392
 6070SOL     OW19108   3.603   2.839   1.475
 6070SOL    HW119109   3.636   2.747   1.492
 6070SOL    HW219110   3.504   2.842   1.488
 6071SOL     OW19111   1.157   5.934   4.207
 6071SOL    HW119112   1.063   5.899   4.208
 6071SOL    HW219113   1.208   5.889   4.133
 6072SOL     OW19114   0.559   0.753   1.982
 6072SOL    HW119115   0.647   0.706   1.978
 6072SOL    HW219116   0.546   0.791   2.074
 6073SOL     OW19117   5.283   2.795   0.919
 6073SOL    HW119118   5.283   2.828   0.825
 6073SOL    HW219119   5.211   2.840   0.971
 6074SOL     OW19120   2.053   6.824   2.054
 6074SOL    HW119121   2.076   6.849   2.148
 6074SOL    HW219122   2.024   6.905   2.003
 6075SOL     OW19123   4.391   0.024   5.038
 6075SOL    HW119124   4.424   0.054   5.128
 6075SOL    HW219125   4.300   7.011   5.049
 6076SOL     OW19126   2.360   5.363   3.500
 6076SOL    HW119127   2.347   5.455   3.463
 6076SOL    HW219128   2.424   5.312   3.442
 6077SOL     OW19129   6.221   6.414   1.074
 6077SOL    HW119130   6.183   6.506   1.082
 6077SOL    HW219131   6.308   6.410   1.123
 6078SOL     OW19132   4.432   4.652   0.698
 6078SOL    HW119133   4.333   4.667   0.702
 6078SOL    HW219134   4.468   4.691   0.614
 6079SOL     OW19135   5.331   4.752   6.381
 6079SOL    HW119136   5.286   4.665   6.362
 6079SOL    HW219137   5.262   4.819   6.410
 6080SOL     OW19138   0.347   5.204   1.301
 6080SOL    HW119139   0.395   5.117   1.307
 6080SOL    HW219140   0.413   5.278   1.286
 6081SOL     OW19141   6.914   2.938   5.070
 6081SOL    HW119142   6.965   2.972   4.991
 6081SOL    HW219143   6.948   2.847   5.095
 6082SOL     OW19144   3.539   6.716   2.635
 6082SOL    HW119145   3.634   6.747   2.628
 6082SOL    HW219146   3.491   6.737   2.551
 6083SOL     OW19147   5.624   5.300   0.772
 6083SOL    HW119148   5.637   5.226   0.706
 6083SOL    HW219149   5.700   5.300   0.837
 6084SOL     OW19150   0.819   6.443   2.095
 6084SOL    HW119151   0.783   6.519   2.148
 6084SOL    HW219152   0.918   6.440   2.105
 6085SOL     OW19153   6.577   5.896   6.652
 6085SOL    HW119154   6.654   5.887   6.715
 6085SOL    HW219155   6.612   5.909   6.559
 6086SOL     OW19156   2.571   2.074   5.760
 6086SOL    HW119157   2.522   1.991   5.789
 6086SOL    HW219158   2.504   2.145   5.739
 6087SOL     OW19159   3.777   5.688   0.855
 6087SOL    HW119160   3.776   5.761   0.923
 6087SOL    HW219161   3.861   5.694   0.801
 6088SOL     OW19162   5.373   6.694   4.859
 6088SOL    HW119163   5.287   6.741   4.838
 6088SOL    HW219164   5.423   6.746   4.929
 6089SOL     OW19165   6.384   2.468   3.375
 6089SOL    HW119166   6.449   2.489   3.448
 6089SOL    HW219167   6.363   2.551   3.324
 6090SOL     OW19168   2.484   4.833   4.457
 6090SOL    HW119169   2.421   4.858   4.384
 6090SOL    HW219170   2.558   4.777   4.418
 6091SOL     OW19171   2.715   1.576   0.483
 6091SOL    HW119172   2.653   1.633   0.429
 6091SOL    HW219173   2.784   1.536   0.423
 6092SOL     OW19174   4.596   0.866   1.627
 6092SOL    HW119175   4.656   0.827   1.697
 6092SOL    HW219176   4.547   0.791   1.581
 6093SOL     OW19177   2.391   2.322   1.848
 6093SOL    HW119178   2.469   2.267   1.877
 6093SOL    HW219179   2.412   2.419   1.860
 6094SOL     OW19180   1.598   6.207   3.147
 6094SOL    HW119181   1.672   6.245   3.203
 6094SOL    HW219182   1.569   6.276   3.080
 6095SOL     OW19183   4.761   4.579   6.386
 6095SOL    HW119184   4.798   4.626   6.466
 6095SOL    HW219185   4.675   4.622   6.360
 6096SOL     OW19186   5.900   0.047   2.144
 6096SOL    HW119187   5.993   0.084   2.151
 6096SOL    HW219188   5.888   7.003   2.213
 6097SOL     OW19189   1.857   5.073   2.174
 6097SOL    HW119190   1.879   5.169   2.159
 6097SOL    HW219191   1.933   5.028   2.221
 6098SOL     OW19192   6.565   1.488   6.030
 6098SOL    HW119193   6.536   1.462   6.122
 6098SOL    HW219194   6.591   1.585   6.030
 6099SOL     OW19195   5.041   5.737   5.520
 6099SOL    HW119196   4.967   5.761   5.582
 6099SOL    HW219197   5.104   5.815   5.511
 6100SOL     OW19198   0.407   6.322   2.117
 6100SOL    HW119199   0.453   6.367   2.194
 6100SOL    HW219200   0.330   6.378   2.088
 6101SOL     OW19201   6.796   3.052   2.925
 6101SOL    HW119202   6.711   3.061   2.873
 6101SOL    HW219203   6.864   3.006   2.869
 6102SOL     OW19204   4.309   5.574   2.644
 6102SOL    HW119205   4.363   5.589   2.727
 6102SOL    HW219206   4.249   5.653   2.629
 6103SOL     OW19207   6.930   0.696   1.406
 6103SOL    HW119208   6.909   0.793   1.412
 6103SOL    HW219209   6.983   0.668   1.486
 6104SOL     OW19210   6.455   7.026   5.008
 6104SOL    HW119211   6.382   6.968   5.043
 6104SOL    HW219212   6.478   6.998   4.915
 6105SOL     OW19213   1.585   5.124   5.685
 6105SOL    HW119214   1.512   5.062   5.714
 6105SOL    HW219215   1.566   5.157   5.592
 6106SOL     OW19216   1.200   4.873   0.039
 6106SOL    HW119217   1.292   4.906   0.059
 6106SOL    HW219218   1.179   4.889   6.970
 6107SOL     OW19219   4.727   5.692   5.025
 6107SOL    HW119220   4.632   5.693   5.054
 6107SOL    HW219221   4.785   5.667   5.103
 6108SOL     OW19222   2.019   2.398   3.256
 6108SOL    HW119223   2.087   2.334   3.221
 6108SOL    HW219224   2.043   2.425   3.350
 6109SOL     OW19225   5.675   0.993   5.334
 6109SOL    HW119226   5.678   1.068   5.401
 6109SOL    HW219227   5.690   0.906   5.381
 6110SOL     OW19228   2.822   3.016   0.840
 6110SOL    HW119229   2.871   3.095   0.803
 6110SOL    HW219230   2.738   3.001   0.787
 6111SOL     OW19231   1.104   3.305   2.444
 6111SOL    HW119232   1.200   3.284   2.461
 6111SOL    HW219233   1.050   3.222   2.455
 6112SOL     OW19234   4.565   0.562   2.611
 6112SOL    HW119235   4.495   0.613   2.561
 6112SOL    HW219236   4.626   0.625   2.657
 6113SOL     OW19237   2.479   2.862   6.895
 6113SOL    HW119238   2.485   2.895   6.989
 6113SOL    HW219239   2.511   2.768   6.890
 6114SOL     OW19240   4.865   3.818   2.621
 6114SOL    HW119241   4.952   3.796   2.577
 6114SOL    HW219242   4.881   3.873   2.702
 6115SOL     OW19243   6.579   1.003   4.905
 6115SOL    HW119244   6.561   1.061   4.826
 6115SOL    HW219245   6.676   0.978   4.906
 6116SOL     OW19246   3.855   1.618   6.028
 6116SOL    HW119247   3.805   1.670   6.097
 6116SOL    HW219248   3.791   1.569   5.970
 6117SOL     OW19249   1.734   1.940   3.084
 6117SOL    HW119250   1.659   1.998   3.050
 6117SOL    HW219251   1.813   1.950   3.024
 6118SOL     OW19252   6.130   1.130   1.481
 6118SOL    HW119253   6.081   1.126   1.393
 6118SOL    HW219254   6.190   1.050   1.489
 6119SOL     OW19255   1.376   3.630   0.511
 6119SOL    HW119256   1.454   3.595   0.459
 6119SOL    HW219257   1.382   3.597   0.605
 6120SOL     OW19258   1.915   5.954   5.601
 6120SOL    HW119259   1.893   6.034   5.656
 6120SOL    HW219260   1.882   5.967   5.507
 6121SOL     OW19261   1.069   3.862   5.710
 6121SOL    HW119262   1.063   3.812   5.624
 6121SOL    HW219263   0.994   3.835   5.770
 6122SOL     OW19264   4.628   5.303   6.707
 6122SOL    HW119265   4.726   5.306   6.723
 6122SOL    HW219266   4.588   5.392   6.731
 6123SOL     OW19267   4.771   6.816   5.549
 6123SOL    HW119268   4.714   6.770   5.617
 6123SOL    HW219269   4.721   6.892   5.508
 6124SOL     OW19270   0.615   6.645   5.759
 6124SOL    HW119271   0.616   6.744   5.753
 6124SOL    HW219272   0.701   6.612   5.797
 6125SOL     OW19273   2.233   4.137   6.770
 6125SOL    HW119274   2.262   4.046   6.801
 6125SOL    HW219275   2.144   4.130   6.725
 6126SOL     OW19276   0.442   1.321   5.130
 6126SOL    HW119277   0.422   1.414   5.163
 6126SOL    HW219278   0.362   1.286   5.080
 6127SOL     OW19279   4.157   0.098   1.904
 6127SOL    HW119280   4.230   0.100   1.972
 6127SOL    HW219281   4.177   0.027   1.836
 6128SOL     OW19282   5.448   5.392   0.510
 6128SOL    HW119283   5.443   5.483   0.467
 6128SOL    HW219284   5.436   5.402   0.608
 6129SOL     OW19285   0.717   3.966   3.654
 6129SOL    HW119286   0.755   3.981   3.746
 6129SOL    HW219287   0.762   4.027   3.589
 6130SOL     OW19288   5.171   2.670   2.747
 6130SOL    HW119289   5.125   2.581   2.752
 6130SOL    HW219290   5.156   2.710   2.657
 6131SOL     OW19291   0.850   1.360   3.344
 6131SOL    HW119292   0.939   1.317   3.361
 6131SOL    HW219293   0.812   1.327   3.257
 6132SOL     OW19294   3.798   2.071   6.663
 6132SOL    HW119295   3.891   2.037   6.653
 6132SOL    HW219296   3.795   2.168   6.642
 6133SOL     OW19297   1.845   3.066   3.076
 6133SOL    HW119298   1.840   3.166   3.088
 6133SOL    HW219299   1.794   3.040   2.994
 6134SOL     OW19300   4.347   6.858   0.255
 6134SOL    HW119301   4.336   6.800   0.174
 6134SOL    HW219302   4.313   6.809   0.336
 6135SOL     OW19303   0.449   5.310   1.538
 6135SOL    HW119304   0.411   5.270   1.455
 6135SOL    HW219305   0.546   5.330   1.524
 6136SOL     OW19306   1.470   2.586   1.509
 6136SOL    HW119307   1.420   2.546   1.586
 6136SOL    HW219308   1.535   2.654   1.544
 6137SOL     OW19309   0.619   4.236   2.262
 6137SOL    HW119310   0.527   4.274   2.256
 6137SOL    HW219311   0.645   4.198   2.173
 6138SOL     OW19312   3.737   0.087   3.546
 6138SOL    HW119313   3.777   0.145   3.475
 6138SOL    HW219314   3.646   0.056   3.518
 6139SOL     OW19315   0.901   6.329   5.553
 6139SOL    HW119316   0.849   6.244   5.560
 6139SOL    HW219317   0.988   6.311   5.507
 6140SOL     OW19318   0.529   0.547   2.232
 6140SOL    HW119319   0.618   0.584   2.203
 6140SOL    HW219320   0.492   0.491   2.159
 6141SOL     OW19321   0.089   0.286   6.138
 6141SOL    HW119322   0.177   0.320   6.105
 6141SOL    HW219323   0.031   0.364   6.163
 6142SOL     OW19324   0.588   5.958   6.276
 6142SOL    HW119325   0.682   5.939   6.248
 6142SOL    HW219326   0.525   5.928   6.205
 6143SOL     OW19327   0.263   4.218   1.078
 6143SOL    HW119328   0.265   4.119   1.062
 6143SOL    HW219329   0.273   4.266   0.991
 6144SOL     OW19330   5.239   5.131   3.519
 6144SOL    HW119331   5.282   5.148   3.430
 6144SOL    HW219332   5.139   5.130   3.508
 6145SOL     OW19333   5.337   4.764   3.951
 6145SOL    HW119334   5.295   4.838   3.899
 6145SOL    HW219335   5.424   4.794   3.988
 6146SOL     OW19336   3.471   6.101   3.246
 6146SOL    HW119337   3.468   6.119   3.148
 6146SOL    HW219338   3.381   6.120   3.286
 6147SOL     OW19339   2.059   2.275   5.211
 6147SOL    HW119340   2.053   2.357   5.267
 6147SOL    HW219341   1.982   2.215   5.230
 6148SOL     OW19342   4.446   6.011   5.789
 6148SOL    HW119343   4.461   5.969   5.700
 6148SOL    HW219344   4.371   5.963   5.836
 6149SOL     OW19345   2.496   6.949   1.839
 6149SOL    HW119346   2.546   7.012   1.779
 6149SOL    HW219347   2.561   6.902   1.899
 6150SOL     OW19348   6.034   3.867   6.768
 6150SOL    HW119349   6.123   3.824   6.756
 6150SOL    HW219350   6.001   3.852   6.861
 6151SOL     OW19351   5.662   5.039   5.092
 6151SOL    HW119352   5.718   4.968   5.048
 6151SOL    HW219353   5.659   5.120   5.033
 6152SOL     OW19354   0.482   5.074   4.760
 6152SOL    HW119355   0.398   5.109   4.801
 6152SOL    HW219356   0.498   4.980   4.789
 6153SOL     OW19357   5.513   5.188   1.085
 6153SOL    HW119358   5.515   5.132   1.002
 6153SOL    HW219359   5.518   5.129   1.165
 6154SOL     OW19360   5.682   3.211   2.608
 6154SOL    HW119361   5.717   3.128   2.653
 6154SOL    HW219362   5.745   3.287   2.624
 6155SOL     OW19363   3.167   1.013   3.000
 6155SOL    HW119364   3.178   0.963   2.914
 6155SOL    HW219365   3.251   1.005   3.054
 6156SOL     OW19366   4.428   4.973   1.304
 6156SOL    HW119367   4.369   4.975   1.385
 6156SOL    HW219368   4.518   4.937   1.330
 6157SOL     OW19369   0.914   2.081   2.895
 6157SOL    HW119370   0.839   2.030   2.852
 6157SOL    HW219371   0.884   2.175   2.912
 6158SOL     OW19372   3.714   2.468   0.249
 6158SOL    HW119373   3.615   2.481   0.256
 6158SOL    HW219374   3.752   2.530   0.180
 6159SOL     OW19375   4.539   2.423   0.849
 6159SOL    HW119376   4.531   2.374   0.936
 6159SOL    HW219377   4.622   2.478   0.848
 6160SOL     OW19378   6.178   6.780   6.695
 6160SOL    HW119379   6.196   6.833   6.778
 6160SOL    HW219380   6.100   6.719   6.710
 6161SOL     OW19381   5.445   1.305   0.313
 6161SOL    HW119382   5.534   1.288   0.355
 6161SOL    HW219383   5.384   1.227   0.328
 6162SOL     OW19384   6.113   6.224   3.685
 6162SOL    HW119385   6.094   6.309   3.636
 6162SOL    HW219386   6.166   6.163   3.626
 6163SOL     OW19387   5.276   5.749   2.241
 6163SOL    HW119388   5.197   5.716   2.189
 6163SOL    HW219389   5.302   5.681   2.309
 6164SOL     OW19390   3.543   4.229   5.041
 6164SOL    HW119391   3.459   4.194   5.081
 6164SOL    HW219392   3.609   4.248   5.114
 6165SOL     OW19393   4.398   1.853   6.210
 6165SOL    HW119394   4.335   1.896   6.274
 6165SOL    HW219395   4.376   1.881   6.117
 6166SOL     OW19396   6.064   1.769   0.760
 6166SOL    HW119397   5.981   1.716   0.741
 6166SOL    HW219398   6.041   1.846   0.819
 6167SOL     OW19399   1.002   4.800   2.882
 6167SOL    HW119400   0.981   4.879   2.939
 6167SOL    HW219401   1.050   4.829   2.800
 6168SOL     OW19402   0.344   3.219   3.230
 6168SOL    HW119403   0.431   3.174   3.252
 6168SOL    HW219404   0.277   3.198   3.301
 6169SOL     OW19405   1.565   1.831   6.920
 6169SOL    HW119406   1.574   1.739   6.881
 6169SOL    HW219407   1.655   1.862   6.952
 6170SOL     OW19408   3.165   4.467   5.465
 6170SOL    HW119409   3.260   4.471   5.435
 6170SOL    HW219410   3.156   4.396   5.535
 6171SOL     OW19411   1.492   3.392   1.228
 6171SOL    HW119412   1.447   3.448   1.297
 6171SOL    HW219413   1.472   3.296   1.244
 6172SOL     OW19414   1.075   0.815   3.231
 6172SOL    HW119415   1.042   0.816   3.326
 6172SOL    HW219416   1.014   0.869   3.173
 6173SOL     OW19417   6.893   4.973   2.349
 6173SOL    HW119418   6.918   5.014   2.437
 6173SOL    HW219419   6.819   5.025   2.308
 6174SOL     OW19420   6.094   5.144   3.179
 6174SOL    HW119421   6.178   5.097   3.152
 6174SOL    HW219422   6.024   5.076   3.201
 6175SOL     OW19423   5.107   0.413   3.634
 6175SOL    HW119424   5.190   0.409   3.690
 6175SOL    HW219425   5.045   0.339   3.659
 6176SOL     OW19426   6.724   2.975   0.294
 6176SOL    HW119427   6.819   2.999   0.273
 6176SOL    HW219428   6.721   2.885   0.338
 6177SOL     OW19429   6.633   1.669   1.496
 6177SOL    HW119430   6.666   1.576   1.482
 6177SOL    HW219431   6.640   1.693   1.593
 6178SOL     OW19432   4.607   5.216   2.181
 6178SOL    HW119433   4.555   5.297   2.153
 6178SOL    HW219434   4.625   5.220   2.279
 6179SOL     OW19435   6.718   4.841   4.486
 6179SOL    HW119436   6.653   4.874   4.417
 6179SOL    HW219437   6.699   4.745   4.506
 6180SOL     OW19438   3.541   6.257   6.641
 6180SOL    HW119439   3.547   6.159   6.661
 6180SOL    HW219440   3.499   6.269   6.551
 6181SOL     OW19441   4.424   6.474   1.142
 6181SOL    HW119442   4.493   6.440   1.206
 6181SOL    HW219443   4.345   6.508   1.193
 6182SOL     OW19444   5.489   3.335   5.495
 6182SOL    HW119445   5.498   3.259   5.431
 6182SOL    HW219446   5.399   3.331   5.539
 6183SOL     OW19447   2.889   0.053   2.905
 6183SOL    HW119448   2.913   6.983   2.904
 6183SOL    HW219449   2.966   0.106   2.869
 6184SOL     OW19450   1.885   6.592   6.128
 6184SOL    HW119451   1.853   6.576   6.222
 6184SOL    HW219452   1.869   6.687   6.103
 6185SOL     OW19453   0.885   4.768   6.233
 6185SOL    HW119454   0.984   4.755   6.219
 6185SOL    HW219455   0.869   4.860   6.270
 6186SOL     OW19456   5.995   0.166   4.854
 6186SOL    HW119457   5.929   0.226   4.810
 6186SOL    HW219458   5.952   0.121   4.933
 6187SOL     OW19459   4.380   4.799   4.370
 6187SOL    HW119460   4.363   4.826   4.465
 6187SOL    HW219461   4.478   4.791   4.354
 6188SOL     OW19462   2.249   6.758   0.883
 6188SOL    HW119463   2.156   6.773   0.850
 6188SOL    HW219464   2.279   6.667   0.857
 6189SOL     OW19465   4.679   4.307   4.091
 6189SOL    HW119466   4.579   4.313   4.094
 6189SOL    HW219467   4.712   4.260   4.173
 6190SOL     OW19468   6.370   3.483   6.367
 6190SOL    HW119469   6.282   3.489   6.321
 6190SOL    HW219470   6.443   3.476   6.299
 6191SOL     OW19471   4.387   3.273   6.959
 6191SOL    HW119472   4.396   3.214   0.012
 6191SOL    HW219473   4.425   3.226   6.879
 6192SOL     OW19474   3.113   3.211   0.036
 6192SOL    HW119475   3.137   3.277   6.993
 6192SOL    HW219476   3.118   3.255   0.126
 6193SOL     OW19477   4.928   1.126   2.644
 6193SOL    HW119478   4.998   1.055   2.644
 6193SOL    HW219479   4.901   1.146   2.550
 6194SOL     OW19480   1.073   6.573   0.120
 6194SOL    HW119481   0.994   6.599   0.176
 6194SOL    HW219482   1.122   6.498   0.164
 6195SOL     OW19483   3.980   5.695   5.606
 6195SOL    HW119484   3.930   5.628   5.661
 6195SOL    HW219485   3.967   5.786   5.645
 6196SOL     OW19486   5.967   1.885   1.433
 6196SOL    HW119487   5.879   1.932   1.420
 6196SOL    HW219488   6.008   1.867   1.343
 6197SOL     OW19489   4.070   4.038   0.427
 6197SOL    HW119490   4.084   4.116   0.366
 6197SOL    HW219491   4.024   4.069   0.510
 6198SOL     OW19492   3.155   5.155   2.235
 6198SOL    HW119493   3.199   5.068   2.257
 6198SOL    HW219494   3.226   5.225   2.223
 6199SOL     OW19495   0.971   6.905   0.922
 6199SOL    HW119496   0.890   6.849   0.902
 6199SOL    HW219497   1.050   6.845   0.935
 6200SOL     OW19498   1.845   0.654   5.439
 6200SOL    HW119499   1.787   0.723   5.396
 6200SOL    HW219500   1.935   0.656   5.396
 6201SOL     OW19501   1.663   3.867   5.381
 6201SOL    HW119502   1.725   3.919   5.323
 6201SOL    HW219503   1.599   3.816   5.324
 6202SOL     OW19504   4.163   1.972   1.557
 6202SOL    HW119505   4.239   2.036   1.554
 6202SOL    HW219506   4.115   1.972   1.469
 6203SOL     OW19507   5.552   6.619   3.353
 6203SOL    HW119508   5.600   6.702   3.323
 6203SOL    HW219509   5.601   6.539   3.318
 6204SOL     OW19510   0.489   4.968   5.128
 6204SOL    HW119511   0.502   5.052   5.180
 6204SOL    HW219512   0.451   4.897   5.187
 6205SOL     OW19513   5.688   6.309   0.056
 6205SOL    HW119514   5.772   6.273   0.014
 6205SOL    HW219515   5.609   6.284   0.000
 6206SOL     OW19516   6.113   0.709   2.994
 6206SOL    HW119517   6.137   0.625   3.043
 6206SOL    HW219518   6.147   0.788   3.044
 6207SOL     OW19519   1.657   4.153   4.395
 6207SOL    HW119520   1.693   4.237   4.355
 6207SOL    HW219521   1.685   4.075   4.339
 6208SOL     OW19522   6.162   1.467   6.819
 6208SOL    HW119523   6.147   1.453   6.721
 6208SOL    HW219524   6.073   1.478   6.864
 6209SOL     OW19525   4.537   5.633   0.072
 6209SOL    HW119526   4.473   5.583   0.014
 6209SOL    HW219527   4.569   5.715   0.025
 6210SOL     OW19528   5.971   4.618   3.702
 6210SOL    HW119529   5.994   4.592   3.796
 6210SOL    HW219530   5.972   4.718   3.694
 6211SOL     OW19531   2.970   6.145   4.583
 6211SOL    HW119532   2.944   6.222   4.642
 6211SOL    HW219533   2.928   6.061   4.616
 6212SOL     OW19534   1.970   5.457   3.398
 6212SOL    HW119535   1.876   5.490   3.403
 6212SOL    HW219536   1.973   5.361   3.427
 6213SOL     OW19537   4.859   0.262   6.852
 6213SOL    HW119538   4.766   0.300   6.850
 6213SOL    HW219539   4.882   0.235   6.945
 6214SOL     OW19540   4.318   4.738   3.347
 6214SOL    HW119541   4.383   4.688   3.404
 6214SOL    HW219542   4.367   4.808   3.295
 6215SOL     OW19543   3.877   2.235   0.280
 6215SOL    HW119544   3.873   2.219   0.181
 6215SOL    HW219545   3.800   2.293   0.307
 6216SOL     OW19546   6.290   2.287   2.030
 6216SOL    HW119547   6.367   2.343   1.999
 6216SOL    HW219548   6.211   2.346   2.049
 6217SOL     OW19549   0.144   2.906   2.939
 6217SOL    HW119550   0.145   2.812   2.971
 6217SOL    HW219551   0.083   2.915   2.860
 6218SOL     OW19552   2.793   5.095   5.512
 6218SOL    HW119553   2.813   5.116   5.417
 6218SOL    HW219554   2.748   5.006   5.518
 6219SOL     OW19555   1.098   1.883   4.352
 6219SOL    HW119556   1.074   1.792   4.316
 6219SOL    HW219557   1.039   1.905   4.429
 6220SOL     OW19558   1.584   3.084   5.364
 6220SOL    HW119559   1.667   3.100   5.310
 6220SOL    HW219560   1.581   3.150   5.439
 6221SOL     OW19561   6.194   5.879   6.767
 6221SOL    HW119562   6.279   5.838   6.802
 6221SOL    HW219563   6.164   5.830   6.686
 6222SOL     OW19564   1.096   6.289   1.253
 6222SOL    HW119565   1.052   6.296   1.343
 6222SOL    HW219566   1.175   6.229   1.260
 6223SOL     OW19567   0.133   4.649   4.803
 6223SOL    HW119568   0.185   4.578   4.849
 6223SOL    HW219569   0.096   4.713   4.870
 6224SOL     OW19570   2.467   2.336   6.201
 6224SOL    HW119571   2.372   2.329   6.169
 6224SOL    HW219572   2.511   2.247   6.196
 6225SOL     OW19573   3.360   3.215   1.129
 6225SOL    HW119574   3.301   3.163   1.067
 6225SOL    HW219575   3.305   3.250   1.205
 6226SOL     OW19576   5.589   1.712   5.218
 6226SOL    HW119577   5.615   1.788   5.278
 6226SOL    HW219578   5.529   1.746   5.145
 6227SOL     OW19579   3.890   5.473   5.761
 6227SOL    HW119580   3.794   5.467   5.732
 6227SOL    HW219581   3.914   5.391   5.813
 6228SOL     OW19582   0.969   2.889   2.849
 6228SOL    HW119583   1.021   2.975   2.855
 6228SOL    HW219584   0.878   2.902   2.888
 6229SOL     OW19585   0.685   2.992   2.566
 6229SOL    HW119586   0.640   3.031   2.647
 6229SOL    HW219587   0.645   2.902   2.546
 6230SOL     OW19588   1.392   1.361   3.844
 6230SOL    HW119589   1.293   1.362   3.859
 6230SOL    HW219590   1.433   1.287   3.897
 6231SOL     OW19591   6.820   5.014   1.380
 6231SOL    HW119592   6.743   4.971   1.425
 6231SOL    HW219593   6.796   5.035   1.285
 6232SOL     OW19594   6.262   1.621   1.125
 6232SOL    HW119595   6.335   1.563   1.160
 6232SOL    HW219596   6.237   1.592   1.033
 6233SOL     OW19597   6.021   0.801   0.258
 6233SOL    HW119598   5.992   0.707   0.238
 6233SOL    HW219599   6.099   0.825   0.200
 6234SOL     OW19600   6.525   1.938   5.467
 6234SOL    HW119601   6.493   2.032   5.457
 6234SOL    HW219602   6.608   1.936   5.523
 6235SOL     OW19603   1.795   0.155   1.639
 6235SOL    HW119604   1.887   0.189   1.623
 6235SOL    HW219605   1.741   0.227   1.684
 6236SOL     OW19606   0.690   4.157   0.379
 6236SOL    HW119607   0.678   4.228   0.310
 6236SOL    HW219608   0.719   4.072   0.336
 6237SOL     OW19609   3.545   5.995   6.677
 6237SOL    HW119610   3.622   5.945   6.638
 6237SOL    HW219611   3.482   5.930   6.721
 6238SOL     OW19612   3.980   5.130   3.278
 6238SOL    HW119613   3.965   5.033   3.255
 6238SOL    HW219614   3.896   5.181   3.263
 6239SOL     OW19615   3.437   6.087   1.736
 6239SOL    HW119616   3.378   6.051   1.665
 6239SOL    HW219617   3.435   6.026   1.816
 6240SOL     OW19618   2.922   3.146   6.623
 6240SOL    HW119619   2.981   3.066   6.608
 6240SOL    HW219620   2.861   3.129   6.700
 6241SOL     OW19621   3.308   6.930   1.622
 6241SOL    HW119622   3.392   6.960   1.667
 6241SOL    HW219623   3.329   6.902   1.528
 6242SOL     OW19624   5.438   0.863   3.970
 6242SOL    HW119625   5.441   0.899   4.063
 6242SOL    HW219626   5.375   0.784   3.967
 6243SOL     OW19627   6.036   6.583   3.838
 6243SOL    HW119628   6.058   6.499   3.889
 6243SOL    HW219629   6.035   6.563   3.740
 6244SOL     OW19630   1.111   2.245   2.361
 6244SOL    HW119631   1.099   2.148   2.339
 6244SOL    HW219632   1.024   2.293   2.351
 6245SOL     OW19633   1.822   4.207   0.484
 6245SOL    HW119634   1.846   4.254   0.399
 6245SOL    HW219635   1.903   4.200   0.543
 6246SOL     OW19636   1.794   2.605   5.685
 6246SOL    HW119637   1.793   2.518   5.635
 6246SOL    HW219638   1.736   2.671   5.638
 6247SOL     OW19639   1.417   6.856   3.860
 6247SOL    HW119640   1.326   6.846   3.898
 6247SOL    HW219641   1.410   6.881   3.763
 6248SOL     OW19642   2.819   4.001   0.806
 6248SOL    HW119643   2.835   4.097   0.783
 6248SOL    HW219644   2.891   3.969   0.867
 6249SOL     OW19645   0.907   3.951   0.232
 6249SOL    HW119646   0.955   4.029   0.272
 6249SOL    HW219647   0.933   3.943   0.135
 6250SOL     OW19648   0.348   5.878   0.499
 6250SOL    HW119649   0.323   5.970   0.471
 6250SOL    HW219650   0.267   5.819   0.500
 6251SOL     OW19651   3.715   5.186   6.754
 6251SOL    HW119652   3.631   5.169   6.805
 6251SOL    HW219653   3.793   5.155   6.807
 6252SOL     OW19654   1.347   6.617   5.997
 6252SOL    HW119655   1.313   6.562   6.074
 6252SOL    HW219656   1.444   6.639   6.013
 6253SOL     OW19657   2.128   3.928   2.587
 6253SOL    HW119658   2.143   3.847   2.644
 6253SOL    HW219659   2.137   3.903   2.490
 6254SOL     OW19660   4.907   1.195   0.532
 6254SOL    HW119661   5.001   1.223   0.516
 6254SOL    HW219662   4.900   1.149   0.620
 6255SOL     OW19663   2.754   0.614   1.342
 6255SOL    HW119664   2.829   0.587   1.282
 6255SOL    HW219665   2.667   0.583   1.304
 6256SOL     OW19666   3.447   5.106   2.802
 6256SOL    HW119667   3.417   5.190   2.757
 6256SOL    HW219668   3.447   5.030   2.737
 6257SOL     OW19669   4.844   2.572   0.750
 6257SOL    HW119670   4.786   2.628   0.808
 6257SOL    HW219671   4.887   2.628   0.679
 6258SOL     OW19672   4.580   0.149   3.730
 6258SOL    HW119673   4.651   0.086   3.762
 6258SOL    HW219674   4.572   0.225   3.793
 6259SOL     OW19675   2.939   2.586   0.820
 6259SOL    HW119676   3.038   2.578   0.830
 6259SOL    HW219677   2.899   2.609   0.909
 6260SOL     OW19678   2.993   5.391   0.375
 6260SOL    HW119679   2.906   5.419   0.335
 6260SOL    HW219680   3.063   5.388   0.304
 6261SOL     OW19681   3.897   0.096   6.441
 6261SOL    HW119682   3.903   0.133   6.348
 6261SOL    HW219683   3.914   0.168   6.507
 6262SOL     OW19684   1.436   4.848   0.706
 6262SOL    HW119685   1.358   4.804   0.660
 6262SOL    HW219686   1.518   4.793   0.690
 6263SOL     OW19687   0.163   0.633   5.393
 6263SOL    HW119688   0.131   0.706   5.452
 6263SOL    HW219689   0.093   0.611   5.325
 6264SOL     OW19690   1.226   0.271   1.559
 6264SOL    HW119691   1.300   0.238   1.500
 6264SOL    HW219692   1.170   0.194   1.588
 6265SOL     OW19693   2.815   4.257   0.674
 6265SOL    HW119694   2.743   4.212   0.621
 6265SOL    HW219695   2.821   4.353   0.647
 6266SOL     OW19696   4.037   0.265   4.460
 6266SOL    HW119697   4.101   0.286   4.535
 6266SOL    HW219698   4.080   0.200   4.398
 6267SOL     OW19699   2.634   0.688   6.752
 6267SOL    HW119700   2.572   0.691   6.673
 6267SOL    HW219701   2.728   0.675   6.721
 6268SOL     OW19702   3.693   6.438   2.959
 6268SOL    HW119703   3.715   6.525   3.003
 6268SOL    HW219704   3.711   6.363   3.023
 6269SOL     OW19705   6.664   5.412   1.508
 6269SOL    HW119706   6.734   5.340   1.512
 6269SOL    HW219707   6.695   5.491   1.561
 6270SOL     OW19708   1.751   0.384   5.447
 6270SOL    HW119709   1.821   0.456   5.446
 6270SOL    HW219710   1.724   0.365   5.541
 6271SOL     OW19711   5.606   2.347   5.760
 6271SOL    HW119712   5.516   2.321   5.793
 6271SOL    HW219713   5.599   2.379   5.665
 6272SOL     OW19714   0.694   2.429   6.352
 6272SOL    HW119715   0.780   2.414   6.400
 6272SOL    HW219716   0.704   2.508   6.290
 6273SOL     OW19717   2.123   0.015   3.096
 6273SOL    HW119718   2.207   0.056   3.060
 6273SOL    HW219719   2.081   6.986   3.025
 6274SOL     OW19720   2.183   5.427   6.112
 6274SOL    HW119721   2.279   5.398   6.109
 6274SOL    HW219722   2.160   5.476   6.028
 6275SOL     OW19723   2.074   5.857   4.728
 6275SOL    HW119724   2.058   5.847   4.630
 6275SOL    HW219725   2.171   5.843   4.748
 6276SOL     OW19726   2.077   5.040   3.240
 6276SOL    HW119727   2.120   4.953   3.267
 6276SOL    HW219728   1.998   5.022   3.182
 6277SOL     OW19729   5.450   3.639   1.828
 6277SOL    HW119730   5.536   3.600   1.861
 6277SOL    HW219731   5.381   3.635   1.900
 6278SOL     OW19732   5.045   6.981   4.761
 6278SOL    HW119733   4.958   6.973   4.712
 6278SOL    HW219734   5.121   6.976   4.695
 6279SOL     OW19735   3.519   0.814   6.419
 6279SOL    HW119736   3.420   0.810   6.404
 6279SOL    HW219737   3.544   0.746   6.488
 6280SOL     OW19738   0.825   2.296   5.169
 6280SOL    HW119739   0.818   2.392   5.196
 6280SOL    HW219740   0.918   2.275   5.140
 6281SOL     OW19741   1.592   4.858   4.047
 6281SOL    HW119742   1.635   4.830   4.132
 6281SOL    HW219743   1.654   4.839   3.971
 6282SOL     OW19744   1.344   0.409   4.860
 6282SOL    HW119745   1.350   0.443   4.767
 6282SOL    HW219746   1.261   0.356   4.871
 6283SOL     OW19747   6.622   3.086   6.004
 6283SOL    HW119748   6.600   3.074   5.907
 6283SOL    HW219749   6.715   3.121   6.013
 6284SOL     OW19750   2.164   5.421   4.649
 6284SOL    HW119751   2.122   5.435   4.739
 6284SOL    HW219752   2.092   5.410   4.581
 6285SOL     OW19753   0.802   2.924   3.841
 6285SOL    HW119754   0.866   2.999   3.861
 6285SOL    HW219755   0.717   2.940   3.891
 6286SOL     OW19756   6.641   1.804   3.868
 6286SOL    HW119757   6.563   1.833   3.812
 6286SOL    HW219758   6.712   1.766   3.809
 6287SOL     OW19759   3.830   4.901   3.846
 6287SOL    HW119760   3.759   4.908   3.916
 6287SOL    HW219761   3.804   4.956   3.766
 6288SOL     OW19762   5.556   4.845   2.740
 6288SOL    HW119763   5.470   4.857   2.789
 6288SOL    HW219764   5.538   4.837   2.642
 6289SOL     OW19765   1.281   4.951   2.070
 6289SOL    HW119766   1.364   4.895   2.072
 6289SOL    HW219767   1.278   5.010   2.151
 6290SOL     OW19768   6.076   3.467   4.133
 6290SOL    HW119769   6.079   3.533   4.209
 6290SOL    HW219770   6.006   3.496   4.067
 6291SOL     OW19771   3.342   2.958   4.827
 6291SOL    HW119772   3.290   2.905   4.893
 6291SOL    HW219773   3.440   2.948   4.846
 6292SOL     OW19774   1.496   2.057   3.622
 6292SOL    HW119775   1.422   1.992   3.602
 6292SOL    HW219776   1.480   2.101   3.710
 6293SOL     OW19777   3.539   0.488   0.043
 6293SOL    HW119778   3.560   0.414   0.106
 6293SOL    HW219779   3.448   0.525   0.064
 6294SOL     OW19780   3.713   4.914   4.247
 6294SOL    HW119781   3.745   4.950   4.159
 6294SOL    HW219782   3.683   4.990   4.305
 6295SOL     OW19783   5.479   5.258   5.830
 6295SOL    HW119784   5.513   5.344   5.868
 6295SOL    HW219785   5.429   5.208   5.900
 6296SOL     OW19786   6.931   6.879   4.950
 6296SOL    HW119787   6.970   6.956   5.001
 6296SOL    HW219788   6.884   6.818   5.013
 6297SOL     OW19789   4.540   0.012   4.776
 6297SOL    HW119790   4.523   0.023   4.874
 6297SOL    HW219791   4.488   6.961   4.742
 6298SOL     OW19792   1.265   2.602   5.896
 6298SOL    HW119793   1.220   2.687   5.869
 6298SOL    HW219794   1.362   2.619   5.912
 6299SOL     OW19795   5.388   1.569   0.360
 6299SOL    HW119796   5.308   1.579   0.300
 6299SOL    HW219797   5.432   1.481   0.344
 6300SOL     OW19798   5.057   0.452   6.755
 6300SOL    HW119799   5.018   0.450   6.663
 6300SOL    HW219800   4.998   0.401   6.818
 6301SOL     OW19801   3.248   0.630   0.804
 6301SOL    HW119802   3.292   0.718   0.823
 6301SOL    HW219803   3.177   0.613   0.872
 6302SOL     OW19804   1.850   1.357   4.072
 6302SOL    HW119805   1.759   1.387   4.101
 6302SOL    HW219806   1.856   1.358   3.972
 6303SOL     OW19807   2.089   1.062   4.897
 6303SOL    HW119808   2.067   1.023   4.987
 6303SOL    HW219809   2.150   1.140   4.909
 6304SOL     OW19810   2.353   1.208   1.297
 6304SOL    HW119811   2.253   1.211   1.296
 6304SOL    HW219812   2.387   1.183   1.206
 6305SOL     OW19813   6.303   0.054   1.844
 6305SOL    HW119814   6.339   6.997   1.883
 6305SOL    HW219815   6.257   0.107   1.915
 6306SOL     OW19816   1.168   3.358   4.232
 6306SOL    HW119817   1.248   3.411   4.205
 6306SOL    HW219818   1.086   3.415   4.229
 6307SOL     OW19819   4.014   4.367   5.810
 6307SOL    HW119820   4.038   4.352   5.714
 6307SOL    HW219821   3.915   4.372   5.820
 6308SOL     OW19822   1.782   1.958   4.727
 6308SOL    HW119823   1.862   2.009   4.758
 6308SOL    HW219824   1.723   1.939   4.806
 6309SOL     OW19825   5.123   4.165   4.388
 6309SOL    HW119826   5.102   4.119   4.474
 6309SOL    HW219827   5.218   4.146   4.363
 6310SOL     OW19828   2.123   5.731   3.175
 6310SOL    HW119829   2.049   5.728   3.108
 6310SOL    HW219830   2.133   5.825   3.209
 6311SOL     OW19831   5.248   0.460   5.682
 6311SOL    HW119832   5.323   0.520   5.709
 6311SOL    HW219833   5.164   0.491   5.725
 6312SOL     OW19834   6.266   5.198   5.916
 6312SOL    HW119835   6.365   5.191   5.904
 6312SOL    HW219836   6.221   5.158   5.836
 6313SOL     OW19837   1.385   6.501   3.629
 6313SOL    HW119838   1.409   6.435   3.558
 6313SOL    HW219839   1.442   6.484   3.710
 6314SOL     OW19840   4.165   6.507   1.656
 6314SOL    HW119841   4.100   6.582   1.644
 6314SOL    HW219842   4.145   6.460   1.742
 6315SOL     OW19843   3.794   3.177   6.329
 6315SOL    HW119844   3.889   3.175   6.297
 6315SOL    HW219845   3.748   3.092   6.303
 6316SOL     OW19846   4.535   1.928   6.832
 6316SOL    HW119847   4.489   1.849   6.872
 6316SOL    HW219848   4.626   1.938   6.874
 6317SOL     OW19849   4.904   5.459   2.805
 6317SOL    HW119850   4.878   5.526   2.735
 6317SOL    HW219851   4.932   5.507   2.888
 6318SOL     OW19852   2.759   2.392   4.659
 6318SOL    HW119853   2.791   2.385   4.565
 6318SOL    HW219854   2.833   2.371   4.722
 6319SOL     OW19855   0.036   2.088   3.920
 6319SOL    HW119856   6.995   2.160   3.909
 6319SOL    HW219857   0.104   2.116   3.988
 6320SOL     OW19858   5.880   5.525   4.995
 6320SOL    HW119859   5.804   5.516   5.060
 6320SOL    HW219860   5.960   5.561   5.042
 6321SOL     OW19861   3.267   3.818   1.298
 6321SOL    HW119862   3.336   3.884   1.270
 6321SOL    HW219863   3.196   3.864   1.352
 6322SOL     OW19864   1.987   2.371   6.769
 6322SOL    HW119865   1.973   2.349   6.865
 6322SOL    HW219866   1.946   2.460   6.748
 6323SOL     OW19867   3.179   2.545   1.467
 6323SOL    HW119868   3.125   2.528   1.549
 6323SOL    HW219869   3.266   2.497   1.473
 6324SOL     OW19870   5.359   0.352   6.386
 6324SOL    HW119871   5.386   0.413   6.311
 6324SOL    HW219872   5.262   0.331   6.377
 6325SOL     OW19873   2.297   2.182   2.409
 6325SOL    HW119874   2.316   2.256   2.473
 6325SOL    HW219875   2.198   2.178   2.391
 6326SOL     OW19876   4.924   5.535   1.198
 6326SOL    HW119877   4.917   5.442   1.161
 6326SOL    HW219878   5.020   5.554   1.218
 6327SOL     OW19879   0.159   0.582   4.910
 6327SOL    HW119880   0.203   0.624   4.989
 6327SOL    HW219881   0.181   0.635   4.828
 6328SOL     OW19882   1.709   3.977   0.883
 6328SOL    HW119883   1.744   3.887   0.909
 6328SOL    HW219884   1.655   3.970   0.800
 6329SOL     OW19885   2.121   2.632   3.177
 6329SOL    HW119886   2.085   2.705   3.234
 6329SOL    HW219887   2.077   2.545   3.202
 6330SOL     OW19888   4.639   1.215   1.102
 6330SOL    HW119889   4.718   1.258   1.059
 6330SOL    HW219890   4.641   1.232   1.200
 6331SOL     OW19891   6.399   1.981   7.001
 6331SOL    HW119892   6.342   1.977   6.920
 6331SOL    HW219893   6.443   2.071   7.006
 6332SOL     OW19894   6.425   3.661   1.825
 6332SOL    HW119895   6.429   3.695   1.919
 6332SOL    HW219896   6.399   3.735   1.764
 6333SOL     OW19897   3.948   5.672   4.978
 6333SOL    HW119898   3.881   5.740   5.008
 6333SOL    HW219899   4.034   5.718   4.956
 6334SOL     OW19900   3.312   0.104   1.965
 6334SOL    HW119901   3.383   0.050   1.919
 6334SOL    HW219902   3.326   0.097   2.064
 6335SOL     OW19903   4.566   1.148   0.123
 6335SOL    HW119904   4.554   1.177   0.028
 6335SOL    HW219905   4.510   1.067   0.140
 6336SOL     OW19906   0.448   1.740   6.691
 6336SOL    HW119907   0.358   1.755   6.731
 6336SOL    HW219908   0.512   1.709   6.761
 6337SOL     OW19909   4.964   4.485   5.763
 6337SOL    HW119910   4.981   4.583   5.777
 6337SOL    HW219911   5.026   4.432   5.821
 6338SOL     OW19912   3.528   2.082   3.255
 6338SOL    HW119913   3.608   2.025   3.278
 6338SOL    HW219914   3.537   2.116   3.161
 6339SOL     OW19915   1.489   3.035   2.582
 6339SOL    HW119916   1.458   2.953   2.535
 6339SOL    HW219917   1.518   3.012   2.675
 6340SOL     OW19918   1.610   4.831   2.672
 6340SOL    HW119919   1.623   4.833   2.573
 6340SOL    HW219920   1.652   4.912   2.712
 6341SOL     OW19921   0.819   4.506   4.175
 6341SOL    HW119922   0.870   4.428   4.140
 6341SOL    HW219923   0.722   4.497   4.150
 6342SOL     OW19924   2.383   1.959   2.028
 6342SOL    HW119925   2.444   2.035   2.003
 6342SOL    HW219926   2.436   1.874   2.031
 6343SOL     OW19927   5.085   2.375   6.724
 6343SOL    HW119928   5.179   2.363   6.754
 6343SOL    HW219929   5.039   2.286   6.721
 6344SOL     OW19930   5.443   3.428   5.010
 6344SOL    HW119931   5.507   3.353   5.025
 6344SOL    HW219932   5.360   3.393   4.966
 6345SOL     OW19933   4.943   1.934   2.270
 6345SOL    HW119934   5.028   1.905   2.225
 6345SOL    HW219935   4.905   2.013   2.222
 6346SOL     OW19936   6.783   4.507   4.022
 6346SOL    HW119937   6.860   4.544   3.970
 6346SOL    HW219938   6.816   4.444   4.092
 6347SOL     OW19939   1.797   6.991   1.865
 6347SOL    HW119940   1.757   0.019   1.792
 6347SOL    HW219941   1.896   7.003   1.865
 6348SOL     OW19942   1.457   3.810   5.126
 6348SOL    HW119943   1.409   3.896   5.108
 6348SOL    HW219944   1.392   3.734   5.120
 6349SOL     OW19945   3.427   0.010   1.177
 6349SOL    HW119946   3.449   0.107   1.182
 6349SOL    HW219947   3.390   7.006   1.265
 6350SOL     OW19948   2.748   4.688   4.135
 6350SOL    HW119949   2.720   4.643   4.050
 6350SOL    HW219950   2.840   4.726   4.125
 6351SOL     OW19951   6.437   3.563   3.163
 6351SOL    HW119952   6.444   3.660   3.140
 6351SOL    HW219953   6.433   3.553   3.263
 6352SOL     OW19954   3.089   5.283   4.706
 6352SOL    HW119955   3.015   5.339   4.744
 6352SOL    HW219956   3.050   5.215   4.644
 6353SOL     OW19957   0.021   1.023   6.226
 6353SOL    HW119958   6.953   0.993   6.234
 6353SOL    HW219959   0.069   0.962   6.163
 6354SOL     OW19960   2.041   6.314   3.384
 6354SOL    HW119961   1.986   6.395   3.364
 6354SOL    HW219962   2.135   6.328   3.354
 6355SOL     OW19963   1.059   5.523   5.985
 6355SOL    HW119964   1.047   5.621   5.999
 6355SOL    HW219965   0.971   5.482   5.962
 6356SOL     OW19966   3.600   4.987   2.401
 6356SOL    HW119967   3.567   4.970   2.308
 6356SOL    HW219968   3.689   4.943   2.414
 6357SOL     OW19969   5.223   3.089   2.535
 6357SOL    HW119970   5.179   3.142   2.608
 6357SOL    HW219971   5.317   3.069   2.561
 6358SOL     OW19972   1.396   2.219   5.982
 6358SOL    HW119973   1.445   2.204   5.895
 6358SOL    HW219974   1.431   2.302   6.025
 6359SOL     OW19975   6.368   6.772   5.693
 6359SOL    HW119976   6.276   6.810   5.692
 6359SOL    HW219977   6.416   6.798   5.609
 6360SOL     OW19978   1.724   3.940   4.217
 6360SOL    HW119979   1.652   3.934   4.148
 6360SOL    HW219980   1.766   3.851   4.230
 6361SOL     OW19981   6.236   0.205   0.358
 6361SOL    HW119982   6.243   0.271   0.284
 6361SOL    HW219983   6.242   0.112   0.321
 6362SOL     OW19984   6.756   5.877   0.236
 6362SOL    HW119985   6.665   5.853   0.203
 6362SOL    HW219986   6.824   5.855   0.166
 6363SOL     OW19987   2.421   4.532   3.237
 6363SOL    HW119988   2.334   4.538   3.284
 6363SOL    HW219989   2.407   4.490   3.147
 6364SOL     OW19990   2.995   1.346   5.983
 6364SOL    HW119991   2.967   1.381   5.894
 6364SOL    HW219992   3.083   1.386   6.009
 6365SOL     OW19993   5.528   6.881   4.452
 6365SOL    HW119994   5.566   6.868   4.543
 6365SOL    HW219995   5.601   6.895   4.386
 6366SOL     OW19996   1.077   5.382   6.767
 6366SOL    HW119997   1.093   5.413   6.673
 6366SOL    HW219998   0.979   5.383   6.787
 6367SOL     OW19999   3.789   0.082   4.327
 6367SOL    HW120000   3.749   0.120   4.410
 6367SOL    HW220001   3.884   0.111   4.319
 6368SOL     OW20002   3.256   6.228   3.369
 6368SOL    HW120003   3.280   6.249   3.464
 6368SOL    HW220004   3.161   6.195   3.365
 6369SOL     OW20005   1.999   4.491   4.428
 6369SOL    HW120006   2.075   4.550   4.453
 6369SOL    HW220007   2.019   4.447   4.340
 6370SOL     OW20008   0.646   3.587   2.637
 6370SOL    HW120009   0.669   3.661   2.573
 6370SOL    HW220010   0.731   3.545   2.669
 6371SOL     OW20011   5.134   3.707   4.219
 6371SOL    HW120012   5.175   3.617   4.205
 6371SOL    HW220013   5.132   3.757   4.133
 6372SOL     OW20014   3.694   0.258   1.983
 6372SOL    HW120015   3.703   0.357   1.977
 6372SOL    HW220016   3.725   0.216   1.897
 6373SOL     OW20017   5.465   4.614   3.550
 6373SOL    HW120018   5.370   4.594   3.573
 6373SOL    HW220019   5.468   4.690   3.485
 6374SOL     OW20020   3.271   3.880   4.938
 6374SOL    HW120021   3.314   3.889   4.848
 6374SOL    HW220022   3.250   3.971   4.974
 6375SOL     OW20023   6.693   1.755   4.268
 6375SOL    HW120024   6.643   1.794   4.191
 6375SOL    HW220025   6.764   1.694   4.234
 6376SOL     OW20026   6.294   2.662   5.341
 6376SOL    HW120027   6.243   2.581   5.313
 6376SOL    HW220028   6.251   2.703   5.421
 6377SOL     OW20029   6.327   1.790   5.582
 6377SOL    HW120030   6.255   1.776   5.514
 6377SOL    HW220031   6.405   1.835   5.539
 6378SOL     OW20032   4.978   5.121   3.480
 6378SOL    HW120033   4.985   5.209   3.527
 6378SOL    HW220034   4.961   5.137   3.383
 6379SOL     OW20035   2.221   4.197   4.110
 6379SOL    HW120036   2.209   4.098   4.119
 6379SOL    HW220037   2.264   4.233   4.193
 6380SOL     OW20038   0.837   1.382   6.529
 6380SOL    HW120039   0.901   1.307   6.520
 6380SOL    HW220040   0.750   1.348   6.566
 6381SOL     OW20041   4.027   3.182   1.846
 6381SOL    HW120042   3.997   3.115   1.915
 6381SOL    HW220043   4.036   3.136   1.758
 6382SOL     OW20044   0.887   2.340   0.046
 6382SOL    HW120045   0.970   2.315   7.023
 6382SOL    HW220046   0.891   2.299   0.138
 6383SOL     OW20047   1.944   2.068   2.965
 6383SOL    HW120048   1.926   2.146   2.904
 6383SOL    HW220049   1.951   1.984   2.911
 6384SOL     OW20050   5.159   4.096   1.300
 6384SOL    HW120051   5.154   4.168   1.231
 6384SOL    HW220052   5.110   4.124   1.382
 6385SOL     OW20053   6.784   5.180   4.192
 6385SOL    HW120054   6.720   5.112   4.227
 6385SOL    HW220055   6.868   5.135   4.161
 6386SOL     OW20056   2.341   4.623   6.371
 6386SOL    HW120057   2.333   4.622   6.272
 6386SOL    HW220058   2.436   4.607   6.397
 6387SOL     OW20059   0.882   1.613   6.720
 6387SOL    HW120060   0.840   1.553   6.651
 6387SOL    HW220061   0.932   1.685   6.674
 6388SOL     OW20062   4.121   4.627   1.243
 6388SOL    HW120063   4.028   4.664   1.238
 6388SOL    HW220064   4.116   4.527   1.241
 6389SOL     OW20065   0.777   6.307   2.450
 6389SOL    HW120066   0.732   6.301   2.539
 6389SOL    HW220067   0.821   6.397   2.442
 6390SOL     OW20068   1.016   2.188   4.765
 6390SOL    HW120069   1.016   2.121   4.839
 6390SOL    HW220070   0.955   2.264   4.789
 6391SOL     OW20071   2.799   6.783   5.721
 6391SOL    HW120072   2.710   6.813   5.685
 6391SOL    HW220073   2.840   6.718   5.658
 6392SOL     OW20074   2.506   0.462   3.652
 6392SOL    HW120075   2.422   0.409   3.658
 6392SOL    HW220076   2.571   0.415   3.593
 6393SOL     OW20077   5.958   0.011   1.208
 6393SOL    HW120078   5.884   7.012   1.271
 6393SOL    HW220079   5.990   6.958   1.159
 6394SOL     OW20080   2.406   4.707   1.066
 6394SOL    HW120081   2.330   4.732   1.127
 6394SOL    HW220082   2.456   4.630   1.105
 6395SOL     OW20083   6.623   3.158   2.064
 6395SOL    HW120084   6.539   3.207   2.039
 6395SOL    HW220085   6.657   3.109   1.984
 6396SOL     OW20086   5.433   2.970   6.529
 6396SOL    HW120087   5.520   2.993   6.487
 6396SOL    HW220088   5.399   3.048   6.581
 6397SOL     OW20089   5.794   2.683   6.103
 6397SOL    HW120090   5.841   2.597   6.081
 6397SOL    HW220091   5.704   2.663   6.142
 6398SOL     OW20092   3.170   1.101   0.734
 6398SOL    HW120093   3.153   1.027   0.668
 6398SOL    HW220094   3.085   1.152   0.749
 6399SOL     OW20095   1.257   5.156   6.758
 6399SOL    HW120096   1.218   5.248   6.759
 6399SOL    HW220097   1.250   5.118   6.665
 6400SOL     OW20098   2.543   6.411   2.676
 6400SOL    HW120099   2.480   6.345   2.635
 6400SOL    HW220100   2.551   6.491   2.617
 6401SOL     OW20101   0.373   4.621   3.333
 6401SOL    HW120102   0.310   4.696   3.311
 6401SOL    HW220103   0.459   4.659   3.365
 6402SOL     OW20104   4.485   1.063   3.022
 6402SOL    HW120105   4.428   1.146   3.029
 6402SOL    HW220106   4.430   0.983   3.045
 6403SOL     OW20107   0.018   6.070   6.384
 6403SOL    HW120108   7.019   6.138   6.314
 6403SOL    HW220109   0.009   5.978   6.346
 6404SOL     OW20110   4.278   1.245   3.072
 6404SOL    HW120111   4.281   1.301   2.989
 6404SOL    HW220112   4.251   1.302   3.149
 6405SOL     OW20113   2.214   0.768   3.452
 6405SOL    HW120114   2.226   0.781   3.551
 6405SOL    HW220115   2.252   0.846   3.404
 6406SOL     OW20116   1.580   2.809   3.709
 6406SOL    HW120117   1.600   2.809   3.611
 6406SOL    HW220118   1.622   2.729   3.751
 6407SOL     OW20119   2.885   0.178   3.510
 6407SOL    HW120120   2.934   0.154   3.425
 6407SOL    HW220121   2.951   0.210   3.578
 6408SOL     OW20122   5.942   2.254   0.308
 6408SOL    HW120123   5.989   2.170   0.336
 6408SOL    HW220124   5.850   2.254   0.347
 6409SOL     OW20125   0.709   4.775   3.335
 6409SOL    HW120126   0.639   4.828   3.382
 6409SOL    HW220127   0.717   4.808   3.240
 6410SOL     OW20128   2.244   1.535   0.514
 6410SOL    HW120129   2.341   1.513   0.512
 6410SOL    HW220130   2.205   1.509   0.602
 6411SOL     OW20131   0.191   2.580   3.409
 6411SOL    HW120132   0.245   2.559   3.491
 6411SOL    HW220133   0.135   2.501   3.385
 6412SOL     OW20134   0.200   2.988   5.298
 6412SOL    HW120135   0.201   2.999   5.199
 6412SOL    HW220136   0.149   2.906   5.322
 6413SOL     OW20137   4.158   4.712   3.128
 6413SOL    HW120138   4.209   4.721   3.214
 6413SOL    HW220139   4.216   4.672   3.058
 6414SOL     OW20140   5.832   0.472   1.377
 6414SOL    HW120141   5.784   0.393   1.415
 6414SOL    HW220142   5.931   0.455   1.379
 6415SOL     OW20143   1.922   2.321   2.823
 6415SOL    HW120144   1.833   2.327   2.868
 6415SOL    HW220145   1.984   2.389   2.862
 6416SOL     OW20146   1.097   1.152   6.502
 6416SOL    HW120147   1.101   1.251   6.517
 6416SOL    HW220148   1.174   1.124   6.445
 6417SOL     OW20149   6.987   4.174   1.914
 6417SOL    HW120150   7.002   4.085   1.870
 6417SOL    HW220151   0.041   4.200   1.965
 6418SOL     OW20152   4.982   4.614   1.694
 6418SOL    HW120153   4.900   4.661   1.661
 6418SOL    HW220154   4.984   4.521   1.656
 6419SOL     OW20155   2.487   4.692   2.804
 6419SOL    HW120156   2.475   4.613   2.864
 6419SOL    HW220157   2.417   4.690   2.733
 6420SOL     OW20158   2.854   3.801   5.685
 6420SOL    HW120159   2.798   3.874   5.724
 6420SOL    HW220160   2.934   3.840   5.639
 6421SOL     OW20161   5.604   1.394   2.383
 6421SOL    HW120162   5.506   1.394   2.364
 6421SOL    HW220163   5.643   1.483   2.359
 6422SOL     OW20164   0.254   0.471   4.522
 6422SOL    HW120165   0.233   0.467   4.425
 6422SOL    HW220166   0.333   0.413   4.542
 6423SOL     OW20167   4.579   5.062   2.745
 6423SOL    HW120168   4.618   5.142   2.791
 6423SOL    HW220169   4.605   5.063   2.648
 6424SOL     OW20170   6.706   6.001   5.480
 6424SOL    HW120171   6.647   5.926   5.512
 6424SOL    HW220172   6.664   6.089   5.506
 6425SOL     OW20173   6.236   5.630   3.107
 6425SOL    HW120174   6.187   5.705   3.062
 6425SOL    HW220175   6.178   5.549   3.108
 6426SOL     OW20176   0.534   4.926   3.484
 6426SOL    HW120177   0.612   4.954   3.539
 6426SOL    HW220178   0.459   4.897   3.543
 6427SOL     OW20179   2.226   3.472   6.199
 6427SOL    HW120180   2.150   3.461   6.262
 6427SOL    HW220181   2.207   3.546   6.134
 6428SOL     OW20182   6.568   2.939   6.975
 6428SOL    HW120183   6.622   2.855   6.963
 6428SOL    HW220184   6.567   2.965   0.044
 6429SOL     OW20185   0.746   1.828   5.771
 6429SOL    HW120186   0.673   1.804   5.706
 6429SOL    HW220187   0.746   1.927   5.786
 6430SOL     OW20188   5.417   1.173   2.174
 6430SOL    HW120189   5.401   1.164   2.075
 6430SOL    HW220190   5.395   1.267   2.202
 6431SOL     OW20191   5.416   6.638   3.596
 6431SOL    HW120192   5.401   6.548   3.636
 6431SOL    HW220193   5.481   6.631   3.520
 6432SOL     OW20194   4.633   3.773   7.009
 6432SOL    HW120195   4.630   3.862   6.963
 6432SOL    HW220196   4.601   3.703   6.945
 6433SOL     OW20197   3.657   4.583   0.591
 6433SOL    HW120198   3.701   4.501   0.555
 6433SOL    HW220199   3.600   4.559   0.669
 6434SOL     OW20200   2.011   3.697   0.183
 6434SOL    HW120201   2.004   3.775   0.245
 6434SOL    HW220202   2.038   3.729   0.092
 6435SOL     OW20203   4.028   6.118   6.908
 6435SOL    HW120204   3.936   6.157   6.900
 6435SOL    HW220205   4.092   6.168   6.850
 6436SOL     OW20206   2.123   3.049   3.098
 6436SOL    HW120207   2.144   3.143   3.123
 6436SOL    HW220208   2.024   3.035   3.101
 6437SOL     OW20209   2.241   0.897   1.150
 6437SOL    HW120210   2.254   0.883   1.248
 6437SOL    HW220211   2.165   0.960   1.135
 6438SOL     OW20212   0.561   4.554   6.482
 6438SOL    HW120213   0.630   4.549   6.410
 6438SOL    HW220214   0.508   4.638   6.471
 6439SOL     OW20215   6.307   0.588   1.624
 6439SOL    HW120216   6.214   0.624   1.633
 6439SOL    HW220217   6.354   0.636   1.550
 6440SOL     OW20218   2.230   1.926   1.075
 6440SOL    HW120219   2.306   1.899   1.015
 6440SOL    HW220220   2.152   1.866   1.058
 6441SOL     OW20221   1.013   6.737   2.409
 6441SOL    HW120222   0.991   6.758   2.313
 6441SOL    HW220223   0.983   6.812   2.467
 6442SOL     OW20224   2.789   1.207   3.865
 6442SOL    HW120225   2.876   1.175   3.902
 6442SOL    HW220226   2.722   1.133   3.867
 6443SOL     OW20227   4.165   2.559   6.214
 6443SOL    HW120228   4.218   2.627   6.165
 6443SOL    HW220229   4.206   2.469   6.201
 6444SOL     OW20230   0.243   2.548   3.928
 6444SOL    HW120231   0.154   2.543   3.883
 6444SOL    HW220232   0.243   2.491   4.009
 6445SOL     OW20233   5.074   3.031   5.589
 6445SOL    HW120234   5.069   2.997   5.683
 6445SOL    HW220235   5.005   2.985   5.533
 6446SOL     OW20236   1.071   0.829   6.251
 6446SOL    HW120237   1.118   0.911   6.283
 6446SOL    HW220238   1.139   0.763   6.218
 6447SOL     OW20239   0.237   5.517   2.641
 6447SOL    HW120240   0.169   5.491   2.710
 6447SOL    HW220241   0.317   5.456   2.650
 6448SOL     OW20242   4.966   4.529   2.753
 6448SOL    HW120243   4.881   4.541   2.701
 6448SOL    HW220244   4.985   4.612   2.806
 6449SOL     OW20245   2.711   4.403   0.287
 6449SOL    HW120246   2.776   4.455   0.343
 6449SOL    HW220247   2.700   4.449   0.199
 6450SOL     OW20248   0.412   3.733   1.478
 6450SOL    HW120249   0.480   3.663   1.499
 6450SOL    HW220250   0.320   3.698   1.497
 6451SOL     OW20251   2.498   6.736   5.282
 6451SOL    HW120252   2.418   6.793   5.264
 6451SOL    HW220253   2.581   6.788   5.259
 6452SOL     OW20254   3.385   6.120   4.692
 6452SOL    HW120255   3.423   6.066   4.617
 6452SOL    HW220256   3.459   6.167   4.740
 6453SOL     OW20257   1.423   6.723   0.279
 6453SOL    HW120258   1.402   6.771   0.194
 6453SOL    HW220259   1.393   6.779   0.356
 6454SOL     OW20260   3.433   1.370   3.003
 6454SOL    HW120261   3.469   1.411   2.919
 6454SOL    HW220262   3.414   1.442   3.070
 6455SOL     OW20263   0.231   1.987   4.295
 6455SOL    HW120264   0.179   1.903   4.308
 6455SOL    HW220265   0.215   2.049   4.372
 6456SOL     OW20266   1.892   0.910   3.682
 6456SOL    HW120267   1.944   0.976   3.627
 6456SOL    HW220268   1.802   0.948   3.702
 6457SOL     OW20269   5.173   1.360   1.071
 6457SOL    HW120270   5.077   1.378   1.094
 6457SOL    HW220271   5.229   1.436   1.102
 6458SOL     OW20272   0.561   6.987   3.395
 6458SOL    HW120273   0.599   0.028   3.457
 6458SOL    HW220274   0.633   6.954   3.334
 6459SOL     OW20275   5.985   4.887   0.480
 6459SOL    HW120276   5.979   4.962   0.414
 6459SOL    HW220277   5.963   4.922   0.572
 6460SOL     OW20278   4.443   5.147   5.693
 6460SOL    HW120279   4.458   5.221   5.627
 6460SOL    HW220280   4.429   5.061   5.644
 6461SOL     OW20281   2.783   4.894   5.154
 6461SOL    HW120282   2.759   4.797   5.153
 6461SOL    HW220283   2.864   4.908   5.096
 6462SOL     OW20284   2.339   2.734   4.972
 6462SOL    HW120285   2.349   2.832   4.989
 6462SOL    HW220286   2.339   2.717   4.873
 6463SOL     OW20287   1.410   3.634   6.946
 6463SOL    HW120288   1.474   3.571   6.991
 6463SOL    HW220289   1.449   3.664   6.858
 6464SOL     OW20290   0.949   5.434   4.500
 6464SOL    HW120291   0.901   5.349   4.477
 6464SOL    HW220292   0.977   5.432   4.596
 6465SOL     OW20293   6.155   2.517   3.890
 6465SOL    HW120294   6.146   2.424   3.856
 6465SOL    HW220295   6.252   2.538   3.903
 6466SOL     OW20296   1.253   1.254   6.913
 6466SOL    HW120297   1.170   1.308   6.926
 6466SOL    HW220298   1.333   1.314   6.915
 6467SOL     OW20299   2.897   0.719   0.175
 6467SOL    HW120300   2.869   0.794   0.235
 6467SOL    HW220301   2.957   0.755   0.103
 6468SOL     OW20302   4.364   6.853   1.832
 6468SOL    HW120303   4.305   6.864   1.752
 6468SOL    HW220304   4.350   6.763   1.872
 6469SOL     OW20305   4.494   0.683   5.518
 6469SOL    HW120306   4.424   0.755   5.523
 6469SOL    HW220307   4.490   0.627   5.601
 6470SOL     OW20308   5.802   5.568   6.676
 6470SOL    HW120309   5.749   5.495   6.721
 6470SOL    HW220310   5.799   5.651   6.732
 6471SOL     OW20311   6.422   6.362   5.658
 6471SOL    HW120312   6.454   6.278   5.702
 6471SOL    HW220313   6.348   6.401   5.712
 6472SOL     OW20314   0.498   4.186   1.219
 6472SOL    HW120315   0.408   4.204   1.180
 6472SOL    HW220316   0.514   4.088   1.223
 6473SOL     OW20317   2.104   1.682   4.355
 6473SOL    HW120318   2.088   1.781   4.347
 6473SOL    HW220319   2.091   1.639   4.266
 6474SOL     OW20320   2.066   3.792   5.993
 6474SOL    HW120321   2.001   3.733   6.041
 6474SOL    HW220322   2.127   3.735   5.937
 6475SOL     OW20323   6.805   5.389   4.449
 6475SOL    HW120324   6.885   5.337   4.420
 6475SOL    HW220325   6.734   5.325   4.481
 6476SOL     OW20326   4.442   3.606   1.565
 6476SOL    HW120327   4.393   3.618   1.652
 6476SOL    HW220328   4.445   3.509   1.541
 6477SOL     OW20329   6.882   5.070   0.940
 6477SOL    HW120330   6.845   4.997   0.997
 6477SOL    HW220331   6.830   5.154   0.956
 6478SOL     OW20332   3.843   5.924   2.442
 6478SOL    HW120333   3.833   5.825   2.450
 6478SOL    HW220334   3.791   5.969   2.516
 6479SOL     OW20335   3.874   5.662   3.487
 6479SOL    HW120336   3.856   5.759   3.473
 6479SOL    HW220337   3.912   5.648   3.579
 6480SOL     OW20338   2.905   2.339   5.619
 6480SOL    HW120339   2.810   2.313   5.636
 6480SOL    HW220340   2.927   2.421   5.672
 6481SOL     OW20341   3.193   2.055   2.405
 6481SOL    HW120342   3.183   1.956   2.399
 6481SOL    HW220343   3.139   2.099   2.334
 6482SOL     OW20344   0.240   0.757   6.335
 6482SOL    HW120345   0.221   0.773   6.238
 6482SOL    HW220346   0.340   0.754   6.349
 6483SOL     OW20347   2.304   6.081   2.023
 6483SOL    HW120348   2.330   6.163   1.972
 6483SOL    HW220349   2.290   6.104   2.119
 6484SOL     OW20350   4.130   1.209   2.556
 6484SOL    HW120351   4.060   1.209   2.484
 6484SOL    HW220352   4.210   1.159   2.525
 6485SOL     OW20353   1.938   3.901   2.827
 6485SOL    HW120354   1.968   3.993   2.850
 6485SOL    HW220355   2.013   3.850   2.786
 6486SOL     OW20356   1.661   4.180   4.665
 6486SOL    HW120357   1.748   4.136   4.688
 6486SOL    HW220358   1.643   4.169   4.567
 6487SOL     OW20359   6.646   5.931   4.978
 6487SOL    HW120360   6.566   5.932   4.918
 6487SOL    HW220361   6.727   5.904   4.926
 6488SOL     OW20362   3.100   5.730   5.520
 6488SOL    HW120363   3.121   5.797   5.449
 6488SOL    HW220364   3.024   5.672   5.490
 6489SOL     OW20365   2.770   3.394   6.469
 6489SOL    HW120366   2.809   3.307   6.498
 6489SOL    HW220367   2.731   3.384   6.377
 6490SOL     OW20368   4.261   1.955   6.602
 6490SOL    HW120369   4.216   1.868   6.621
 6490SOL    HW220370   4.291   1.996   6.688
 6491SOL     OW20371   4.217   1.030   6.624
 6491SOL    HW120372   4.135   1.045   6.570
 6491SOL    HW220373   4.194   1.028   6.721
 6492SOL     OW20374   5.591   5.706   6.901
 6492SOL    HW120375   5.525   5.772   6.864
 6492SOL    HW220376   5.558   5.672   6.989
 6493SOL     OW20377   1.319   5.754   4.414
 6493SOL    HW120378   1.366   5.756   4.502
 6493SOL    HW220379   1.236   5.699   4.422
 6494SOL     OW20380   0.463   1.157   3.200
 6494SOL    HW120381   0.393   1.141   3.270
 6494SOL    HW220382   0.448   1.095   3.123
 6495SOL     OW20383   4.511   6.226   4.486
 6495SOL    HW120384   4.559   6.159   4.429
 6495SOL    HW220385   4.551   6.317   4.471
 6496SOL     OW20386   0.291   0.087   1.875
 6496SOL    HW120387   0.275   0.139   1.792
 6496SOL    HW220388   0.280   0.146   1.955
 6497SOL     OW20389   2.601   3.709   6.849
 6497SOL    HW120390   2.536   3.647   6.893
 6497SOL    HW220391   2.663   3.746   6.918
 6498SOL     OW20392   2.343   4.268   3.853
 6498SOL    HW120393   2.413   4.339   3.861
 6498SOL    HW220394   2.319   4.235   3.944
 6499SOL     OW20395   5.394   2.158   5.249
 6499SOL    HW120396   5.425   2.210   5.169
 6499SOL    HW220397   5.374   2.064   5.222
 6500SOL     OW20398   6.830   4.891   3.720
 6500SOL    HW120399   6.756   4.887   3.787
 6500SOL    HW220400   6.819   4.815   3.655
 6501SOL     OW20401   6.809   2.941   6.584
 6501SOL    HW120402   6.864   2.878   6.640
 6501SOL    HW220403   6.746   2.889   6.527
 6502SOL     OW20404   6.277   4.068   2.047
 6502SOL    HW120405   6.222   4.126   2.107
 6502SOL    HW220406   6.277   4.106   1.954
 6503SOL     OW20407   5.295   0.247   4.153
 6503SOL    HW120408   5.323   0.166   4.204
 6503SOL    HW220409   5.367   0.317   4.159
 6504SOL     OW20410   4.948   6.610   6.117
 6504SOL    HW120411   4.975   6.706   6.123
 6504SOL    HW220412   4.849   6.602   6.123
 6505SOL     OW20413   5.634   4.861   1.110
 6505SOL    HW120414   5.639   4.766   1.078
 6505SOL    HW220415   5.604   4.919   1.034
 6506SOL     OW20416   6.447   3.446   1.549
 6506SOL    HW120417   6.512   3.517   1.522
 6506SOL    HW220418   6.453   3.369   1.485
 6507SOL     OW20419   1.319   5.698   5.374
 6507SOL    HW120420   1.383   5.727   5.446
 6507SOL    HW220421   1.313   5.598   5.374
 6508SOL     OW20422   2.740   1.309   3.565
 6508SOL    HW120423   2.708   1.370   3.638
 6508SOL    HW220424   2.716   1.348   3.476
 6509SOL     OW20425   2.818   2.332   3.935
 6509SOL    HW120426   2.911   2.296   3.940
 6509SOL    HW220427   2.764   2.277   3.872
 6510SOL     OW20428   0.115   4.805   6.936
 6510SOL    HW120429   0.056   4.880   6.906
 6510SOL    HW220430   0.151   4.757   6.856
 6511SOL     OW20431   5.198   0.941   5.128
 6511SOL    HW120432   5.115   0.993   5.110
 6511SOL    HW220433   5.268   1.001   5.166
 6512SOL     OW20434   5.219   0.533   1.787
 6512SOL    HW120435   5.303   0.560   1.835
 6512SOL    HW220436   5.209   0.589   1.705
 6513SOL     OW20437   3.512   5.384   3.299
 6513SOL    HW120438   3.528   5.483   3.302
 6513SOL    HW220439   3.423   5.363   3.339
 6514SOL     OW20440   5.916   6.948   3.337
 6514SOL    HW120441   5.939   7.021   3.273
 6514SOL    HW220442   5.850   6.982   3.405
 6515SOL     OW20443   0.850   4.984   4.164
 6515SOL    HW120444   0.833   5.082   4.155
 6515SOL    HW220445   0.860   4.943   4.073
 6516SOL     OW20446   0.607   3.153   1.153
 6516SOL    HW120447   0.692   3.107   1.128
 6516SOL    HW220448   0.585   3.223   1.085
 6517SOL     OW20449   6.552   1.266   0.849
 6517SOL    HW120450   6.472   1.325   0.848
 6517SOL    HW220451   6.567   1.231   0.941
 6518SOL     OW20452   0.313   0.011   6.753
 6518SOL    HW120453   0.309   0.073   6.832
 6518SOL    HW220454   0.313   6.944   6.786
 6519SOL     OW20455   2.591   1.708   3.537
 6519SOL    HW120456   2.625   1.777   3.601
 6519SOL    HW220457   2.498   1.732   3.508
 6520SOL     OW20458   5.946   5.718   2.492
 6520SOL    HW120459   6.022   5.732   2.428
 6520SOL    HW220460   5.972   5.649   2.559
 6521SOL     OW20461   1.220   2.120   4.268
 6521SOL    HW120462   1.187   2.026   4.276
 6521SOL    HW220463   1.149   2.177   4.226
 6522SOL     OW20464   3.437   4.381   6.991
 6522SOL    HW120465   3.505   4.452   7.007
 6522SOL    HW220466   3.475   4.313   6.927
 6523SOL     OW20467   3.118   0.761   6.943
 6523SOL    HW120468   3.212   0.794   6.958
 6523SOL    HW220469   3.116   0.698   6.866
 6524SOL     OW20470   3.070   3.207   2.769
 6524SOL    HW120471   3.004   3.239   2.701
 6524SOL    HW220472   3.124   3.133   2.730
 6525SOL     OW20473   1.508   3.355   2.867
 6525SOL    HW120474   1.426   3.406   2.841
 6525SOL    HW220475   1.484   3.288   2.938
 6526SOL     OW20476   1.621   6.762   5.388
 6526SOL    HW120477   1.551   6.823   5.425
 6526SOL    HW220478   1.666   6.714   5.464
 6527SOL     OW20479   0.874   1.569   4.589
 6527SOL    HW120480   0.786   1.617   4.596
 6527SOL    HW220481   0.911   1.582   4.497
 6528SOL     OW20482   6.792   1.043   3.642
 6528SOL    HW120483   6.772   1.099   3.723
 6528SOL    HW220484   6.806   0.948   3.671
 6529SOL     OW20485   6.734   1.424   3.453
 6529SOL    HW120486   6.640   1.434   3.485
 6529SOL    HW220487   6.778   1.349   3.502
 6530SOL     OW20488   6.651   3.339   1.332
 6530SOL    HW120489   6.613   3.286   1.257
 6530SOL    HW220490   6.698   3.420   1.296
 6531SOL     OW20491   5.649   3.830   4.839
 6531SOL    HW120492   5.678   3.770   4.764
 6531SOL    HW220493   5.726   3.887   4.867
 6532SOL     OW20494   6.249   0.825   0.114
 6532SOL    HW120495   6.243   0.837   0.015
 6532SOL    HW220496   6.324   0.764   0.136
 6533SOL     OW20497   4.816   6.229   1.478
 6533SOL    HW120498   4.742   6.262   1.536
 6533SOL    HW220499   4.889   6.190   1.535
 6534SOL     OW20500   2.958   4.447   1.366
 6534SOL    HW120501   2.868   4.407   1.384
 6534SOL    HW220502   3.027   4.375   1.371
 6535SOL     OW20503   0.104   3.529   4.083
 6535SOL    HW120504   0.038   3.480   4.140
 6535SOL    HW220505   0.121   3.620   4.122
 6536SOL     OW20506   0.323   2.670   5.771
 6536SOL    HW120507   0.253   2.645   5.705
 6536SOL    HW220508   0.313   2.767   5.796
 6537SOL     OW20509   5.723   5.274   0.260
 6537SOL    HW120510   5.711   5.178   0.239
 6537SOL    HW220511   5.684   5.293   0.350
 6538SOL     OW20512   3.794   4.577   0.147
 6538SOL    HW120513   3.697   4.584   0.172
 6538SOL    HW220514   3.841   4.662   0.170
 6539SOL     OW20515   3.116   1.166   6.311
 6539SOL    HW120516   3.143   1.128   6.399
 6539SOL    HW220517   3.134   1.099   6.238
 6540SOL     OW20518   4.856   1.801   5.454
 6540SOL    HW120519   4.810   1.723   5.412
 6540SOL    HW220520   4.948   1.776   5.481
 6541SOL     OW20521   3.916   1.788   5.134
 6541SOL    HW120522   3.978   1.787   5.213
 6541SOL    HW220523   3.956   1.842   5.061
 6542SOL     OW20524   6.689   5.172   3.628
 6542SOL    HW120525   6.714   5.196   3.722
 6542SOL    HW220526   6.673   5.255   3.575
 6543SOL     OW20527   6.342   3.826   6.985
 6543SOL    HW120528   6.337   3.782   0.046
 6543SOL    HW220529   6.322   3.924   6.995
 6544SOL     OW20530   0.365   5.963   2.791
 6544SOL    HW120531   0.300   6.026   2.834
 6544SOL    HW220532   0.362   5.976   2.692
 6545SOL     OW20533   5.501   1.980   6.725
 6545SOL    HW120534   5.467   1.935   6.643
 6545SOL    HW220535   5.501   2.079   6.712
 6546SOL     OW20536   4.667   3.942   6.518
 6546SOL    HW120537   4.601   3.951   6.592
 6546SOL    HW220538   4.705   3.849   6.520
 6547SOL     OW20539   4.897   1.709   6.047
 6547SOL    HW120540   4.879   1.701   5.949
 6547SOL    HW220541   4.811   1.706   6.098
 6548SOL     OW20542   1.122   3.415   6.894
 6548SOL    HW120543   1.189   3.490   6.893
 6548SOL    HW220544   1.151   3.345   6.829
 6549SOL     OW20545   4.000   1.369   0.677
 6549SOL    HW120546   3.997   1.426   0.595
 6549SOL    HW220547   4.048   1.418   0.749
 6550SOL     OW20548   0.100   6.585   3.356
 6550SOL    HW120549   0.037   6.662   3.356
 6550SOL    HW220550   0.186   6.613   3.398
 6551SOL     OW20551   1.680   4.121   1.869
 6551SOL    HW120552   1.746   4.186   1.830
 6551SOL    HW220553   1.689   4.032   1.824
 6552SOL     OW20554   2.231   6.818   5.245
 6552SOL    HW120555   2.188   6.763   5.316
 6552SOL    HW220556   2.174   6.816   5.162
 6553SOL     OW20557   0.506   1.653   2.448
 6553SOL    HW120558   0.449   1.585   2.402
 6553SOL    HW220559   0.459   1.689   2.528
 6554SOL     OW20560   6.473   1.576   5.749
 6554SOL    HW120561   6.399   1.643   5.760
 6554SOL    HW220562   6.496   1.536   5.838
 6555SOL     OW20563   1.244   1.941   1.561
 6555SOL    HW120564   1.328   1.960   1.612
 6555SOL    HW220565   1.179   1.894   1.620
 6556SOL     OW20566   4.543   4.848   5.056
 6556SOL    HW120567   4.497   4.897   5.130
 6556SOL    HW220568   4.517   4.888   4.968
 6557SOL     OW20569   4.616   5.413   1.303
 6557SOL    HW120570   4.645   5.502   1.267
 6557SOL    HW220571   4.616   5.346   1.229
 6558SOL     OW20572   6.154   5.838   0.641
 6558SOL    HW120573   6.138   5.868   0.735
 6558SOL    HW220574   6.067   5.818   0.596
 6559SOL     OW20575   6.597   3.954   6.666
 6559SOL    HW120576   6.576   3.961   6.764
 6559SOL    HW220577   6.696   3.960   6.653
 6560SOL     OW20578   3.608   3.254   1.195
 6560SOL    HW120579   3.639   3.347   1.211
 6560SOL    HW220580   3.519   3.256   1.149
 6561SOL     OW20581   3.805   3.688   2.372
 6561SOL    HW120582   3.820   3.589   2.384
 6561SOL    HW220583   3.716   3.713   2.409
 6562SOL     OW20584   5.728   4.451   6.872
 6562SOL    HW120585   5.635   4.428   6.903
 6562SOL    HW220586   5.727   4.462   6.772
 6563SOL     OW20587   0.361   6.224   0.052
 6563SOL    HW120588   0.453   6.259   0.033
 6563SOL    HW220589   0.297   6.301   0.057
 6564SOL     OW20590   6.921   4.323   2.255
 6564SOL    HW120591   6.865   4.386   2.202
 6564SOL    HW220592   6.999   4.372   2.294
 6565SOL     OW20593   5.947   2.467   4.112
 6565SOL    HW120594   5.888   2.544   4.136
 6565SOL    HW220595   6.004   2.492   4.034
 6566SOL     OW20596   3.074   6.927   1.111
 6566SOL    HW120597   3.109   7.001   1.168
 6566SOL    HW220598   3.023   6.862   1.167
 6567SOL     OW20599   4.071   2.333   1.247
 6567SOL    HW120600   3.975   2.309   1.232
 6567SOL    HW220601   4.077   2.429   1.274
 6568SOL     OW20602   4.927   5.742   2.992
 6568SOL    HW120603   4.881   5.718   3.077
 6568SOL    HW220604   4.959   5.837   2.997
 6569SOL     OW20605   3.658   4.025   0.443
 6569SOL    HW120606   3.596   4.091   0.403
 6569SOL    HW220607   3.624   3.996   0.533
 6570SOL     OW20608   4.656   6.783   1.747
 6570SOL    HW120609   4.627   6.877   1.730
 6570SOL    HW220610   4.754   6.781   1.767
 6571SOL     OW20611   3.262   6.380   2.113
 6571SOL    HW120612   3.321   6.336   2.045
 6571SOL    HW220613   3.297   6.362   2.205
 6572SOL     OW20614   6.814   5.393   5.417
 6572SOL    HW120615   6.892   5.353   5.370
 6572SOL    HW220616   6.822   5.379   5.515
 6573SOL     OW20617   2.908   1.077   2.914
 6573SOL    HW120618   2.911   1.176   2.903
 6573SOL    HW220619   3.001   1.042   2.928
 6574SOL     OW20620   3.160   6.092   2.155
 6574SOL    HW120621   3.084   6.155   2.143
 6574SOL    HW220622   3.126   6.005   2.190
 6575SOL     OW20623   1.004   1.767   2.081
 6575SOL    HW120624   1.104   1.776   2.077
 6575SOL    HW220625   0.979   1.670   2.075
 6576SOL     OW20626   1.399   6.840   6.823
 6576SOL    HW120627   1.415   6.760   6.766
 6576SOL    HW220628   1.425   6.922   6.773
 6577SOL     OW20629   0.290   1.904   3.568
 6577SOL    HW120630   0.237   1.823   3.542
 6577SOL    HW220631   0.330   1.891   3.658
 6578SOL     OW20632   0.597   4.368   2.716
 6578SOL    HW120633   0.502   4.387   2.689
 6578SOL    HW220634   0.659   4.409   2.650
 6579SOL     OW20635   0.209   3.895   4.660
 6579SOL    HW120636   0.250   3.932   4.577
 6579SOL    HW220637   0.279   3.887   4.731
 6580SOL     OW20638   0.013   1.322   1.235
 6580SOL    HW120639   0.044   1.260   1.307
 6580SOL    HW220640   7.020   1.411   1.274
 6581SOL     OW20641   3.239   1.072   6.549
 6581SOL    HW120642   3.293   1.019   6.615
 6581SOL    HW220643   3.287   1.157   6.528
 6582SOL     OW20644   1.690   0.661   2.146
 6582SOL    HW120645   1.744   0.629   2.068
 6582SOL    HW220646   1.600   0.617   2.144
 6583SOL     OW20647   4.214   0.287   5.468
 6583SOL    HW120648   4.159   0.315   5.389
 6583SOL    HW220649   4.157   0.288   5.550
 6584SOL     OW20650   5.131   1.718   0.324
 6584SOL    HW120651   5.130   1.707   0.424
 6584SOL    HW220652   5.105   1.811   0.300
 6585SOL     OW20653   6.763   0.945   0.464
 6585SOL    HW120654   6.764   0.916   0.560
 6585SOL    HW220655   6.730   1.039   0.459
 6586SOL     OW20656   6.367   2.434   5.945
 6586SOL    HW120657   6.326   2.344   5.934
 6586SOL    HW220658   6.295   2.502   5.960
 6587SOL     OW20659   2.977   5.670   4.161
 6587SOL    HW120660   3.025   5.646   4.077
 6587SOL    HW220661   2.943   5.764   4.155
 6588SOL     OW20662   1.679   3.836   1.784
 6588SOL    HW120663   1.676   3.840   1.883
 6588SOL    HW220664   1.756   3.779   1.755
 6589SOL     OW20665   4.645   0.360   6.518
 6589SOL    HW120666   4.569   0.424   6.527
 6589SOL    HW220667   4.629   0.280   6.577
 6590SOL     OW20668   0.618   1.356   6.085
 6590SOL    HW120669   0.631   1.410   6.002
 6590SOL    HW220670   0.654   1.406   6.164
 6591SOL     OW20671   4.748   6.372   2.621
 6591SOL    HW120672   4.690   6.354   2.542
 6591SOL    HW220673   4.727   6.307   2.694
 6592SOL     OW20674   6.045   6.590   4.200
 6592SOL    HW120675   6.097   6.657   4.146
 6592SOL    HW220676   5.953   6.581   4.161
 6593SOL     OW20677   2.447   1.959   3.445
 6593SOL    HW120678   2.510   2.027   3.406
 6593SOL    HW220679   2.450   1.963   3.544
 6594SOL     OW20680   4.108   1.757   0.547
 6594SOL    HW120681   4.034   1.698   0.512
 6594SOL    HW220682   4.112   1.749   0.647
 6595SOL     OW20683   0.690   3.391   0.961
 6595SOL    HW120684   0.743   3.332   1.022
 6595SOL    HW220685   0.750   3.434   0.894
 6596SOL     OW20686   3.368   6.794   4.881
 6596SOL    HW120687   3.359   6.697   4.904
 6596SOL    HW220688   3.294   6.845   4.924
 6597SOL     OW20689   1.366   6.094   3.224
 6597SOL    HW120690   1.352   5.996   3.240
 6597SOL    HW220691   1.457   6.108   3.184
 6598SOL     OW20692   0.887   0.239   4.324
 6598SOL    HW120693   0.977   0.283   4.325
 6598SOL    HW220694   0.893   0.150   4.370
 6599SOL     OW20695   3.329   5.646   5.703
 6599SOL    HW120696   3.408   5.706   5.705
 6599SOL    HW220697   3.264   5.678   5.634
 6600SOL     OW20698   4.547   5.119   5.953
 6600SOL    HW120699   4.535   5.121   5.854
 6600SOL    HW220700   4.573   5.209   5.986
 6601SOL     OW20701   0.765   0.904   6.981
 6601SOL    HW120702   0.724   0.813   6.968
 6601SOL    HW220703   0.711   0.955   0.021
 6602SOL     OW20704   6.532   1.335   2.046
 6602SOL    HW120705   6.538   1.431   2.019
 6602SOL    HW220706   6.547   1.327   2.144
 6603SOL     OW20707   0.871   2.619   4.059
 6603SOL    HW120708   0.777   2.602   4.089
 6603SOL    HW220709   0.872   2.639   3.962
 6604SOL     OW20710   2.388   6.522   0.914
 6604SOL    HW120711   2.348   6.433   0.934
 6604SOL    HW220712   2.396   6.575   0.998
 6605SOL     OW20713   5.733   4.352   0.589
 6605SOL    HW120714   5.673   4.299   0.529
 6605SOL    HW220715   5.827   4.321   0.577
 6606SOL     OW20716   5.445   0.160   2.295
 6606SOL    HW120717   5.398   0.248   2.311
 6606SOL    HW220718   5.544   0.174   2.298
 6607SOL     OW20719   1.367   2.285   1.286
 6607SOL    HW120720   1.336   2.191   1.301
 6607SOL    HW220721   1.460   2.296   1.319
 6608SOL     OW20722   5.093   5.571   2.068
 6608SOL    HW120723   5.152   5.491   2.079
 6608SOL    HW220724   5.000   5.541   2.048
 6609SOL     OW20725   4.324   0.761   6.232
 6609SOL    HW120726   4.302   0.773   6.329
 6609SOL    HW220727   4.423   0.768   6.218
 6610SOL     OW20728   2.299   1.103   6.302
 6610SOL    HW120729   2.334   1.027   6.248
 6610SOL    HW220730   2.359   1.118   6.381
 6611SOL     OW20731   6.319   2.723   3.232
 6611SOL    HW120732   6.285   2.811   3.198
 6611SOL    HW220733   6.419   2.727   3.240
 6612SOL     OW20734   0.362   2.613   6.805
 6612SOL    HW120735   0.331   2.702   6.770
 6612SOL    HW220736   0.393   2.557   6.728
 6613SOL     OW20737   5.482   5.766   4.308
 6613SOL    HW120738   5.575   5.804   4.309
 6613SOL    HW220739   5.473   5.701   4.232
 6614SOL     OW20740   4.919   6.077   6.798
 6614SOL    HW120741   4.961   6.049   6.885
 6614SOL    HW220742   4.974   6.043   6.722
 6615SOL     OW20743   1.258   4.616   3.752
 6615SOL    HW120744   1.173   4.568   3.774
 6615SOL    HW220745   1.283   4.677   3.827
 6616SOL     OW20746   4.061   1.071   6.378
 6616SOL    HW120747   4.091   1.135   6.307
 6616SOL    HW220748   4.048   0.980   6.337
 6617SOL     OW20749   3.105   5.992   3.165
 6617SOL    HW120750   3.042   6.002   3.242
 6617SOL    HW220751   3.106   6.077   3.112
 6618SOL     OW20752   1.151   3.111   3.161
 6618SOL    HW120753   1.170   3.205   3.188
 6618SOL    HW220754   1.178   3.049   3.234
 6619SOL     OW20755   0.024   6.707   4.365
 6619SOL    HW120756   6.964   6.682   4.322
 6619SOL    HW220757   0.018   6.693   4.463
 6620SOL     OW20758   2.365   2.785   5.247
 6620SOL    HW120759   2.389   2.879   5.225
 6620SOL    HW220760   2.352   2.733   5.163
 6621SOL     OW20761   2.340   3.165   6.903
 6621SOL    HW120762   2.433   3.187   6.875
 6621SOL    HW220763   2.320   3.069   6.882
 6622SOL     OW20764   5.834   6.119   1.456
 6622SOL    HW120765   5.785   6.079   1.533
 6622SOL    HW220766   5.882   6.201   1.486
 6623SOL     OW20767   2.715   3.535   0.977
 6623SOL    HW120768   2.788   3.595   1.008
 6623SOL    HW220769   2.627   3.569   1.011
 6624SOL     OW20770   1.706   0.575   4.241
 6624SOL    HW120771   1.619   0.526   4.246
 6624SOL    HW220772   1.700   0.646   4.171
 6625SOL     OW20773   5.175   1.792   6.104
 6625SOL    HW120774   5.217   1.859   6.043
 6625SOL    HW220775   5.075   1.802   6.102
 6626SOL     OW20776   4.021   4.937   4.978
 6626SOL    HW120777   4.028   5.022   5.030
 6626SOL    HW220778   3.964   4.952   4.897
 6627SOL     OW20779   2.351   0.971   5.968
 6627SOL    HW120780   2.384   0.894   6.023
 6627SOL    HW220781   2.273   0.942   5.913
 6628SOL     OW20782   4.497   5.047   4.194
 6628SOL    HW120783   4.564   5.100   4.247
 6628SOL    HW220784   4.509   4.950   4.212
 6629SOL     OW20785   2.588   5.391   6.789
 6629SOL    HW120786   2.613   5.485   6.764
 6629SOL    HW220787   2.661   5.329   6.761
 6630SOL     OW20788   3.279   1.525   1.615
 6630SOL    HW120789   3.225   1.523   1.699
 6630SOL    HW220790   3.223   1.561   1.540
 6631SOL     OW20791   4.123   0.349   2.289
 6631SOL    HW120792   4.026   0.368   2.307
 6631SOL    HW220793   4.140   0.349   2.191
 6632SOL     OW20794   0.425   0.348   1.932
 6632SOL    HW120795   0.444   0.258   1.972
 6632SOL    HW220796   0.501   0.376   1.873
 6633SOL     OW20797   1.093   4.543   5.650
 6633SOL    HW120798   1.186   4.540   5.614
 6633SOL    HW220799   1.044   4.621   5.610
 6634SOL     OW20800   5.942   2.784   5.135
 6634SOL    HW120801   6.041   2.787   5.143
 6634SOL    HW220802   5.914   2.812   5.043
 6635SOL     OW20803   3.976   5.319   3.628
 6635SOL    HW120804   3.951   5.415   3.621
 6635SOL    HW220805   4.073   5.308   3.603
 6636SOL     OW20806   3.273   2.018   5.996
 6636SOL    HW120807   3.235   1.930   5.968
 6636SOL    HW220808   3.211   2.061   6.062
 6637SOL     OW20809   1.798   0.141   6.209
 6637SOL    HW120810   1.757   0.070   6.266
 6637SOL    HW220811   1.791   0.229   6.256
 6638SOL     OW20812   3.923   4.450   5.275
 6638SOL    HW120813   3.858   4.524   5.293
 6638SOL    HW220814   4.015   4.488   5.270
 6639SOL     OW20815   5.495   5.613   0.124
 6639SOL    HW120816   5.431   5.685   0.100
 6639SOL    HW220817   5.470   5.528   0.078
 6640SOL     OW20818   0.066   2.069   5.056
 6640SOL    HW120819   0.157   2.078   5.016
 6640SOL    HW220820   0.007   2.019   4.992
 6641SOL     OW20821   2.297   2.508   6.928
 6641SOL    HW120822   2.211   2.509   6.979
 6641SOL    HW220823   2.279   2.530   6.832
 6642SOL     OW20824   2.533   5.635   0.328
 6642SOL    HW120825   2.565   5.729   0.318
 6642SOL    HW220826   2.585   5.588   0.400
 6643SOL     OW20827   6.574   4.663   6.674
 6643SOL    HW120828   6.614   4.625   6.590
 6643SOL    HW220829   6.475   4.666   6.665
 6644SOL     OW20830   2.830   4.755   1.752
 6644SOL    HW120831   2.861   4.713   1.667
 6644SOL    HW220832   2.855   4.696   1.829
 6645SOL     OW20833   0.116   4.970   0.127
 6645SOL    HW120834   0.132   4.899   0.058
 6645SOL    HW220835   0.064   5.045   0.086
 6646SOL     OW20836   3.433   6.950   4.472
 6646SOL    HW120837   3.516   7.003   4.461
 6646SOL    HW220838   3.451   6.855   4.446
 6647SOL     OW20839   3.885   1.030   2.137
 6647SOL    HW120840   3.858   1.077   2.053
 6647SOL    HW220841   3.903   1.099   2.208
 6648SOL     OW20842   3.621   5.573   2.215
 6648SOL    HW120843   3.648   5.586   2.120
 6648SOL    HW220844   3.533   5.618   2.232
 6649SOL     OW20845   4.871   1.512   0.199
 6649SOL    HW120846   4.894   1.562   0.283
 6649SOL    HW220847   4.839   1.420   0.222
 6650SOL     OW20848   4.036   1.052   5.257
 6650SOL    HW120849   4.072   1.007   5.175
 6650SOL    HW220850   4.108   1.063   5.325
 6651SOL     OW20851   2.125   1.789   6.872
 6651SOL    HW120852   2.188   1.742   6.934
 6651SOL    HW220853   2.135   1.888   6.882
 6652SOL     OW20854   6.579   5.115   0.401
 6652SOL    HW120855   6.579   5.140   0.304
 6652SOL    HW220856   6.588   5.198   0.456
 6653SOL     OW20857   3.694   3.180   2.302
 6653SOL    HW120858   3.659   3.147   2.214
 6653SOL    HW220859   3.697   3.280   2.301
 6654SOL     OW20860   1.803   3.273   1.023
 6654SOL    HW120861   1.810   3.176   0.998
 6654SOL    HW220862   1.712   3.306   1.001
 6655SOL     OW20863   3.327   6.819   1.367
 6655SOL    HW120864   3.396   6.762   1.322
 6655SOL    HW220865   3.242   6.817   1.314
 6656SOL     OW20866   6.238   1.996   2.341
 6656SOL    HW120867   6.270   2.082   2.301
 6656SOL    HW220868   6.152   2.012   2.389
 6657SOL     OW20869   5.099   6.011   6.569
 6657SOL    HW120870   5.198   6.012   6.556
 6657SOL    HW220871   5.054   6.055   6.492
 6658SOL     OW20872   5.730   1.593   4.806
 6658SOL    HW120873   5.663   1.528   4.771
 6658SOL    HW220874   5.820   1.570   4.772
 6659SOL     OW20875   2.325   2.387   0.865
 6659SOL    HW120876   2.231   2.419   0.859
 6659SOL    HW220877   2.331   2.293   0.831
 6660SOL     OW20878   0.615   6.024   0.988
 6660SOL    HW120879   0.648   6.007   0.895
 6660SOL    HW220880   0.515   6.030   0.987
 6661SOL     OW20881   0.371   5.949   3.754
 6661SOL    HW120882   0.443   5.880   3.754
 6661SOL    HW220883   0.301   5.923   3.688
 6662SOL     OW20884   1.476   0.589   6.909
 6662SOL    HW120885   1.503   0.496   6.885
 6662SOL    HW220886   1.544   0.654   6.877
 6663SOL     OW20887   6.922   5.090   2.623
 6663SOL    HW120888   6.861   5.158   2.663
 6663SOL    HW220889   6.891   4.998   2.647
 6664SOL     OW20890   1.653   6.874   0.713
 6664SOL    HW120891   1.665   6.973   0.706
 6664SOL    HW220892   1.572   6.855   0.769
 6665SOL     OW20893   1.988   0.373   3.543
 6665SOL    HW120894   1.994   0.300   3.475
 6665SOL    HW220895   2.075   0.381   3.591
 6666SOL     OW20896   5.586   0.825   6.365
 6666SOL    HW120897   5.597   0.858   6.459
 6666SOL    HW220898   5.604   0.899   6.301
 6667SOL     OW20899   0.190   4.894   5.442
 6667SOL    HW120900   0.111   4.834   5.456
 6667SOL    HW220901   0.158   4.983   5.407
 6668SOL     OW20902   6.018   5.986   1.788
 6668SOL    HW120903   5.934   5.987   1.843
 6668SOL    HW220904   6.007   5.923   1.712
 6669SOL     OW20905   2.179   2.811   3.764
 6669SOL    HW120906   2.093   2.793   3.812
 6669SOL    HW220907   2.217   2.897   3.795
 6670SOL     OW20908   3.685   2.579   5.730
 6670SOL    HW120909   3.610   2.533   5.779
 6670SOL    HW220910   3.664   2.583   5.633
 6671SOL     OW20911   4.700   5.675   1.242
 6671SOL    HW120912   4.784   5.627   1.215
 6671SOL    HW220913   4.677   5.742   1.172
 6672SOL     OW20914   0.915   1.907   5.329
 6672SOL    HW120915   0.966   1.911   5.243
 6672SOL    HW220916   0.884   1.814   5.346
 6673SOL     OW20917   5.378   6.460   3.145
 6673SOL    HW120918   5.445   6.426   3.211
 6673SOL    HW220919   5.318   6.385   3.117
 6674SOL     OW20920   0.875   5.058   6.369
 6674SOL    HW120921   0.917   5.049   6.460
 6674SOL    HW220922   0.818   5.140   6.367
 6675SOL     OW20923   4.230   4.087   1.727
 6675SOL    HW120924   4.177   4.167   1.697
 6675SOL    HW220925   4.315   4.118   1.771
 6676SOL     OW20926   0.480   4.381   5.354
 6676SOL    HW120927   0.392   4.415   5.386
 6676SOL    HW220928   0.522   4.448   5.292
 6677SOL     OW20929   0.801   2.042   6.899
 6677SOL    HW120930   0.880   1.991   6.934
 6677SOL    HW220931   0.767   2.103   6.970
 6678SOL     OW20932   2.359   2.431   0.542
 6678SOL    HW120933   2.426   2.358   0.545
 6678SOL    HW220934   2.392   2.510   0.593
 6679SOL     OW20935   2.705   1.554   4.257
 6679SOL    HW120936   2.695   1.648   4.291
 6679SOL    HW220937   2.617   1.507   4.265
 6680SOL     OW20938   4.316   6.477   6.455
 6680SOL    HW120939   4.263   6.399   6.420
 6680SOL    HW220940   4.256   6.557   6.461
 6681SOL     OW20941   4.828   4.945   0.316
 6681SOL    HW120942   4.821   5.044   0.316
 6681SOL    HW220943   4.861   4.913   0.405
 6682SOL     OW20944   1.415   4.422   2.301
 6682SOL    HW120945   1.464   4.364   2.235
 6682SOL    HW220946   1.443   4.398   2.394
 6683SOL     OW20947   4.754   2.594   5.737
 6683SOL    HW120948   4.756   2.694   5.730
 6683SOL    HW220949   4.699   2.556   5.663
 6684SOL     OW20950   2.007   6.817   0.783
 6684SOL    HW120951   1.934   6.749   0.774
 6684SOL    HW220952   2.010   6.874   0.701
 6685SOL     OW20953   5.576   3.180   5.041
 6685SOL    HW120954   5.668   3.141   5.038
 6685SOL    HW220955   5.535   3.163   5.131
 6686SOL     OW20956   5.078   5.906   3.777
 6686SOL    HW120957   5.108   5.813   3.758
 6686SOL    HW220958   5.039   5.911   3.869
 6687SOL     OW20959   0.115   2.206   1.020
 6687SOL    HW120960   0.151   2.113   1.031
 6687SOL    HW220961   0.076   2.215   0.928
 6688SOL     OW20962   6.718   4.180   1.907
 6688SOL    HW120963   6.693   4.108   1.972
 6688SOL    HW220964   6.816   4.177   1.891
 6689SOL     OW20965   4.215   3.093   0.373
 6689SOL    HW120966   4.184   2.998   0.378
 6689SOL    HW220967   4.138   3.152   0.349
 6690SOL     OW20968   2.066   1.025   2.113
 6690SOL    HW120969   2.138   0.957   2.101
 6690SOL    HW220970   1.977   0.980   2.121
 6691SOL     OW20971   3.143   5.977   1.892
 6691SOL    HW120972   3.195   6.048   1.938
 6691SOL    HW220973   3.048   5.980   1.923
 6692SOL     OW20974   2.833   4.599   5.420
 6692SOL    HW120975   2.856   4.579   5.325
 6692SOL    HW220976   2.916   4.624   5.469
 6693SOL     OW20977   4.198   3.552   6.024
 6693SOL    HW120978   4.132   3.581   6.093
 6693SOL    HW220979   4.289   3.548   6.065
 6694SOL     OW20980   4.896   6.331   0.154
 6694SOL    HW120981   4.866   6.392   0.226
 6694SOL    HW220982   4.956   6.380   0.091
 6695SOL     OW20983   2.170   2.185   5.699
 6695SOL    HW120984   2.145   2.281   5.687
 6695SOL    HW220985   2.106   2.141   5.762
 6696SOL     OW20986   1.898   2.095   0.226
 6696SOL    HW120987   1.854   2.163   0.286
 6696SOL    HW220988   1.996   2.093   0.244
 6697SOL     OW20989   5.015   2.689   3.280
 6697SOL    HW120990   5.111   2.680   3.308
 6697SOL    HW220991   4.956   2.688   3.361
 6698SOL     OW20992   3.205   3.105   0.449
 6698SOL    HW120993   3.134   3.142   0.389
 6698SOL    HW220994   3.207   3.006   0.441
 6699SOL     OW20995   3.167   4.920   6.591
 6699SOL    HW120996   3.253   4.928   6.539
 6699SOL    HW220997   3.170   4.983   6.668
 6700SOL     OW20998   0.254   6.243   1.116
 6700SOL    HW120999   0.261   6.293   1.202
 6700SOL    HW221000   0.214   6.302   1.046
 6701SOL     OW21001   5.259   3.025   1.247
 6701SOL    HW121002   5.241   2.999   1.342
 6701SOL    HW221003   5.357   3.047   1.237
 6702SOL     OW21004   2.592   2.881   0.462
 6702SOL    HW121005   2.657   2.809   0.486
 6702SOL    HW221006   2.627   2.932   0.384
 6703SOL     OW21007   6.347   1.653   6.858
 6703SOL    HW121008   6.273   1.585   6.854
 6703SOL    HW221009   6.428   1.616   6.811
 6704SOL     OW21010   4.144   2.279   2.577
 6704SOL    HW121011   4.113   2.302   2.668
 6704SOL    HW221012   4.243   2.295   2.570
 6705SOL     OW21013   0.081   2.217   1.813
 6705SOL    HW121014   0.061   2.259   1.902
 6705SOL    HW221015   0.164   2.162   1.820
 6706SOL     OW21016   1.123   3.820   0.775
 6706SOL    HW121017   1.119   3.901   0.834
 6706SOL    HW221018   1.211   3.818   0.727
 6707SOL     OW21019   7.019   5.370   4.833
 6707SOL    HW121020   6.951   5.297   4.821
 6707SOL    HW221021   6.996   5.425   4.913
 6708SOL     OW21022   1.670   5.302   2.417
 6708SOL    HW121023   1.618   5.356   2.351
 6708SOL    HW221024   1.672   5.206   2.389
 6709SOL     OW21025   3.064   5.513   2.027
 6709SOL    HW121026   3.139   5.580   2.030
 6709SOL    HW221027   3.101   5.421   2.037
 6710SOL     OW21028   2.839   1.811   6.015
 6710SOL    HW121029   2.882   1.867   5.945
 6710SOL    HW221030   2.842   1.859   6.103
 6711SOL     OW21031   5.483   4.510   6.689
 6711SOL    HW121032   5.453   4.425   6.732
 6711SOL    HW221033   5.478   4.584   6.755
 6712SOL     OW21034   4.511   5.251   0.365
 6712SOL    HW121035   4.467   5.291   0.284
 6712SOL    HW221036   4.594   5.203   0.337
 6713SOL     OW21037   1.742   2.036   1.358
 6713SOL    HW121038   1.837   2.067   1.355
 6713SOL    HW221039   1.714   2.006   1.266
 6714SOL     OW21040   5.220   0.574   6.175
 6714SOL    HW121041   5.230   0.620   6.087
 6714SOL    HW221042   5.245   0.638   6.248
 6715SOL     OW21043   0.003   0.362   6.845
 6715SOL    HW121044   0.075   0.325   6.786
 6715SOL    HW221045   0.040   0.437   6.900
 6716SOL     OW21046   1.036   5.613   2.111
 6716SOL    HW121047   0.949   5.661   2.103
 6716SOL    HW221048   1.045   5.547   2.036
 6717SOL     OW21049   4.165   3.007   0.785
 6717SOL    HW121050   4.084   2.949   0.779
 6717SOL    HW221051   4.222   2.978   0.861
 6718SOL     OW21052   3.793   6.421   6.418
 6718SOL    HW121053   3.721   6.446   6.353
 6718SOL    HW221054   3.847   6.346   6.380
 6719SOL     OW21055   0.345   0.305   6.054
 6719SOL    HW121056   0.359   0.246   6.133
 6719SOL    HW221057   0.404   0.276   5.979
 6720SOL     OW21058   1.476   6.621   2.099
 6720SOL    HW121059   1.394   6.570   2.125
 6720SOL    HW221060   1.556   6.578   2.141
 6721SOL     OW21061   5.656   6.542   4.735
 6721SOL    HW121062   5.668   6.641   4.742
 6721SOL    HW221063   5.718   6.496   4.798
 6722SOL     OW21064   5.540   3.058   1.210
 6722SOL    HW121065   5.585   3.029   1.295
 6722SOL    HW221066   5.606   3.107   1.153
 6723SOL     OW21067   2.151   6.806   3.385
 6723SOL    HW121068   2.131   6.709   3.397
 6723SOL    HW221069   2.083   6.846   3.324
 6724SOL     OW21070   1.229   3.639   5.898
 6724SOL    HW121071   1.293   3.612   5.826
 6724SOL    HW221072   1.217   3.739   5.896
 6725SOL     OW21073   0.720   4.183   1.943
 6725SOL    HW121074   0.730   4.204   1.845
 6725SOL    HW221075   0.628   4.147   1.960
 6726SOL     OW21076   0.530   1.871   4.381
 6726SOL    HW121077   0.481   1.831   4.304
 6726SOL    HW221078   0.468   1.930   4.433
 6727SOL     OW21079   6.405   3.937   5.831
 6727SOL    HW121080   6.436   3.997   5.757
 6727SOL    HW221081   6.453   3.960   5.915
 6728SOL     OW21082   4.640   1.509   4.492
 6728SOL    HW121083   4.610   1.506   4.397
 6728SOL    HW221084   4.679   1.420   4.517
 6729SOL     OW21085   6.571   1.409   2.323
 6729SOL    HW121086   6.472   1.401   2.326
 6729SOL    HW221087   6.598   1.462   2.242
 6730SOL     OW21088   2.118   6.134   6.543
 6730SOL    HW121089   2.041   6.140   6.607
 6730SOL    HW221090   2.166   6.048   6.558
 6731SOL     OW21091   1.894   4.535   1.382
 6731SOL    HW121092   1.852   4.559   1.295
 6731SOL    HW221093   1.913   4.619   1.434
 6732SOL     OW21094   4.162   5.352   6.170
 6732SOL    HW121095   4.210   5.292   6.105
 6732SOL    HW221096   4.179   5.320   6.263
 6733SOL     OW21097   4.339   5.063   6.724
 6733SOL    HW121098   4.345   4.977   6.673
 6733SOL    HW221099   4.245   5.097   6.721
 6734SOL     OW21100   0.593   3.239   5.624
 6734SOL    HW121101   0.593   3.165   5.557
 6734SOL    HW221102   0.530   3.312   5.594
 6735SOL     OW21103   0.551   5.583   4.817
 6735SOL    HW121104   0.566   5.488   4.844
 6735SOL    HW221105   0.514   5.585   4.724
 6736SOL     OW21106   1.968   3.471   0.542
 6736SOL    HW121107   1.977   3.378   0.578
 6736SOL    HW221108   2.058   3.515   0.539
 6737SOL     OW21109   2.074   2.562   0.910
 6737SOL    HW121110   2.107   2.635   0.970
 6737SOL    HW221111   2.040   2.601   0.825
 6738SOL     OW21112   1.933   2.986   1.878
 6738SOL    HW121113   2.028   2.954   1.874
 6738SOL    HW221114   1.918   3.053   1.806
 6739SOL     OW21115   2.928   5.090   5.761
 6739SOL    HW121116   3.002   5.047   5.813
 6739SOL    HW221117   2.940   5.070   5.664
 6740SOL     OW21118   1.993   1.436   4.726
 6740SOL    HW121119   2.047   1.371   4.780
 6740SOL    HW221120   2.053   1.485   4.663
 6741SOL     OW21121   4.057   1.516   6.204
 6741SOL    HW121122   4.061   1.530   6.303
 6741SOL    HW221123   4.006   1.591   6.162
 6742SOL     OW21124   0.255   5.745   2.883
 6742SOL    HW121125   0.334   5.685   2.894
 6742SOL    HW221126   0.285   5.833   2.845
 6743SOL     OW21127   4.250   4.418   6.767
 6743SOL    HW121128   4.226   4.364   6.686
 6743SOL    HW221129   4.330   4.378   6.811
 6744SOL     OW21130   4.534   5.502   5.895
 6744SOL    HW121131   4.597   5.448   5.950
 6744SOL    HW221132   4.528   5.595   5.933
 6745SOL     OW21133   1.264   6.236   2.465
 6745SOL    HW121134   1.307   6.281   2.543
 6745SOL    HW221135   1.176   6.199   2.492
 6746SOL     OW21136   0.398   1.012   2.963
 6746SOL    HW121137   0.308   1.033   2.923
 6746SOL    HW221138   0.457   0.972   2.892
 6747SOL     OW21139   5.360   6.317   4.549
 6747SOL    HW121140   5.433   6.249   4.546
 6747SOL    HW221141   5.320   6.328   4.458
 6748SOL     OW21142   1.426   0.531   2.772
 6748SOL    HW121143   1.421   0.433   2.790
 6748SOL    HW221144   1.476   0.547   2.687
 6749SOL     OW21145   3.115   6.525   6.484
 6749SOL    HW121146   3.143   6.557   6.574
 6749SOL    HW221147   3.015   6.524   6.479
 6750SOL     OW21148   4.080   1.672   4.661
 6750SOL    HW121149   4.134   1.600   4.704
 6750SOL    HW221150   4.132   1.713   4.587
 6751SOL     OW21151   3.540   1.891   4.006
 6751SOL    HW121152   3.592   1.975   4.022
 6751SOL    HW221153   3.590   1.832   3.943
 6752SOL     OW21154   6.261   2.938   2.331
 6752SOL    HW121155   6.350   2.971   2.298
 6752SOL    HW221156   6.271   2.902   2.424
 6753SOL     OW21157   4.521   1.601   6.815
 6753SOL    HW121158   4.607   1.651   6.809
 6753SOL    HW221159   4.464   1.622   6.736
 6754SOL     OW21160   6.428   2.189   5.267
 6754SOL    HW121161   6.374   2.199   5.183
 6754SOL    HW221162   6.381   2.233   5.343
 6755SOL     OW21163   5.256   1.691   3.977
 6755SOL    HW121164   5.179   1.711   3.916
 6755SOL    HW221165   5.243   1.739   4.063
 6756SOL     OW21166   4.534   4.489   4.272
 6756SOL    HW121167   4.559   4.452   4.362
 6756SOL    HW221168   4.581   4.576   4.257
 6757SOL     OW21169   4.759   6.179   0.731
 6757SOL    HW121170   4.674   6.211   0.772
 6757SOL    HW221171   4.835   6.234   0.765
 6758SOL     OW21172   5.396   3.936   2.143
 6758SOL    HW121173   5.388   3.838   2.164
 6758SOL    HW221174   5.324   3.961   2.078
 6759SOL     OW21175   0.903   3.724   4.419
 6759SOL    HW121176   0.940   3.671   4.342
 6759SOL    HW221177   0.825   3.778   4.388
 6760SOL     OW21178   6.380   5.160   4.550
 6760SOL    HW121179   6.332   5.242   4.519
 6760SOL    HW221180   6.321   5.109   4.614
 6761SOL     OW21181   5.605   2.423   6.056
 6761SOL    HW121182   5.667   2.349   6.028
 6761SOL    HW221183   5.576   2.474   5.975
 6762SOL     OW21184   6.789   5.472   2.979
 6762SOL    HW121185   6.871   5.528   2.994
 6762SOL    HW221186   6.719   5.499   3.046
 6763SOL     OW21187   6.531   6.048   4.061
 6763SOL    HW121188   6.605   5.981   4.056
 6763SOL    HW221189   6.559   6.124   4.120
 6764SOL     OW21190   2.927   4.088   6.639
 6764SOL    HW121191   2.846   4.040   6.671
 6764SOL    HW221192   3.007   4.057   6.690
 6765SOL     OW21193   6.006   4.896   3.686
 6765SOL    HW121194   6.084   4.882   3.748
 6765SOL    HW221195   6.004   4.991   3.655
 6766SOL     OW21196   2.688   0.040   6.290
 6766SOL    HW121197   2.661   7.011   6.212
 6766SOL    HW221198   2.612   0.100   6.316
 6767SOL     OW21199   0.452   2.965   0.746
 6767SOL    HW121200   0.547   2.997   0.739
 6767SOL    HW221201   0.442   2.881   0.694
 6768SOL     OW21202   0.889   0.489   3.509
 6768SOL    HW121203   0.846   0.518   3.595
 6768SOL    HW221204   0.819   0.478   3.439
 6769SOL     OW21205   3.209   1.655   5.245
 6769SOL    HW121206   3.188   1.652   5.147
 6769SOL    HW221207   3.194   1.748   5.279
 6770SOL     OW21208   0.069   2.372   4.561
 6770SOL    HW121209   0.010   2.422   4.498
 6770SOL    HW221210   0.015   2.310   4.616
 6771SOL     OW21211   3.529   2.118   3.717
 6771SOL    HW121212   3.559   2.028   3.687
 6771SOL    HW221213   3.471   2.160   3.647
 6772SOL     OW21214   5.423   2.105   2.522
 6772SOL    HW121215   5.368   2.183   2.551
 6772SOL    HW221216   5.500   2.092   2.585
 6773SOL     OW21217   6.662   6.743   1.392
 6773SOL    HW121218   6.607   6.812   1.439
 6773SOL    HW221219   6.740   6.787   1.347
 6774SOL     OW21220   1.999   1.632   5.506
 6774SOL    HW121221   2.044   1.641   5.417
 6774SOL    HW221222   2.045   1.562   5.559
 6775SOL     OW21223   1.321   1.849   3.635
 6775SOL    HW121224   1.336   1.752   3.652
 6775SOL    HW221225   1.322   1.866   3.536
 6776SOL     OW21226   3.701   3.907   1.487
 6776SOL    HW121227   3.776   3.929   1.549
 6776SOL    HW221228   3.696   3.807   1.475
 6777SOL     OW21229   4.298   5.270   1.333
 6777SOL    HW121230   4.296   5.282   1.234
 6777SOL    HW221231   4.390   5.290   1.367
 6778SOL     OW21232   5.370   3.648   2.367
 6778SOL    HW121233   5.285   3.697   2.387
 6778SOL    HW221234   5.351   3.549   2.362
 6779SOL     OW21235   6.156   4.503   6.151
 6779SOL    HW121236   6.163   4.404   6.144
 6779SOL    HW221237   6.068   4.528   6.191
 6780SOL     OW21238   2.329   2.809   2.770
 6780SOL    HW121239   2.312   2.887   2.709
 6780SOL    HW221240   2.285   2.826   2.858
 6781SOL     OW21241   6.510   0.945   4.036
 6781SOL    HW121242   6.582   0.895   4.084
 6781SOL    HW221243   6.426   0.944   4.090
 6782SOL     OW21244   0.006   1.253   3.582
 6782SOL    HW121245   0.026   1.205   3.667
 6782SOL    HW221246   0.016   1.190   3.505
 6783SOL     OW21247   1.367   4.466   5.065
 6783SOL    HW121248   1.279   4.421   5.051
 6783SOL    HW221249   1.426   4.450   4.986
 6784SOL     OW21250   2.261   3.208   1.793
 6784SOL    HW121251   2.204   3.179   1.869
 6784SOL    HW221252   2.288   3.304   1.806
 6785SOL     OW21253   5.716   4.525   4.833
 6785SOL    HW121254   5.684   4.503   4.741
 6785SOL    HW221255   5.646   4.500   4.900
 6786SOL     OW21256   6.464   3.160   0.626
 6786SOL    HW121257   6.452   3.172   0.725
 6786SOL    HW221258   6.473   3.062   0.605
 6787SOL     OW21259   3.688   2.609   0.670
 6787SOL    HW121260   3.710   2.682   0.606
 6787SOL    HW221261   3.594   2.619   0.703
 6788SOL     OW21262   0.924   3.863   2.847
 6788SOL    HW121263   0.826   3.852   2.830
 6788SOL    HW221264   0.968   3.901   2.766
 6789SOL     OW21265   6.539   4.426   4.309
 6789SOL    HW121266   6.482   4.504   4.284
 6789SOL    HW221267   6.492   4.371   4.378
 6790SOL     OW21268   0.833   4.826   5.967
 6790SOL    HW121269   0.924   4.802   5.935
 6790SOL    HW221270   0.809   4.771   6.046
 6791SOL     OW21271   4.462   1.576   3.759
 6791SOL    HW121272   4.420   1.637   3.826
 6791SOL    HW221273   4.552   1.547   3.793
 6792SOL     OW21274   4.131   6.924   5.049
 6792SOL    HW121275   4.041   6.927   5.091
 6792SOL    HW221276   4.121   6.900   4.952
 6793SOL     OW21277   2.887   2.678   0.001
 6793SOL    HW121278   2.896   2.726   0.088
 6793SOL    HW221279   2.792   2.648   7.016
 6794SOL     OW21280   4.460   1.396   5.890
 6794SOL    HW121281   4.512   1.455   5.828
 6794SOL    HW221282   4.451   1.442   5.979
 6795SOL     OW21283   1.438   0.663   1.356
 6795SOL    HW121284   1.447   0.565   1.335
 6795SOL    HW221285   1.342   0.687   1.362
 6796SOL     OW21286   6.432   0.766   2.060
 6796SOL    HW121287   6.392   0.852   2.027
 6796SOL    HW221288   6.359   0.698   2.069
 6797SOL     OW21289   6.742   2.486   1.946
 6797SOL    HW121290   6.839   2.467   1.930
 6797SOL    HW221291   6.733   2.551   2.022
 6798SOL     OW21292   5.126   0.392   1.455
 6798SOL    HW121293   5.223   0.415   1.451
 6798SOL    HW221294   5.103   0.357   1.545
 6799SOL     OW21295   5.651   6.861   3.638
 6799SOL    HW121296   5.720   6.925   3.605
 6799SOL    HW221297   5.560   6.901   3.628
 6800SOL     OW21298   1.017   0.923   1.240
 6800SOL    HW121299   1.048   1.017   1.232
 6800SOL    HW221300   0.979   0.908   1.331
 6801SOL     OW21301   1.337   6.517   4.629
 6801SOL    HW121302   1.294   6.490   4.543
 6801SOL    HW221303   1.270   6.558   4.690
 6802SOL     OW21304   3.024   6.198   1.380
 6802SOL    HW121305   3.091   6.159   1.443
 6802SOL    HW221306   3.052   6.180   1.286
 6803SOL     OW21307   4.926   4.467   0.235
 6803SOL    HW121308   4.891   4.387   0.188
 6803SOL    HW221309   5.025   4.470   0.227
 6804SOL     OW21310   2.593   4.937   2.789
 6804SOL    HW121311   2.557   4.846   2.806
 6804SOL    HW221312   2.583   4.959   2.691
 6805SOL     OW21313   0.103   5.015   5.817
 6805SOL    HW121314   0.063   5.104   5.841
 6805SOL    HW221315   0.202   5.020   5.823
 6806SOL     OW21316   6.898   0.648   3.955
 6806SOL    HW121317   6.948   0.567   3.924
 6806SOL    HW221318   6.805   0.622   3.982
 6807SOL     OW21319   3.551   4.140   3.953
 6807SOL    HW121320   3.595   4.127   4.041
 6807SOL    HW221321   3.466   4.192   3.965
 6808SOL     OW21322   4.660   1.104   5.418
 6808SOL    HW121323   4.570   1.112   5.376
 6808SOL    HW221324   4.701   1.195   5.427
 6809SOL     OW21325   5.693   4.793   2.002
 6809SOL    HW121326   5.698   4.748   2.092
 6809SOL    HW221327   5.643   4.735   1.938
 6810SOL     OW21328   3.368   1.242   3.499
 6810SOL    HW121329   3.421   1.162   3.472
 6810SOL    HW221330   3.283   1.244   3.447
 6811SOL     OW21331   6.370   1.758   2.351
 6811SOL    HW121332   6.328   1.718   2.432
 6811SOL    HW221333   6.320   1.840   2.324
 6812SOL     OW21334   3.444   3.674   5.436
 6812SOL    HW121335   3.484   3.614   5.367
 6812SOL    HW221336   3.345   3.680   5.421
 6813SOL     OW21337   4.975   3.331   1.241
 6813SOL    HW121338   4.905   3.276   1.195
 6813SOL    HW221339   5.019   3.391   1.174
 6814SOL     OW21340   4.069   1.511   6.467
 6814SOL    HW121341   4.001   1.440   6.486
 6814SOL    HW221342   4.152   1.492   6.519
 6815SOL     OW21343   1.866   5.038   6.592
 6815SOL    HW121344   1.854   5.133   6.622
 6815SOL    HW221345   1.902   5.036   6.499
 6816SOL     OW21346   6.737   1.656   4.572
 6816SOL    HW121347   6.714   1.733   4.513
 6816SOL    HW221348   6.681   1.577   4.548
 6817SOL     OW21349   2.768   2.377   2.906
 6817SOL    HW121350   2.714   2.449   2.951
 6817SOL    HW221351   2.849   2.357   2.961
 6818SOL     OW21352   2.067   6.111   5.833
 6818SOL    HW121353   2.063   6.177   5.908
 6818SOL    HW221354   1.989   6.125   5.772
 6819SOL     OW21355   5.060   5.156   2.913
 6819SOL    HW121356   4.996   5.204   2.852
 6819SOL    HW221357   5.152   5.159   2.874
 6820SOL     OW21358   1.815   6.761   1.406
 6820SOL    HW121359   1.835   6.688   1.341
 6820SOL    HW221360   1.867   6.843   1.381
 6821SOL     OW21361   4.331   2.381   5.448
 6821SOL    HW121362   4.419   2.333   5.456
 6821SOL    HW221363   4.347   2.475   5.420
 6822SOL     OW21364   6.869   3.180   6.012
 6822SOL    HW121365   6.833   3.215   5.926
 6822SOL    HW221366   6.949   3.234   6.039
 6823SOL     OW21367   5.497   3.538   0.095
 6823SOL    HW121368   5.566   3.471   0.065
 6823SOL    HW221369   5.538   3.629   0.098
 6824SOL     OW21370   1.699   1.574   6.856
 6824SOL    HW121371   1.711   1.534   6.765
 6824SOL    HW221372   1.789   1.586   6.899
 6825SOL     OW21373   6.964   6.252   1.190
 6825SOL    HW121374   7.012   6.165   1.180
 6825SOL    HW221375   7.008   6.305   1.263
 6826SOL     OW21376   1.007   3.407   2.984
 6826SOL    HW121377   0.922   3.460   2.993
 6826SOL    HW221378   1.061   3.417   3.068
 6827SOL     OW21379   4.570   5.294   5.485
 6827SOL    HW121380   4.661   5.320   5.517
 6827SOL    HW221381   4.568   5.294   5.385
 6828SOL     OW21382   3.878   1.401   2.945
 6828SOL    HW121383   3.895   1.308   2.914
 6828SOL    HW221384   3.896   1.408   3.043
 6829SOL     OW21385   5.331   0.013   4.931
 6829SOL    HW121386   5.376   6.955   4.957
 6829SOL    HW221387   5.236   7.022   4.904
 6830SOL     OW21388   5.869   1.038   3.058
 6830SOL    HW121389   5.942   1.075   3.001
 6830SOL    HW221390   5.898   0.950   3.096
 6831SOL     OW21391   1.430   1.638   5.219
 6831SOL    HW121392   1.481   1.552   5.207
 6831SOL    HW221393   1.387   1.638   5.309
 6832SOL     OW21394   2.815   2.125   0.720
 6832SOL    HW121395   2.778   2.203   0.771
 6832SOL    HW221396   2.880   2.158   0.651
 6833SOL     OW21397   3.184   5.415   6.399
 6833SOL    HW121398   3.128   5.496   6.383
 6833SOL    HW221399   3.279   5.436   6.378
 6834SOL     OW21400   5.037   0.085   0.578
 6834SOL    HW121401   5.124   0.133   0.593
 6834SOL    HW221402   4.964   0.152   0.569
 6835SOL     OW21403   3.458   2.152   4.171
 6835SOL    HW121404   3.407   2.146   4.257
 6835SOL    HW221405   3.404   2.202   4.103
 6836SOL     OW21406   1.851   4.478   6.286
 6836SOL    HW121407   1.854   4.535   6.204
 6836SOL    HW221408   1.879   4.532   6.365
 6837SOL     OW21409   1.404   0.613   2.095
 6837SOL    HW121410   1.383   0.653   2.184
 6837SOL    HW221411   1.361   0.667   2.023
 6838SOL     OW21412   2.571   4.577   5.190
 6838SOL    HW121413   2.648   4.593   5.128
 6838SOL    HW221414   2.494   4.541   5.139
 6839SOL     OW21415   5.265   1.772   4.299
 6839SOL    HW121416   5.269   1.698   4.366
 6839SOL    HW221417   5.353   1.777   4.250
 6840SOL     OW21418   2.584   6.672   4.876
 6840SOL    HW121419   2.489   6.702   4.877
 6840SOL    HW221420   2.644   6.752   4.874
 6841SOL     OW21421   3.980   5.399   1.726
 6841SOL    HW121422   4.054   5.382   1.790
 6841SOL    HW221423   3.959   5.497   1.725
 6842SOL     OW21424   0.423   3.083   6.883
 6842SOL    HW121425   0.412   3.179   6.907
 6842SOL    HW221426   0.509   3.070   6.835
 6843SOL     OW21427   4.737   1.969   1.935
 6843SOL    HW121428   4.789   2.039   1.984
 6843SOL    HW221429   4.666   1.933   1.994
 6844SOL     OW21430   4.335   5.551   4.676
 6844SOL    HW121431   4.365   5.486   4.745
 6844SOL    HW221432   4.396   5.630   4.676
 6845SOL     OW21433   4.583   4.642   3.056
 6845SOL    HW121434   4.628   4.563   3.097
 6845SOL    HW221435   4.491   4.616   3.025
 6846SOL     OW21436   3.379   3.135   1.794
 6846SOL    HW121437   3.292   3.125   1.747
 6846SOL    HW221438   3.451   3.088   1.742
 6847SOL     OW21439   4.892   3.299   1.855
 6847SOL    HW121440   4.799   3.333   1.843
 6847SOL    HW221441   4.890   3.209   1.898
 6848SOL     OW21442   0.666   4.870   4.438
 6848SOL    HW121443   0.737   4.859   4.368
 6848SOL    HW221444   0.589   4.811   4.415
 6849SOL     OW21445   3.924   5.417   4.192
 6849SOL    HW121446   3.846   5.422   4.128
 6849SOL    HW221447   3.903   5.351   4.264
 6850SOL     OW21448   6.006   2.201   3.606
 6850SOL    HW121449   5.965   2.141   3.538
 6850SOL    HW221450   6.051   2.278   3.561
 6851SOL     OW21451   0.710   5.020   5.592
 6851SOL    HW121452   0.616   5.026   5.558
 6851SOL    HW221453   0.744   4.928   5.578
 6852SOL     OW21454   0.774   3.925   1.772
 6852SOL    HW121455   0.767   4.024   1.755
 6852SOL    HW221456   0.870   3.899   1.778
 6853SOL     OW21457   0.564   5.697   5.896
 6853SOL    HW121458   0.594   5.630   5.828
 6853SOL    HW221459   0.641   5.755   5.921
 6854SOL     OW21460   6.419   1.839   6.054
 6854SOL    HW121461   6.506   1.791   6.062
 6854SOL    HW221462   6.407   1.900   6.132
 6855SOL     OW21463   3.796   6.853   2.531
 6855SOL    HW121464   3.857   6.814   2.599
 6855SOL    HW221465   3.842   6.928   2.484
 6856SOL     OW21466   6.541   4.246   5.005
 6856SOL    HW121467   6.483   4.214   5.080
 6856SOL    HW221468   6.623   4.288   5.042
 6857SOL     OW21469   3.181   1.431   6.269
 6857SOL    HW121470   3.205   1.426   6.172
 6857SOL    HW221471   3.142   1.344   6.299
 6858SOL     OW21472   3.862   3.409   4.136
 6858SOL    HW121473   3.837   3.368   4.048
 6858SOL    HW221474   3.838   3.346   4.210
 6859SOL     OW21475   2.440   6.981   0.437
 6859SOL    HW121476   2.531   6.940   0.433
 6859SOL    HW221477   2.371   6.914   0.408
 6860SOL     OW21478   5.797   4.941   1.794
 6860SOL    HW121479   5.883   4.903   1.763
 6860SOL    HW221480   5.765   4.890   1.874
 6861SOL     OW21481   5.680   5.066   0.623
 6861SOL    HW121482   5.711   4.985   0.673
 6861SOL    HW221483   5.744   5.086   0.549
 6862SOL     OW21484   2.491   4.834   4.746
 6862SOL    HW121485   2.495   4.822   4.647
 6862SOL    HW221486   2.471   4.746   4.789
 6863SOL     OW21487   6.370   1.103   4.475
 6863SOL    HW121488   6.353   1.009   4.502
 6863SOL    HW221489   6.297   1.133   4.413
 6864SOL     OW21490   3.516   5.601   3.604
 6864SOL    HW121491   3.456   5.631   3.530
 6864SOL    HW221492   3.550   5.509   3.585
 6865SOL     OW21493   6.402   4.663   4.218
 6865SOL    HW121494   6.313   4.691   4.254
 6865SOL    HW221495   6.391   4.631   4.124
 6866SOL     OW21496   6.639   3.940   2.065
 6866SOL    HW121497   6.646   4.010   2.137
 6866SOL    HW221498   6.549   3.897   2.070
 6867SOL     OW21499   1.577   4.013   1.576
 6867SOL    HW121500   1.617   3.935   1.625
 6867SOL    HW221501   1.639   4.041   1.503
 6868SOL     OW21502   1.797   6.264   4.548
 6868SOL    HW121503   1.733   6.190   4.567
 6868SOL    HW221504   1.750   6.337   4.497
 6869SOL     OW21505   6.004   3.016   4.926
 6869SOL    HW121506   5.990   2.967   4.840
 6869SOL    HW221507   6.085   3.074   4.918
 6870SOL     OW21508   5.469   3.848   3.095
 6870SOL    HW121509   5.428   3.891   3.013
 6870SOL    HW221510   5.502   3.919   3.156
 6871SOL     OW21511   6.011   4.781   1.730
 6871SOL    HW121512   6.056   4.855   1.680
 6871SOL    HW221513   5.995   4.703   1.669
 6872SOL     OW21514   1.879   3.489   1.184
 6872SOL    HW121515   1.837   3.421   1.124
 6872SOL    HW221516   1.826   3.573   1.182
 6873SOL     OW21517   6.018   2.888   6.086
 6873SOL    HW121518   5.942   2.826   6.107
 6873SOL    HW221519   5.993   2.947   6.009
 6874SOL     OW21520   0.124   3.876   3.928
 6874SOL    HW121521   0.167   3.815   3.862
 6874SOL    HW221522   0.049   3.829   3.974
 6875SOL     OW21523   1.619   1.542   3.336
 6875SOL    HW121524   1.650   1.492   3.417
 6875SOL    HW221525   1.535   1.591   3.357
 6876SOL     OW21526   3.635   5.740   6.427
 6876SOL    HW121527   3.612   5.837   6.426
 6876SOL    HW221528   3.570   5.690   6.484
 6877SOL     OW21529   2.252   4.503   0.070
 6877SOL    HW121530   2.303   4.574   0.120
 6877SOL    HW221531   2.287   4.497   7.004
 6878SOL     OW21532   2.216   1.956   6.160
 6878SOL    HW121533   2.261   1.879   6.114
 6878SOL    HW221534   2.252   2.042   6.125
 6879SOL     OW21535   0.124   1.822   0.230
 6879SOL    HW121536   0.211   1.807   0.278
 6879SOL    HW221537   0.050   1.827   0.297
 6880SOL     OW21538   2.108   3.704   4.987
 6880SOL    HW121539   2.149   3.747   4.907
 6880SOL    HW221540   2.170   3.712   5.065
 6881SOL     OW21541   6.786   4.468   1.825
 6881SOL    HW121542   6.730   4.406   1.770
 6881SOL    HW221543   6.866   4.418   1.860
 6882SOL     OW21544   2.252   0.396   5.331
 6882SOL    HW121545   2.204   0.308   5.328
 6882SOL    HW221546   2.186   0.469   5.352
 6883SOL     OW21547   3.390   0.285   1.109
 6883SOL    HW121548   3.319   0.355   1.117
 6883SOL    HW221549   3.452   0.309   1.034
 6884SOL     OW21550   2.404   4.443   4.111
 6884SOL    HW121551   2.463   4.476   4.185
 6884SOL    HW221552   2.394   4.344   4.119
 6885SOL     OW21553   2.961   5.728   3.376
 6885SOL    HW121554   2.905   5.646   3.386
 6885SOL    HW221555   3.031   5.730   3.448
 6886SOL     OW21556   5.409   1.691   2.146
 6886SOL    HW121557   5.419   1.755   2.222
 6886SOL    HW221558   5.475   1.713   2.075
 6887SOL     OW21559   5.493   0.508   4.922
 6887SOL    HW121560   5.575   0.464   4.885
 6887SOL    HW221561   5.520   0.590   4.973
 6888SOL     OW21562   5.779   6.939   5.721
 6888SOL    HW121563   5.817   7.008   5.782
 6888SOL    HW221564   5.711   6.981   5.661
 6889SOL     OW21565   0.878   2.901   5.553
 6889SOL    HW121566   0.875   2.935   5.647
 6889SOL    HW221567   0.902   2.804   5.553
 6890SOL     OW21568   2.189   0.425   0.861
 6890SOL    HW121569   2.103   0.476   0.865
 6890SOL    HW221570   2.220   0.420   0.766
 6891SOL     OW21571   1.974   3.423   4.627
 6891SOL    HW121572   2.018   3.450   4.713
 6891SOL    HW221573   1.965   3.502   4.567
 6892SOL     OW21574   4.031   0.166   4.044
 6892SOL    HW121575   3.938   0.188   4.016
 6892SOL    HW221576   4.064   0.087   3.992
 6893SOL     OW21577   5.508   5.933   2.258
 6893SOL    HW121578   5.468   6.020   2.232
 6893SOL    HW221579   5.436   5.873   2.294
 6894SOL     OW21580   6.312   5.603   0.645
 6894SOL    HW121581   6.411   5.615   0.652
 6894SOL    HW221582   6.269   5.692   0.629
 6895SOL     OW21583   2.867   4.422   6.852
 6895SOL    HW121584   2.848   4.324   6.853
 6895SOL    HW221585   2.782   4.472   6.834
 6896SOL     OW21586   4.160   0.319   3.805
 6896SOL    HW121587   4.076   0.374   3.798
 6896SOL    HW221588   4.151   0.253   3.880
 6897SOL     OW21589   2.590   3.348   0.134
 6897SOL    HW121590   2.615   3.420   0.199
 6897SOL    HW221591   2.656   3.273   0.140
 6898SOL     OW21592   4.761   1.522   1.951
 6898SOL    HW121593   4.816   1.598   1.916
 6898SOL    HW221594   4.683   1.506   1.890
 6899SOL     OW21595   5.257   6.998   6.485
 6899SOL    HW121596   5.301   0.038   6.545
 6899SOL    HW221597   5.284   7.014   6.391
 6900SOL     OW21598   5.903   0.514   6.129
 6900SOL    HW121599   5.883   0.575   6.206
 6900SOL    HW221600   5.817   0.484   6.087
 6901SOL     OW21601   0.071   0.049   6.249
 6901SOL    HW121602   0.128   0.047   6.332
 6901SOL    HW221603   0.082   0.137   6.203
 6902SOL     OW21604   0.939   6.709   0.345
 6902SOL    HW121605   0.965   6.779   0.410
 6902SOL    HW221606   0.968   6.619   0.379
 6903SOL     OW21607   3.750   3.769   0.204
 6903SOL    HW121608   3.765   3.685   0.256
 6903SOL    HW221609   3.671   3.817   0.241
 6904SOL     OW21610   6.550   1.310   3.669
 6904SOL    HW121611   6.607   1.264   3.736
 6904SOL    HW221612   6.454   1.291   3.687
 6905SOL     OW21613   6.065   6.405   0.316
 6905SOL    HW121614   5.987   6.356   0.355
 6905SOL    HW221615   6.142   6.342   0.307
 6906SOL     OW21616   3.357   1.274   4.638
 6906SOL    HW121617   3.301   1.254   4.557
 6906SOL    HW221618   3.402   1.190   4.669
 6907SOL     OW21619   3.954   2.045   0.738
 6907SOL    HW121620   3.904   2.107   0.798
 6907SOL    HW221621   4.014   2.098   0.678
 6908SOL     OW21622   1.508   6.974   5.527
 6908SOL    HW121623   1.577   0.001   5.575
 6908SOL    HW221624   1.418   6.993   5.567
 6909SOL     OW21625   4.448   4.784   1.011
 6909SOL    HW121626   4.474   4.714   0.944
 6909SOL    HW221627   4.360   4.823   0.986
 6910SOL     OW21628   6.223   1.684   3.015
 6910SOL    HW121629   6.323   1.685   3.009
 6910SOL    HW221630   6.194   1.750   3.084
 6911SOL     OW21631   4.319   0.207   3.616
 6911SOL    HW121632   4.263   0.259   3.681
 6911SOL    HW221633   4.394   0.163   3.666
 6912SOL     OW21634   5.133   5.088   1.198
 6912SOL    HW121635   5.100   4.993   1.195
 6912SOL    HW221636   5.189   5.101   1.280
 6913SOL     OW21637   5.367   4.316   5.253
 6913SOL    HW121638   5.444   4.252   5.254
 6913SOL    HW221639   5.301   4.290   5.325
 6914SOL     OW21640   5.465   5.374   6.996
 6914SOL    HW121641   5.369   5.348   7.000
 6914SOL    HW221642   5.518   5.300   6.955
 6915SOL     OW21643   0.223   4.991   2.072
 6915SOL    HW121644   0.130   4.964   2.049
 6915SOL    HW221645   0.288   4.941   2.015
 6916SOL     OW21646   6.527   4.068   6.896
 6916SOL    HW121647   6.486   4.131   6.829
 6916SOL    HW221648   6.461   4.050   6.969
 6917SOL     OW21649   4.553   5.111   6.879
 6917SOL    HW121650   4.460   5.083   6.853
 6917SOL    HW221651   4.580   5.191   6.825
 6918SOL     OW21652   0.408   4.039   4.177
 6918SOL    HW121653   0.485   4.024   4.116
 6918SOL    HW221654   0.325   4.056   4.123
 6919SOL     OW21655   1.930   5.372   2.508
 6919SOL    HW121656   1.848   5.323   2.479
 6919SOL    HW221657   1.907   5.469   2.523
 6920SOL     OW21658   5.290   5.109   5.966
 6920SOL    HW121659   5.215   5.134   5.904
 6920SOL    HW221660   5.256   5.109   6.060
 6921SOL     OW21661   5.878   5.828   3.359
 6921SOL    HW121662   5.882   5.926   3.381
 6921SOL    HW221663   5.971   5.792   3.352
 6922SOL     OW21664   1.842   6.033   0.082
 6922SOL    HW121665   1.823   6.117   0.031
 6922SOL    HW221666   1.864   6.056   0.177
 6923SOL     OW21667   4.931   6.807   3.923
 6923SOL    HW121668   5.023   6.839   3.899
 6923SOL    HW221669   4.913   6.826   4.020
 6924SOL     OW21670   0.703   3.777   0.321
 6924SOL    HW121671   0.729   3.680   0.328
 6924SOL    HW221672   0.776   3.828   0.275
 6925SOL     OW21673   3.687   6.193   3.814
 6925SOL    HW121674   3.712   6.283   3.777
 6925SOL    HW221675   3.599   6.200   3.862
 6926SOL     OW21676   3.726   3.765   3.019
 6926SOL    HW121677   3.698   3.858   2.995
 6926SOL    HW221678   3.765   3.720   2.939
 6927SOL     OW21679   5.257   3.430   5.676
 6927SOL    HW121680   5.200   3.471   5.605
 6927SOL    HW221681   5.204   3.359   5.723
 6928SOL     OW21682   4.509   0.172   6.669
 6928SOL    HW121683   4.413   0.165   6.641
 6928SOL    HW221684   4.549   0.080   6.674
 6929SOL     OW21685   4.242   6.055   0.146
 6929SOL    HW121686   4.206   6.029   0.057
 6929SOL    HW221687   4.322   6.114   0.134
 6930SOL     OW21688   0.080   6.852   1.733
 6930SOL    HW121689   0.103   6.946   1.758
 6930SOL    HW221690   7.012   6.847   1.705
 6931SOL     OW21691   1.142   0.614   1.785
 6931SOL    HW121692   1.191   0.656   1.708
 6931SOL    HW221693   1.086   0.539   1.750
 6932SOL     OW21694   2.988   1.061   0.189
 6932SOL    HW121695   3.075   1.029   0.227
 6932SOL    HW221696   2.989   1.049   0.089
 6933SOL     OW21697   3.298   5.641   5.045
 6933SOL    HW121698   3.279   5.732   5.007
 6933SOL    HW221699   3.355   5.651   5.127
 6934SOL     OW21700   5.597   3.692   6.492
 6934SOL    HW121701   5.559   3.661   6.579
 6934SOL    HW221702   5.695   3.675   6.490
 6935SOL     OW21703   4.418   6.250   3.016
 6935SOL    HW121704   4.505   6.277   2.977
 6935SOL    HW221705   4.432   6.216   3.109
 6936SOL     OW21706   6.824   2.017   2.879
 6936SOL    HW121707   6.880   2.068   2.814
 6936SOL    HW221708   6.810   1.924   2.844
 6937SOL     OW21709   5.244   6.636   6.805
 6937SOL    HW121710   5.165   6.607   6.751
 6937SOL    HW221711   5.322   6.650   6.745
 6938SOL     OW21712   5.234   3.817   5.309
 6938SOL    HW121713   5.160   3.883   5.295
 6938SOL    HW221714   5.201   3.725   5.289
 6939SOL     OW21715   0.010   4.952   2.864
 6939SOL    HW121716   0.073   4.875   2.877
 6939SOL    HW221717   7.013   4.958   2.767
 6940SOL     OW21718   4.149   1.158   0.917
 6940SOL    HW121719   4.147   1.254   0.889
 6940SOL    HW221720   4.223   1.111   0.869
 6941SOL     OW21721   4.347   3.310   1.766
 6941SOL    HW121722   4.427   3.340   1.714
 6941SOL    HW221723   4.374   3.239   1.831
 6942SOL     OW21724   0.415   2.981   1.204
 6942SOL    HW121725   0.401   2.916   1.130
 6942SOL    HW221726   0.496   3.037   1.186
 6943SOL     OW21727   5.138   6.771   6.405
 6943SOL    HW121728   5.091   6.778   6.316
 6943SOL    HW221729   5.172   6.861   6.432
 6944SOL     OW21730   1.221   5.424   5.152
 6944SOL    HW121731   1.219   5.325   5.139
 6944SOL    HW221732   1.302   5.462   5.107
 6945SOL     OW21733   6.117   3.010   6.862
 6945SOL    HW121734   6.084   3.032   6.770
 6945SOL    HW221735   6.127   3.094   6.914
 6946SOL     OW21736   6.257   5.362   2.367
 6946SOL    HW121737   6.187   5.294   2.390
 6946SOL    HW221738   6.216   5.434   2.312
 6947SOL     OW21739   3.627   6.901   4.259
 6947SOL    HW121740   3.681   6.982   4.282
 6947SOL    HW221741   3.667   6.821   4.305
 6948SOL     OW21742   5.308   0.144   0.653
 6948SOL    HW121743   5.333   0.226   0.703
 6948SOL    HW221744   5.371   0.070   0.675
 6949SOL     OW21745   5.034   6.211   2.810
 6949SOL    HW121746   5.114   6.175   2.762
 6949SOL    HW221747   4.993   6.139   2.865
 6950SOL     OW21748   2.471   0.532   2.844
 6950SOL    HW121749   2.483   0.555   2.940
 6950SOL    HW221750   2.545   0.471   2.815
 6951SOL     OW21751   6.192   6.693   6.038
 6951SOL    HW121752   6.278   6.742   6.045
 6951SOL    HW221753   6.190   6.642   5.952
 6952SOL     OW21754   7.019   5.079   3.382
 6952SOL    HW121755   0.085   5.104   3.408
 6952SOL    HW221756   6.975   5.158   3.339
 6953SOL     OW21757   5.189   0.694   5.940
 6953SOL    HW121758   5.193   0.752   5.858
 6953SOL    HW221759   5.117   0.626   5.929
 6954SOL     OW21760   1.116   3.631   4.190
 6954SOL    HW121761   1.212   3.603   4.200
 6954SOL    HW221762   1.110   3.730   4.196
 6955SOL     OW21763   6.844   0.506   2.000
 6955SOL    HW121764   6.918   0.448   2.035
 6955SOL    HW221765   6.840   0.497   1.900
 6956SOL     OW21766   4.165   6.064   2.628
 6956SOL    HW121767   4.133   6.108   2.544
 6956SOL    HW221768   4.164   5.964   2.616
 6957SOL     OW21769   0.188   4.752   1.456
 6957SOL    HW121770   0.225   4.804   1.379
 6957SOL    HW221771   0.205   4.654   1.442
 6958SOL     OW21772   2.537   2.983   6.033
 6958SOL    HW121773   2.517   2.901   5.980
 6958SOL    HW221774   2.559   2.957   6.127
 6959SOL     OW21775   2.078   1.035   5.157
 6959SOL    HW121776   2.014   1.050   5.233
 6959SOL    HW221777   2.168   1.070   5.183
 6960SOL     OW21778   0.643   5.317   0.248
 6960SOL    HW121779   0.740   5.338   0.252
 6960SOL    HW221780   0.606   5.310   0.341
 6961SOL     OW21781   0.494   2.215   4.039
 6961SOL    HW121782   0.529   2.284   3.976
 6961SOL    HW221783   0.395   2.224   4.047
 6962SOL     OW21784   5.552   5.491   2.962
 6962SOL    HW121785   5.605   5.552   2.902
 6962SOL    HW221786   5.456   5.521   2.963
 6963SOL     OW21787   0.181   5.781   1.308
 6963SOL    HW121788   0.120   5.711   1.344
 6963SOL    HW221789   0.269   5.741   1.285
 6964SOL     OW21790   5.131   4.875   5.242
 6964SOL    HW121791   5.179   4.950   5.287
 6964SOL    HW221792   5.156   4.788   5.286
 6965SOL     OW21793   0.174   3.735   6.447
 6965SOL    HW121794   0.261   3.690   6.468
 6965SOL    HW221795   0.186   3.834   6.451
 6966SOL     OW21796   5.492   2.682   2.987
 6966SOL    HW121797   5.592   2.684   2.987
 6966SOL    HW221798   5.460   2.654   2.896
 6967SOL     OW21799   1.663   1.922   5.361
 6967SOL    HW121800   1.734   1.913   5.432
 6967SOL    HW221801   1.679   1.854   5.289
 6968SOL     OW21802   3.686   6.443   0.875
 6968SOL    HW121803   3.762   6.382   0.898
 6968SOL    HW221804   3.609   6.388   0.844
 6969SOL     OW21805   4.083   1.857   1.787
 6969SOL    HW121806   3.984   1.840   1.791
 6969SOL    HW221807   4.105   1.906   1.703
 6970SOL     OW21808   4.130   4.335   0.728
 6970SOL    HW121809   4.076   4.261   0.688
 6970SOL    HW221810   4.074   4.417   0.738
 6971SOL     OW21811   6.515   3.324   2.331
 6971SOL    HW121812   6.449   3.378   2.279
 6971SOL    HW221813   6.573   3.384   2.385
 6972SOL     OW21814   5.962   5.124   4.436
 6972SOL    HW121815   5.896   5.059   4.398
 6972SOL    HW221816   6.004   5.176   4.361
 6973SOL     OW21817   1.509   4.436   4.330
 6973SOL    HW121818   1.445   4.510   4.351
 6973SOL    HW221819   1.586   4.440   4.393
 6974SOL     OW21820   3.983   3.193   3.531
 6974SOL    HW121821   3.945   3.278   3.568
 6974SOL    HW221822   3.926   3.161   3.455
 6975SOL     OW21823   3.207   6.070   5.492
 6975SOL    HW121824   3.175   6.031   5.578
 6975SOL    HW221825   3.132   6.118   5.446
 6976SOL     OW21826   3.799   4.294   6.244
 6976SOL    HW121827   3.748   4.288   6.158
 6976SOL    HW221828   3.749   4.352   6.309
 6977SOL     OW21829   5.552   2.112   1.523
 6977SOL    HW121830   5.650   2.121   1.537
 6977SOL    HW221831   5.504   2.188   1.566
 6978SOL     OW21832   6.402   0.884   1.776
 6978SOL    HW121833   6.380   0.904   1.681
 6978SOL    HW221834   6.421   0.786   1.787
 6979SOL     OW21835   1.839   5.118   1.797
 6979SOL    HW121836   1.822   5.021   1.815
 6979SOL    HW221837   1.790   5.174   1.864
 6980SOL     OW21838   2.052   0.967   3.912
 6980SOL    HW121839   2.007   0.920   3.836
 6980SOL    HW221840   2.104   1.045   3.878
 6981SOL     OW21841   2.759   3.664   6.511
 6981SOL    HW121842   2.749   3.566   6.491
 6981SOL    HW221843   2.854   3.682   6.539
 6982SOL     OW21844   1.407   1.621   3.750
 6982SOL    HW121845   1.365   1.540   3.789
 6982SOL    HW221846   1.496   1.636   3.792
 6983SOL     OW21847   0.167   1.695   3.863
 6983SOL    HW121848   0.112   1.765   3.909
 6983SOL    HW221849   0.108   1.636   3.809
 6984SOL     OW21850   2.849   1.671   5.316
 6984SOL    HW121851   2.924   1.735   5.298
 6984SOL    HW221852   2.796   1.658   5.232
 6985SOL     OW21853   3.457   5.246   2.559
 6985SOL    HW121854   3.389   5.315   2.538
 6985SOL    HW221855   3.450   5.171   2.494
 6986SOL     OW21856   2.168   5.791   5.625
 6986SOL    HW121857   2.222   5.874   5.634
 6986SOL    HW221858   2.071   5.814   5.632
 6987SOL     OW21859   0.561   1.717   6.434
 6987SOL    HW121860   0.639   1.780   6.424
 6987SOL    HW221861   0.514   1.737   6.520
 6988SOL     OW21862   6.415   0.831   5.043
 6988SOL    HW121863   6.490   0.890   5.013
 6988SOL    HW221864   6.404   0.840   5.142
 6989SOL     OW21865   1.135   2.424   3.186
 6989SOL    HW121866   1.122   2.403   3.089
 6989SOL    HW221867   1.230   2.405   3.211
 6990SOL     OW21868   5.471   1.912   0.249
 6990SOL    HW121869   5.374   1.926   0.229
 6990SOL    HW221870   5.499   1.820   0.218
 6991SOL     OW21871   2.574   4.591   4.866
 6991SOL    HW121872   2.510   4.532   4.914
 6991SOL    HW221873   2.652   4.612   4.926
 6992SOL     OW21874   5.534   5.852   5.178
 6992SOL    HW121875   5.625   5.820   5.207
 6992SOL    HW221876   5.464   5.807   5.234
 6993SOL     OW21877   5.905   6.609   3.011
 6993SOL    HW121878   5.908   6.661   3.096
 6993SOL    HW221879   5.948   6.520   3.025
 6994SOL     OW21880   0.374   3.176   4.898
 6994SOL    HW121881   0.391   3.201   4.993
 6994SOL    HW221882   0.457   3.190   4.844
 6995SOL     OW21883   6.169   5.340   4.612
 6995SOL    HW121884   6.244   5.401   4.637
 6995SOL    HW221885   6.088   5.362   4.667
 6996SOL     OW21886   2.370   1.072   5.168
 6996SOL    HW121887   2.390   1.072   5.266
 6996SOL    HW221888   2.362   0.978   5.136
 6997SOL     OW21889   4.992   6.186   5.736
 6997SOL    HW121890   5.023   6.214   5.827
 6997SOL    HW221891   5.068   6.145   5.686
 6998SOL     OW21892   1.604   2.383   1.405
 6998SOL    HW121893   1.567   2.463   1.453
 6998SOL    HW221894   1.686   2.351   1.452
 6999SOL     OW21895   2.508   1.819   6.912
 6999SOL    HW121896   2.494   1.721   6.895
 6999SOL    HW221897   2.602   1.833   6.945
 7000SOL     OW21898   0.218   6.261   2.723
 7000SOL    HW121899   0.251   6.260   2.817
 7000SOL    HW221900   0.122   6.234   2.721
 7001SOL     OW21901   2.652   2.514   5.587
 7001SOL    HW121902   2.580   2.563   5.635
 7001SOL    HW221903   2.621   2.490   5.495
 7002SOL     OW21904   2.350   4.808   3.081
 7002SOL    HW121905   2.393   4.758   3.006
 7002SOL    HW221906   2.309   4.892   3.046
 7003SOL     OW21907   3.167   6.930   6.857
 7003SOL    HW121908   3.118   6.954   6.774
 7003SOL    HW221909   3.244   6.993   6.870
 7004SOL     OW21910   2.156   5.199   1.749
 7004SOL    HW121911   2.164   5.149   1.835
 7004SOL    HW221912   2.136   5.295   1.768
 7005SOL     OW21913   0.446   6.052   5.299
 7005SOL    HW121914   0.396   6.139   5.301
 7005SOL    HW221915   0.444   6.011   5.391
 7006SOL     OW21916   5.249   5.116   4.956
 7006SOL    HW121917   5.248   5.151   5.050
 7006SOL    HW221918   5.254   5.016   4.958
 7007SOL     OW21919   5.200   6.698   3.369
 7007SOL    HW121920   5.256   6.618   3.393
 7007SOL    HW221921   5.116   6.697   3.424
 7008SOL     OW21922   2.533   4.944   4.050
 7008SOL    HW121923   2.604   4.958   4.119
 7008SOL    HW221924   2.494   4.853   4.059
 7009SOL     OW21925   6.287   5.217   2.110
 7009SOL    HW121926   6.306   5.301   2.162
 7009SOL    HW221927   6.206   5.172   2.148
 7010SOL     OW21928   4.868   4.354   6.063
 7010SOL    HW121929   4.942   4.383   6.002
 7010SOL    HW221930   4.900   4.354   6.157
 7011SOL     OW21931   1.780   0.377   6.330
 7011SOL    HW121932   1.822   0.463   6.301
 7011SOL    HW221933   1.691   0.395   6.371
 7012SOL     OW21934   1.790   0.924   2.074
 7012SOL    HW121935   1.741   0.849   2.119
 7012SOL    HW221936   1.728   1.002   2.063
 7013SOL     OW21937   0.442   6.623   0.394
 7013SOL    HW121938   0.401   6.686   0.460
 7013SOL    HW221939   0.536   6.651   0.375
 7014SOL     OW21940   4.638   4.046   1.367
 7014SOL    HW121941   4.573   4.031   1.292
 7014SOL    HW221942   4.598   4.108   1.434
 7015SOL     OW21943   5.498   4.103   1.976
 7015SOL    HW121944   5.472   4.031   2.041
 7015SOL    HW221945   5.532   4.183   2.026
 7016SOL     OW21946   3.446   4.930   2.162
 7016SOL    HW121947   3.361   4.917   2.212
 7016SOL    HW221948   3.465   4.850   2.106
 7017SOL     OW21949   2.548   0.470   2.034
 7017SOL    HW121950   2.505   0.554   2.066
 7017SOL    HW221951   2.484   0.419   1.976
 7018SOL     OW21952   6.547   4.607   4.848
 7018SOL    HW121953   6.628   4.650   4.808
 7018SOL    HW221954   6.547   4.509   4.827
 7019SOL     OW21955   3.024   4.537   6.320
 7019SOL    HW121956   2.979   4.461   6.368
 7019SOL    HW221957   2.980   4.550   6.231
 7020SOL     OW21958   5.864   6.608   6.989
 7020SOL    HW121959   5.947   6.574   0.008
 7020SOL    HW221960   5.791   6.540   6.997
 7021SOL     OW21961   2.726   0.962   5.549
 7021SOL    HW121962   2.667   0.917   5.482
 7021SOL    HW221963   2.813   0.985   5.507
 7022SOL     OW21964   4.839   4.298   0.574
 7022SOL    HW121965   4.812   4.209   0.536
 7022SOL    HW221966   4.938   4.309   0.568
 7023SOL     OW21967   0.273   2.180   3.455
 7023SOL    HW121968   0.270   2.191   3.356
 7023SOL    HW221969   0.283   2.083   3.477
 7024SOL     OW21970   1.318   5.769   6.042
 7024SOL    HW121971   1.339   5.733   5.951
 7024SOL    HW221972   1.320   5.869   6.040
 7025SOL     OW21973   3.688   1.696   0.073
 7025SOL    HW121974   3.601   1.649   0.060
 7025SOL    HW221975   3.709   1.703   0.170
 7026SOL     OW21976   2.780   1.299   2.041
 7026SOL    HW121977   2.742   1.238   1.971
 7026SOL    HW221978   2.865   1.339   2.008
 7027SOL     OW21979   3.084   5.697   2.424
 7027SOL    HW121980   3.063   5.737   2.513
 7027SOL    HW221981   3.065   5.599   2.425
 7028SOL     OW21982   5.548   6.121   4.456
 7028SOL    HW121983   5.564   6.213   4.491
 7028SOL    HW221984   5.585   6.113   4.363
 7029SOL     OW21985   3.458   6.857   6.948
 7029SOL    HW121986   3.496   6.932   7.002
 7029SOL    HW221987   3.516   6.777   6.955
 7030SOL     OW21988   0.107   2.632   5.577
 7030SOL    HW121989   0.043   2.574   5.526
 7030SOL    HW221990   0.181   2.661   5.518
 7031SOL     OW21991   2.267   6.009   3.563
 7031SOL    HW121992   2.297   5.916   3.584
 7031SOL    HW221993   2.197   6.036   3.629
 7032SOL     OW21994   3.656   6.798   3.996
 7032SOL    HW121995   3.572   6.766   3.952
 7032SOL    HW221996   3.636   6.823   4.091
 7033SOL     OW21997   6.405   1.833   4.055
 7033SOL    HW121998   6.353   1.749   4.043
 7033SOL    HW221999   6.479   1.837   3.988
 7034SOL     OW22000   5.933   0.834   3.265
 7034SOL    HW122001   5.856   0.773   3.283
 7034SOL    HW222002   5.905   0.929   3.282
 7035SOL     OW22003   0.804   6.631   1.887
 7035SOL    HW122004   0.811   6.563   1.959
 7035SOL    HW222005   0.716   6.622   1.840
 7036SOL     OW22006   6.491   6.370   1.766
 7036SOL    HW122007   6.432   6.443   1.803
 7036SOL    HW222008   6.503   6.299   1.835
 7037SOL     OW22009   0.035   6.805   6.191
 7037SOL    HW122010   0.115   6.749   6.212
 7037SOL    HW222011   0.058   6.901   6.199
 7038SOL     OW22012   2.088   3.658   4.472
 7038SOL    HW122013   2.006   3.698   4.515
 7038SOL    HW222014   2.169   3.686   4.523
 7039SOL     OW22015   2.778   6.384   0.214
 7039SOL    HW122016   2.806   6.396   0.310
 7039SOL    HW222017   2.840   6.435   0.155
 7040SOL     OW22018   4.358   2.721   5.558
 7040SOL    HW122019   4.299   2.652   5.600
 7040SOL    HW222020   4.446   2.724   5.606
 7041SOL     OW22021   0.832   2.024   3.354
 7041SOL    HW122022   0.808   2.009   3.449
 7041SOL    HW222023   0.901   1.958   3.326
 7042SOL     OW22024   5.048   5.087   6.818
 7042SOL    HW122025   4.966   5.034   6.837
 7042SOL    HW222026   5.109   5.033   6.760
 7043SOL     OW22027   2.134   2.466   2.917
 7043SOL    HW122028   2.154   2.537   2.986
 7043SOL    HW222029   2.117   2.510   2.829
 7044SOL     OW22030   4.736   4.199   3.032
 7044SOL    HW122031   4.707   4.281   3.081
 7044SOL    HW222032   4.794   4.144   3.091
 7045SOL     OW22033   4.631   6.375   1.612
 7045SOL    HW122034   4.544   6.327   1.599
 7045SOL    HW222035   4.616   6.473   1.607
 7046SOL     OW22036   3.353   2.156   3.519
 7046SOL    HW122037   3.257   2.130   3.529
 7046SOL    HW222038   3.389   2.119   3.434
 7047SOL     OW22039   1.076   2.410   2.888
 7047SOL    HW122040   1.139   2.392   2.813
 7047SOL    HW222041   1.091   2.503   2.923
 7048SOL     OW22042   0.570   6.125   1.301
 7048SOL    HW122043   0.669   6.119   1.312
 7048SOL    HW222044   0.535   6.041   1.259
 7049SOL     OW22045   2.336   0.850   0.648
 7049SOL    HW122046   2.390   0.877   0.727
 7049SOL    HW222047   2.292   0.930   0.609
 7050SOL     OW22048   3.690   3.841   4.360
 7050SOL    HW122049   3.676   3.802   4.269
 7050SOL    HW222050   3.788   3.837   4.383
 7051SOL     OW22051   0.439   0.543   0.969
 7051SOL    HW122052   0.471   0.472   0.906
 7051SOL    HW222053   0.517   0.588   1.012
 7052SOL     OW22054   6.384   2.823   4.427
 7052SOL    HW122055   6.313   2.881   4.467
 7052SOL    HW222056   6.455   2.805   4.495
 7053SOL     OW22057   0.319   3.048   5.547
 7053SOL    HW122058   0.268   3.054   5.461
 7053SOL    HW222059   0.383   2.971   5.542
 7054SOL     OW22060   1.055   6.400   1.546
 7054SOL    HW122061   1.014   6.332   1.607
 7054SOL    HW222062   1.124   6.452   1.597
 7055SOL     OW22063   3.723   6.661   4.994
 7055SOL    HW122064   3.713   6.611   4.908
 7055SOL    HW222065   3.810   6.636   5.037
 7056SOL     OW22066   5.592   4.976   3.625
 7056SOL    HW122067   5.657   4.903   3.645
 7056SOL    HW222068   5.625   5.063   3.662
 7057SOL     OW22069   1.174   4.026   4.296
 7057SOL    HW122070   1.186   4.124   4.307
 7057SOL    HW222071   1.241   3.977   4.352
 7058SOL     OW22072   6.631   5.644   5.517
 7058SOL    HW122073   6.551   5.698   5.543
 7058SOL    HW222074   6.652   5.659   5.420
 7059SOL     OW22075   0.259   0.111   2.874
 7059SOL    HW122076   0.224   0.026   2.834
 7059SOL    HW222077   0.214   0.128   2.961
 7060SOL     OW22078   3.124   0.151   1.254
 7060SOL    HW122079   3.203   0.207   1.228
 7060SOL    HW222080   3.129   0.130   1.351
 7061SOL     OW22081   0.433   1.734   3.816
 7061SOL    HW122082   0.342   1.707   3.845
 7061SOL    HW222083   0.472   1.797   3.883
 7062SOL     OW22084   5.618   1.460   6.020
 7062SOL    HW122085   5.559   1.541   6.022
 7062SOL    HW222086   5.658   1.449   5.930
 7063SOL     OW22087   1.347   6.916   0.476
 7063SOL    HW122088   1.327   6.999   0.424
 7063SOL    HW222089   1.322   6.930   0.572
 7064SOL     OW22090   4.218   2.347   1.694
 7064SOL    HW122091   4.221   2.295   1.780
 7064SOL    HW222092   4.129   2.393   1.687
 7065SOL     OW22093   4.277   3.813   1.119
 7065SOL    HW122094   4.341   3.753   1.168
 7065SOL    HW222095   4.287   3.800   1.020
 7066SOL     OW22096   4.069   0.745   0.845
 7066SOL    HW122097   4.092   0.806   0.921
 7066SOL    HW222098   4.020   0.665   0.880
 7067SOL     OW22099   1.345   2.266   4.970
 7067SOL    HW122100   1.396   2.323   5.034
 7067SOL    HW222101   1.314   2.321   4.893
 7068SOL     OW22102   0.447   4.110   3.536
 7068SOL    HW122103   0.523   4.172   3.515
 7068SOL    HW222104   0.481   4.016   3.539
 7069SOL     OW22105   6.501   2.541   4.477
 7069SOL    HW122106   6.414   2.539   4.426
 7069SOL    HW222107   6.569   2.488   4.427
 7070SOL     OW22108   6.775   6.175   5.111
 7070SOL    HW122109   6.800   6.264   5.074
 7070SOL    HW222110   6.677   6.161   5.103
 7071SOL     OW22111   0.342   6.617   5.674
 7071SOL    HW122112   0.439   6.619   5.701
 7071SOL    HW222113   0.285   6.606   5.756
 7072SOL     OW22114   6.658   7.004   5.983
 7072SOL    HW122115   6.623   0.026   6.063
 7072SOL    HW222116   6.606   6.920   5.970
 7073SOL     OW22117   6.282   0.527   4.449
 7073SOL    HW122118   6.303   0.432   4.473
 7073SOL    HW222119   6.215   0.563   4.514
 7074SOL     OW22120   3.675   3.012   1.725
 7074SOL    HW122121   3.656   3.029   1.629
 7074SOL    HW222122   3.763   2.966   1.734
 7075SOL     OW22123   0.867   6.684   4.564
 7075SOL    HW122124   0.965   6.705   4.553
 7075SOL    HW222125   0.852   6.635   4.649
 7076SOL     OW22126   4.181   2.875   0.027
 7076SOL    HW122127   4.280   2.866   0.026
 7076SOL    HW222128   4.153   2.947   6.991
 7077SOL     OW22129   1.888   5.019   5.490
 7077SOL    HW122130   1.798   5.039   5.528
 7077SOL    HW222131   1.891   5.050   5.395
 7078SOL     OW22132   6.104   0.288   1.645
 7078SOL    HW122133   6.055   0.201   1.638
 7078SOL    HW222134   6.199   0.276   1.615
 7079SOL     OW22135   6.916   6.429   5.498
 7079SOL    HW122136   6.941   6.525   5.491
 7079SOL    HW222137   6.888   6.395   5.408
 7080SOL     OW22138   4.019   2.177   4.007
 7080SOL    HW122139   4.042   2.139   4.097
 7080SOL    HW222140   4.012   2.103   3.940
 7081SOL     OW22141   3.331   0.619   5.940
 7081SOL    HW122142   3.338   0.523   5.916
 7081SOL    HW222143   3.243   0.636   5.985
 7082SOL     OW22144   5.471   6.302   6.908
 7082SOL    HW122145   5.424   6.369   6.966
 7082SOL    HW222146   5.405   6.263   6.843
 7083SOL     OW22147   3.068   1.517   6.699
 7083SOL    HW122148   2.987   1.477   6.742
 7083SOL    HW222149   3.085   1.471   6.612
 7084SOL     OW22150   0.120   6.923   5.429
 7084SOL    HW122151   0.207   6.912   5.479
 7084SOL    HW222152   0.056   6.973   5.487
 7085SOL     OW22153   2.050   0.789   3.117
 7085SOL    HW122154   2.033   0.755   3.209
 7085SOL    HW222155   2.051   0.889   3.118
 7086SOL     OW22156   5.050   1.452   6.219
 7086SOL    HW122157   5.067   1.513   6.142
 7086SOL    HW222158   5.137   1.432   6.266
 7087SOL     OW22159   6.057   4.216   3.495
 7087SOL    HW122160   6.062   4.198   3.593
 7087SOL    HW222161   6.137   4.176   3.449
 7088SOL     OW22162   4.866   3.135   3.995
 7088SOL    HW122163   4.907   3.046   4.016
 7088SOL    HW222164   4.859   3.189   4.078
 7089SOL     OW22165   3.279   2.469   6.215
 7089SOL    HW122166   3.314   2.530   6.286
 7089SOL    HW222167   3.209   2.516   6.163
 7090SOL     OW22168   2.885   1.604   6.461
 7090SOL    HW122169   2.819   1.628   6.533
 7090SOL    HW222170   2.837   1.591   6.375
 7091SOL     OW22171   0.156   2.463   6.898
 7091SOL    HW122172   0.228   2.526   6.868
 7091SOL    HW222173   0.074   2.479   6.844
 7092SOL     OW22174   4.438   2.658   6.251
 7092SOL    HW122175   4.508   2.625   6.313
 7092SOL    HW222176   4.471   2.656   6.157
 7093SOL     OW22177   3.081   4.011   4.426
 7093SOL    HW122178   3.046   3.917   4.423
 7093SOL    HW222179   3.072   4.046   4.519
 7094SOL     OW22180   1.056   6.050   5.788
 7094SOL    HW122181   1.105   5.969   5.756
 7094SOL    HW222182   0.959   6.041   5.764
 7095SOL     OW22183   2.956   2.874   0.529
 7095SOL    HW122184   2.942   2.946   0.597
 7095SOL    HW222185   3.042   2.828   0.547
 7096SOL     OW22186   5.966   0.881   3.601
 7096SOL    HW122187   5.929   0.908   3.690
 7096SOL    HW222188   6.064   0.864   3.609
 7097SOL     OW22189   6.524   0.435   1.992
 7097SOL    HW122190   6.623   0.448   2.001
 7097SOL    HW222191   6.495   0.359   2.051
 7098SOL     OW22192   1.283   6.396   4.362
 7098SOL    HW122193   1.190   6.377   4.330
 7098SOL    HW222194   1.323   6.469   4.308
 7099SOL     OW22195   2.228   0.506   4.657
 7099SOL    HW122196   2.260   0.600   4.657
 7099SOL    HW222197   2.128   0.504   4.653
 7100SOL     OW22198   5.377   3.305   0.866
 7100SOL    HW122199   5.417   3.349   0.946
 7100SOL    HW222200   5.285   3.272   0.888
 7101SOL     OW22201   2.116   6.899   4.729
 7101SOL    HW122202   2.076   6.991   4.735
 7101SOL    HW222203   2.057   6.834   4.777
 7102SOL     OW22204   4.545   0.615   0.989
 7102SOL    HW122205   4.571   0.707   0.959
 7102SOL    HW222206   4.452   0.616   1.024
 7103SOL     OW22207   4.133   5.374   0.188
 7103SOL    HW122208   4.070   5.448   0.163
 7103SOL    HW222209   4.217   5.413   0.225
 7104SOL     OW22210   1.117   2.858   4.485
 7104SOL    HW122211   1.128   2.796   4.563
 7104SOL    HW222212   1.188   2.840   4.418
 7105SOL     OW22213   3.126   2.572   5.562
 7105SOL    HW122214   3.195   2.597   5.631
 7105SOL    HW222215   3.035   2.598   5.596
 7106SOL     OW22216   3.494   2.941   3.463
 7106SOL    HW122217   3.511   2.885   3.382
 7106SOL    HW222218   3.424   3.010   3.443
 7107SOL     OW22219   2.987   0.876   0.865
 7107SOL    HW122220   2.909   0.830   0.822
 7107SOL    HW222221   3.064   0.878   0.801
 7108SOL     OW22222   4.094   6.231   1.553
 7108SOL    HW122223   4.014   6.218   1.494
 7108SOL    HW222224   4.117   6.329   1.556
 7109SOL     OW22225   3.373   0.102   6.592
 7109SOL    HW122226   3.432   0.041   6.645
 7109SOL    HW222227   3.430   0.164   6.538
 7110SOL     OW22228   4.901   5.406   3.882
 7110SOL    HW122229   4.850   5.493   3.881
 7110SOL    HW222230   4.996   5.424   3.908
 7111SOL     OW22231   1.729   2.361   4.470
 7111SOL    HW122232   1.690   2.311   4.547
 7111SOL    HW222233   1.780   2.298   4.412
 7112SOL     OW22234   2.150   5.761   3.687
 7112SOL    HW122235   2.133   5.668   3.654
 7112SOL    HW222236   2.248   5.780   3.685
 7113SOL     OW22237   3.108   4.057   5.301
 7113SOL    HW122238   3.051   3.975   5.302
 7113SOL    HW222239   3.069   4.125   5.363
 7114SOL     OW22240   4.016   6.928   2.355
 7114SOL    HW122241   3.994   6.884   2.268
 7114SOL    HW222242   4.104   6.975   2.347
 7115SOL     OW22243   5.082   2.751   1.787
 7115SOL    HW122244   4.983   2.742   1.804
 7115SOL    HW222245   5.131   2.742   1.874
 7116SOL     OW22246   5.603   3.142   3.379
 7116SOL    HW122247   5.532   3.177   3.318
 7116SOL    HW222248   5.613   3.204   3.458
 7117SOL     OW22249   0.409   0.146   4.385
 7117SOL    HW122250   0.345   0.145   4.462
 7117SOL    HW222251   0.503   0.144   4.420
 7118SOL     OW22252   3.504   3.658   1.114
 7118SOL    HW122253   3.410   3.689   1.131
 7118SOL    HW222254   3.519   3.649   1.016
 7119SOL     OW22255   5.120   1.693   3.389
 7119SOL    HW122256   5.048   1.694   3.458
 7119SOL    HW222257   5.173   1.778   3.395
 7120SOL     OW22258   4.052   1.753   3.031
 7120SOL    HW122259   4.120   1.725   2.963
 7120SOL    HW222260   3.963   1.714   3.007
 7121SOL     OW22261   2.997   0.200   2.509
 7121SOL    HW122262   2.911   0.149   2.504
 7121SOL    HW222263   3.005   0.259   2.428
 7122SOL     OW22264   6.519   1.434   6.301
 7122SOL    HW122265   6.437   1.481   6.333
 7122SOL    HW222266   6.554   1.375   6.374
 7123SOL     OW22267   2.981   4.823   1.395
 7123SOL    HW122268   2.911   4.891   1.417
 7123SOL    HW222269   2.972   4.745   1.457
 7124SOL     OW22270   0.864   3.499   0.389
 7124SOL    HW122271   0.916   3.413   0.390
 7124SOL    HW222272   0.769   3.480   0.411
 7125SOL     OW22273   6.768   6.481   1.459
 7125SOL    HW122274   6.713   6.543   1.403
 7125SOL    HW222275   6.759   6.388   1.425
 7126SOL     OW22276   2.983   4.712   6.500
 7126SOL    HW122277   3.045   4.791   6.508
 7126SOL    HW222278   3.021   4.647   6.435
 7127SOL     OW22279   2.823   5.898   4.150
 7127SOL    HW122280   2.771   5.867   4.230
 7127SOL    HW222281   2.815   5.997   4.141
 7128SOL     OW22282   2.356   5.308   0.037
 7128SOL    HW122283   2.418   5.311   0.115
 7128SOL    HW222284   2.392   5.246   6.995
 7129SOL     OW22285   3.486   0.604   0.460
 7129SOL    HW122286   3.466   0.534   0.392
 7129SOL    HW222287   3.401   0.651   0.486
 7130SOL     OW22288   2.992   4.890   4.942
 7130SOL    HW122289   2.914   4.856   4.890
 7130SOL    HW222290   3.065   4.918   4.880
 7131SOL     OW22291   2.864   1.497   0.710
 7131SOL    HW122292   2.910   1.578   0.748
 7131SOL    HW222293   2.798   1.526   0.640
 7132SOL     OW22294   3.100   4.309   1.059
 7132SOL    HW122295   3.007   4.276   1.069
 7132SOL    HW222296   3.127   4.360   1.142
 7133SOL     OW22297   4.864   4.965   3.907
 7133SOL    HW122298   4.807   5.047   3.920
 7133SOL    HW222299   4.890   4.957   3.811
 7134SOL     OW22300   6.332   5.788   2.425
 7134SOL    HW122301   6.268   5.790   2.349
 7134SOL    HW222302   6.417   5.835   2.399
 7135SOL     OW22303   1.877   1.702   3.167
 7135SOL    HW122304   1.886   1.664   3.076
 7135SOL    HW222305   1.810   1.776   3.166
 7136SOL     OW22306   1.735   2.945   0.758
 7136SOL    HW122307   1.658   2.884   0.739
 7136SOL    HW222308   1.772   2.979   0.672
 7137SOL     OW22309   5.004   0.907   6.075
 7137SOL    HW122310   4.946   0.964   6.016
 7137SOL    HW222311   5.057   0.844   6.019
 7138SOL     OW22312   2.704   2.642   0.604
 7138SOL    HW122313   2.793   2.664   0.643
 7138SOL    HW222314   2.647   2.597   0.673
 7139SOL     OW22315   5.059   3.478   2.478
 7139SOL    HW122316   5.051   3.561   2.423
 7139SOL    HW222317   5.101   3.406   2.423
 7140SOL     OW22318   6.455   3.391   4.616
 7140SOL    HW122319   6.439   3.339   4.700
 7140SOL    HW222320   6.468   3.328   4.540
 7141SOL     OW22321   3.439   6.206   0.486
 7141SOL    HW122322   3.350   6.161   0.493
 7141SOL    HW222323   3.504   6.144   0.442
 7142SOL     OW22324   4.765   6.412   3.117
 7142SOL    HW122325   4.854   6.457   3.125
 7142SOL    HW222326   4.692   6.479   3.135
 7143SOL     OW22327   1.347   2.622   6.230
 7143SOL    HW122328   1.424   2.686   6.229
 7143SOL    HW222329   1.285   2.644   6.154
 7144SOL     OW22330   1.807   1.392   3.547
 7144SOL    HW122331   1.834   1.481   3.584
 7144SOL    HW222332   1.858   1.375   3.462
 7145SOL     OW22333   4.216   6.482   5.900
 7145SOL    HW122334   4.245   6.559   5.843
 7145SOL    HW222335   4.296   6.430   5.930
 7146SOL     OW22336   2.028   0.108   6.823
 7146SOL    HW122337   2.102   0.150   6.770
 7146SOL    HW222338   2.060   0.021   6.861
 7147SOL     OW22339   6.317   6.302   3.005
 7147SOL    HW122340   6.409   6.336   3.021
 7147SOL    HW222341   6.315   6.203   3.023
 7148SOL     OW22342   6.768   5.958   1.525
 7148SOL    HW122343   6.828   5.991   1.598
 7148SOL    HW222344   6.674   5.950   1.561
 7149SOL     OW22345   6.650   6.961   3.329
 7149SOL    HW122346   6.746   6.959   3.303
 7149SOL    HW222347   6.598   7.015   3.263
 7150SOL     OW22348   4.749   2.387   1.639
 7150SOL    HW122349   4.811   2.311   1.619
 7150SOL    HW222350   4.712   2.377   1.731
 7151SOL     OW22351   0.939   5.692   0.851
 7151SOL    HW122352   0.983   5.778   0.875
 7151SOL    HW222353   0.880   5.663   0.927
 7152SOL     OW22354   0.797   2.576   5.266
 7152SOL    HW122355   0.703   2.556   5.295
 7152SOL    HW222356   0.798   2.661   5.213
 7153SOL     OW22357   3.709   6.179   3.368
 7153SOL    HW122358   3.682   6.271   3.398
 7153SOL    HW222359   3.629   6.129   3.336
 7154SOL     OW22360   3.695   6.959   4.743
 7154SOL    HW122361   3.715   6.878   4.689
 7154SOL    HW222362   3.659   6.932   4.832
 7155SOL     OW22363   2.327   5.860   1.504
 7155SOL    HW122364   2.411   5.900   1.469
 7155SOL    HW222365   2.340   5.762   1.519
 7156SOL     OW22366   0.617   4.574   4.669
 7156SOL    HW122367   0.521   4.602   4.681
 7156SOL    HW222368   0.620   4.479   4.639
 7157SOL     OW22369   6.308   4.403   0.982
 7157SOL    HW122370   6.241   4.331   0.962
 7157SOL    HW222371   6.384   4.365   1.035
 7158SOL     OW22372   0.635   7.017   2.940
 7158SOL    HW122373   0.664   6.939   2.997
 7158SOL    HW222374   0.567   6.986   2.874
 7159SOL     OW22375   0.321   4.403   2.676
 7159SOL    HW122376   0.287   4.335   2.611
 7159SOL    HW222377   0.284   4.384   2.767
 7160SOL     OW22378   6.417   0.092   3.132
 7160SOL    HW122379   6.392   0.081   3.228
 7160SOL    HW222380   6.429   0.189   3.111
 7161SOL     OW22381   3.411   4.148   5.352
 7161SOL    HW122382   3.323   4.103   5.364
 7161SOL    HW222383   3.479   4.103   5.410
 7162SOL     OW22384   3.091   6.220   6.146
 7162SOL    HW122385   3.059   6.314   6.155
 7162SOL    HW222386   3.141   6.210   6.060
 7163SOL     OW22387   2.970   6.598   3.759
 7163SOL    HW122388   2.910   6.675   3.736
 7163SOL    HW222389   2.998   6.552   3.674
 7164SOL     OW22390   2.063   1.764   3.408
 7164SOL    HW122391   2.152   1.768   3.362
 7164SOL    HW222392   1.993   1.738   3.341
 7165SOL     OW22393   6.524   0.976   1.350
 7165SOL    HW122394   6.549   0.882   1.372
 7165SOL    HW222395   6.506   1.027   1.435
 7166SOL     OW22396   5.094   3.232   0.644
 7166SOL    HW122397   5.099   3.233   0.744
 7166SOL    HW222398   5.050   3.316   0.613
 7167SOL     OW22399   5.427   3.657   4.857
 7167SOL    HW122400   5.517   3.699   4.871
 7167SOL    HW222401   5.434   3.558   4.874
 7168SOL     OW22402   1.081   2.310   3.683
 7168SOL    HW122403   1.145   2.331   3.757
 7168SOL    HW222404   1.000   2.266   3.722
 7169SOL     OW22405   0.726   3.414   5.180
 7169SOL    HW122406   0.745   3.452   5.271
 7169SOL    HW222407   0.795   3.446   5.116
 7170SOL     OW22408   4.706   5.976   4.075
 7170SOL    HW122409   4.677   6.065   4.109
 7170SOL    HW222410   4.665   5.904   4.131
 7171SOL     OW22411   5.775   3.879   6.116
 7171SOL    HW122412   5.709   3.913   6.050
 7171SOL    HW222413   5.748   3.787   6.146
 7172SOL     OW22414   1.395   0.182   5.769
 7172SOL    HW122415   1.368   0.271   5.806
 7172SOL    HW222416   1.465   0.141   5.828
 7173SOL     OW22417   7.004   4.748   5.523
 7173SOL    HW122418   6.921   4.755   5.577
 7173SOL    HW222419   0.001   4.652   5.511
 7174SOL     OW22420   0.907   5.123   6.649
 7174SOL    HW122421   0.878   5.218   6.649
 7174SOL    HW222422   0.844   5.069   6.704
 7175SOL     OW22423   5.764   3.829   0.485
 7175SOL    HW122424   5.831   3.823   0.559
 7175SOL    HW222425   5.790   3.766   0.411
 7176SOL     OW22426   0.294   5.335   3.020
 7176SOL    HW122427   0.362   5.262   3.031
 7176SOL    HW222428   0.218   5.303   2.963
 7177SOL     OW22429   2.375   0.222   4.139
 7177SOL    HW122430   2.461   0.217   4.189
 7177SOL    HW222431   2.366   0.313   4.097
 7178SOL     OW22432   2.618   2.932   5.680
 7178SOL    HW122433   2.642   2.910   5.585
 7178SOL    HW222434   2.591   3.028   5.685
 7179SOL     OW22435   1.550   3.217   4.829
 7179SOL    HW122436   1.640   3.231   4.787
 7179SOL    HW222437   1.516   3.127   4.804
 7180SOL     OW22438   1.418   5.052   6.142
 7180SOL    HW122439   1.432   5.150   6.130
 7180SOL    HW222440   1.507   5.007   6.155
 7181SOL     OW22441   2.789   6.421   0.502
 7181SOL    HW122442   2.840   6.349   0.550
 7181SOL    HW222443   2.814   6.510   0.540
 7182SOL     OW22444   2.074   3.238   5.231
 7182SOL    HW122445   2.051   3.160   5.173
 7182SOL    HW222446   2.163   3.222   5.274
 7183SOL     OW22447   1.648   5.250   1.168
 7183SOL    HW122448   1.621   5.329   1.223
 7183SOL    HW222449   1.671   5.174   1.228
 7184SOL     OW22450   0.807   0.200   3.236
 7184SOL    HW122451   0.904   0.223   3.225
 7184SOL    HW222452   0.796   0.101   3.235
 7185SOL     OW22453   5.093   1.715   5.557
 7185SOL    HW122454   5.129   1.628   5.522
 7185SOL    HW222455   5.151   1.747   5.632
 7186SOL     OW22456   6.988   0.179   5.937
 7186SOL    HW122457   6.968   0.085   5.962
 7186SOL    HW222458   0.022   0.219   6.005
 7187SOL     OW22459   2.327   4.895   0.893
 7187SOL    HW122460   2.372   4.846   0.968
 7187SOL    HW222461   2.229   4.878   0.896
 7188SOL     OW22462   5.290   6.604   0.334
 7188SOL    HW122463   5.296   6.701   0.309
 7188SOL    HW222464   5.339   6.549   0.266
 7189SOL     OW22465   6.139   1.397   6.540
 7189SOL    HW122466   6.169   1.302   6.534
 7189SOL    HW222467   6.039   1.400   6.544
 7190SOL     OW22468   5.571   3.525   3.433
 7190SOL    HW122469   5.601   3.444   3.484
 7190SOL    HW222470   5.641   3.551   3.366
 7191SOL     OW22471   0.259   4.571   2.434
 7191SOL    HW122472   0.347   4.618   2.425
 7191SOL    HW222473   0.260   4.513   2.516
 7192SOL     OW22474   2.185   5.517   4.916
 7192SOL    HW122475   2.221   5.517   5.010
 7192SOL    HW222476   2.105   5.576   4.912
 7193SOL     OW22477   2.841   1.936   3.019
 7193SOL    HW122478   2.764   1.909   2.960
 7193SOL    HW222479   2.808   2.002   3.087
 7194SOL     OW22480   2.621   2.481   1.019
 7194SOL    HW122481   2.658   2.468   1.111
 7194SOL    HW222482   2.529   2.520   1.026
 7195SOL     OW22483   0.719   5.375   6.372
 7195SOL    HW122484   0.779   5.336   6.442
 7195SOL    HW222485   0.630   5.395   6.412
 7196SOL     OW22486   3.262   3.978   2.284
 7196SOL    HW122487   3.342   4.038   2.278
 7196SOL    HW222488   3.208   3.987   2.200
 7197SOL     OW22489   6.985   2.640   6.059
 7197SOL    HW122490   6.962   2.734   6.035
 7197SOL    HW222491   0.016   2.600   5.989
 7198SOL     OW22492   1.042   0.986   5.907
 7198SOL    HW122493   0.969   0.992   5.839
 7198SOL    HW222494   1.066   1.078   5.939
 7199SOL     OW22495   2.381   0.687   2.050
 7199SOL    HW122496   2.370   0.774   2.097
 7199SOL    HW222497   2.294   0.637   2.051
 7200SOL     OW22498   2.532   1.413   0.273
 7200SOL    HW122499   2.592   1.491   0.259
 7200SOL    HW222500   2.504   1.410   0.369
 7201SOL     OW22501   1.701   5.683   3.736
 7201SOL    HW122502   1.780   5.733   3.771
 7201SOL    HW222503   1.650   5.643   3.812
 7202SOL     OW22504   3.911   0.120   5.812
 7202SOL    HW122505   3.830   0.086   5.860
 7202SOL    HW222506   3.978   0.152   5.879
 7203SOL     OW22507   6.929   1.187   0.789
 7203SOL    HW122508   6.889   1.211   0.878
 7203SOL    HW222509   7.024   1.158   0.803
 7204SOL     OW22510   5.986   6.864   5.062
 7204SOL    HW122511   5.978   6.816   4.975
 7204SOL    HW222512   5.926   6.944   5.062
 7205SOL     OW22513   1.965   6.053   3.387
 7205SOL    HW122514   2.052   6.019   3.351
 7205SOL    HW222515   1.973   6.151   3.407
 7206SOL     OW22516   2.017   0.505   1.793
 7206SOL    HW122517   1.987   0.593   1.755
 7206SOL    HW222518   2.092   0.522   1.858
 7207SOL     OW22519   3.494   6.504   1.445
 7207SOL    HW122520   3.487   6.585   1.387
 7207SOL    HW222521   3.418   6.442   1.426
 7208SOL     OW22522   4.263   6.441   4.651
 7208SOL    HW122523   4.309   6.509   4.594
 7208SOL    HW222524   4.316   6.424   4.733
 7209SOL     OW22525   3.188   3.685   2.970
 7209SOL    HW122526   3.266   3.706   3.029
 7209SOL    HW222527   3.198   3.733   2.883
 7210SOL     OW22528   4.719   7.014   3.873
 7210SOL    HW122529   4.800   0.028   3.915
 7210SOL    HW222530   4.746   6.926   3.832
 7211SOL     OW22531   2.413   5.793   3.710
 7211SOL    HW122532   2.447   5.753   3.795
 7211SOL    HW222533   2.459   5.880   3.694
 7212SOL     OW22534   0.858   6.223   3.206
 7212SOL    HW122535   0.805   6.174   3.275
 7212SOL    HW222536   0.942   6.172   3.186
 7213SOL     OW22537   5.697   0.500   6.504
 7213SOL    HW122538   5.639   0.547   6.570
 7213SOL    HW222539   5.750   0.429   6.552
 7214SOL     OW22540   2.009   5.410   4.136
 7214SOL    HW122541   2.002   5.468   4.054
 7214SOL    HW222542   2.091   5.353   4.129
 7215SOL     OW22543   0.542   3.258   3.850
 7215SOL    HW122544   0.576   3.178   3.900
 7215SOL    HW222545   0.450   3.281   3.881
 7216SOL     OW22546   2.300   5.932   6.680
 7216SOL    HW122547   2.321   5.885   6.594
 7216SOL    HW222548   2.347   5.886   6.755
 7217SOL     OW22549   2.295   4.111   1.925
 7217SOL    HW122550   2.362   4.157   1.866
 7217SOL    HW222551   2.210   4.163   1.926
 7218SOL     OW22552   4.518   2.803   5.221
 7218SOL    HW122553   4.466   2.732   5.269
 7218SOL    HW222554   4.491   2.893   5.256
 7219SOL     OW22555   5.213   5.669   3.773
 7219SOL    HW122556   5.176   5.625   3.691
 7219SOL    HW222557   5.206   5.606   3.850
 7220SOL     OW22558   0.269   5.315   4.001
 7220SOL    HW122559   0.187   5.341   3.951
 7220SOL    HW222560   0.350   5.341   3.948
 7221SOL     OW22561   5.275   4.885   5.536
 7221SOL    HW122562   5.352   4.832   5.499
 7221SOL    HW222563   5.288   4.897   5.634
 7222SOL     OW22564   6.202   6.809   0.828
 7222SOL    HW122565   6.278   6.754   0.794
 7222SOL    HW222566   6.131   6.814   0.758
 7223SOL     OW22567   2.745   1.832   1.596
 7223SOL    HW122568   2.744   1.926   1.563
 7223SOL    HW222569   2.734   1.830   1.695
 7224SOL     OW22570   5.815   1.988   4.554
 7224SOL    HW122571   5.876   1.910   4.568
 7224SOL    HW222572   5.720   1.959   4.571
 7225SOL     OW22573   1.574   6.097   6.370
 7225SOL    HW122574   1.625   6.051   6.442
 7225SOL    HW222575   1.502   6.153   6.410
 7226SOL     OW22576   1.285   0.438   0.302
 7226SOL    HW122577   1.299   0.426   0.204
 7226SOL    HW222578   1.213   0.506   0.317
 7227SOL     OW22579   0.913   2.226   1.023
 7227SOL    HW122580   0.827   2.199   0.980
 7227SOL    HW222581   0.901   2.312   1.073
 7228SOL     OW22582   0.147   1.024   2.226
 7228SOL    HW122583   0.195   1.105   2.190
 7228SOL    HW222584   0.110   0.972   2.149
 7229SOL     OW22585   1.235   0.867   3.792
 7229SOL    HW122586   1.329   0.863   3.825
 7229SOL    HW222587   1.224   0.802   3.716
 7230SOL     OW22588   4.388   5.939   4.958
 7230SOL    HW122589   4.419   5.875   5.028
 7230SOL    HW222590   4.455   6.012   4.948
 7231SOL     OW22591   4.602   0.076   0.097
 7231SOL    HW122592   4.695   0.110   0.111
 7231SOL    HW222593   4.605   7.009   0.064
 7232SOL     OW22594   3.807   4.871   3.377
 7232SOL    HW122595   3.836   4.930   3.453
 7232SOL    HW222596   3.707   4.860   3.379
 7233SOL     OW22597   0.475   2.617   4.691
 7233SOL    HW122598   0.391   2.568   4.714
 7233SOL    HW222599   0.519   2.573   4.613
 7234SOL     OW22600   5.771   2.717   2.954
 7234SOL    HW122601   5.866   2.748   2.952
 7234SOL    HW222602   5.735   2.713   2.861
 7235SOL     OW22603   6.477   4.343   3.055
 7235SOL    HW122604   6.503   4.437   3.033
 7235SOL    HW222605   6.377   4.336   3.059
 7236SOL     OW22606   2.642   1.914   2.828
 7236SOL    HW122607   2.601   1.846   2.767
 7236SOL    HW222608   2.727   1.948   2.787
 7237SOL     OW22609   6.780   6.684   5.079
 7237SOL    HW122610   6.716   6.673   5.002
 7237SOL    HW222611   6.830   6.598   5.093
 7238SOL     OW22612   2.345   2.187   1.100
 7238SOL    HW122613   2.286   2.108   1.083
 7238SOL    HW222614   2.334   2.253   1.027
 7239SOL     OW22615   2.677   1.907   3.687
 7239SOL    HW122616   2.622   1.904   3.771
 7239SOL    HW222617   2.770   1.935   3.710
 7240SOL     OW22618   2.563   4.359   6.745
 7240SOL    HW122619   2.601   4.287   6.802
 7240SOL    HW222620   2.478   4.328   6.704
 7241SOL     OW22621   2.853   0.626   6.557
 7241SOL    HW122622   2.917   0.598   6.629
 7241SOL    HW222623   2.874   0.720   6.529
 7242SOL     OW22624   6.397   4.476   6.810
 7242SOL    HW122625   6.490   4.473   6.848
 7242SOL    HW222626   6.331   4.478   6.885
 7243SOL     OW22627   0.635   4.498   6.993
 7243SOL    HW122628   0.576   4.577   6.972
 7243SOL    HW222629   0.721   4.507   6.943
 7244SOL     OW22630   4.269   0.498   1.336
 7244SOL    HW122631   4.247   0.579   1.281
 7244SOL    HW222632   4.184   0.455   1.367
 7245SOL     OW22633   0.627   2.477   4.948
 7245SOL    HW122634   0.627   2.477   5.048
 7245SOL    HW222635   0.607   2.570   4.915
 7246SOL     OW22636   6.689   6.961   4.331
 7246SOL    HW122637   6.630   6.944   4.252
 7246SOL    HW222638   6.784   6.970   4.301
 7247SOL     OW22639   2.635   6.754   2.831
 7247SOL    HW122640   2.590   6.674   2.870
 7247SOL    HW222641   2.675   6.809   2.905
 7248SOL     OW22642   3.378   1.211   3.798
 7248SOL    HW122643   3.350   1.217   3.703
 7248SOL    HW222644   3.469   1.251   3.809
 7249SOL     OW22645   5.949   5.126   2.048
 7249SOL    HW122646   5.994   5.038   2.032
 7249SOL    HW222647   5.856   5.110   2.083
 7250SOL     OW22648   2.910   4.834   6.209
 7250SOL    HW122649   2.989   4.887   6.179
 7250SOL    HW222650   2.915   4.742   6.171
 7251SOL     OW22651   6.988   6.689   5.420
 7251SOL    HW122652   6.903   6.730   5.385
 7251SOL    HW222653   0.030   6.761   5.430
 7252SOL     OW22654   3.443   3.151   4.567
 7252SOL    HW122655   3.406   3.095   4.494
 7252SOL    HW222656   3.528   3.110   4.602
 7253SOL     OW22657   1.703   6.279   0.303
 7253SOL    HW122658   1.638   6.219   0.257
 7253SOL    HW222659   1.758   6.225   0.367
 7254SOL     OW22660   3.928   5.497   5.207
 7254SOL    HW122661   3.966   5.557   5.136
 7254SOL    HW222662   3.883   5.552   5.277
 7255SOL     OW22663   3.525   3.613   2.035
 7255SOL    HW122664   3.464   3.536   2.051
 7255SOL    HW222665   3.489   3.694   2.082
 7256SOL     OW22666   4.995   5.030   4.777
 7256SOL    HW122667   5.001   4.989   4.868
 7256SOL    HW222668   4.977   5.128   4.785
 7257SOL     OW22669   5.974   3.349   3.323
 7257SOL    HW122670   6.051   3.330   3.262
 7257SOL    HW222671   5.914   3.417   3.282
 7258SOL     OW22672   4.416   0.140   4.394
 7258SOL    HW122673   4.395   0.197   4.472
 7258SOL    HW222674   4.469   0.192   4.327
 7259SOL     OW22675   2.987   3.923   1.006
 7259SOL    HW122676   3.030   3.835   0.986
 7259SOL    HW222677   2.958   3.925   1.101
 7260SOL     OW22678   3.578   1.704   3.124
 7260SOL    HW122679   3.510   1.772   3.095
 7260SOL    HW222680   3.644   1.689   3.050
 7261SOL     OW22681   2.834   2.730   1.703
 7261SOL    HW122682   2.767   2.755   1.633
 7261SOL    HW222683   2.895   2.660   1.668
 7262SOL     OW22684   6.098   2.218   4.101
 7262SOL    HW122685   6.023   2.275   4.132
 7262SOL    HW222686   6.115   2.234   4.004
 7263SOL     OW22687   1.045   5.475   1.615
 7263SOL    HW122688   1.125   5.474   1.675
 7263SOL    HW222689   0.983   5.401   1.640
 7264SOL     OW22690   0.073   2.004   6.791
 7264SOL    HW122691   0.075   1.933   6.721
 7264SOL    HW222692   0.045   2.091   6.751
 7265SOL     OW22693   5.540   4.997   6.220
 7265SOL    HW122694   5.473   4.935   6.179
 7265SOL    HW222695   5.628   4.950   6.228
 7266SOL     OW22696   4.111   0.402   1.054
 7266SOL    HW122697   4.036   0.468   1.059
 7266SOL    HW222698   4.098   0.332   1.125
 7267SOL     OW22699   6.458   4.828   5.177
 7267SOL    HW122700   6.468   4.730   5.160
 7267SOL    HW222701   6.548   4.869   5.188
 7268SOL     OW22702   4.204   5.153   3.049
 7268SOL    HW122703   4.115   5.130   3.089
 7268SOL    HW222704   4.253   5.215   3.110
 7269SOL     OW22705   0.618   5.911   1.646
 7269SOL    HW122706   0.673   5.831   1.670
 7269SOL    HW222707   0.658   5.993   1.688
 7270SOL     OW22708   2.311   1.771   3.301
 7270SOL    HW122709   2.345   1.794   3.209
 7270SOL    HW222710   2.346   1.837   3.367
 7271SOL     OW22711   0.579   4.311   3.180
 7271SOL    HW122712   0.582   4.389   3.243
 7271SOL    HW222713   0.644   4.326   3.106
 7272SOL     OW22714   5.560   3.089   2.977
 7272SOL    HW122715   5.617   3.165   3.008
 7272SOL    HW222716   5.602   3.046   2.898
 7273SOL     OW22717   5.804   4.260   1.601
 7273SOL    HW122718   5.882   4.262   1.538
 7273SOL    HW222719   5.760   4.350   1.603
 7274SOL     OW22720   0.095   5.485   6.235
 7274SOL    HW122721   0.090   5.551   6.160
 7274SOL    HW222722   0.143   5.525   6.313
 7275SOL     OW22723   6.311   0.632   0.408
 7275SOL    HW122724   6.257   0.611   0.490
 7275SOL    HW222725   6.333   0.729   0.407
 7276SOL     OW22726   2.945   1.501   3.442
 7276SOL    HW122727   2.901   1.457   3.364
 7276SOL    HW222728   2.978   1.591   3.415
 7277SOL     OW22729   4.813   1.174   5.766
 7277SOL    HW122730   4.731   1.163   5.823
 7277SOL    HW222731   4.882   1.107   5.795
 7278SOL     OW22732   3.846   2.017   3.263
 7278SOL    HW122733   3.831   2.074   3.344
 7278SOL    HW222734   3.942   1.990   3.260
 7279SOL     OW22735   4.217   4.262   0.962
 7279SOL    HW122736   4.317   4.262   0.976
 7279SOL    HW222737   4.197   4.287   0.868
 7280SOL     OW22738   5.304   2.550   5.325
 7280SOL    HW122739   5.318   2.623   5.392
 7280SOL    HW222740   5.348   2.575   5.239
 7281SOL     OW22741   3.305   6.910   0.946
 7281SOL    HW122742   3.208   6.897   0.968
 7281SOL    HW222743   3.350   6.957   1.023
 7282SOL     OW22744   6.735   5.645   1.661
 7282SOL    HW122745   6.823   5.679   1.629
 7282SOL    HW222746   6.667   5.718   1.652
 7283SOL     OW22747   3.322   6.650   2.195
 7283SOL    HW122748   3.234   6.618   2.160
 7283SOL    HW222749   3.396   6.615   2.138
 7284SOL     OW22750   6.509   2.774   3.823
 7284SOL    HW122751   6.504   2.828   3.739
 7284SOL    HW222752   6.557   2.828   3.893
 7285SOL     OW22753   5.035   2.730   1.330
 7285SOL    HW122754   5.061   2.736   1.426
 7285SOL    HW222755   5.107   2.685   1.278
 7286SOL     OW22756   1.053   1.284   0.454
 7286SOL    HW122757   0.966   1.331   0.447
 7286SOL    HW222758   1.062   1.244   0.545
 7287SOL     OW22759   6.971   2.577   3.847
 7287SOL    HW122760   0.007   2.640   3.803
 7287SOL    HW222761   6.913   2.627   3.911
 7288SOL     OW22762   2.431   2.560   2.825
 7288SOL    HW122763   2.402   2.656   2.824
 7288SOL    HW222764   2.484   2.543   2.908
 7289SOL     OW22765   5.480   2.753   1.893
 7289SOL    HW122766   5.384   2.764   1.918
 7289SOL    HW222767   5.486   2.695   1.811
 7290SOL     OW22768   4.029   0.793   5.771
 7290SOL    HW122769   3.929   0.799   5.778
 7290SOL    HW222770   4.070   0.870   5.819
 7291SOL     OW22771   3.351   0.170   6.971
 7291SOL    HW122772   3.412   0.132   0.013
 7291SOL    HW222773   3.290   0.237   7.013
 7292SOL     OW22774   1.707   6.884   3.545
 7292SOL    HW122775   1.790   6.931   3.576
 7292SOL    HW222776   1.710   6.873   3.446
 7293SOL     OW22777   1.020   1.289   5.683
 7293SOL    HW122778   1.095   1.355   5.692
 7293SOL    HW222779   1.034   1.234   5.600
 7294SOL     OW22780   2.957   4.606   1.571
 7294SOL    HW122781   2.960   4.550   1.653
 7294SOL    HW222782   2.960   4.548   1.490
 7295SOL     OW22783   6.103   4.939   1.534
 7295SOL    HW122784   6.014   4.937   1.488
 7295SOL    HW222785   6.173   4.899   1.474
 7296SOL     OW22786   3.456   4.894   2.607
 7296SOL    HW122787   3.519   4.934   2.540
 7296SOL    HW222788   3.468   4.795   2.609
 7297SOL     OW22789   3.419   6.340   1.888
 7297SOL    HW122790   3.368   6.404   1.830
 7297SOL    HW222791   3.433   6.254   1.838
 7298SOL     OW22792   4.485   6.301   6.693
 7298SOL    HW122793   4.456   6.354   6.613
 7298SOL    HW222794   4.585   6.301   6.698
 7299SOL     OW22795   1.233   2.653   7.016
 7299SOL    HW122796   1.143   2.685   0.018
 7299SOL    HW222797   1.222   2.581   6.946
 7300SOL     OW22798   0.895   5.072   2.109
 7300SOL    HW122799   0.877   5.086   2.206
 7300SOL    HW222800   0.853   5.146   2.056
 7301SOL     OW22801   6.897   0.736   5.894
 7301SOL    HW122802   6.962   0.661   5.912
 7301SOL    HW222803   6.865   0.730   5.800
 7302SOL     OW22804   5.716   2.919   5.991
 7302SOL    HW122805   5.634   2.940   6.044
 7302SOL    HW222806   5.747   2.827   6.013
 7303SOL     OW22807   3.207   1.518   0.653
 7303SOL    HW122808   3.288   1.559   0.612
 7303SOL    HW222809   3.170   1.449   0.592
 7304SOL     OW22810   2.393   5.331   1.943
 7304SOL    HW122811   2.395   5.237   1.976
 7304SOL    HW222812   2.360   5.391   2.016
 7305SOL     OW22813   5.489   2.468   0.253
 7305SOL    HW122814   5.433   2.494   0.174
 7305SOL    HW222815   5.430   2.436   0.327
 7306SOL     OW22816   3.491   1.678   1.042
 7306SOL    HW122817   3.541   1.755   1.004
 7306SOL    HW222818   3.423   1.711   1.108
 7307SOL     OW22819   3.824   6.426   1.909
 7307SOL    HW122820   3.773   6.379   1.836
 7307SOL    HW222821   3.817   6.372   1.993
 7308SOL     OW22822   6.196   1.031   2.211
 7308SOL    HW122823   6.244   0.977   2.281
 7308SOL    HW222824   6.256   1.043   2.132
 7309SOL     OW22825   2.767   5.964   2.955
 7309SOL    HW122826   2.726   6.039   3.008
 7309SOL    HW222827   2.697   5.924   2.896
 7310SOL     OW22828   1.456   3.263   0.264
 7310SOL    HW122829   1.433   3.216   0.178
 7310SOL    HW222830   1.426   3.358   0.260
 7311SOL     OW22831   1.121   0.659   0.338
 7311SOL    HW122832   1.148   0.719   0.413
 7311SOL    HW222833   1.022   0.664   0.325
 7312SOL     OW22834   0.235   1.832   5.273
 7312SOL    HW122835   0.247   1.925   5.309
 7312SOL    HW222836   0.138   1.811   5.265
 7313SOL     OW22837   2.805   0.936   1.303
 7313SOL    HW122838   2.788   0.851   1.352
 7313SOL    HW222839   2.899   0.938   1.271
 7314SOL     OW22840   6.957   3.968   0.091
 7314SOL    HW122841   6.954   3.868   0.087
 7314SOL    HW222842   0.025   3.998   0.084
 7315SOL     OW22843   6.493   5.270   2.479
 7315SOL    HW122844   6.411   5.299   2.430
 7315SOL    HW222845   6.559   5.345   2.481
 7316SOL     OW22846   3.290   2.194   6.247
 7316SOL    HW122847   3.298   2.294   6.250
 7316SOL    HW222848   3.231   2.163   6.321
 7317SOL     OW22849   3.402   1.718   1.902
 7317SOL    HW122850   3.479   1.732   1.964
 7317SOL    HW222851   3.434   1.684   1.814
 7318SOL     OW22852   4.199   6.617   2.466
 7318SOL    HW122853   4.230   6.710   2.484
 7318SOL    HW222854   4.233   6.556   2.537
 7319SOL     OW22855   6.950   3.699   6.764
 7319SOL    HW122856   6.883   3.767   6.734
 7319SOL    HW222857   0.015   3.733   6.746
 7320SOL     OW22858   7.018   3.887   1.187
 7320SOL    HW122859   0.056   3.831   1.136
 7320SOL    HW222860   7.017   3.980   1.150
 7321SOL     OW22861   1.947   6.247   6.320
 7321SOL    HW122862   1.953   6.253   6.220
 7321SOL    HW222863   2.037   6.225   6.358
 7322SOL     OW22864   0.988   1.475   3.080
 7322SOL    HW122865   0.909   1.500   3.136
 7322SOL    HW222866   1.048   1.413   3.131
 7323SOL     OW22867   2.408   1.190   1.887
 7323SOL    HW122868   2.445   1.190   1.980
 7323SOL    HW222869   2.338   1.261   1.879
 7324SOL     OW22870   5.822   4.461   2.114
 7324SOL    HW122871   5.867   4.372   2.119
 7324SOL    HW222872   5.868   4.525   2.177
 7325SOL     OW22873   3.587   0.629   5.878
 7325SOL    HW122874   3.591   0.584   5.789
 7325SOL    HW222875   3.492   0.642   5.905
 7326SOL     OW22876   3.236   0.807   6.142
 7326SOL    HW122877   3.242   0.874   6.069
 7326SOL    HW222878   3.316   0.747   6.139
 7327SOL     OW22879   5.778   3.799   3.000
 7327SOL    HW122880   5.686   3.784   3.037
 7327SOL    HW222881   5.846   3.767   3.065
 7328SOL     OW22882   3.984   5.261   5.918
 7328SOL    HW122883   3.924   5.183   5.898
 7328SOL    HW222884   4.074   5.227   5.946
 7329SOL     OW22885   1.473   2.748   6.881
 7329SOL    HW122886   1.497   2.656   6.852
 7329SOL    HW222887   1.391   2.745   6.938
 7330SOL     OW22888   3.015   3.020   1.195
 7330SOL    HW122889   3.085   3.066   1.249
 7330SOL    HW222890   2.970   2.950   1.250
 7331SOL     OW22891   5.019   0.438   1.982
 7331SOL    HW122892   4.928   0.458   1.947
 7331SOL    HW222893   5.087   0.464   1.913
 7332SOL     OW22894   4.139   4.234   0.201
 7332SOL    HW122895   4.177   4.180   0.126
 7332SOL    HW222896   4.083   4.308   0.164
 7333SOL     OW22897   6.148   3.292   3.112
 7333SOL    HW122898   6.104   3.300   3.023
 7333SOL    HW222899   6.247   3.293   3.101
 7334SOL     OW22900   2.753   6.495   6.245
 7334SOL    HW122901   2.829   6.517   6.183
 7334SOL    HW222902   2.713   6.580   6.280
 7335SOL     OW22903   6.714   3.674   2.860
 7335SOL    HW122904   6.749   3.602   2.801
 7335SOL    HW222905   6.675   3.748   2.804
 7336SOL     OW22906   1.586   6.059   0.927
 7336SOL    HW122907   1.626   5.985   0.872
 7336SOL    HW222908   1.654   6.092   0.992
 7337SOL     OW22909   3.692   2.649   1.795
 7337SOL    HW122910   3.639   2.702   1.861
 7337SOL    HW222911   3.704   2.556   1.828
 7338SOL     OW22912   5.687   2.652   1.097
 7338SOL    HW122913   5.630   2.570   1.097
 7338SOL    HW222914   5.631   2.731   1.068
 7339SOL     OW22915   0.101   6.258   4.873
 7339SOL    HW122916   0.017   6.206   4.889
 7339SOL    HW222917   0.173   6.197   4.841
 7340SOL     OW22918   3.590   1.284   0.330
 7340SOL    HW122919   3.641   1.198   0.334
 7340SOL    HW222920   3.492   1.264   0.335
 7341SOL     OW22921   0.532   4.886   3.802
 7341SOL    HW122922   0.479   4.961   3.841
 7341SOL    HW222923   0.610   4.922   3.752
 7342SOL     OW22924   6.531   0.607   0.694
 7342SOL    HW122925   6.492   0.656   0.773
 7342SOL    HW222926   6.497   0.648   0.610
 7343SOL     OW22927   5.930   3.567   1.920
 7343SOL    HW122928   5.995   3.637   1.892
 7343SOL    HW222929   5.869   3.546   1.844
 7344SOL     OW22930   1.455   6.608   6.647
 7344SOL    HW122931   1.542   6.627   6.692
 7344SOL    HW222932   1.472   6.579   6.553
 7345SOL     OW22933   4.432   4.720   5.808
 7345SOL    HW122934   4.516   4.697   5.857
 7345SOL    HW222935   4.382   4.636   5.787
 7346SOL     OW22936   3.422   4.260   1.393
 7346SOL    HW122937   3.501   4.322   1.386
 7346SOL    HW222938   3.390   4.258   1.488
 7347SOL     OW22939   6.082   2.521   2.249
 7347SOL    HW122940   6.084   2.564   2.159
 7347SOL    HW222941   6.158   2.556   2.304
 7348SOL     OW22942   1.164   3.336   3.870
 7348SOL    HW122943   1.252   3.295   3.895
 7348SOL    HW222944   1.090   3.280   3.906
 7349SOL     OW22945   3.443   1.910   1.423
 7349SOL    HW122946   3.483   1.961   1.499
 7349SOL    HW222947   3.476   1.949   1.336
 7350SOL     OW22948   0.344   2.566   3.657
 7350SOL    HW122949   0.287   2.641   3.692
 7350SOL    HW222950   0.326   2.483   3.709
 7351SOL     OW22951   4.297   4.683   6.881
 7351SOL    HW122952   4.395   4.670   6.869
 7351SOL    HW222953   4.248   4.605   6.840
 7352SOL     OW22954   1.687   1.457   3.084
 7352SOL    HW122955   1.660   1.465   3.180
 7352SOL    HW222956   1.660   1.367   3.050
 7353SOL     OW22957   6.916   2.066   5.268
 7353SOL    HW122958   7.001   2.060   5.216
 7353SOL    HW222959   6.936   2.056   5.366
 7354SOL     OW22960   6.346   1.282   5.761
 7354SOL    HW122961   6.427   1.337   5.741
 7354SOL    HW222962   6.265   1.340   5.759
 7355SOL     OW22963   1.676   5.862   1.439
 7355SOL    HW122964   1.753   5.817   1.483
 7355SOL    HW222965   1.691   5.961   1.438
 7356SOL     OW22966   5.470   2.496   6.606
 7356SOL    HW122967   5.380   2.538   6.594
 7356SOL    HW222968   5.535   2.539   6.542
 7357SOL     OW22969   4.960   0.956   1.288
 7357SOL    HW122970   4.875   0.949   1.236
 7357SOL    HW222971   5.005   0.866   1.291
 7358SOL     OW22972   3.354   1.877   3.030
 7358SOL    HW122973   3.351   1.860   2.932
 7358SOL    HW222974   3.278   1.937   3.056
 7359SOL     OW22975   3.367   2.643   1.733
 7359SOL    HW122976   3.374   2.723   1.673
 7359SOL    HW222977   3.441   2.579   1.713
 7360SOL     OW22978   1.405   2.644   4.910
 7360SOL    HW122979   1.404   2.742   4.930
 7360SOL    HW222980   1.492   2.619   4.868
 7361SOL     OW22981   4.980   6.955   0.817
 7361SOL    HW122982   5.045   7.013   0.866
 7361SOL    HW222983   4.990   6.971   0.718
 7362SOL     OW22984   0.801   0.202   5.272
 7362SOL    HW122985   0.889   0.249   5.273
 7362SOL    HW222986   0.735   0.255   5.326
 7363SOL     OW22987   5.432   2.378   0.545
 7363SOL    HW122988   5.525   2.344   0.562
 7363SOL    HW222989   5.432   2.478   0.549
 7364SOL     OW22990   4.229   6.513   1.362
 7364SOL    HW122991   4.217   6.421   1.324
 7364SOL    HW222992   4.201   6.512   1.459
 7365SOL     OW22993   3.535   6.423   2.621
 7365SOL    HW122994   3.630   6.402   2.646
 7365SOL    HW222995   3.519   6.521   2.631
 7366SOL     OW22996   0.793   5.341   6.976
 7366SOL    HW122997   0.744   5.298   0.024
 7366SOL    HW222998   0.804   5.439   6.994
 7367SOL     OW22999   4.260   4.029   1.409
 7367SOL    HW123000   4.255   3.936   1.445
 7367SOL    HW223001   4.326   4.034   1.335
 7368SOL     OW23002   2.993   3.335   4.553
 7368SOL    HW123003   2.972   3.391   4.633
 7368SOL    HW223004   2.986   3.238   4.577
 7369SOL     OW23005   4.677   3.420   1.091
 7369SOL    HW123006   4.673   3.360   1.171
 7369SOL    HW223007   4.679   3.516   1.121
 7370SOL     OW23008   1.621   0.456   6.697
 7370SOL    HW123009   1.676   0.537   6.677
 7370SOL    HW223010   1.676   0.391   6.750
 7371SOL     OW23011   2.975   5.331   3.835
 7371SOL    HW123012   2.913   5.269   3.787
 7371SOL    HW223013   2.983   5.416   3.784
 7372SOL     OW23014   3.400   6.990   5.475
 7372SOL    HW123015   3.306   6.957   5.470
 7372SOL    HW223016   3.459   6.917   5.511
 7373SOL     OW23017   4.840   1.206   3.508
 7373SOL    HW123018   4.865   1.111   3.486
 7373SOL    HW223019   4.888   1.268   3.447
 7374SOL     OW23020   1.991   2.745   5.360
 7374SOL    HW123021   1.899   2.764   5.394
 7374SOL    HW223022   2.048   2.827   5.368
 7375SOL     OW23023   1.597   1.730   3.896
 7375SOL    HW123024   1.615   1.828   3.889
 7375SOL    HW223025   1.684   1.680   3.897
 7376SOL     OW23026   3.037   2.807   6.805
 7376SOL    HW123027   3.056   2.757   6.721
 7376SOL    HW223028   3.009   2.742   6.876
 7377SOL     OW23029   4.612   5.419   1.949
 7377SOL    HW123030   4.674   5.491   1.979
 7377SOL    HW223031   4.655   5.330   1.965
 7378SOL     OW23032   6.367   1.735   4.440
 7378SOL    HW123033   6.390   1.668   4.511
 7378SOL    HW223034   6.356   1.688   4.352
 7379SOL     OW23035   4.364   1.057   2.524
 7379SOL    HW123036   4.441   1.113   2.495
 7379SOL    HW223037   4.395   0.987   2.588
 7380SOL     OW23038   6.465   3.312   6.121
 7380SOL    HW123039   6.489   3.220   6.090
 7380SOL    HW223040   6.365   3.320   6.125
 7381SOL     OW23041   4.722   2.715   2.766
 7381SOL    HW123042   4.700   2.650   2.693
 7381SOL    HW223043   4.674   2.690   2.849
 7382SOL     OW23044   0.395   4.793   4.783
 7382SOL    HW123045   0.325   4.823   4.848
 7382SOL    HW223046   0.352   4.774   4.695
 7383SOL     OW23047   6.672   6.802   2.356
 7383SOL    HW123048   6.733   6.766   2.285
 7383SOL    HW223049   6.724   6.858   2.420
 7384SOL     OW23050   5.436   1.124   1.905
 7384SOL    HW123051   5.451   1.029   1.878
 7384SOL    HW223052   5.478   1.185   1.838
 7385SOL     OW23053   4.290   5.356   2.208
 7385SOL    HW123054   4.205   5.346   2.156
 7385SOL    HW223055   4.304   5.274   2.265
 7386SOL     OW23056   0.629   2.994   5.470
 7386SOL    HW123057   0.654   3.050   5.391
 7386SOL    HW223058   0.712   2.968   5.519
 7387SOL     OW23059   4.061   6.320   4.482
 7387SOL    HW123060   4.130   6.372   4.532
 7387SOL    HW223061   4.099   6.233   4.452
 7388SOL     OW23062   6.794   5.889   4.047
 7388SOL    HW123063   6.784   5.811   3.986
 7388SOL    HW223064   6.860   5.954   4.009
 7389SOL     OW23065   1.374   4.561   6.737
 7389SOL    HW123066   1.314   4.508   6.797
 7389SOL    HW223067   1.378   4.656   6.768
 7390SOL     OW23068   1.394   1.852   6.535
 7390SOL    HW123069   1.483   1.890   6.512
 7390SOL    HW223070   1.323   1.900   6.483
 7391SOL     OW23071   4.691   4.251   5.341
 7391SOL    HW123072   4.690   4.167   5.395
 7391SOL    HW223073   4.784   4.288   5.338
 7392SOL     OW23074   2.227   5.848   5.934
 7392SOL    HW123075   2.182   5.921   5.882
 7392SOL    HW223076   2.194   5.759   5.901
 7393SOL     OW23077   5.757   5.436   1.565
 7393SOL    HW123078   5.676   5.495   1.567
 7393SOL    HW223079   5.805   5.448   1.478
 7394SOL     OW23080   3.769   2.980   6.022
 7394SOL    HW123081   3.830   2.905   6.046
 7394SOL    HW223082   3.824   3.060   5.997
 7395SOL     OW23083   0.775   0.523   6.817
 7395SOL    HW123084   0.733   0.614   6.821
 7395SOL    HW223085   0.721   0.459   6.871
 7396SOL     OW23086   1.727   1.031   6.505
 7396SOL    HW123087   1.778   1.090   6.443
 7396SOL    HW223088   1.745   1.057   6.599
 7397SOL     OW23089   6.237   5.026   4.329
 7397SOL    HW123090   6.290   5.098   4.284
 7397SOL    HW223091   6.230   5.045   4.427
 7398SOL     OW23092   3.723   5.105   4.444
 7398SOL    HW123093   3.634   5.147   4.464
 7398SOL    HW223094   3.790   5.176   4.426
 7399SOL     OW23095   0.439   4.239   5.626
 7399SOL    HW123096   0.432   4.230   5.527
 7399SOL    HW223097   0.530   4.272   5.650
 7400SOL     OW23098   3.179   4.302   0.064
 7400SOL    HW123099   3.136   4.219   0.030
 7400SOL    HW223100   3.276   4.302   0.038
 7401SOL     OW23101   0.615   1.096   3.497
 7401SOL    HW123102   0.638   1.114   3.593
 7401SOL    HW223103   0.523   1.131   3.477
 7402SOL     OW23104   1.963   0.129   4.079
 7402SOL    HW123105   2.050   0.109   4.033
 7402SOL    HW223106   1.902   0.175   4.015
 7403SOL     OW23107   2.232   2.793   3.011
 7403SOL    HW123108   2.227   2.882   3.055
 7403SOL    HW223109   2.200   2.722   3.074
 7404SOL     OW23110   2.171   0.367   1.252
 7404SOL    HW123111   2.204   0.443   1.196
 7404SOL    HW223112   2.119   0.304   1.195
 7405SOL     OW23113   1.210   4.583   4.242
 7405SOL    HW123114   1.289   4.632   4.277
 7405SOL    HW223115   1.127   4.618   4.285
 7406SOL     OW23116   1.617   3.853   2.817
 7406SOL    HW123117   1.654   3.831   2.908
 7406SOL    HW223118   1.539   3.793   2.798
 7407SOL     OW23119   0.559   6.487   4.535
 7407SOL    HW123120   0.472   6.439   4.538
 7407SOL    HW223121   0.589   6.509   4.628
 7408SOL     OW23122   1.579   4.310   5.456
 7408SOL    HW123123   1.662   4.305   5.510
 7408SOL    HW223124   1.569   4.403   5.418
 7409SOL     OW23125   0.663   0.964   4.758
 7409SOL    HW123126   0.637   1.030   4.829
 7409SOL    HW223127   0.721   0.894   4.798
 7410SOL     OW23128   6.772   4.881   1.093
 7410SOL    HW123129   6.852   4.846   1.141
 7410SOL    HW223130   6.694   4.820   1.108
 7411SOL     OW23131   2.574   0.207   4.494
 7411SOL    HW123132   2.495   0.268   4.495
 7411SOL    HW223133   2.650   0.250   4.542
 7412SOL     OW23134   3.192   1.098   1.250
 7412SOL    HW123135   3.164   1.010   1.211
 7412SOL    HW223136   3.130   1.170   1.218
 7413SOL     OW23137   0.256   4.495   3.576
 7413SOL    HW123138   0.282   4.562   3.646
 7413SOL    HW223139   0.321   4.498   3.501
 7414SOL     OW23140   0.136   0.423   2.635
 7414SOL    HW123141   0.098   0.360   2.703
 7414SOL    HW223142   0.071   0.498   2.619
 7415SOL     OW23143   0.591   3.729   3.285
 7415SOL    HW123144   0.679   3.748   3.240
 7415SOL    HW223145   0.517   3.767   3.230
 7416SOL     OW23146   3.613   0.953   4.126
 7416SOL    HW123147   3.533   0.970   4.068
 7416SOL    HW223148   3.663   1.038   4.140
 7417SOL     OW23149   1.212   6.985   5.780
 7417SOL    HW123150   1.250   0.048   5.763
 7417SOL    HW223151   1.286   6.920   5.799
 7418SOL     OW23152   3.449   4.541   0.761
 7418SOL    HW123153   3.358   4.518   0.796
 7418SOL    HW223154   3.462   4.640   0.764
 7419SOL     OW23155   5.834   2.132   5.317
 7419SOL    HW123156   5.778   2.120   5.236
 7419SOL    HW223157   5.780   2.177   5.389
 7420SOL     OW23158   6.209   6.778   2.404
 7420SOL    HW123159   6.217   6.849   2.475
 7420SOL    HW223160   6.135   6.716   2.428
 7421SOL     OW23161   2.598   3.002   1.134
 7421SOL    HW123162   2.617   3.064   1.057
 7421SOL    HW223163   2.684   2.960   1.164
 7422SOL     OW23164   6.799   3.267   2.284
 7422SOL    HW123165   6.702   3.261   2.262
 7422SOL    HW223166   6.815   3.342   2.348
 7423SOL     OW23167   0.322   4.440   6.242
 7423SOL    HW123168   0.377   4.466   6.321
 7423SOL    HW223169   0.376   4.449   6.159
 7424SOL     OW23170   5.998   1.317   4.055
 7424SOL    HW123171   5.949   1.351   3.975
 7424SOL    HW223172   6.080   1.267   4.025
 7425SOL     OW23173   3.883   4.887   6.864
 7425SOL    HW123174   3.954   4.855   6.926
 7425SOL    HW223175   3.810   4.819   6.859
 7426SOL     OW23176   0.527   2.066   6.671
 7426SOL    HW123177   0.596   1.997   6.695
 7426SOL    HW223178   0.544   2.149   6.723
 7427SOL     OW23179   3.046   5.657   4.669
 7427SOL    HW123180   3.024   5.585   4.603
 7427SOL    HW223181   3.044   5.619   4.762
 7428SOL     OW23182   3.757   1.695   5.666
 7428SOL    HW123183   3.751   1.750   5.583
 7428SOL    HW223184   3.845   1.711   5.711
 7429SOL     OW23185   6.134   0.262   2.951
 7429SOL    HW123186   6.202   0.196   2.984
 7429SOL    HW223187   6.148   0.349   2.998
 7430SOL     OW23188   0.267   4.528   5.485
 7430SOL    HW123189   0.330   4.592   5.530
 7430SOL    HW223190   0.227   4.467   5.554
 7431SOL     OW23191   0.883   3.860   2.206
 7431SOL    HW123192   0.889   3.959   2.193
 7431SOL    HW223193   0.969   3.826   2.244
 7432SOL     OW23194   0.131   6.283   3.935
 7432SOL    HW123195   0.192   6.313   4.007
 7432SOL    HW223196   0.174   6.297   3.846
 7433SOL     OW23197   6.479   5.154   0.915
 7433SOL    HW123198   6.446   5.105   0.995
 7433SOL    HW223199   6.401   5.191   0.864
 7434SOL     OW23200   3.363   0.996   6.763
 7434SOL    HW123201   3.375   0.944   6.848
 7434SOL    HW223202   3.453   1.019   6.726
 7435SOL     OW23203   3.536   6.554   6.660
 7435SOL    HW123204   3.571   6.460   6.650
 7435SOL    HW223205   3.483   6.578   6.579
 7436SOL     OW23206   6.620   2.867   6.410
 7436SOL    HW123207   6.572   2.787   6.375
 7436SOL    HW223208   6.578   2.950   6.373
 7437SOL     OW23209   6.792   5.240   6.884
 7437SOL    HW123210   6.852   5.235   6.804
 7437SOL    HW223211   6.838   5.198   6.962
 7438SOL     OW23212   1.427   3.792   1.477
 7438SOL    HW123213   1.396   3.847   1.399
 7438SOL    HW223214   1.497   3.842   1.528
 7439SOL     OW23215   2.692   6.881   4.107
 7439SOL    HW123216   2.678   6.898   4.205
 7439SOL    HW223217   2.777   6.829   4.095
 7440SOL     OW23218   0.633   3.204   4.800
 7440SOL    HW123219   0.707   3.146   4.833
 7440SOL    HW223220   0.662   3.299   4.799
 7441SOL     OW23221   5.790   6.274   4.331
 7441SOL    HW123222   5.770   6.330   4.412
 7441SOL    HW223223   5.881   6.233   4.341
 7442SOL     OW23224   1.281   0.607   6.415
 7442SOL    HW123225   1.319   0.689   6.457
 7442SOL    HW223226   1.280   0.618   6.315
 7443SOL     OW23227   0.209   1.481   0.578
 7443SOL    HW123228   0.199   1.417   0.654
 7443SOL    HW223229   0.296   1.530   0.587
 7444SOL     OW23230   0.292   3.253   6.082
 7444SOL    HW123231   0.367   3.292   6.029
 7444SOL    HW223232   0.330   3.190   6.150
 7445SOL     OW23233   4.193   1.578   1.393
 7445SOL    HW123234   4.222   1.590   1.488
 7445SOL    HW223235   4.259   1.520   1.346
 7446SOL     OW23236   5.871   4.687   0.272
 7446SOL    HW123237   5.778   4.662   0.301
 7446SOL    HW223238   5.921   4.726   0.349
 7447SOL     OW23239   2.682   3.975   6.393
 7447SOL    HW123240   2.651   3.957   6.486
 7447SOL    HW223241   2.629   3.920   6.329
 7448SOL     OW23242   5.458   6.858   5.852
 7448SOL    HW123243   5.507   6.818   5.774
 7448SOL    HW223244   5.507   6.940   5.883
 7449SOL     OW23245   4.813   2.486   2.527
 7449SOL    HW123246   4.870   2.441   2.458
 7449SOL    HW223247   4.724   2.508   2.486
 7450SOL     OW23248   4.934   2.719   4.533
 7450SOL    HW123249   5.030   2.727   4.506
 7450SOL    HW223250   4.923   2.642   4.596
 7451SOL     OW23251   1.355   0.610   3.718
 7451SOL    HW123252   1.291   0.535   3.701
 7451SOL    HW223253   1.368   0.664   3.635
 7452SOL     OW23254   1.662   0.311   4.720
 7452SOL    HW123255   1.735   0.304   4.787
 7452SOL    HW223256   1.652   0.406   4.690
 7453SOL     OW23257   5.157   5.981   5.478
 7453SOL    HW123258   5.226   5.938   5.419
 7453SOL    HW223259   5.179   6.078   5.489
 7454SOL     OW23260   1.056   2.944   1.855
 7454SOL    HW123261   1.091   2.874   1.792
 7454SOL    HW223262   1.125   2.966   1.923
 7455SOL     OW23263   6.892   1.270   1.599
 7455SOL    HW123264   6.915   1.182   1.559
 7455SOL    HW223265   6.967   1.300   1.659
 7456SOL     OW23266   1.564   2.108   4.629
 7456SOL    HW123267   1.479   2.058   4.609
 7456SOL    HW223268   1.639   2.043   4.638
 7457SOL     OW23269   4.614   0.548   6.193
 7457SOL    HW123270   4.668   0.566   6.275
 7457SOL    HW223271   4.635   0.617   6.124
 7458SOL     OW23272   1.820   6.864   6.666
 7458SOL    HW123273   1.770   6.939   6.707
 7458SOL    HW223274   1.906   6.849   6.715
 7459SOL     OW23275   4.385   0.056   0.450
 7459SOL    HW123276   4.372   0.154   0.434
 7459SOL    HW223277   4.363   0.006   0.366
 7460SOL     OW23278   1.901   5.091   0.086
 7460SOL    HW123279   1.898   5.084   0.186
 7460SOL    HW223280   1.996   5.092   0.055
 7461SOL     OW23281   5.216   1.530   5.421
 7461SOL    HW123282   5.201   1.432   5.438
 7461SOL    HW223283   5.313   1.547   5.404
 7462SOL     OW23284   1.464   2.477   2.205
 7462SOL    HW123285   1.555   2.443   2.182
 7462SOL    HW223286   1.472   2.564   2.255
 7463SOL     OW23287   3.667   3.526   1.295
 7463SOL    HW123288   3.744   3.574   1.337
 7463SOL    HW223289   3.622   3.586   1.229
 7464SOL     OW23290   3.907   6.089   6.622
 7464SOL    HW123291   3.875   6.157   6.688
 7464SOL    HW223292   3.875   5.998   6.649
 7465SOL     OW23293   1.809   6.791   1.017
 7465SOL    HW123294   1.811   6.836   0.927
 7465SOL    HW223295   1.718   6.754   1.034
 7466SOL     OW23296   0.570   0.470   6.400
 7466SOL    HW123297   0.535   0.505   6.487
 7466SOL    HW223298   0.637   0.399   6.417
 7467SOL     OW23299   6.024   2.269   1.045
 7467SOL    HW123300   5.959   2.277   1.120
 7467SOL    HW223301   6.113   2.242   1.081
 7468SOL     OW23302   5.063   2.346   2.308
 7468SOL    HW123303   5.092   2.418   2.371
 7468SOL    HW223304   5.081   2.257   2.349
 7469SOL     OW23305   1.442   6.956   0.057
 7469SOL    HW123306   1.392   6.915   7.008
 7469SOL    HW223307   1.540   6.958   0.035
 7470SOL     OW23308   0.265   2.832   3.497
 7470SOL    HW123309   0.230   2.753   3.447
 7470SOL    HW223310   0.341   2.872   3.446
 7471SOL     OW23311   6.020   6.750   4.449
 7471SOL    HW123312   6.037   6.652   4.435
 7471SOL    HW223313   6.102   6.802   4.427
 7472SOL     OW23314   5.143   6.653   4.126
 7472SOL    HW123315   5.175   6.620   4.037
 7472SOL    HW223316   5.222   6.669   4.186
 7473SOL     OW23317   6.956   4.367   3.066
 7473SOL    HW123318   6.908   4.284   3.095
 7473SOL    HW223319   0.015   4.374   3.115
 7474SOL     OW23320   2.677   0.952   4.965
 7474SOL    HW123321   2.586   0.928   4.929
 7474SOL    HW223322   2.718   1.021   4.906
 7475SOL     OW23323   4.557   1.509   2.768
 7475SOL    HW123324   4.577   1.580   2.700
 7475SOL    HW223325   4.636   1.497   2.828
 7476SOL     OW23326   3.732   6.637   4.305
 7476SOL    HW123327   3.717   6.614   4.208
 7476SOL    HW223328   3.830   6.648   4.322
 7477SOL     OW23329   4.770   1.010   3.982
 7477SOL    HW123330   4.860   1.051   3.990
 7477SOL    HW223331   4.705   1.078   3.949
 7478SOL     OW23332   3.795   3.830   6.422
 7478SOL    HW123333   3.699   3.811   6.399
 7478SOL    HW223334   3.838   3.881   6.347
 7479SOL     OW23335   3.573   1.750   0.716
 7479SOL    HW123336   3.576   1.656   0.749
 7479SOL    HW223337   3.665   1.783   0.699
 7480SOL     OW23338   6.233   5.389   1.175
 7480SOL    HW123339   6.174   5.309   1.177
 7480SOL    HW223340   6.194   5.460   1.234
 7481SOL     OW23341   5.604   5.675   1.555
 7481SOL    HW123342   5.564   5.701   1.643
 7481SOL    HW223343   5.538   5.692   1.482
 7482SOL     OW23344   4.687   1.619   2.178
 7482SOL    HW123345   4.724   1.587   2.091
 7482SOL    HW223346   4.608   1.562   2.203
 7483SOL     OW23347   4.029   1.955   4.898
 7483SOL    HW123348   4.041   2.045   4.856
 7483SOL    HW223349   3.963   1.902   4.844
 7484SOL     OW23350   6.678   0.036   1.891
 7484SOL    HW123351   6.686   6.964   1.886
 7484SOL    HW223352   6.698   0.066   1.984
 7485SOL     OW23353   2.690   6.123   5.050
 7485SOL    HW123354   2.693   6.156   4.955
 7485SOL    HW223355   2.603   6.150   5.091
 7486SOL     OW23356   1.885   6.601   5.724
 7486SOL    HW123357   1.857   6.526   5.664
 7486SOL    HW223358   1.866   6.688   5.678
 7487SOL     OW23359   2.562   6.929   2.623
 7487SOL    HW123360   2.578   6.860   2.694
 7487SOL    HW223361   2.464   6.950   2.618
 7488SOL     OW23362   1.909   6.603   5.200
 7488SOL    HW123363   1.874   6.692   5.228
 7488SOL    HW223364   1.839   6.555   5.146
 7489SOL     OW23365   4.998   2.549   5.063
 7489SOL    HW123366   4.968   2.487   4.991
 7489SOL    HW223367   5.088   2.586   5.040
 7490SOL     OW23368   0.894   1.364   1.173
 7490SOL    HW123369   0.970   1.375   1.237
 7490SOL    HW223370   0.807   1.366   1.222
 7491SOL     OW23371   0.435   4.989   6.966
 7491SOL    HW123372   0.431   5.083   6.998
 7491SOL    HW223373   0.389   4.982   6.877
 7492SOL     OW23374   2.738   1.575   5.046
 7492SOL    HW123375   2.659   1.565   5.106
 7492SOL    HW223376   2.782   1.486   5.034
 7493SOL     OW23377   6.017   4.464   6.525
 7493SOL    HW123378   6.015   4.462   6.625
 7493SOL    HW223379   6.070   4.542   6.494
 7494SOL     OW23380   5.991   0.983   2.657
 7494SOL    HW123381   5.906   1.025   2.687
 7494SOL    HW223382   5.999   0.990   2.558
 7495SOL     OW23383   2.447   1.145   1.569
 7495SOL    HW123384   2.511   1.164   1.495
 7495SOL    HW223385   2.368   1.206   1.561
 7496SOL     OW23386   0.670   3.961   6.273
 7496SOL    HW123387   0.718   4.002   6.196
 7496SOL    HW223388   0.715   3.876   6.300
 7497SOL     OW23389   3.046   4.973   1.118
 7497SOL    HW123390   3.014   5.054   1.167
 7497SOL    HW223391   3.053   4.895   1.181
 7498SOL     OW23392   2.608   1.230   4.112
 7498SOL    HW123393   2.686   1.269   4.062
 7498SOL    HW223394   2.574   1.296   4.178
 7499SOL     OW23395   6.196   0.855   3.216
 7499SOL    HW123396   6.245   0.919   3.275
 7499SOL    HW223397   6.098   0.865   3.232
 7500SOL     OW23398   4.208   6.131   2.890
 7500SOL    HW123399   4.213   6.106   2.793
 7500SOL    HW223400   4.298   6.162   2.921
 7501SOL     OW23401   6.193   4.639   4.564
 7501SOL    HW123402   6.267   4.656   4.629
 7501SOL    HW223403   6.214   4.683   4.477
 7502SOL     OW23404   1.255   1.669   5.033
 7502SOL    HW123405   1.271   1.592   4.971
 7502SOL    HW223406   1.325   1.669   5.104
 7503SOL     OW23407   2.614   1.198   0.004
 7503SOL    HW123408   2.666   1.223   0.085
 7503SOL    HW223409   2.637   1.105   7.003
 7504SOL     OW23410   3.510   7.021   3.426
 7504SOL    HW123411   3.463   0.080   3.410
 7504SOL    HW223412   3.468   6.950   3.369
 7505SOL     OW23413   2.559   0.800   5.359
 7505SOL    HW123414   2.587   0.718   5.310
 7505SOL    HW223415   2.461   0.795   5.379
 7506SOL     OW23416   4.208   0.460   2.726
 7506SOL    HW123417   4.227   0.540   2.669
 7506SOL    HW223418   4.153   0.395   2.674
 7507SOL     OW23419   0.189   6.972   0.601
 7507SOL    HW123420   0.146   6.955   0.512
 7507SOL    HW223421   0.119   6.975   0.672
 7508SOL     OW23422   5.385   6.811   2.656
 7508SOL    HW123423   5.388   6.881   2.727
 7508SOL    HW223424   5.301   6.822   2.603
 7509SOL     OW23425   4.873   4.545   0.684
 7509SOL    HW123426   4.886   4.622   0.621
 7509SOL    HW223427   4.847   4.463   0.632
 7510SOL     OW23428   2.930   3.835   5.322
 7510SOL    HW123429   2.942   3.790   5.234
 7510SOL    HW223430   2.835   3.864   5.332
 7511SOL     OW23431   1.705   0.728   3.022
 7511SOL    HW123432   1.787   0.719   2.966
 7511SOL    HW223433   1.626   0.743   2.963
 7512SOL     OW23434   3.155   4.232   1.346
 7512SOL    HW123435   3.138   4.159   1.412
 7512SOL    HW223436   3.250   4.263   1.355
 7513SOL     OW23437   1.648   2.219   0.556
 7513SOL    HW123438   1.720   2.285   0.536
 7513SOL    HW223439   1.666   2.134   0.506
 7514SOL     OW23440   2.949   6.268   2.149
 7514SOL    HW123441   2.882   6.321   2.200
 7514SOL    HW223442   2.914   6.251   2.057
 7515SOL     OW23443   1.311   6.730   2.460
 7515SOL    HW123444   1.213   6.731   2.442
 7515SOL    HW223445   1.358   6.785   2.391
 7516SOL     OW23446   6.896   5.632   4.549
 7516SOL    HW123447   6.865   5.541   4.523
 7516SOL    HW223448   6.987   5.625   4.590
 7517SOL     OW23449   6.821   3.382   1.849
 7517SOL    HW123450   6.742   3.418   1.801
 7517SOL    HW223451   6.814   3.283   1.856
 7518SOL     OW23452   3.988   5.581   3.740
 7518SOL    HW123453   4.073   5.608   3.786
 7518SOL    HW223454   3.942   5.511   3.793
 7519SOL     OW23455   0.021   6.625   3.621
 7519SOL    HW123456   0.014   6.558   3.694
 7519SOL    HW223457   0.038   6.716   3.659
 7520SOL     OW23458   2.830   0.319   1.844
 7520SOL    HW123459   2.907   0.345   1.903
 7520SOL    HW223460   2.853   0.336   1.749
 7521SOL     OW23461   4.508   4.688   5.302
 7521SOL    HW123462   4.427   4.746   5.308
 7521SOL    HW223463   4.537   4.660   5.394
 7522SOL     OW23464   2.511   0.897   6.343
 7522SOL    HW123465   2.551   0.981   6.378
 7522SOL    HW223466   2.548   0.878   6.252
 7523SOL     OW23467   5.342   1.461   5.724
 7523SOL    HW123468   5.354   1.558   5.703
 7523SOL    HW223469   5.262   1.450   5.782
 7524SOL     OW23470   0.546   2.263   5.630
 7524SOL    HW123471   0.615   2.276   5.559
 7524SOL    HW223472   0.494   2.347   5.643
 7525SOL     OW23473   2.555   6.891   6.065
 7525SOL    HW123474   2.622   6.929   6.002
 7525SOL    HW223475   2.468   6.879   6.017
 7526SOL     OW23476   3.960   2.993   2.589
 7526SOL    HW123477   3.995   3.055   2.519
 7526SOL    HW223478   4.037   2.946   2.633
 7527SOL     OW23479   4.888   5.227   3.227
 7527SOL    HW123480   4.907   5.164   3.152
 7527SOL    HW223481   4.809   5.193   3.280
 7528SOL     OW23482   4.674   2.559   0.119
 7528SOL    HW123483   4.725   2.473   0.123
 7528SOL    HW223484   4.578   2.543   0.143
 7529SOL     OW23485   5.282   1.331   4.324
 7529SOL    HW123486   5.298   1.364   4.231
 7529SOL    HW223487   5.365   1.288   4.359
 7530SOL     OW23488   6.280   3.413   2.621
 7530SOL    HW123489   6.219   3.382   2.548
 7530SOL    HW223490   6.316   3.504   2.599
 7531SOL     OW23491   4.247   2.287   3.934
 7531SOL    HW123492   4.251   2.318   3.839
 7531SOL    HW223493   4.156   2.248   3.952
 7532SOL     OW23494   5.452   5.823   1.739
 7532SOL    HW123495   5.440   5.848   1.835
 7532SOL    HW223496   5.363   5.824   1.693
 7533SOL     OW23497   2.336   0.999   3.308
 7533SOL    HW123498   2.342   1.097   3.290
 7533SOL    HW223499   2.418   0.953   3.273
 7534SOL     OW23500   3.516   6.633   4.678
 7534SOL    HW123501   3.466   6.704   4.727
 7534SOL    HW223502   3.497   6.641   4.580
 7535SOL     OW23503   3.178   1.012   5.553
 7535SOL    HW123504   3.218   1.103   5.557
 7535SOL    HW223505   3.117   1.006   5.474
 7536SOL     OW23506   5.308   5.117   4.670
 7536SOL    HW123507   5.283   5.074   4.757
 7536SOL    HW223508   5.324   5.046   4.602
 7537SOL     OW23509   1.877   4.587   5.063
 7537SOL    HW123510   1.961   4.573   5.116
 7537SOL    HW223511   1.808   4.520   5.092
 7538SOL     OW23512   3.369   3.732   2.264
 7538SOL    HW123513   3.317   3.653   2.230
 7538SOL    HW223514   3.309   3.812   2.269
 7539SOL     OW23515   2.499   2.316   4.729
 7539SOL    HW123516   2.487   2.319   4.828
 7539SOL    HW223517   2.591   2.346   4.705
 7540SOL     OW23518   3.456   1.139   5.750
 7540SOL    HW123519   3.392   1.071   5.785
 7540SOL    HW223520   3.414   1.188   5.673
 7541SOL     OW23521   6.532   3.506   4.907
 7541SOL    HW123522   6.509   3.598   4.938
 7541SOL    HW223523   6.629   3.501   4.885
 7542SOL     OW23524   0.130   6.585   6.546
 7542SOL    HW123525   0.200   6.634   6.493
 7542SOL    HW223526   0.139   6.487   6.531
 7543SOL     OW23527   4.470   2.116   0.858
 7543SOL    HW123528   4.372   2.132   0.844
 7543SOL    HW223529   4.511   2.196   0.902
 7544SOL     OW23530   0.530   2.218   3.592
 7544SOL    HW123531   0.562   2.281   3.521
 7544SOL    HW223532   0.447   2.171   3.561
 7545SOL     OW23533   5.137   6.801   2.813
 7545SOL    HW123534   5.199   6.729   2.845
 7545SOL    HW223535   5.115   6.786   2.717
 7546SOL     OW23536   4.284   0.630   1.041
 7546SOL    HW123537   4.241   0.708   0.996
 7546SOL    HW223538   4.224   0.550   1.032
 7547SOL     OW23539   3.748   6.131   0.369
 7547SOL    HW123540   3.771   6.166   0.460
 7547SOL    HW223541   3.706   6.204   0.315
 7548SOL     OW23542   2.723   1.910   0.543
 7548SOL    HW123543   2.696   1.947   0.454
 7548SOL    HW223544   2.738   1.985   0.607
 7549SOL     OW23545   5.869   1.838   1.662
 7549SOL    HW123546   5.851   1.922   1.713
 7549SOL    HW223547   5.917   1.860   1.577
 7550SOL     OW23548   2.687   5.022   2.111
 7550SOL    HW123549   2.708   4.938   2.160
 7550SOL    HW223550   2.769   5.053   2.061
 7551SOL     OW23551   4.664   4.052   0.160
 7551SOL    HW123552   4.625   3.980   0.218
 7551SOL    HW223553   4.642   4.032   0.064
 7552SOL     OW23554   1.655   5.534   4.032
 7552SOL    HW123555   1.619   5.527   4.125
 7552SOL    HW223556   1.752   5.558   4.036
 7553SOL     OW23557   3.808   4.815   5.703
 7553SOL    HW123558   3.724   4.773   5.736
 7553SOL    HW223559   3.867   4.837   5.780
 7554SOL     OW23560   5.121   0.993   0.932
 7554SOL    HW123561   5.192   1.020   0.866
 7554SOL    HW223562   5.040   1.050   0.919
 7555SOL     OW23563   1.345   5.174   4.739
 7555SOL    HW123564   1.420   5.116   4.707
 7555SOL    HW223565   1.375   5.270   4.740
 7556SOL     OW23566   0.410   2.056   6.005
 7556SOL    HW123567   0.468   1.985   6.044
 7556SOL    HW223568   0.388   2.123   6.076
 7557SOL     OW23569   5.476   3.271   5.855
 7557SOL    HW123570   5.514   3.356   5.818
 7557SOL    HW223571   5.384   3.288   5.890
 7558SOL     OW23572   2.315   2.671   3.550
 7558SOL    HW123573   2.398   2.629   3.588
 7558SOL    HW223574   2.262   2.713   3.624
 7559SOL     OW23575   6.509   5.598   1.308
 7559SOL    HW123576   6.512   5.543   1.224
 7559SOL    HW223577   6.532   5.541   1.386
 7560SOL     OW23578   5.301   6.489   0.004
 7560SOL    HW123579   5.354   6.542   0.071
 7560SOL    HW223580   5.285   6.544   6.950
 7561SOL     OW23581   0.865   3.206   0.124
 7561SOL    HW123582   0.892   3.298   0.150
 7561SOL    HW223583   0.774   3.187   0.161
 7562SOL     OW23584   4.405   6.373   4.860
 7562SOL    HW123585   4.496   6.385   4.900
 7562SOL    HW223586   4.336   6.409   4.922
 7563SOL     OW23587   2.820   0.172   0.438
 7563SOL    HW123588   2.850   0.137   0.350
 7563SOL    HW223589   2.837   0.104   0.509
 7564SOL     OW23590   4.607   1.037   2.791
 7564SOL    HW123591   4.562   1.056   2.879
 7564SOL    HW223592   4.560   1.088   2.719
 7565SOL     OW23593   4.899   4.131   6.479
 7565SOL    HW123594   4.968   4.100   6.414
 7565SOL    HW223595   4.822   4.067   6.478
 7566SOL     OW23596   0.731   5.001   3.637
 7566SOL    HW123597   0.769   5.086   3.673
 7566SOL    HW223598   0.800   4.929   3.642
 7567SOL     OW23599   1.663   2.309   5.335
 7567SOL    HW123600   1.661   2.405   5.309
 7567SOL    HW223601   1.580   2.285   5.386
 7568SOL     OW23602   5.748   5.922   4.190
 7568SOL    HW123603   5.704   5.996   4.139
 7568SOL    HW223604   5.839   5.951   4.218
 7569SOL     OW23605   4.126   4.549   6.538
 7569SOL    HW123606   4.163   4.578   6.449
 7569SOL    HW223607   4.195   4.563   6.609
 7570SOL     OW23608   5.499   4.779   5.423
 7570SOL    HW123609   5.514   4.705   5.357
 7570SOL    HW223610   5.585   4.827   5.439
 7571SOL     OW23611   5.238   4.932   2.091
 7571SOL    HW123612   5.177   4.900   2.164
 7571SOL    HW223613   5.221   4.880   2.008
 7572SOL     OW23614   5.123   0.889   3.709
 7572SOL    HW123615   5.098   0.972   3.758
 7572SOL    HW223616   5.197   0.842   3.757
 7573SOL     OW23617   5.703   5.733   4.576
 7573SOL    HW123618   5.675   5.778   4.491
 7573SOL    HW223619   5.799   5.706   4.569
 7574SOL     OW23620   6.463   1.183   4.722
 7574SOL    HW123621   6.433   1.165   4.628
 7574SOL    HW223622   6.460   1.282   4.739
 7575SOL     OW23623   4.435   0.577   5.757
 7575SOL    HW123624   4.409   0.654   5.816
 7575SOL    HW223625   4.517   0.533   5.794
 7576SOL     OW23626   6.363   5.578   0.154
 7576SOL    HW123627   6.445   5.538   0.196
 7576SOL    HW223628   6.288   5.512   0.158
 7577SOL     OW23629   6.716   0.096   5.309
 7577SOL    HW123630   6.717   0.104   5.210
 7577SOL    HW223631   6.796   0.142   5.348
 7578SOL     OW23632   1.972   6.389   3.703
 7578SOL    HW123633   1.954   6.414   3.608
 7578SOL    HW223634   1.999   6.471   3.754
 7579SOL     OW23635   4.436   1.536   2.206
 7579SOL    HW123636   4.367   1.497   2.145
 7579SOL    HW223637   4.415   1.632   2.223
 7580SOL     OW23638   1.426   3.877   4.137
 7580SOL    HW123639   1.395   3.963   4.096
 7580SOL    HW223640   1.417   3.803   4.070
 7581SOL     OW23641   4.705   0.922   1.186
 7581SOL    HW123642   4.682   1.010   1.229
 7581SOL    HW223643   4.715   0.935   1.088
 7582SOL     OW23644   3.594   0.910   0.202
 7582SOL    HW123645   3.559   0.916   0.296
 7582SOL    HW223646   3.632   0.819   0.186
 7583SOL     OW23647   6.123   3.753   1.857
 7583SOL    HW123648   6.067   3.803   1.790
 7583SOL    HW223649   6.209   3.724   1.814
 7584SOL     OW23650   3.556   6.666   0.977
 7584SOL    HW123651   3.612   6.597   0.933
 7584SOL    HW223652   3.586   6.757   0.948
 7585SOL     OW23653   1.521   2.723   5.870
 7585SOL    HW123654   1.482   2.761   5.786
 7585SOL    HW223655   1.601   2.667   5.847
 7586SOL     OW23656   3.751   0.765   3.214
 7586SOL    HW123657   3.772   0.762   3.312
 7586SOL    HW223658   3.750   0.860   3.184
 7587SOL     OW23659   3.109   1.668   6.353
 7587SOL    HW123660   3.022   1.658   6.401
 7587SOL    HW223661   3.136   1.579   6.315
 7588SOL     OW23662   0.301   3.292   2.170
 7588SOL    HW123663   0.373   3.345   2.125
 7588SOL    HW223664   0.251   3.239   2.101
 7589SOL     OW23665   6.339   6.638   0.343
 7589SOL    HW123666   6.378   6.722   0.382
 7589SOL    HW223667   6.240   6.637   0.358
 7590SOL     OW23668   2.749   1.888   6.318
 7590SOL    HW123669   2.784   1.892   6.412
 7590SOL    HW223670   2.728   1.794   6.294
 7591SOL     OW23671   0.509   5.054   0.639
 7591SOL    HW123672   0.463   5.093   0.719
 7591SOL    HW223673   0.441   5.013   0.578
 7592SOL     OW23674   0.478   4.803   6.462
 7592SOL    HW123675   0.381   4.814   6.484
 7592SOL    HW223676   0.506   4.874   6.397
 7593SOL     OW23677   5.744   2.609   0.175
 7593SOL    HW123678   5.662   2.559   0.203
 7593SOL    HW223679   5.763   2.590   0.079
 7594SOL     OW23680   0.141   4.341   2.051
 7594SOL    HW123681   0.096   4.417   2.099
 7594SOL    HW223682   0.200   4.377   1.979
 7595SOL     OW23683   0.473   2.564   5.565
 7595SOL    HW123684   0.406   2.575   5.492
 7595SOL    HW223685   0.428   2.575   5.654
 7596SOL     OW23686   4.645   5.290   3.103
 7596SOL    HW123687   4.570   5.259   3.163
 7596SOL    HW223688   4.731   5.290   3.155
 7597SOL     OW23689   3.022   5.573   1.712
 7597SOL    HW123690   2.933   5.610   1.688
 7597SOL    HW223691   3.019   5.537   1.805
 7598SOL     OW23692   6.571   1.101   3.038
 7598SOL    HW123693   6.636   1.094   2.962
 7598SOL    HW223694   6.582   1.190   3.083
 7599SOL     OW23695   5.026   0.753   3.255
 7599SOL    HW123696   5.055   0.683   3.189
 7599SOL    HW223697   5.011   0.710   3.344
 7600SOL     OW23698   2.029   0.424   2.425
 7600SOL    HW123699   1.953   0.386   2.477
 7600SOL    HW223700   1.994   0.461   2.338
 7601SOL     OW23701   1.904   5.504   2.838
 7601SOL    HW123702   1.823   5.542   2.794
 7601SOL    HW223703   1.890   5.500   2.937
 7602SOL     OW23704   2.135   3.635   5.650
 7602SOL    HW123705   2.164   3.593   5.736
 7602SOL    HW223706   2.098   3.564   5.590
 7603SOL     OW23707   1.307   5.933   6.377
 7603SOL    HW123708   1.345   5.881   6.453
 7603SOL    HW223709   1.209   5.918   6.371
 7604SOL     OW23710   2.229   5.250   4.157
 7604SOL    HW123711   2.289   5.205   4.091
 7604SOL    HW223712   2.279   5.269   4.241
 7605SOL     OW23713   1.752   6.110   0.528
 7605SOL    HW123714   1.690   6.031   0.537
 7605SOL    HW223715   1.747   6.166   0.611
 7606SOL     OW23716   6.837   2.606   2.557
 7606SOL    HW123717   6.913   2.548   2.584
 7606SOL    HW223718   6.751   2.555   2.567
 7607SOL     OW23719   4.042   6.125   0.367
 7607SOL    HW123720   3.962   6.181   0.344
 7607SOL    HW223721   4.109   6.132   0.294
 7608SOL     OW23722   3.370   3.852   3.699
 7608SOL    HW123723   3.387   3.949   3.717
 7608SOL    HW223724   3.309   3.816   3.769
 7609SOL     OW23725   6.935   4.269   3.467
 7609SOL    HW123726   0.002   4.253   3.440
 7609SOL    HW223727   6.877   4.196   3.430
 7610SOL     OW23728   6.192   6.981   0.272
 7610SOL    HW123729   6.146   6.963   0.185
 7610SOL    HW223730   6.159   6.917   0.341
 7611SOL     OW23731   1.038   1.968   0.041
 7611SOL    HW123732   1.129   1.995   0.072
 7611SOL    HW223733   0.974   1.972   0.118
 7612SOL     OW23734   4.295   2.250   4.582
 7612SOL    HW123735   4.324   2.173   4.640
 7612SOL    HW223736   4.347   2.331   4.607
 7613SOL     OW23737   5.201   2.095   1.994
 7613SOL    HW123738   5.226   2.120   2.088
 7613SOL    HW223739   5.145   2.013   1.995
 7614SOL     OW23740   4.763   2.648   1.487
 7614SOL    HW123741   4.765   2.551   1.511
 7614SOL    HW223742   4.843   2.670   1.431
 7615SOL     OW23743   5.051   4.079   5.870
 7615SOL    HW123744   5.110   4.090   5.790
 7615SOL    HW223745   5.036   3.982   5.887
 7616SOL     OW23746   0.224   4.361   4.430
 7616SOL    HW123747   0.170   4.372   4.513
 7616SOL    HW223748   0.169   4.315   4.360
 7617SOL     OW23749   3.175   5.964   2.647
 7617SOL    HW123750   3.078   5.986   2.641
 7617SOL    HW223751   3.199   5.948   2.742
 7618SOL     OW23752   0.718   2.679   0.053
 7618SOL    HW123753   0.622   2.651   0.051
 7618SOL    HW223754   0.757   2.659   0.144
 7619SOL     OW23755   5.883   3.459   4.450
 7619SOL    HW123756   5.943   3.520   4.501
 7619SOL    HW223757   5.797   3.506   4.429
 7620SOL     OW23758   3.736   5.130   0.014
 7620SOL    HW123759   3.711   5.047   6.991
 7620SOL    HW223760   3.757   5.105   0.109
 7621SOL     OW23761   0.632   1.368   0.906
 7621SOL    HW123762   0.615   1.358   1.004
 7621SOL    HW223763   0.551   1.406   0.862
 7622SOL     OW23764   5.118   4.729   1.436
 7622SOL    HW123765   5.179   4.767   1.505
 7622SOL    HW223766   5.103   4.632   1.453
 7623SOL     OW23767   4.539   4.415   6.512
 7623SOL    HW123768   4.604   4.451   6.445
 7623SOL    HW223769   4.578   4.422   6.603
 7624SOL     OW23770   0.107   2.855   4.453
 7624SOL    HW123771   0.201   2.835   4.480
 7624SOL    HW223772   0.090   2.954   4.462
 7625SOL     OW23773   4.147   0.553   1.815
 7625SOL    HW123774   4.157   0.627   1.881
 7625SOL    HW223775   4.174   0.584   1.724
 7626SOL     OW23776   6.908   6.431   5.033
 7626SOL    HW123777   6.982   6.410   5.097
 7626SOL    HW223778   6.943   6.430   4.940
 7627SOL     OW23779   5.736   3.354   0.064
 7627SOL    HW123780   5.824   3.379   0.024
 7627SOL    HW223781   5.750   3.318   0.156
 7628SOL     OW23782   3.188   0.733   1.356
 7628SOL    HW123783   3.125   0.730   1.433
 7628SOL    HW223784   3.278   0.765   1.387
 7629SOL     OW23785   6.384   6.668   2.910
 7629SOL    HW123786   6.380   6.609   2.991
 7629SOL    HW223787   6.323   6.633   2.840
 7630SOL     OW23788   5.433   6.296   2.257
 7630SOL    HW123789   5.399   6.295   2.351
 7630SOL    HW223790   5.513   6.355   2.251
 7631SOL     OW23791   0.648   1.490   5.475
 7631SOL    HW123792   0.693   1.499   5.564
 7631SOL    HW223793   0.686   1.556   5.411
 7632SOL     OW23794   3.660   2.343   1.583
 7632SOL    HW123795   3.732   2.298   1.529
 7632SOL    HW223796   3.684   2.339   1.680
 7633SOL     OW23797   4.983   2.733   0.255
 7633SOL    HW123798   4.912   2.732   0.184
 7633SOL    HW223799   4.995   2.826   0.288
 7634SOL     OW23800   1.370   1.061   2.109
 7634SOL    HW123801   1.347   1.158   2.105
 7634SOL    HW223802   1.380   1.033   2.205
 7635SOL     OW23803   2.550   5.442   5.217
 7635SOL    HW123804   2.521   5.401   5.303
 7635SOL    HW223805   2.565   5.370   5.149
 7636SOL     OW23806   1.321   1.108   3.051
 7636SOL    HW123807   1.260   1.169   3.102
 7636SOL    HW223808   1.284   1.015   3.052
 7637SOL     OW23809   2.913   6.633   2.458
 7637SOL    HW123810   2.879   6.611   2.549
 7637SOL    HW223811   2.997   6.686   2.465
 7638SOL     OW23812   4.395   5.936   1.860
 7638SOL    HW123813   4.309   5.987   1.864
 7638SOL    HW223814   4.397   5.868   1.933
 7639SOL     OW23815   1.212   2.098   0.625
 7639SOL    HW123816   1.164   2.104   0.712
 7639SOL    HW223817   1.274   2.177   0.616
 7640SOL     OW23818   3.306   2.205   0.389
 7640SOL    HW123819   3.281   2.181   0.295
 7640SOL    HW223820   3.404   2.226   0.393
 7641SOL     OW23821   0.530   4.506   1.457
 7641SOL    HW123822   0.534   4.605   1.465
 7641SOL    HW223823   0.455   4.479   1.397
 7642SOL     OW23824   2.570   1.423   3.007
 7642SOL    HW123825   2.557   1.337   3.056
 7642SOL    HW223826   2.563   1.499   3.071
 7643SOL     OW23827   5.132   2.695   4.235
 7643SOL    HW123828   5.163   2.614   4.185
 7643SOL    HW223829   5.153   2.684   4.332
 7644SOL     OW23830   6.243   2.353   2.656
 7644SOL    HW123831   6.333   2.313   2.675
 7644SOL    HW223832   6.181   2.333   2.732
 7645SOL     OW23833   4.742   3.886   5.493
 7645SOL    HW123834   4.701   3.805   5.451
 7645SOL    HW223835   4.672   3.937   5.543
 7646SOL     OW23836   1.920   2.419   2.198
 7646SOL    HW123837   2.007   2.371   2.209
 7646SOL    HW223838   1.916   2.497   2.261
 7647SOL     OW23839   0.761   2.912   1.320
 7647SOL    HW123840   0.734   2.992   1.373
 7647SOL    HW223841   0.812   2.849   1.379
 7648SOL     OW23842   3.683   2.124   4.023
 7648SOL    HW123843   3.729   2.206   3.989
 7648SOL    HW223844   3.604   2.151   4.078
 7649SOL     OW23845   0.963   1.059   2.813
 7649SOL    HW123846   0.868   1.071   2.786
 7649SOL    HW223847   1.001   1.146   2.844
 7650SOL     OW23848   5.592   2.993   1.484
 7650SOL    HW123849   5.587   3.085   1.521
 7650SOL    HW223850   5.500   2.953   1.482
 7651SOL     OW23851   2.504   6.970   4.669
 7651SOL    HW123852   2.565   0.017   4.641
 7651SOL    HW223853   2.516   6.893   4.607
 7652SOL     OW23854   0.114   4.310   4.168
 7652SOL    HW123855   0.110   4.233   4.105
 7652SOL    HW223856   0.102   4.395   4.117
 7653SOL     OW23857   2.482   1.879   0.940
 7653SOL    HW123858   2.527   1.862   1.028
 7653SOL    HW223859   2.514   1.812   0.873
 7654SOL     OW23860   4.926   3.534   3.797
 7654SOL    HW123861   5.025   3.548   3.811
 7654SOL    HW223862   4.908   3.437   3.785
 7655SOL     OW23863   3.858   0.271   3.389
 7655SOL    HW123864   3.781   0.334   3.386
 7655SOL    HW223865   3.937   0.312   3.344
 7656SOL     OW23866   1.530   5.313   6.143
 7656SOL    HW123867   1.464   5.358   6.203
 7656SOL    HW223868   1.500   5.323   6.048
 7657SOL     OW23869   2.599   2.509   3.060
 7657SOL    HW123870   2.609   2.601   3.099
 7657SOL    HW223871   2.534   2.457   3.115
 7658SOL     OW23872   4.121   6.231   5.754
 7658SOL    HW123873   4.180   6.191   5.684
 7658SOL    HW223874   4.145   6.328   5.766
 7659SOL     OW23875   5.116   5.451   6.757
 7659SOL    HW123876   5.143   5.544   6.733
 7659SOL    HW223877   5.164   5.423   6.840
 7660SOL     OW23878   6.187   6.115   4.142
 7660SOL    HW123879   6.114   6.053   4.114
 7660SOL    HW223880   6.165   6.153   4.232
 7661SOL     OW23881   5.876   2.111   4.780
 7661SOL    HW123882   5.861   2.078   4.687
 7661SOL    HW223883   5.871   2.034   4.843
 7662SOL     OW23884   0.814   2.202   2.577
 7662SOL    HW123885   0.751   2.160   2.642
 7662SOL    HW223886   0.881   2.133   2.546
 7663SOL     OW23887   6.545   0.017   6.584
 7663SOL    HW123888   6.638   7.013   6.564
 7663SOL    HW223889   6.481   7.005   6.518
 7664SOL     OW23890   3.949   1.250   2.348
 7664SOL    HW123891   3.876   1.308   2.385
 7664SOL    HW223892   3.994   1.298   2.272
 7665SOL     OW23893   4.172   0.044   4.348
 7665SOL    HW123894   4.167   7.015   4.266
 7665SOL    HW223895   4.264   0.080   4.358
 7666SOL     OW23896   0.770   6.555   1.240
 7666SOL    HW123897   0.732   6.647   1.227
 7666SOL    HW223898   0.840   6.539   1.170
 7667SOL     OW23899   4.465   6.017   1.607
 7667SOL    HW123900   4.432   5.946   1.545
 7667SOL    HW223901   4.435   5.996   1.700
 7668SOL     OW23902   2.829   4.230   1.075
 7668SOL    HW123903   2.767   4.151   1.071
 7668SOL    HW223904   2.782   4.310   1.036
 7669SOL     OW23905   5.138   1.951   5.396
 7669SOL    HW123906   5.120   2.018   5.468
 7669SOL    HW223907   5.133   1.858   5.434
 7670SOL     OW23908   1.549   5.305   5.864
 7670SOL    HW123909   1.562   5.242   5.787
 7670SOL    HW223910   1.483   5.376   5.838
 7671SOL     OW23911   4.314   0.647   5.005
 7671SOL    HW123912   4.363   0.587   5.067
 7671SOL    HW223913   4.367   0.660   4.921
 7672SOL     OW23914   5.826   6.331   3.879
 7672SOL    HW123915   5.909   6.333   3.934
 7672SOL    HW223916   5.749   6.365   3.932
 7673SOL     OW23917   2.050   5.316   0.253
 7673SOL    HW123918   2.018   5.411   0.256
 7673SOL    HW223919   2.056   5.286   0.158
 7674SOL     OW23920   6.422   2.551   3.936
 7674SOL    HW123921   6.456   2.633   3.890
 7674SOL    HW223922   6.404   2.572   4.032
 7675SOL     OW23923   4.691   1.123   3.233
 7675SOL    HW123924   4.652   1.088   3.319
 7675SOL    HW223925   4.619   1.131   3.164
 7676SOL     OW23926   1.587   2.466   0.333
 7676SOL    HW123927   1.683   2.453   0.307
 7676SOL    HW223928   1.581   2.471   0.433
 7677SOL     OW23929   0.169   3.986   2.069
 7677SOL    HW123930   0.221   4.048   2.011
 7677SOL    HW223931   0.231   3.922   2.113
 7678SOL     OW23932   1.904   1.342   5.829
 7678SOL    HW123933   1.944   1.344   5.920
 7678SOL    HW223934   1.807   1.367   5.833
 7679SOL     OW23935   1.874   5.994   5.322
 7679SOL    HW123936   1.886   5.895   5.327
 7679SOL    HW223937   1.884   6.024   5.228
 7680SOL     OW23938   1.852   2.622   0.123
 7680SOL    HW123939   1.822   2.705   0.168
 7680SOL    HW223940   1.893   2.644   0.034
 7681SOL     OW23941   2.911   6.867   0.327
 7681SOL    HW123942   2.837   6.840   0.389
 7681SOL    HW223943   2.996   6.826   0.358
 7682SOL     OW23944   3.108   0.073   1.511
 7682SOL    HW123945   3.087   0.164   1.545
 7682SOL    HW223946   3.206   0.056   1.519
 7683SOL     OW23947   6.735   1.923   4.466
 7683SOL    HW123948   6.657   1.980   4.490
 7683SOL    HW223949   6.712   1.867   4.387
 7684SOL     OW23950   4.856   2.065   0.721
 7684SOL    HW123951   4.902   2.150   0.744
 7684SOL    HW223952   4.798   2.079   0.640
 7685SOL     OW23953   3.487   3.254   0.309
 7685SOL    HW123954   3.445   3.165   0.324
 7685SOL    HW223955   3.500   3.268   0.211
 7686SOL     OW23956   4.907   0.363   3.183
 7686SOL    HW123957   5.001   0.345   3.212
 7686SOL    HW223958   4.878   0.451   3.220
 7687SOL     OW23959   6.118   5.340   5.610
 7687SOL    HW123960   6.140   5.243   5.625
 7687SOL    HW223961   6.082   5.352   5.518
 7688SOL     OW23962   0.462   0.503   5.785
 7688SOL    HW123963   0.546   0.451   5.803
 7688SOL    HW223964   0.424   0.475   5.697
 7689SOL     OW23965   5.202   5.902   3.235
 7689SOL    HW123966   5.218   5.881   3.139
 7689SOL    HW223967   5.240   5.829   3.292
 7690SOL     OW23968   6.195   4.924   1.126
 7690SOL    HW123969   6.234   4.837   1.096
 7690SOL    HW223970   6.097   4.926   1.107
 7691SOL     OW23971   5.495   2.945   4.288
 7691SOL    HW123972   5.412   2.918   4.336
 7691SOL    HW223973   5.477   3.026   4.231
 7692SOL     OW23974   0.802   6.850   1.502
 7692SOL    HW123975   0.822   6.753   1.508
 7692SOL    HW223976   0.864   6.893   1.437
 7693SOL     OW23977   4.028   6.882   0.876
 7693SOL    HW123978   3.990   6.834   0.955
 7693SOL    HW223979   4.128   6.884   0.882
 7694SOL     OW23980   6.837   4.355   4.236
 7694SOL    HW123981   6.742   4.327   4.246
 7694SOL    HW223982   6.894   4.274   4.225
 7695SOL     OW23983   3.515   6.797   0.362
 7695SOL    HW123984   3.543   6.892   0.345
 7695SOL    HW223985   3.433   6.776   0.309
 7696SOL     OW23986   6.812   1.379   4.942
 7696SOL    HW123987   6.826   1.333   4.855
 7696SOL    HW223988   6.724   1.352   4.981
 7697SOL     OW23989   3.238   0.611   2.658
 7697SOL    HW123990   3.265   0.592   2.564
 7697SOL    HW223991   3.304   0.568   2.721
 7698SOL     OW23992   6.993   2.699   4.632
 7698SOL    HW123993   6.950   2.626   4.578
 7698SOL    HW223994   0.014   2.762   4.571
 7699SOL     OW23995   4.115   5.392   6.587
 7699SOL    HW123996   4.207   5.401   6.549
 7699SOL    HW223997   4.115   5.323   6.659
 7700SOL     OW23998   4.610   6.588   5.390
 7700SOL    HW123999   4.559   6.589   5.476
 7700SOL    HW224000   4.587   6.506   5.337
 7701SOL     OW24001   6.748   1.882   6.546
 7701SOL    HW124002   6.794   1.888   6.634
 7701SOL    HW224003   6.660   1.929   6.551
 7702SOL     OW24004   3.206   6.196   5.874
 7702SOL    HW124005   3.251   6.151   5.797
 7702SOL    HW224006   3.134   6.256   5.839
 7703SOL     OW24007   6.780   1.259   4.698
 7703SOL    HW124008   6.728   1.330   4.650
 7703SOL    HW224009   6.767   1.171   4.652
 7704SOL     OW24010   5.126   4.648   5.418
 7704SOL    HW124011   5.131   4.713   5.493
 7704SOL    HW224012   5.199   4.580   5.426
 7705SOL     OW24013   3.823   5.280   6.141
 7705SOL    HW124014   3.897   5.289   6.075
 7705SOL    HW224015   3.737   5.309   6.099
 7706SOL     OW24016   4.607   1.587   5.749
 7706SOL    HW124017   4.705   1.571   5.737
 7706SOL    HW224018   4.581   1.670   5.700
 7707SOL     OW24019   1.248   6.073   6.149
 7707SOL    HW124020   1.302   6.037   6.226
 7707SOL    HW224021   1.158   6.101   6.182
 7708SOL     OW24022   4.931   5.979   5.301
 7708SOL    HW124023   4.973   5.956   5.214
 7708SOL    HW224024   4.999   5.971   5.374
 7709SOL     OW24025   5.359   4.242   1.504
 7709SOL    HW124026   5.272   4.209   1.542
 7709SOL    HW224027   5.398   4.171   1.445
 7710SOL     OW24028   3.343   0.885   0.898
 7710SOL    HW124029   3.302   0.913   0.811
 7710SOL    HW224030   3.394   0.962   0.936
 7711SOL     OW24031   6.200   6.252   5.267
 7711SOL    HW124032   6.118   6.195   5.264
 7711SOL    HW224033   6.263   6.218   5.337
 7712SOL     OW24034   6.011   3.898   1.657
 7712SOL    HW124035   6.026   3.870   1.562
 7712SOL    HW224036   6.076   3.969   1.682
 7713SOL     OW24037   1.500   4.480   0.099
 7713SOL    HW124038   1.584   4.507   0.145
 7713SOL    HW224039   1.509   4.387   0.064
 7714SOL     OW24040   6.322   5.741   5.186
 7714SOL    HW124041   6.298   5.660   5.240
 7714SOL    HW224042   6.413   5.772   5.213
 7715SOL     OW24043   4.861   1.375   1.041
 7715SOL    HW124044   4.866   1.430   0.957
 7715SOL    HW224045   4.832   1.433   1.117
 7716SOL     OW24046   6.240   3.970   3.595
 7716SOL    HW124047   6.255   4.011   3.505
 7716SOL    HW224048   6.323   3.982   3.651
 7717SOL     OW24049   2.439   0.934   4.825
 7717SOL    HW124050   2.465   1.008   4.762
 7717SOL    HW224051   2.356   0.960   4.875
 7718SOL     OW24052   1.969   1.828   2.843
 7718SOL    HW124053   1.924   1.739   2.845
 7718SOL    HW224054   2.052   1.822   2.787
 7719SOL     OW24055   6.879   4.088   3.884
 7719SOL    HW124056   6.960   4.143   3.868
 7719SOL    HW224057   6.865   4.075   3.982
 7720SOL     OW24058   0.068   7.011   0.311
 7720SOL    HW124059   0.061   7.025   0.212
 7720SOL    HW224060   7.010   0.012   0.354
 7721SOL     OW24061   1.281   4.662   2.666
 7721SOL    HW124062   1.350   4.683   2.736
 7721SOL    HW224063   1.215   4.737   2.661
 7722SOL     OW24064   0.473   5.307   2.170
 7722SOL    HW124065   0.540   5.376   2.141
 7722SOL    HW224066   0.494   5.277   2.263
 7723SOL     OW24067   6.900   3.693   0.065
 7723SOL    HW124068   6.836   3.629   0.022
 7723SOL    HW224069   6.992   3.677   0.029
 7724SOL     OW24070   2.291   4.151   2.197
 7724SOL    HW124071   2.199   4.188   2.181
 7724SOL    HW224072   2.321   4.099   2.117
 7725SOL     OW24073   5.264   2.719   3.378
 7725SOL    HW124074   5.285   2.726   3.280
 7725SOL    HW224075   5.287   2.806   3.423
 7726SOL     OW24076   0.303   5.568   4.436
 7726SOL    HW124077   0.257   5.481   4.421
 7726SOL    HW224078   0.259   5.640   4.382
 7727SOL     OW24079   6.687   1.301   3.168
 7727SOL    HW124080   6.710   1.345   3.254
 7727SOL    HW224081   6.761   1.315   3.102
 7728SOL     OW24082   1.063   4.358   3.431
 7728SOL    HW124083   0.984   4.339   3.490
 7728SOL    HW224084   1.031   4.403   3.347
 7729SOL     OW24085   6.079   3.081   1.488
 7729SOL    HW124086   5.991   3.125   1.468
 7729SOL    HW224087   6.077   3.043   1.581
 7730SOL     OW24088   5.939   5.649   1.776
 7730SOL    HW124089   5.877   5.706   1.831
 7730SOL    HW224090   5.930   5.674   1.680
 7731SOL     OW24091   6.546   1.086   0.643
 7731SOL    HW124092   6.617   1.021   0.668
 7731SOL    HW224093   6.540   1.158   0.712
 7732SOL     OW24094   4.530   6.072   1.111
 7732SOL    HW124095   4.552   6.138   1.039
 7732SOL    HW224096   4.498   6.120   1.192
 7733SOL     OW24097   4.498   6.543   2.343
 7733SOL    HW124098   4.545   6.611   2.287
 7733SOL    HW224099   4.458   6.588   2.423
 7734SOL     OW24100   2.323   4.224   3.584
 7734SOL    HW124101   2.325   4.221   3.684
 7734SOL    HW224102   2.381   4.299   3.551
 7735SOL     OW24103   3.894   5.978   6.353
 7735SOL    HW124104   3.915   5.880   6.347
 7735SOL    HW224105   3.924   6.013   6.442
 7736SOL     OW24106   4.901   4.026   6.750
 7736SOL    HW124107   4.940   4.077   6.674
 7736SOL    HW224108   4.948   4.050   6.834
 7737SOL     OW24109   4.040   0.764   1.395
 7737SOL    HW124110   4.110   0.749   1.465
 7737SOL    HW224111   3.978   0.836   1.424
 7738SOL     OW24112   1.699   5.679   6.836
 7738SOL    HW124113   1.776   5.739   6.856
 7738SOL    HW224114   1.652   5.710   6.753
 7739SOL     OW24115   0.485   1.558   1.776
 7739SOL    HW124116   0.557   1.603   1.722
 7739SOL    HW224117   0.432   1.498   1.717
 7740SOL     OW24118   1.450   0.779   3.247
 7740SOL    HW124119   1.512   0.857   3.250
 7740SOL    HW224120   1.376   0.797   3.183
 7741SOL     OW24121   1.401   6.073   4.254
 7741SOL    HW124122   1.307   6.040   4.243
 7741SOL    HW224123   1.403   6.146   4.322
 7742SOL     OW24124   6.276   2.123   3.304
 7742SOL    HW124125   6.275   2.153   3.209
 7742SOL    HW224126   6.328   2.189   3.359
 7743SOL     OW24127   4.674   2.273   6.475
 7743SOL    HW124128   4.632   2.183   6.462
 7743SOL    HW224129   4.724   2.274   6.561
 7744SOL     OW24130   0.419   6.133   4.188
 7744SOL    HW124131   0.426   6.131   4.088
 7744SOL    HW224132   0.412   6.039   4.222
 7745SOL     OW24133   3.651   1.515   5.891
 7745SOL    HW124134   3.579   1.447   5.909
 7745SOL    HW224135   3.653   1.536   5.793
 7746SOL     OW24136   2.362   6.781   6.850
 7746SOL    HW124137   2.350   6.684   6.869
 7746SOL    HW224138   2.459   6.803   6.844
 7747SOL     OW24139   4.060   6.002   1.166
 7747SOL    HW124140   4.017   5.968   1.250
 7747SOL    HW224141   4.032   5.944   1.089
 7748SOL     OW24142   3.141   4.212   5.586
 7748SOL    HW124143   3.183   4.121   5.588
 7748SOL    HW224144   3.060   4.213   5.644
 7749SOL     OW24145   3.377   3.241   5.872
 7749SOL    HW124146   3.308   3.168   5.875
 7749SOL    HW224147   3.409   3.260   5.965
 7750SOL     OW24148   0.115   6.058   1.528
 7750SOL    HW124149   0.081   6.104   1.446
 7750SOL    HW224150   0.204   6.018   1.509
 7751SOL     OW24151   1.402   1.140   2.541
 7751SOL    HW124152   1.452   1.138   2.627
 7751SOL    HW224153   1.304   1.143   2.559
 7752SOL     OW24154   5.160   0.268   5.545
 7752SOL    HW124155   5.207   0.345   5.588
 7752SOL    HW224156   5.217   0.230   5.473
 7753SOL     OW24157   2.203   1.831   4.717
 7753SOL    HW124158   2.125   1.812   4.778
 7753SOL    HW224159   2.255   1.908   4.754
 7754SOL     OW24160   3.705   5.956   1.686
 7754SOL    HW124161   3.606   5.964   1.699
 7754SOL    HW224162   3.753   5.996   1.764
 7755SOL     OW24163   1.253   2.994   6.007
 7755SOL    HW124164   1.201   2.916   5.971
 7755SOL    HW224165   1.240   3.000   6.106
 7756SOL     OW24166   3.267   6.104   1.465
 7756SOL    HW124167   3.310   6.077   1.379
 7756SOL    HW224168   3.242   6.023   1.518
 7757SOL     OW24169   6.942   4.771   1.416
 7757SOL    HW124170   6.906   4.865   1.417
 7757SOL    HW224171   0.013   4.773   1.431
 7758SOL     OW24172   1.412   6.294   6.507
 7758SOL    HW124173   1.399   6.342   6.594
 7758SOL    HW224174   1.403   6.360   6.432
 7759SOL     OW24175   2.995   1.934   5.690
 7759SOL    HW124176   2.952   2.003   5.748
 7759SOL    HW224177   2.925   1.889   5.634
 7760SOL     OW24178   5.170   2.344   1.899
 7760SOL    HW124179   5.222   2.411   1.952
 7760SOL    HW224180   5.177   2.254   1.942
 7761SOL     OW24181   5.873   6.103   4.821
 7761SOL    HW124182   5.871   6.142   4.914
 7761SOL    HW224183   5.780   6.103   4.784
 7762SOL     OW24184   1.888   0.653   3.742
 7762SOL    HW124185   1.881   0.742   3.698
 7762SOL    HW224186   1.853   0.583   3.680
 7763SOL     OW24187   1.881   6.824   5.552
 7763SOL    HW124188   1.963   6.879   5.562
 7763SOL    HW224189   1.803   6.883   5.530
 7764SOL     OW24190   2.869   4.659   5.803
 7764SOL    HW124191   2.905   4.639   5.711
 7764SOL    HW224192   2.804   4.735   5.797
 7765SOL     OW24193   6.692   3.395   4.397
 7765SOL    HW124194   6.695   3.417   4.495
 7765SOL    HW224195   6.604   3.422   4.360
 7766SOL     OW24196   0.187   4.036   0.009
 7766SOL    HW124197   0.197   4.135   0.004
 7766SOL    HW224198   0.277   3.993   0.005
 7767SOL     OW24199   4.668   6.812   2.463
 7767SOL    HW124200   4.748   6.752   2.460
 7767SOL    HW224201   4.698   6.908   2.460
 7768SOL     OW24202   4.790   4.298   3.365
 7768SOL    HW124203   4.797   4.211   3.316
 7768SOL    HW224204   4.771   4.282   3.461
 7769SOL     OW24205   3.809   1.562   4.908
 7769SOL    HW124206   3.803   1.525   4.815
 7769SOL    HW224207   3.811   1.662   4.904
 7770SOL     OW24208   6.958   3.489   4.537
 7770SOL    HW124209   6.960   3.582   4.572
 7770SOL    HW224210   7.019   3.431   4.592
 7771SOL     OW24211   2.561   2.061   6.194
 7771SOL    HW124212   2.493   1.988   6.186
 7771SOL    HW224213   2.643   2.025   6.240
 7772SOL     OW24214   4.916   1.158   0.872
 7772SOL    HW124215   4.834   1.145   0.816
 7772SOL    HW224216   4.914   1.249   0.913
 7773SOL     OW24217   2.641   5.543   5.903
 7773SOL    HW124218   2.644   5.539   6.002
 7773SOL    HW224219   2.649   5.639   5.873
 7774SOL     OW24220   4.681   2.187   4.655
 7774SOL    HW124221   4.644   2.117   4.594
 7774SOL    HW224222   4.619   2.265   4.659
 7775SOL     OW24223   3.839   0.151   0.051
 7775SOL    HW124224   3.790   0.194   0.127
 7775SOL    HW224225   3.884   0.222   7.024
 7776SOL     OW24226   0.289   6.488   6.087
 7776SOL    HW124227   0.388   6.482   6.095
 7776SOL    HW224228   0.264   6.569   6.034
 7777SOL     OW24229   6.310   5.557   4.712
 7777SOL    HW124230   6.254   5.592   4.787
 7777SOL    HW224231   6.383   5.622   4.692
 7778SOL     OW24232   5.566   4.317   2.121
 7778SOL    HW124233   5.648   4.310   2.178
 7778SOL    HW224234   5.580   4.386   2.050
 7779SOL     OW24235   3.560   0.509   2.972
 7779SOL    HW124236   3.515   0.542   3.054
 7779SOL    HW224237   3.649   0.470   2.996
 7780SOL     OW24238   6.941   6.367   5.761
 7780SOL    HW124239   6.950   6.442   5.826
 7780SOL    HW224240   6.902   6.401   5.675
 7781SOL     OW24241   1.327   4.136   0.550
 7781SOL    HW124242   1.230   4.112   0.556
 7781SOL    HW224243   1.341   4.203   0.477
 7782SOL     OW24244   5.870   4.927   3.244
 7782SOL    HW124245   5.830   4.906   3.155
 7782SOL    HW224246   5.843   4.857   3.310
 7783SOL     OW24247   0.565   0.159   5.919
 7783SOL    HW124248   0.604   0.246   5.889
 7783SOL    HW224249   0.598   0.086   5.858
 7784SOL     OW24250   2.985   2.468   1.647
 7784SOL    HW124251   3.019   2.379   1.615
 7784SOL    HW224252   2.936   2.456   1.733
 7785SOL     OW24253   1.285   6.691   3.437
 7785SOL    HW124254   1.331   6.667   3.523
 7785SOL    HW224255   1.206   6.632   3.424
 7786SOL     OW24256   4.363   0.920   0.071
 7786SOL    HW124257   4.363   0.841   0.132
 7786SOL    HW224258   4.280   0.973   0.085
 7787SOL     OW24259   2.410   2.908   0.831
 7787SOL    HW124260   2.318   2.946   0.825
 7787SOL    HW224261   2.477   2.978   0.807
 7788SOL     OW24262   1.343   6.817   1.891
 7788SOL    HW124263   1.336   6.783   1.985
 7788SOL    HW224264   1.438   6.814   1.861
 7789SOL     OW24265   3.096   0.206   6.392
 7789SOL    HW124266   3.015   0.220   6.335
 7789SOL    HW224267   3.128   0.294   6.426
 7790SOL     OW24268   6.252   5.112   2.546
 7790SOL    HW124269   6.247   5.066   2.635
 7790SOL    HW224270   6.347   5.110   2.514
 7791SOL     OW24271   2.296   5.812   1.832
 7791SOL    HW124272   2.315   5.715   1.845
 7791SOL    HW224273   2.360   5.866   1.886
 7792SOL     OW24274   0.513   0.871   2.741
 7792SOL    HW124275   0.557   0.803   2.800
 7792SOL    HW224276   0.474   0.826   2.661
 7793SOL     OW24277   4.984   0.804   6.467
 7793SOL    HW124278   5.060   0.794   6.532
 7793SOL    HW224279   5.015   0.856   6.387
 7794SOL     OW24280   0.420   5.784   2.019
 7794SOL    HW124281   0.438   5.871   2.066
 7794SOL    HW224282   0.398   5.802   1.923
 7795SOL     OW24283   3.193   5.403   5.588
 7795SOL    HW124284   3.266   5.464   5.617
 7795SOL    HW224285   3.106   5.433   5.628
 7796SOL     OW24286   3.866   3.353   5.809
 7796SOL    HW124287   3.911   3.283   5.753
 7796SOL    HW224288   3.773   3.368   5.775
 7797SOL     OW24289   1.360   5.196   1.203
 7797SOL    HW124290   1.411   5.210   1.118
 7797SOL    HW224291   1.266   5.168   1.181
 7798SOL     OW24292   1.254   1.487   2.409
 7798SOL    HW124293   1.354   1.491   2.417
 7798SOL    HW224294   1.229   1.411   2.349
 7799SOL     OW24295   2.915   6.050   2.718
 7799SOL    HW124296   2.852   6.026   2.793
 7799SOL    HW224297   2.875   6.123   2.663
 7800SOL     OW24298   0.778   5.940   1.965
 7800SOL    HW124299   0.748   5.992   1.885
 7800SOL    HW224300   0.817   6.002   2.033
 7801SOL     OW24301   1.903   1.571   2.936
 7801SOL    HW124302   1.928   1.509   2.861
 7801SOL    HW224303   1.818   1.539   2.979
 7802SOL     OW24304   6.971   4.266   6.668
 7802SOL    HW124305   0.030   4.275   6.619
 7802SOL    HW224306   6.895   4.297   6.610
 7803SOL     OW24307   5.320   2.197   0.058
 7803SOL    HW124308   5.278   2.257   0.127
 7803SOL    HW224309   5.250   2.139   0.018
 7804SOL     OW24310   3.152   1.629   4.144
 7804SOL    HW124311   3.209   1.567   4.092
 7804SOL    HW224312   3.197   1.718   4.152
 7805SOL     OW24313   4.859   3.242   2.356
 7805SOL    HW124314   4.817   3.157   2.323
 7805SOL    HW224315   4.787   3.306   2.384
 7806SOL     OW24316   6.469   2.438   6.201
 7806SOL    HW124317   6.408   2.486   6.137
 7806SOL    HW224318   6.522   2.370   6.151
 7807SOL     OW24319   1.439   4.343   5.804
 7807SOL    HW124320   1.399   4.389   5.884
 7807SOL    HW224321   1.527   4.385   5.782
 7808SOL     OW24322   4.778   4.291   2.359
 7808SOL    HW124323   4.779   4.192   2.373
 7808SOL    HW224324   4.862   4.330   2.396
 7809SOL     OW24325   5.044   5.312   4.851
 7809SOL    HW124326   5.120   5.256   4.886
 7809SOL    HW224327   5.017   5.378   4.921
 7810SOL     OW24328   3.624   0.139   4.567
 7810SOL    HW124329   3.642   0.071   4.638
 7810SOL    HW224330   3.643   0.230   4.603
 7811SOL     OW24331   1.540   5.713   3.068
 7811SOL    HW124332   1.547   5.704   2.969
 7811SOL    HW224333   1.514   5.625   3.108
 7812SOL     OW24334   2.312   3.178   5.364
 7812SOL    HW124335   2.366   3.249   5.409
 7812SOL    HW224336   2.373   3.122   5.308
 7813SOL     OW24337   4.522   2.783   1.507
 7813SOL    HW124338   4.519   2.779   1.607
 7813SOL    HW224339   4.606   2.739   1.475
 7814SOL     OW24340   6.772   3.436   2.727
 7814SOL    HW124341   6.751   3.342   2.699
 7814SOL    HW224342   6.864   3.439   2.766
 7815SOL     OW24343   5.619   2.190   5.513
 7815SOL    HW124344   5.599   2.282   5.479
 7815SOL    HW224345   5.534   2.143   5.534
 7816SOL     OW24346   0.328   1.689   6.003
 7816SOL    HW124347   0.350   1.619   5.936
 7816SOL    HW224348   0.412   1.723   6.046
 7817SOL     OW24349   4.152   3.888   5.946
 7817SOL    HW124350   4.147   3.940   5.861
 7817SOL    HW224351   4.087   3.925   6.012
 7818SOL     OW24352   4.913   1.445   2.230
 7818SOL    HW124353   4.847   1.520   2.221
 7818SOL    HW224354   4.892   1.374   2.164
 7819SOL     OW24355   0.176   3.645   4.394
 7819SOL    HW124356   0.238   3.703   4.342
 7819SOL    HW224357   0.083   3.660   4.363
 7820SOL     OW24358   1.862   1.273   5.492
 7820SOL    HW124359   1.798   1.341   5.456
 7820SOL    HW224360   1.894   1.302   5.582
 7821SOL     OW24361   5.853   5.551   0.303
 7821SOL    HW124362   5.759   5.558   0.335
 7821SOL    HW224363   5.869   5.616   0.228
 7822SOL     OW24364   0.946   1.442   6.102
 7822SOL    HW124365   0.975   1.516   6.041
 7822SOL    HW224366   0.865   1.471   6.153
 7823SOL     OW24367   0.950   4.172   6.200
 7823SOL    HW124368   1.021   4.118   6.153
 7823SOL    HW224369   0.988   4.211   6.284
 7824SOL     OW24370   5.900   0.677   4.285
 7824SOL    HW124371   5.818   0.699   4.232
 7824SOL    HW224372   5.883   0.597   4.342
 7825SOL     OW24373   2.184   2.811   1.883
 7825SOL    HW124374   2.220   2.867   1.809
 7825SOL    HW224375   2.182   2.863   1.968
 7826SOL     OW24376   5.673   2.068   0.101
 7826SOL    HW124377   5.753   2.011   0.121
 7826SOL    HW224378   5.590   2.015   0.115
 7827SOL     OW24379   3.692   4.580   1.062
 7827SOL    HW124380   3.614   4.576   1.125
 7827SOL    HW224381   3.674   4.647   0.990
 7828SOL     OW24382   0.563   5.489   0.763
 7828SOL    HW124383   0.479   5.470   0.813
 7828SOL    HW224384   0.568   5.429   0.683
 7829SOL     OW24385   2.669   3.261   1.487
 7829SOL    HW124386   2.720   3.320   1.425
 7829SOL    HW224387   2.572   3.281   1.481
 7830SOL     OW24388   5.650   4.005   5.903
 7830SOL    HW124389   5.680   4.100   5.895
 7830SOL    HW224390   5.563   3.993   5.855
 7831SOL     OW24391   0.867   4.586   6.866
 7831SOL    HW124392   0.878   4.633   6.778
 7831SOL    HW224393   0.946   4.606   6.924
 7832SOL     OW24394   3.386   1.096   4.945
 7832SOL    HW124395   3.427   1.184   4.969
 7832SOL    HW224396   3.296   1.111   4.905
 7833SOL     OW24397   0.881   0.977   0.793
 7833SOL    HW124398   0.796   1.028   0.780
 7833SOL    HW224399   0.872   0.887   0.751
 7834SOL     OW24400   0.089   1.618   2.078
 7834SOL    HW124401   0.170   1.564   2.058
 7834SOL    HW224402   0.012   1.583   2.025
 7835SOL     OW24403   2.351   2.748   4.695
 7835SOL    HW124404   2.307   2.659   4.704
 7835SOL    HW224405   2.331   2.787   4.605
 7836SOL     OW24406   2.989   1.018   6.911
 7836SOL    HW124407   3.034   0.930   6.923
 7836SOL    HW224408   2.892   1.003   6.890
 7837SOL     OW24409   5.877   6.565   1.888
 7837SOL    HW124410   5.963   6.616   1.891
 7837SOL    HW224411   5.823   6.594   1.809
 7838SOL     OW24412   4.704   6.294   6.037
 7838SOL    HW124413   4.794   6.263   6.069
 7838SOL    HW224414   4.716   6.365   5.968
 7839SOL     OW24415   6.400   4.330   4.783
 7839SOL    HW124416   6.309   4.371   4.792
 7839SOL    HW224417   6.430   4.296   4.872
 7840SOL     OW24418   5.025   2.922   4.048
 7840SOL    HW124419   4.971   2.868   4.112
 7840SOL    HW224420   5.086   2.862   3.996
 7841SOL     OW24421   5.289   2.178   6.447
 7841SOL    HW124422   5.316   2.178   6.350
 7841SOL    HW224423   5.203   2.227   6.458
 7842SOL     OW24424   1.042   1.142   3.351
 7842SOL    HW124425   1.054   1.110   3.445
 7842SOL    HW224426   0.992   1.074   3.298
 7843SOL     OW24427   5.961   4.261   1.374
 7843SOL    HW124428   5.904   4.321   1.318
 7843SOL    HW224429   6.052   4.301   1.384
 7844SOL     OW24430   4.223   0.797   4.001
 7844SOL    HW124431   4.166   0.729   3.955
 7844SOL    HW224432   4.238   0.875   3.940
 7845SOL     OW24433   0.755   0.812   3.942
 7845SOL    HW124434   0.837   0.813   3.999
 7845SOL    HW224435   0.710   0.901   3.947
 7846SOL     OW24436   2.273   0.933   1.459
 7846SOL    HW124437   2.196   0.924   1.523
 7846SOL    HW224438   2.318   1.021   1.474
 7847SOL     OW24439   0.604   1.318   1.176
 7847SOL    HW124440   0.533   1.248   1.176
 7847SOL    HW224441   0.614   1.356   1.268
 7848SOL     OW24442   3.227   4.462   0.859
 7848SOL    HW124443   3.179   4.381   0.894
 7848SOL    HW224444   3.170   4.543   0.873
 7849SOL     OW24445   5.150   3.823   3.975
 7849SOL    HW124446   5.160   3.783   3.884
 7849SOL    HW224447   5.213   3.900   3.984
 7850SOL     OW24448   0.050   0.851   4.024
 7850SOL    HW124449   7.002   0.786   4.019
 7850SOL    HW224450   0.126   0.810   4.076
 7851SOL     OW24451   6.205   6.499   0.667
 7851SOL    HW124452   6.230   6.403   0.653
 7851SOL    HW224453   6.285   6.557   0.651
 7852SOL     OW24454   2.843   6.757   6.471
 7852SOL    HW124455   2.813   6.836   6.525
 7852SOL    HW224456   2.910   6.788   6.404
 7853SOL     OW24457   3.702   1.711   0.344
 7853SOL    HW124458   3.744   1.796   0.377
 7853SOL    HW224459   3.698   1.645   0.419
 7854SOL     OW24460   3.470   4.274   0.927
 7854SOL    HW124461   3.454   4.331   0.847
 7854SOL    HW224462   3.463   4.330   1.010
 7855SOL     OW24463   4.667   5.810   6.587
 7855SOL    HW124464   4.616   5.851   6.512
 7855SOL    HW224465   4.642   5.855   6.673
 7856SOL     OW24466   6.157   4.753   4.298
 7856SOL    HW124467   6.078   4.765   4.238
 7856SOL    HW224468   6.194   4.843   4.323
 7857SOL     OW24469   6.836   2.447   5.853
 7857SOL    HW124470   6.791   2.387   5.787
 7857SOL    HW224471   6.921   2.405   5.885
 7858SOL     OW24472   5.493   4.777   3.331
 7858SOL    HW124473   5.420   4.814   3.273
 7858SOL    HW224474   5.577   4.829   3.315
 7859SOL     OW24475   0.099   3.940   6.111
 7859SOL    HW124476   0.108   3.841   6.104
 7859SOL    HW224477   0.186   3.983   6.085
 7860SOL     OW24478   4.039   6.483   2.808
 7860SOL    HW124479   4.133   6.480   2.776
 7860SOL    HW224480   4.018   6.401   2.861
 7861SOL     OW24481   4.350   5.443   1.742
 7861SOL    HW124482   4.418   5.491   1.798
 7861SOL    HW224483   4.338   5.492   1.656
 7862SOL     OW24484   3.074   4.164   1.798
 7862SOL    HW124485   3.001   4.227   1.824
 7862SOL    HW224486   3.034   4.081   1.758
 7863SOL     OW24487   6.478   5.774   3.184
 7863SOL    HW124488   6.533   5.702   3.143
 7863SOL    HW224489   6.386   5.740   3.201
 7864SOL     OW24490   6.854   5.729   5.719
 7864SOL    HW124491   6.851   5.701   5.815
 7864SOL    HW224492   6.773   5.694   5.671
 7865SOL     OW24493   4.216   6.575   4.240
 7865SOL    HW124494   4.183   6.496   4.190
 7865SOL    HW224495   4.162   6.656   4.216
 7866SOL     OW24496   2.571   1.465   2.089
 7866SOL    HW124497   2.582   1.559   2.056
 7866SOL    HW224498   2.657   1.416   2.080
 7867SOL     OW24499   5.429   5.277   2.473
 7867SOL    HW124500   5.352   5.214   2.461
 7867SOL    HW224501   5.449   5.286   2.570
 7868SOL     OW24502   4.896   0.064   2.209
 7868SOL    HW124503   4.898   6.991   2.214
 7868SOL    HW224504   4.988   0.098   2.190
 7869SOL     OW24505   6.325   3.724   0.963
 7869SOL    HW124506   6.385   3.650   0.935
 7869SOL    HW224507   6.246   3.687   1.012
 7870SOL     OW24508   6.032   5.369   3.471
 7870SOL    HW124509   5.949   5.319   3.446
 7870SOL    HW224510   6.051   5.355   3.568
 7871SOL     OW24511   5.635   4.051   3.189
 7871SOL    HW124512   5.694   4.109   3.133
 7871SOL    HW224513   5.588   4.107   3.257
 7872SOL     OW24514   0.699   4.525   2.088
 7872SOL    HW124515   0.649   4.523   2.002
 7872SOL    HW224516   0.781   4.469   2.081
 7873SOL     OW24517   6.474   0.806   5.534
 7873SOL    HW124518   6.398   0.837   5.592
 7873SOL    HW224519   6.550   0.870   5.542
 7874SOL     OW24520   6.320   1.626   6.479
 7874SOL    HW124521   6.241   1.568   6.498
 7874SOL    HW224522   6.313   1.711   6.532
 7875SOL     OW24523   4.660   4.006   6.901
 7875SOL    HW124524   4.594   4.020   6.827
 7875SOL    HW224525   4.751   4.031   6.868
 7876SOL     OW24526   6.845   0.178   4.798
 7876SOL    HW124527   6.774   0.142   4.738
 7876SOL    HW224528   6.934   0.168   4.754
 7877SOL     OW24529   0.256   2.818   2.649
 7877SOL    HW124530   0.204   2.758   2.711
 7877SOL    HW224531   0.212   2.908   2.646
 7878SOL     OW24532   5.222   4.884   3.194
 7878SOL    HW124533   5.180   4.814   3.137
 7878SOL    HW224534   5.214   4.858   3.290
 7879SOL     OW24535   4.406   5.843   3.232
 7879SOL    HW124536   4.430   5.940   3.230
 7879SOL    HW224537   4.366   5.817   3.144
 7880SOL     OW24538   0.558   6.361   0.875
 7880SOL    HW124539   0.551   6.374   0.974
 7880SOL    HW224540   0.493   6.291   0.845
 7881SOL     OW24541   6.990   3.714   4.663
 7881SOL    HW124542   6.955   3.753   4.749
 7881SOL    HW224543   0.047   3.760   4.638
 7882SOL     OW24544   1.836   2.186   2.565
 7882SOL    HW124545   1.758   2.242   2.538
 7882SOL    HW224546   1.874   2.221   2.651
 7883SOL     OW24547   1.722   1.027   1.504
 7883SOL    HW124548   1.687   0.934   1.514
 7883SOL    HW224549   1.651   1.085   1.464
 7884SOL     OW24550   1.358   4.410   3.288
 7884SOL    HW124551   1.312   4.380   3.372
 7884SOL    HW224552   1.295   4.406   3.211
 7885SOL     OW24553   5.869   5.596   2.889
 7885SOL    HW124554   5.815   5.664   2.840
 7885SOL    HW224555   5.863   5.613   2.988
 7886SOL     OW24556   5.993   4.042   1.189
 7886SOL    HW124557   5.907   4.009   1.149
 7886SOL    HW224558   5.976   4.129   1.237
 7887SOL     OW24559   3.438   2.811   5.192
 7887SOL    HW124560   3.514   2.820   5.256
 7887SOL    HW224561   3.413   2.714   5.183
 7888SOL     OW24562   0.006   1.022   4.248
 7888SOL    HW124563   0.009   0.964   4.166
 7888SOL    HW224564   0.095   1.018   4.295
 7889SOL     OW24565   0.503   5.422   6.521
 7889SOL    HW124566   0.405   5.405   6.528
 7889SOL    HW224567   0.527   5.501   6.578
 7890SOL     OW24568   1.278   2.580   3.987
 7890SOL    HW124569   1.368   2.566   4.029
 7890SOL    HW224570   1.210   2.597   4.059
 7891SOL     OW24571   1.021   2.938   4.147
 7891SOL    HW124572   0.991   2.848   4.176
 7891SOL    HW224573   1.004   3.004   4.220
 7892SOL     OW24574   1.137   2.058   3.878
 7892SOL    HW124575   1.131   2.050   3.778
 7892SOL    HW224576   1.176   2.147   3.902
 7893SOL     OW24577   6.158   6.436   1.922
 7893SOL    HW124578   6.241   6.492   1.921
 7893SOL    HW224579   6.079   6.493   1.898
 7894SOL     OW24580   2.952   1.241   0.736
 7894SOL    HW124581   2.920   1.335   0.722
 7894SOL    HW224582   2.916   1.207   0.823
 7895SOL     OW24583   3.600   6.194   4.408
 7895SOL    HW124584   3.579   6.096   4.413
 7895SOL    HW224585   3.662   6.218   4.483
 7896SOL     OW24586   5.305   2.959   1.536
 7896SOL    HW124587   5.267   3.045   1.570
 7896SOL    HW224588   5.297   2.889   1.608
 7897SOL     OW24589   3.478   3.649   6.640
 7897SOL    HW124590   3.469   3.697   6.553
 7897SOL    HW224591   3.575   3.643   6.665
 7898SOL     OW24592   4.660   0.017   4.240
 7898SOL    HW124593   4.642   6.947   4.226
 7898SOL    HW224594   4.751   0.029   4.280
 7899SOL     OW24595   5.338   6.430   1.836
 7899SOL    HW124596   5.377   6.442   1.744
 7899SOL    HW224597   5.261   6.492   1.848
 7900SOL     OW24598   0.953   3.524   0.665
 7900SOL    HW124599   0.988   3.618   0.663
 7900SOL    HW224600   0.866   3.521   0.615
 7901SOL     OW24601   5.391   1.620   6.078
 7901SOL    HW124602   5.303   1.667   6.075
 7901SOL    HW224603   5.376   1.521   6.070
 7902SOL     OW24604   6.889   6.408   3.234
 7902SOL    HW124605   6.859   6.488   3.285
 7902SOL    HW224606   6.956   6.435   3.166
 7903SOL     OW24607   4.308   1.844   3.688
 7903SOL    HW124608   4.252   1.904   3.745
 7903SOL    HW224609   4.385   1.810   3.742
 7904SOL     OW24610   6.100   6.868   3.559
 7904SOL    HW124611   6.156   6.787   3.543
 7904SOL    HW224612   6.088   6.918   3.473
 7905SOL     OW24613   5.497   1.017   0.547
 7905SOL    HW124614   5.430   1.034   0.475
 7905SOL    HW224615   5.571   1.085   0.540
 7906SOL     OW24616   1.184   5.216   0.803
 7906SOL    HW124617   1.176   5.306   0.846
 7906SOL    HW224618   1.240   5.223   0.721
 7907SOL     OW24619   6.077   1.181   2.970
 7907SOL    HW124620   6.030   1.265   2.946
 7907SOL    HW224621   6.174   1.188   2.946
 7908SOL     OW24622   1.150   2.062   6.652
 7908SOL    HW124623   1.212   2.032   6.725
 7908SOL    HW224624   1.204   2.097   6.576
 7909SOL     OW24625   5.159   4.305   3.357
 7909SOL    HW124626   5.156   4.279   3.260
 7909SOL    HW224627   5.116   4.234   3.412
 7910SOL     OW24628   1.399   2.887   1.230
 7910SOL    HW124629   1.394   2.846   1.139
 7910SOL    HW224630   1.319   2.859   1.283
 7911SOL     OW24631   0.887   3.854   1.267
 7911SOL    HW124632   0.955   3.923   1.295
 7911SOL    HW224633   0.894   3.839   1.168
 7912SOL     OW24634   4.921   4.848   0.568
 7912SOL    HW124635   4.851   4.875   0.634
 7912SOL    HW224636   5.005   4.901   0.584
 7913SOL     OW24637   1.746   4.493   0.950
 7913SOL    HW124638   1.647   4.500   0.935
 7913SOL    HW224639   1.779   4.405   0.916
 7914SOL     OW24640   0.069   4.567   6.570
 7914SOL    HW124641   7.020   4.598   6.627
 7914SOL    HW224642   0.152   4.562   6.626
 7915SOL     OW24643   4.360   1.334   2.803
 7915SOL    HW124644   4.285   1.373   2.749
 7915SOL    HW224645   4.441   1.393   2.795
 7916SOL     OW24646   0.876   0.796   4.905
 7916SOL    HW124647   0.935   0.870   4.938
 7916SOL    HW224648   0.802   0.780   4.971
 7917SOL     OW24649   3.949   2.439   5.729
 7917SOL    HW124650   3.931   2.354   5.680
 7917SOL    HW224651   3.862   2.484   5.750
 7918SOL     OW24652   0.815   1.632   5.312
 7918SOL    HW124653   0.807   1.597   5.219
 7918SOL    HW224654   0.907   1.616   5.347
 7919SOL     OW24655   1.093   4.898   2.657
 7919SOL    HW124656   1.026   4.968   2.681
 7919SOL    HW224657   1.179   4.942   2.631
 7920SOL     OW24658   4.774   1.055   1.872
 7920SOL    HW124659   4.848   1.084   1.812
 7920SOL    HW224660   4.762   0.956   1.866
 7921SOL     OW24661   5.606   0.644   1.435
 7921SOL    HW124662   5.660   0.683   1.510
 7921SOL    HW224663   5.668   0.600   1.370
 7922SOL     OW24664   0.580   6.470   6.614
 7922SOL    HW124665   0.510   6.400   6.606
 7922SOL    HW224666   0.651   6.439   6.677
 7923SOL     OW24667   3.186   2.158   6.875
 7923SOL    HW124668   3.134   2.072   6.877
 7923SOL    HW224669   3.241   2.162   6.792
 7924SOL     OW24670   5.022   6.529   1.108
 7924SOL    HW124671   5.071   6.468   1.170
 7924SOL    HW224672   5.067   6.619   1.108
 7925SOL     OW24673   1.811   6.651   0.677
 7925SOL    HW124674   1.784   6.582   0.744
 7925SOL    HW224675   1.742   6.723   0.673
 7926SOL     OW24676   5.443   1.555   6.765
 7926SOL    HW124677   5.473   1.472   6.719
 7926SOL    HW224678   5.523   1.605   6.798
 7927SOL     OW24679   5.156   0.213   1.693
 7927SOL    HW124680   5.167   0.251   1.784
 7927SOL    HW224681   5.064   0.176   1.682
 7928SOL     OW24682   6.985   0.991   3.448
 7928SOL    HW124683   6.931   1.008   3.530
 7928SOL    HW224684   6.944   1.039   3.370
 7929SOL     OW24685   4.668   3.543   6.238
 7929SOL    HW124686   4.589   3.574   6.184
 7929SOL    HW224687   4.637   3.483   6.311
 7930SOL     OW24688   3.596   5.380   6.038
 7930SOL    HW124689   3.515   5.332   6.071
 7930SOL    HW224690   3.583   5.479   6.047
 7931SOL     OW24691   3.750   2.747   0.431
 7931SOL    HW124692   3.795   2.682   0.370
 7931SOL    HW224693   3.731   2.832   0.382
 7932SOL     OW24694   0.503   5.005   1.350
 7932SOL    HW124695   0.503   4.922   1.294
 7932SOL    HW224696   0.451   4.989   1.434
 7933SOL     OW24697   6.755   0.979   5.909
 7933SOL    HW124698   6.695   1.000   5.986
 7933SOL    HW224699   6.791   0.887   5.919
 7934SOL     OW24700   1.354   4.780   0.358
 7934SOL    HW124701   1.267   4.740   0.328
 7934SOL    HW224702   1.416   4.707   0.389
 7935SOL     OW24703   4.955   4.767   2.856
 7935SOL    HW124704   4.858   4.776   2.879
 7935SOL    HW224705   4.985   4.847   2.805
 7936SOL     OW24706   3.202   5.716   3.211
 7936SOL    HW124707   3.198   5.808   3.248
 7936SOL    HW224708   3.288   5.705   3.160
 7937SOL     OW24709   2.228   5.203   3.666
 7937SOL    HW124710   2.306   5.261   3.644
 7937SOL    HW224711   2.237   5.169   3.759
 7938SOL     OW24712   5.355   6.497   5.395
 7938SOL    HW124713   5.308   6.556   5.462
 7938SOL    HW224714   5.332   6.527   5.303
 7939SOL     OW24715   0.279   1.997   5.763
 7939SOL    HW124716   0.342   2.014   5.839
 7939SOL    HW224717   0.326   2.014   5.677
 7940SOL     OW24718   3.373   1.527   2.446
 7940SOL    HW124719   3.379   1.486   2.355
 7940SOL    HW224720   3.415   1.617   2.446
 7941SOL     OW24721   4.962   6.593   3.070
 7941SOL    HW124722   5.023   6.596   2.991
 7941SOL    HW224723   4.983   6.669   3.131
 7942SOL     OW24724   0.426   2.520   3.023
 7942SOL    HW124725   0.393   2.471   3.104
 7942SOL    HW224726   0.416   2.618   3.038
 7943SOL     OW24727   1.024   4.425   5.420
 7943SOL    HW124728   1.078   4.356   5.372
 7943SOL    HW224729   1.059   4.437   5.512
 7944SOL     OW24730   0.424   2.221   1.764
 7944SOL    HW124731   0.516   2.221   1.803
 7944SOL    HW224732   0.361   2.176   1.827
 7945SOL     OW24733   6.099   5.257   2.723
 7945SOL    HW124734   6.114   5.219   2.632
 7945SOL    HW224735   6.187   5.264   2.771
 7946SOL     OW24736   3.744   0.012   6.005
 7946SOL    HW124737   3.714   0.062   6.086
 7946SOL    HW224738   3.670   6.981   5.972
 7947SOL     OW24739   2.390   1.743   5.174
 7947SOL    HW124740   2.380   1.752   5.075
 7947SOL    HW224741   2.457   1.809   5.207
 7948SOL     OW24742   1.023   4.682   1.193
 7948SOL    HW124743   1.029   4.773   1.152
 7948SOL    HW224744   1.094   4.623   1.156
 7949SOL     OW24745   4.376   4.116   5.983
 7949SOL    HW124746   4.465   4.079   6.009
 7949SOL    HW224747   4.318   4.042   5.949
 7950SOL     OW24748   5.047   6.444   4.833
 7950SOL    HW124749   5.005   6.396   4.755
 7950SOL    HW224750   5.146   6.431   4.830
 7951SOL     OW24751   2.164   5.195   2.638
 7951SOL    HW124752   2.200   5.112   2.595
 7951SOL    HW224753   2.087   5.230   2.584
 7952SOL     OW24754   6.663   3.175   6.870
 7952SOL    HW124755   6.695   3.182   6.776
 7952SOL    HW224756   6.641   3.079   6.890
 7953SOL     OW24757   4.636   2.053   1.689
 7953SOL    HW124758   4.552   2.106   1.679
 7953SOL    HW224759   4.642   2.017   1.782
 7954SOL     OW24760   4.243   3.588   6.507
 7954SOL    HW124761   4.176   3.658   6.482
 7954SOL    HW224762   4.213   3.499   6.471
 7955SOL     OW24763   2.576   1.543   6.496
 7955SOL    HW124764   2.492   1.560   6.547
 7955SOL    HW224765   2.554   1.506   6.406
 7956SOL     OW24766   6.076   1.412   1.772
 7956SOL    HW124767   5.981   1.417   1.804
 7956SOL    HW224768   6.095   1.490   1.714
 7957SOL     OW24769   2.994   0.876   5.849
 7957SOL    HW124770   2.894   0.870   5.846
 7957SOL    HW224771   3.032   0.831   5.768
 7958SOL     OW24772   5.389   4.134   5.872
 7958SOL    HW124773   5.340   4.219   5.853
 7958SOL    HW224774   5.370   4.067   5.800
 7959SOL     OW24775   5.258   0.564   6.568
 7959SOL    HW124776   5.192   0.567   6.643
 7959SOL    HW224777   5.290   0.470   6.557
 7960SOL     OW24778   0.734   1.512   6.295
 7960SOL    HW124779   0.684   1.577   6.352
 7960SOL    HW224780   0.787   1.450   6.353
 7961SOL     OW24781   6.630   0.060   0.819
 7961SOL    HW124782   6.546   0.079   0.768
 7961SOL    HW224783   6.655   0.141   0.872
 7962SOL     OW24784   0.103   1.790   5.829
 7962SOL    HW124785   0.163   1.865   5.804
 7962SOL    HW224786   0.156   1.717   5.872
 7963SOL     OW24787   6.824   5.498   3.758
 7963SOL    HW124788   6.780   5.427   3.812
 7963SOL    HW224789   6.888   5.457   3.693
 7964SOL     OW24790   6.360   2.772   2.066
 7964SOL    HW124791   6.376   2.829   1.986
 7964SOL    HW224792   6.266   2.783   2.097
 7965SOL     OW24793   3.970   2.619   6.382
 7965SOL    HW124794   4.053   2.570   6.355
 7965SOL    HW224795   3.986   2.667   6.468
 7966SOL     OW24796   3.929   3.597   5.910
 7966SOL    HW124797   3.913   3.526   5.842
 7966SOL    HW224798   4.022   3.590   5.945
 7967SOL     OW24799   2.143   5.094   1.990
 7967SOL    HW124800   2.230   5.117   2.034
 7967SOL    HW224801   2.123   4.997   2.005
 7968SOL     OW24802   6.113   2.449   5.309
 7968SOL    HW124803   6.076   2.474   5.398
 7968SOL    HW224804   6.038   2.421   5.249
 7969SOL     OW24805   5.021   6.081   0.383
 7969SOL    HW124806   5.037   6.155   0.449
 7969SOL    HW224807   5.106   6.063   0.332
 7970SOL     OW24808   5.710   2.985   2.783
 7970SOL    HW124809   5.693   2.889   2.761
 7970SOL    HW224810   5.808   2.999   2.799
 7971SOL     OW24811   3.108   0.719   1.735
 7971SOL    HW124812   3.025   0.673   1.700
 7971SOL    HW224813   3.151   0.770   1.660
 7972SOL     OW24814   3.692   3.669   1.846
 7972SOL    HW124815   3.757   3.723   1.900
 7972SOL    HW224816   3.628   3.623   1.908
 7973SOL     OW24817   5.683   4.457   4.555
 7973SOL    HW124818   5.639   4.479   4.468
 7973SOL    HW224819   5.696   4.358   4.562
 7974SOL     OW24820   5.999   0.902   5.328
 7974SOL    HW124821   6.027   0.891   5.423
 7974SOL    HW224822   5.928   0.835   5.306
 7975SOL     OW24823   4.868   0.555   0.542
 7975SOL    HW124824   4.845   0.458   0.548
 7975SOL    HW224825   4.784   0.609   0.543
 7976SOL     OW24826   0.678   6.968   5.740
 7976SOL    HW124827   0.697   6.935   5.648
 7976SOL    HW224828   0.765   6.977   5.790
 7977SOL     OW24829   5.319   6.223   2.014
 7977SOL    HW124830   5.334   6.276   1.931
 7977SOL    HW224831   5.359   6.271   2.092
 7978SOL     OW24832   0.469   3.072   6.229
 7978SOL    HW124833   0.510   3.115   6.310
 7978SOL    HW224834   0.540   3.054   6.161
 7979SOL     OW24835   1.936   4.370   5.504
 7979SOL    HW124836   1.926   4.398   5.599
 7979SOL    HW224837   1.880   4.289   5.487
 7980SOL     OW24838   3.095   5.719   6.677
 7980SOL    HW124839   3.029   5.644   6.678
 7980SOL    HW224840   3.117   5.742   6.582
 7981SOL     OW24841   1.161   5.109   1.683
 7981SOL    HW124842   1.118   5.141   1.598
 7981SOL    HW224843   1.090   5.095   1.752
 7982SOL     OW24844   1.444   1.628   5.831
 7982SOL    HW124845   1.406   1.721   5.832
 7982SOL    HW224846   1.470   1.603   5.738
 7983SOL     OW24847   6.517   1.186   1.603
 7983SOL    HW124848   6.430   1.235   1.617
 7983SOL    HW224849   6.559   1.169   1.692
 7984SOL     OW24850   0.461   1.587   0.554
 7984SOL    HW124851   0.522   1.508   0.541
 7984SOL    HW224852   0.488   1.636   0.636
 7985SOL     OW24853   2.339   2.347   4.418
 7985SOL    HW124854   2.372   2.430   4.464
 7985SOL    HW224855   2.417   2.295   4.384
 7986SOL     OW24856   3.623   0.952   5.584
 7986SOL    HW124857   3.565   1.031   5.604
 7986SOL    HW224858   3.567   0.880   5.541
 7987SOL     OW24859   2.264   3.175   0.507
 7987SOL    HW124860   2.268   3.237   0.586
 7987SOL    HW224861   2.275   3.228   0.423
 7988SOL     OW24862   1.226   0.858   1.970
 7988SOL    HW124863   1.266   0.908   2.047
 7988SOL    HW224864   1.156   0.795   2.005
 7989SOL     OW24865   2.128   4.217   0.465
 7989SOL    HW124866   2.132   4.230   0.564
 7989SOL    HW224867   2.139   4.305   0.419
 7990SOL     OW24868   2.617   5.317   4.697
 7990SOL    HW124869   2.595   5.299   4.793
 7990SOL    HW224870   2.534   5.313   4.642
 7991SOL     OW24871   5.914   1.183   4.430
 7991SOL    HW124872   5.856   1.212   4.354
 7991SOL    HW224873   5.983   1.119   4.396
 7992SOL     OW24874   1.834   0.355   0.217
 7992SOL    HW124875   1.875   0.277   0.264
 7992SOL    HW224876   1.906   0.421   0.192
 7993SOL     OW24877   0.498   0.204   1.063
 7993SOL    HW124878   0.555   0.286   1.053
 7993SOL    HW224879   0.404   0.225   1.035
 7994SOL     OW24880   5.257   0.668   2.961
 7994SOL    HW124881   5.268   0.640   3.056
 7994SOL    HW224882   5.167   0.641   2.928
 7995SOL     OW24883   5.729   4.821   3.006
 7995SOL    HW124884   5.743   4.852   2.912
 7995SOL    HW224885   5.663   4.746   3.007
 7996SOL     OW24886   4.109   6.314   4.028
 7996SOL    HW124887   4.013   6.317   4.057
 7996SOL    HW224888   4.164   6.272   4.101
 7997SOL     OW24889   0.353   1.745   0.349
 7997SOL    HW124890   0.374   1.710   0.440
 7997SOL    HW224891   0.438   1.748   0.295
 7998SOL     OW24892   3.191   6.644   6.711
 7998SOL    HW124893   3.291   6.644   6.705
 7998SOL    HW224894   3.161   6.729   6.755
 7999SOL     OW24895   1.264   1.403   5.758
 7999SOL    HW124896   1.330   1.455   5.813
 7999SOL    HW224897   1.313   1.340   5.698
 8000SOL     OW24898   5.881   0.233   6.275
 8000SOL    HW124899   5.884   0.155   6.213
 8000SOL    HW224900   5.786   0.252   6.300
 8001SOL     OW24901   4.442   6.188   1.352
 8001SOL    HW124902   4.510   6.260   1.343
 8001SOL    HW224903   4.442   6.155   1.447
 8002SOL     OW24904   0.772   1.394   5.711
 8002SOL    HW124905   0.868   1.380   5.683
 8002SOL    HW224906   0.723   1.308   5.703
 8003SOL     OW24907   2.019   5.888   1.358
 8003SOL    HW124908   2.118   5.888   1.370
 8003SOL    HW224909   1.975   5.910   1.445
 8004SOL     OW24910   1.749   3.199   3.399
 8004SOL    HW124911   1.679   3.192   3.470
 8004SOL    HW224912   1.777   3.107   3.372
 8005SOL     OW24913   2.907   0.365   3.202
 8005SOL    HW124914   2.850   0.439   3.167
 8005SOL    HW224915   2.864   0.277   3.181
 8006SOL     OW24916   2.573   5.776   5.454
 8006SOL    HW124917   2.613   5.736   5.371
 8006SOL    HW224918   2.545   5.870   5.435
 8007SOL     OW24919   5.761   2.459   6.296
 8007SOL    HW124920   5.838   2.440   6.235
 8007SOL    HW224921   5.681   2.487   6.243
 8008SOL     OW24922   3.478   5.535   6.891
 8008SOL    HW124923   3.568   5.497   6.869
 8008SOL    HW224924   3.455   5.515   6.986
 8009SOL     OW24925   4.316   1.112   0.342
 8009SOL    HW124926   4.380   1.188   0.340
 8009SOL    HW224927   4.253   1.120   0.264
 8010SOL     OW24928   2.989   2.369   5.345
 8010SOL    HW124929   3.054   2.359   5.271
 8010SOL    HW224930   3.033   2.414   5.423
 8011SOL     OW24931   3.566   2.059   1.614
 8011SOL    HW124932   3.577   2.023   1.707
 8011SOL    HW224933   3.593   2.155   1.612
 8012SOL     OW24934   1.090   2.823   5.868
 8012SOL    HW124935   1.015   2.757   5.856
 8012SOL    HW224936   1.062   2.912   5.833
 8013SOL     OW24937   1.247   3.580   3.794
 8013SOL    HW124938   1.212   3.489   3.816
 8013SOL    HW224939   1.216   3.606   3.702
 8014SOL     OW24940   1.836   0.392   4.409
 8014SOL    HW124941   1.771   0.317   4.422
 8014SOL    HW224942   1.786   0.476   4.385
 8015SOL     OW24943   1.990   0.087   5.787
 8015SOL    HW124944   1.975   0.023   5.862
 8015SOL    HW224945   2.066   0.148   5.810
 8016SOL     OW24946   4.015   1.368   5.111
 8016SOL    HW124947   3.948   1.434   5.076
 8016SOL    HW224948   3.978   1.325   5.193
 8017SOL     OW24949   6.488   6.995   6.910
 8017SOL    HW124950   6.537   6.972   6.826
 8017SOL    HW224951   6.553   7.025   6.980
 8018SOL     OW24952   3.623   2.686   6.520
 8018SOL    HW124953   3.692   2.645   6.579
 8018SOL    HW224954   3.666   2.747   6.454
 8019SOL     OW24955   1.680   3.912   1.336
 8019SOL    HW124956   1.651   3.818   1.321
 8019SOL    HW224957   1.773   3.924   1.301
 8020SOL     OW24958   6.285   0.799   5.998
 8020SOL    HW124959   6.223   0.810   6.075
 8020SOL    HW224960   6.374   0.766   6.031
 8021SOL     OW24961   1.681   2.941   1.212
 8021SOL    HW124962   1.585   2.920   1.231
 8021SOL    HW224963   1.737   2.919   1.292
 8022SOL     OW24964   5.717   0.269   1.522
 8022SOL    HW124965   5.617   0.269   1.531
 8022SOL    HW224966   5.756   0.202   1.586
 8023SOL     OW24967   5.870   4.955   2.436
 8023SOL    HW124968   5.861   4.890   2.361
 8023SOL    HW224969   5.922   4.913   2.511
 8024SOL     OW24970   1.317   5.437   5.811
 8024SOL    HW124971   1.232   5.442   5.864
 8024SOL    HW224972   1.362   5.526   5.811
 8025SOL     OW24973   1.865   5.262   0.995
 8025SOL    HW124974   1.792   5.243   1.061
 8025SOL    HW224975   1.900   5.355   1.010
 8026SOL     OW24976   7.016   4.123   1.076
 8026SOL    HW124977   7.015   4.205   1.019
 8026SOL    HW224978   6.978   4.145   1.166
 8027SOL     OW24979   3.401   6.294   5.389
 8027SOL    HW124980   3.482   6.292   5.447
 8027SOL    HW224981   3.330   6.235   5.427
 8028SOL     OW24982   2.857   5.435   4.782
 8028SOL    HW124983   2.831   5.526   4.815
 8028SOL    HW224984   2.777   5.390   4.743
 8029SOL     OW24985   4.914   2.657   2.249
 8029SOL    HW124986   4.880   2.608   2.169
 8029SOL    HW224987   4.870   2.747   2.255
 8030SOL     OW24988   6.250   5.360   0.556
 8030SOL    HW124989   6.152   5.349   0.573
 8030SOL    HW224990   6.275   5.457   0.566
 8031SOL     OW24991   6.643   6.407   2.690
 8031SOL    HW124992   6.574   6.355   2.640
 8031SOL    HW224993   6.637   6.504   2.663
 8032SOL     OW24994   5.205   3.744   1.726
 8032SOL    HW124995   5.280   3.679   1.730
 8032SOL    HW224996   5.127   3.703   1.679
 8033SOL     OW24997   4.743   3.391   0.572
 8033SOL    HW124998   4.749   3.382   0.473
 8033SOL    HW224999   4.648   3.376   0.601
 8034SOL     OW25000   5.830   0.026   6.052
 8034SOL    HW125001   5.875   6.969   6.023
 8034SOL    HW225002   5.737   0.006   6.081
 8035SOL     OW25003   5.116   1.705   1.941
 8035SOL    HW125004   5.129   1.607   1.957
 8035SOL    HW225005   5.034   1.719   1.887
 8036SOL     OW25006   6.881   3.526   3.630
 8036SOL    HW125007   6.873   3.478   3.543
 8036SOL    HW225008   6.819   3.605   3.630
 8037SOL     OW25009   2.011   3.525   6.887
 8037SOL    HW125010   2.004   3.426   6.899
 8037SOL    HW225011   1.980   3.571   6.970
 8038SOL     OW25012   4.847   6.507   2.245
 8038SOL    HW125013   4.816   6.416   2.272
 8038SOL    HW225014   4.855   6.511   2.145
 8039SOL     OW25015   7.010   2.207   4.787
 8039SOL    HW125016   7.022   2.256   4.874
 8039SOL    HW225017   0.018   2.114   4.796
 8040SOL     OW25018   2.221   6.124   0.078
 8040SOL    HW125019   2.303   6.093   0.126
 8040SOL    HW225020   2.179   6.048   0.030
 8041SOL     OW25021   3.426   0.988   3.109
 8041SOL    HW125022   3.444   0.892   3.130
 8041SOL    HW225023   3.465   1.046   3.181
 8042SOL     OW25024   4.460   4.306   5.513
 8042SOL    HW125025   4.544   4.334   5.467
 8042SOL    HW225026   4.464   4.332   5.609
 8043SOL     OW25027   3.824   4.216   0.259
 8043SOL    HW125028   3.852   4.123   0.284
 8043SOL    HW225029   3.837   4.229   0.161
 8044SOL     OW25030   3.743   3.562   0.390
 8044SOL    HW125031   3.787   3.603   0.470
 8044SOL    HW225032   3.766   3.465   0.385
 8045SOL     OW25033   6.595   2.161   2.912
 8045SOL    HW125034   6.659   2.113   2.852
 8045SOL    HW225035   6.634   2.169   3.003
 8046SOL     OW25036   0.507   4.872   1.986
 8046SOL    HW125037   0.525   4.867   1.888
 8046SOL    HW225038   0.589   4.905   2.033
 8047SOL     OW25039   3.976   6.483   6.691
 8047SOL    HW125040   4.042   6.430   6.639
 8047SOL    HW225041   3.883   6.456   6.664
 8048SOL     OW25042   3.229   2.579   6.683
 8048SOL    HW125043   3.297   2.519   6.640
 8048SOL    HW225044   3.168   2.524   6.740
 8049SOL     OW25045   0.467   6.701   6.683
 8049SOL    HW125046   0.493   6.758   6.605
 8049SOL    HW225047   0.504   6.609   6.671
 8050SOL     OW25048   2.135   3.245   4.266
 8050SOL    HW125049   2.036   3.255   4.270
 8050SOL    HW225050   2.172   3.237   4.358
 8051SOL     OW25051   4.468   6.147   4.743
 8051SOL    HW125052   4.454   6.237   4.782
 8051SOL    HW225053   4.475   6.155   4.643
 8052SOL     OW25054   2.433   2.130   1.646
 8052SOL    HW125055   2.430   2.037   1.683
 8052SOL    HW225056   2.413   2.195   1.718
 8053SOL     OW25057   3.038   2.771   5.366
 8053SOL    HW125058   3.077   2.737   5.452
 8053SOL    HW225059   3.095   2.743   5.290
 8054SOL     OW25060   6.420   4.256   4.517
 8054SOL    HW125061   6.465   4.168   4.532
 8054SOL    HW225062   6.410   4.303   4.605
 8055SOL     OW25063   0.108   0.826   5.633
 8055SOL    HW125064   0.153   0.914   5.645
 8055SOL    HW225065   0.010   0.836   5.646
 8056SOL     OW25066   3.110   0.117   3.843
 8056SOL    HW125067   3.028   0.060   3.848
 8056SOL    HW225068   3.102   0.180   3.766
 8057SOL     OW25069   2.579   2.175   2.848
 8057SOL    HW125070   2.600   2.078   2.839
 8057SOL    HW225071   2.663   2.226   2.867
 8058SOL     OW25072   3.396   6.424   2.919
 8058SOL    HW125073   3.346   6.438   2.834
 8058SOL    HW225074   3.494   6.428   2.901
 8059SOL     OW25075   3.085   0.587   5.698
 8059SOL    HW125076   3.154   0.656   5.674
 8059SOL    HW225077   3.019   0.579   5.624
 8060SOL     OW25078   0.316   1.985   6.313
 8060SOL    HW125079   0.300   1.904   6.369
 8060SOL    HW225080   0.251   1.986   6.237
 8061SOL     OW25081   0.523   0.484   2.526
 8061SOL    HW125082   0.520   0.520   2.433
 8061SOL    HW225083   0.534   0.385   2.523
 8062SOL     OW25084   4.004   5.254   5.161
 8062SOL    HW125085   3.946   5.335   5.154
 8062SOL    HW225086   3.964   5.189   5.226
 8063SOL     OW25087   2.845   1.073   3.379
 8063SOL    HW125088   2.805   1.115   3.297
 8063SOL    HW225089   2.817   1.124   3.460
 8064SOL     OW25090   6.161   2.717   0.344
 8064SOL    HW125091   6.087   2.654   0.320
 8064SOL    HW225092   6.169   2.722   0.443
 8065SOL     OW25093   2.981   6.547   4.223
 8065SOL    HW125094   2.920   6.508   4.292
 8065SOL    HW225095   3.075   6.541   4.255
 8066SOL     OW25096   6.465   0.187   4.787
 8066SOL    HW125097   6.489   0.274   4.831
 8066SOL    HW225098   6.537   0.161   4.723
 8067SOL     OW25099   4.894   2.585   3.505
 8067SOL    HW125100   4.950   2.578   3.588
 8067SOL    HW225101   4.860   2.494   3.480
 8068SOL     OW25102   0.401   4.543   1.114
 8068SOL    HW125103   0.472   4.492   1.066
 8068SOL    HW225104   0.331   4.480   1.149
 8069SOL     OW25105   2.246   4.774   2.007
 8069SOL    HW125106   2.167   4.720   1.978
 8069SOL    HW225107   2.297   4.805   1.926
 8070SOL     OW25108   4.095   2.863   0.298
 8070SOL    HW125109   4.109   2.876   0.200
 8070SOL    HW225110   4.096   2.766   0.320
 8071SOL     OW25111   3.219   6.349   5.104
 8071SOL    HW125112   3.228   6.331   5.006
 8071SOL    HW225113   3.242   6.267   5.156
 8072SOL     OW25114   3.209   2.022   0.573
 8072SOL    HW125115   3.160   1.993   0.491
 8072SOL    HW225116   3.246   2.114   0.559
 8073SOL     OW25117   2.689   5.679   5.230
 8073SOL    HW125118   2.643   5.594   5.204
 8073SOL    HW225119   2.628   5.756   5.214
 8074SOL     OW25120   2.698   1.166   1.408
 8074SOL    HW125121   2.724   1.087   1.354
 8074SOL    HW225122   2.778   1.225   1.420
 8075SOL     OW25123   0.516   0.463   0.110
 8075SOL    HW125124   0.530   0.366   0.093
 8075SOL    HW225125   0.419   0.480   0.131
 8076SOL     OW25126   6.465   0.410   5.411
 8076SOL    HW125127   6.419   0.461   5.483
 8076SOL    HW225128   6.506   0.473   5.346
 8077SOL     OW25129   3.828   6.253   2.469
 8077SOL    HW125130   3.752   6.212   2.419
 8077SOL    HW225131   3.795   6.331   2.522
 8078SOL     OW25132   0.702   1.643   1.385
 8078SOL    HW125133   0.680   1.548   1.406
 8078SOL    HW225134   0.661   1.703   1.454
 8079SOL     OW25135   6.654   1.493   3.923
 8079SOL    HW125136   6.701   1.565   3.873
 8079SOL    HW225137   6.706   1.408   3.915
 8080SOL     OW25138   0.901   2.458   2.486
 8080SOL    HW125139   0.865   2.517   2.559
 8080SOL    HW225140   0.904   2.364   2.520
 8081SOL     OW25141   6.191   5.652   6.224
 8081SOL    HW125142   6.215   5.566   6.267
 8081SOL    HW225143   6.138   5.634   6.140
 8082SOL     OW25144   3.728   0.884   2.553
 8082SOL    HW125145   3.645   0.854   2.599
 8082SOL    HW225146   3.720   0.866   2.455
 8083SOL     OW25147   5.405   2.523   4.021
 8083SOL    HW125148   5.308   2.504   4.010
 8083SOL    HW225149   5.426   2.537   4.118
 8084SOL     OW25150   2.516   0.706   7.013
 8084SOL    HW125151   2.562   0.688   6.925
 8084SOL    HW225152   2.421   0.730   6.996
 8085SOL     OW25153   6.122   5.915   2.570
 8085SOL    HW125154   6.199   5.871   2.524
 8085SOL    HW225155   6.139   5.920   2.668
 8086SOL     OW25156   0.382   1.126   1.185
 8086SOL    HW125157   0.433   1.059   1.131
 8086SOL    HW225158   0.318   1.175   1.125
 8087SOL     OW25159   1.986   0.850   6.568
 8087SOL    HW125160   1.999   0.857   6.667
 8087SOL    HW225161   2.021   0.933   6.524
 8088SOL     OW25162   5.713   0.680   0.086
 8088SOL    HW125163   5.655   0.739   0.142
 8088SOL    HW225164   5.751   0.733   0.010
 8089SOL     OW25165   5.877   3.123   6.761
 8089SOL    HW125166   5.824   3.101   6.679
 8089SOL    HW225167   5.840   3.071   6.838
 8090SOL     OW25168   3.440   1.150   6.233
 8090SOL    HW125169   3.425   1.202   6.317
 8090SOL    HW225170   3.520   1.091   6.244
 8091SOL     OW25171   1.219   3.954   5.297
 8091SOL    HW125172   1.162   3.904   5.362
 8091SOL    HW225173   1.304   3.982   5.343
 8092SOL     OW25174   4.741   2.029   5.526
 8092SOL    HW125175   4.781   2.034   5.618
 8092SOL    HW225176   4.779   1.949   5.478
 8093SOL     OW25177   2.788   5.536   3.428
 8093SOL    HW125178   2.754   5.489   3.347
 8093SOL    HW225179   2.711   5.574   3.480
 8094SOL     OW25180   0.489   2.989   5.088
 8094SOL    HW125181   0.494   3.089   5.090
 8094SOL    HW225182   0.394   2.960   5.078
 8095SOL     OW25183   0.668   4.171   5.046
 8095SOL    HW125184   0.748   4.206   4.998
 8095SOL    HW225185   0.586   4.217   5.012
 8096SOL     OW25186   2.602   0.950   2.474
 8096SOL    HW125187   2.661   0.973   2.552
 8096SOL    HW225188   2.526   0.893   2.505
 8097SOL     OW25189   4.049   6.849   4.502
 8097SOL    HW125190   4.137   6.827   4.546
 8097SOL    HW225191   4.066   6.896   4.416
 8098SOL     OW25192   2.559   6.587   3.895
 8098SOL    HW125193   2.549   6.668   3.838
 8098SOL    HW225194   2.656   6.570   3.913
 8099SOL     OW25195   4.587   6.470   4.424
 8099SOL    HW125196   4.502   6.506   4.464
 8099SOL    HW225197   4.660   6.538   4.435
 8100SOL     OW25198   6.665   1.269   6.811
 8100SOL    HW125199   6.666   1.369   6.816
 8100SOL    HW225200   6.743   1.238   6.758
 8101SOL     OW25201   1.409   5.794   0.751
 8101SOL    HW125202   1.436   5.731   0.679
 8101SOL    HW225203   1.432   5.888   0.725
 8102SOL     OW25204   0.678   4.057   3.266
 8102SOL    HW125205   0.721   4.071   3.177
 8102SOL    HW225206   0.615   4.133   3.284
 8103SOL     OW25207   3.925   0.222   1.809
 8103SOL    HW125208   4.011   0.190   1.849
 8103SOL    HW225209   3.944   0.290   1.738
 8104SOL     OW25210   1.575   0.687   6.222
 8104SOL    HW125211   1.661   0.656   6.180
 8104SOL    HW225212   1.589   0.699   6.320
 8105SOL     OW25213   6.954   2.796   2.327
 8105SOL    HW125214   0.019   2.761   2.340
 8105SOL    HW225215   6.895   2.760   2.399
 8106SOL     OW25216   2.936   6.340   3.328
 8106SOL    HW125217   2.981   6.313   3.243
 8106SOL    HW225218   2.857   6.398   3.306
 8107SOL     OW25219   1.228   5.534   4.013
 8107SOL    HW125220   1.157   5.496   3.953
 8107SOL    HW225221   1.256   5.464   4.080
 8108SOL     OW25222   6.736   2.561   6.604
 8108SOL    HW125223   6.796   2.575   6.525
 8108SOL    HW225224   6.641   2.560   6.573
 8109SOL     OW25225   0.226   3.332   6.521
 8109SOL    HW125226   0.143   3.313   6.469
 8109SOL    HW225227   0.201   3.351   6.616
 8110SOL     OW25228   3.815   5.192   2.154
 8110SOL    HW125229   3.833   5.095   2.138
 8110SOL    HW225230   3.899   5.245   2.139
 8111SOL     OW25231   4.857   1.336   4.543
 8111SOL    HW125232   4.921   1.302   4.474
 8111SOL    HW225233   4.879   1.431   4.566
 8112SOL     OW25234   2.540   2.587   4.253
 8112SOL    HW125235   2.451   2.582   4.208
 8112SOL    HW225236   2.531   2.562   4.349
 8113SOL     OW25237   0.208   3.404   0.517
 8113SOL    HW125238   0.227   3.351   0.600
 8113SOL    HW225239   0.168   3.344   0.448
 8114SOL     OW25240   1.905   3.635   2.536
 8114SOL    HW125241   1.896   3.617   2.438
 8114SOL    HW225242   1.845   3.710   2.562
 8115SOL     OW25243   3.419   6.705   6.219
 8115SOL    HW125244   3.328   6.738   6.192
 8115SOL    HW225245   3.477   6.782   6.243
 8116SOL     OW25246   4.112   4.487   0.013
 8116SOL    HW125247   4.168   4.464   6.961
 8116SOL    HW225248   4.041   4.553   7.014
 8117SOL     OW25249   2.029   0.178   3.344
 8117SOL    HW125250   2.015   0.261   3.290
 8117SOL    HW225251   2.046   0.101   3.282
 8118SOL     OW25252   5.471   3.900   5.704
 8118SOL    HW125253   5.488   3.836   5.779
 8118SOL    HW225254   5.464   3.849   5.618
 8119SOL     OW25255   5.397   6.635   6.391
 8119SOL    HW125256   5.313   6.688   6.399
 8119SOL    HW225257   5.426   6.632   6.295
 8120SOL     OW25258   3.027   4.676   0.838
 8120SOL    HW125259   3.066   4.766   0.818
 8120SOL    HW225260   2.993   4.675   0.932
 8121SOL     OW25261   0.765   4.648   1.246
 8121SOL    HW125262   0.861   4.673   1.237
 8121SOL    HW225263   0.742   4.579   1.178
 8122SOL     OW25264   0.192   4.721   2.875
 8122SOL    HW125265   0.287   4.750   2.883
 8122SOL    HW225266   0.187   4.640   2.816
 8123SOL     OW25267   0.344   2.260   6.958
 8123SOL    HW125268   0.274   2.329   6.938
 8123SOL    HW225269   0.373   2.268   0.026
 8124SOL     OW25270   5.610   5.733   2.820
 8124SOL    HW125271   5.639   5.818   2.774
 8124SOL    HW225272   5.539   5.755   2.887
 8125SOL     OW25273   1.576   1.055   3.252
 8125SOL    HW125274   1.528   1.109   3.182
 8125SOL    HW225275   1.666   1.095   3.270
 8126SOL     OW25276   5.506   5.121   3.400
 8126SOL    HW125277   5.510   5.069   3.485
 8126SOL    HW225278   5.598   5.155   3.377
 8127SOL     OW25279   3.304   3.348   6.235
 8127SOL    HW125280   3.259   3.260   6.238
 8127SOL    HW225281   3.241   3.420   6.263
 8128SOL     OW25282   2.981   2.116   2.237
 8128SOL    HW125283   2.904   2.123   2.300
 8128SOL    HW225284   2.982   2.195   2.176
 8129SOL     OW25285   3.425   1.600   6.213
 8129SOL    HW125286   3.397   1.621   6.119
 8129SOL    HW225287   3.344   1.590   6.271
 8130SOL     OW25288   0.803   5.363   6.675
 8130SOL    HW125289   0.754   5.381   6.760
 8130SOL    HW225290   0.808   5.447   6.621
 8131SOL     OW25291   3.082   1.682   1.992
 8131SOL    HW125292   3.044   1.762   2.039
 8131SOL    HW225293   3.177   1.701   1.967
 8132SOL     OW25294   5.705   6.741   5.313
 8132SOL    HW125295   5.656   6.667   5.268
 8132SOL    HW225296   5.673   6.829   5.277
 8133SOL     OW25297   2.973   5.193   2.452
 8133SOL    HW125298   2.961   5.101   2.490
 8133SOL    HW225299   3.030   5.188   2.370
 8134SOL     OW25300   0.099   1.834   6.585
 8134SOL    HW125301   0.188   1.817   6.543
 8134SOL    HW225302   0.069   1.751   6.632
 8135SOL     OW25303   2.509   0.674   1.729
 8135SOL    HW125304   2.567   0.664   1.810
 8135SOL    HW225305   2.467   0.764   1.729
 8136SOL     OW25306   4.684   5.179   2.475
 8136SOL    HW125307   4.772   5.166   2.520
 8136SOL    HW225308   4.658   5.276   2.479
 8137SOL     OW25309   2.923   0.770   4.774
 8137SOL    HW125310   3.017   0.759   4.742
 8137SOL    HW225311   2.920   0.836   4.850
 8138SOL     OW25312   5.237   1.610   1.701
 8138SOL    HW125313   5.308   1.604   1.772
 8138SOL    HW225314   5.189   1.697   1.709
 8139SOL     OW25315   0.405   0.808   1.762
 8139SOL    HW125316   0.456   0.772   1.840
 8139SOL    HW225317   0.355   0.734   1.718
 8140SOL     OW25318   5.717   0.457   5.776
 8140SOL    HW125319   5.749   0.362   5.782
 8140SOL    HW225320   5.796   0.518   5.773
 8141SOL     OW25321   4.574   5.759   6.044
 8141SOL    HW125322   4.562   5.856   6.068
 8141SOL    HW225323   4.670   5.741   6.025
 8142SOL     OW25324   6.673   5.382   0.537
 8142SOL    HW125325   6.767   5.354   0.559
 8142SOL    HW225326   6.659   5.476   0.568
 8143SOL     OW25327   6.556   4.325   0.576
 8143SOL    HW125328   6.494   4.287   0.508
 8143SOL    HW225329   6.513   4.405   0.619
 8144SOL     OW25330   5.656   6.015   6.748
 8144SOL    HW125331   5.735   5.959   6.774
 8144SOL    HW225332   5.675   6.111   6.770
 8145SOL     OW25333   5.168   5.963   1.378
 8145SOL    HW125334   5.266   5.979   1.364
 8145SOL    HW225335   5.140   5.882   1.328
 8146SOL     OW25336   3.439   0.853   5.064
 8146SOL    HW125337   3.468   0.858   5.160
 8146SOL    HW225338   3.414   0.945   5.032
 8147SOL     OW25339   5.624   2.735   3.240
 8147SOL    HW125340   5.696   2.724   3.172
 8147SOL    HW225341   5.540   2.765   3.194
 8148SOL     OW25342   5.461   4.296   1.789
 8148SOL    HW125343   5.463   4.227   1.861
 8148SOL    HW225344   5.455   4.251   1.700
 8149SOL     OW25345   2.602   6.224   1.977
 8149SOL    HW125346   2.639   6.316   1.963
 8149SOL    HW225347   2.636   6.188   2.064
 8150SOL     OW25348   0.247   5.006   6.752
 8150SOL    HW125349   0.149   5.005   6.732
 8150SOL    HW225350   0.276   5.100   6.773
 8151SOL     OW25351   6.499   2.380   2.342
 8151SOL    HW125352   6.558   2.366   2.422
 8151SOL    HW225353   6.408   2.342   2.361
 8152SOL     OW25354   0.677   2.533   2.902
 8152SOL    HW125355   0.711   2.449   2.944
 8152SOL    HW225356   0.597   2.566   2.952
 8153SOL     OW25357   3.858   0.451   2.992
 8153SOL    HW125358   3.848   0.526   3.058
 8153SOL    HW225359   3.953   0.419   2.992
 8154SOL     OW25360   2.755   5.993   3.598
 8154SOL    HW125361   2.805   6.080   3.600
 8154SOL    HW225362   2.801   5.928   3.657
 8155SOL     OW25363   2.677   3.288   1.773
 8155SOL    HW125364   2.611   3.353   1.812
 8155SOL    HW225365   2.677   3.295   1.674
 8156SOL     OW25366   5.335   7.011   6.223
 8156SOL    HW125367   5.307   6.954   6.146
 8156SOL    HW225368   5.287   0.071   6.219
 8157SOL     OW25369   5.861   5.394   6.251
 8157SOL    HW125370   5.957   5.366   6.252
 8157SOL    HW225371   5.854   5.493   6.245
 8158SOL     OW25372   0.469   5.456   1.243
 8158SOL    HW125373   0.537   5.462   1.316
 8158SOL    HW225374   0.446   5.548   1.211
 8159SOL     OW25375   2.878   6.287   2.612
 8159SOL    HW125376   2.950   6.281   2.543
 8159SOL    HW225377   2.822   6.368   2.595
 8160SOL     OW25378   4.479   1.827   1.503
 8160SOL    HW125379   4.438   1.895   1.563
 8160SOL    HW225380   4.425   1.743   1.506
 8161SOL     OW25381   5.193   1.288   0.575
 8161SOL    HW125382   5.263   1.297   0.646
 8161SOL    HW225383   5.135   1.369   0.574
 8162SOL     OW25384   6.340   7.022   6.378
 8162SOL    HW125385   6.421   0.021   6.326
 8162SOL    HW225386   6.267   0.061   6.362
 8163SOL     OW25387   1.996   4.096   5.758
 8163SOL    HW125388   2.086   4.136   5.741
 8163SOL    HW225389   1.964   4.123   5.849
 8164SOL     OW25390   5.966   3.780   0.680
 8164SOL    HW125391   5.988   3.761   0.776
 8164SOL    HW225392   6.050   3.804   0.631
 8165SOL     OW25393   1.084   4.644   7.024
 8165SOL    HW125394   1.154   4.574   7.007
 8165SOL    HW225395   1.129   4.731   0.017
 8166SOL     OW25396   2.630   0.995   2.098
 8166SOL    HW125397   2.600   0.920   2.156
 8166SOL    HW225398   2.582   1.079   2.124
 8167SOL     OW25399   5.567   1.205   4.019
 8167SOL    HW125400   5.643   1.144   4.039
 8167SOL    HW225401   5.603   1.292   3.984
 8168SOL     OW25402   3.229   0.978   2.706
 8168SOL    HW125403   3.169   0.959   2.628
 8168SOL    HW225404   3.229   1.076   2.725
 8169SOL     OW25405   5.129   3.151   1.662
 8169SOL    HW125406   5.167   3.095   1.736
 8169SOL    HW225407   5.031   3.165   1.678
 8170SOL     OW25408   1.705   5.972   3.057
 8170SOL    HW125409   1.633   5.910   3.024
 8170SOL    HW225410   1.663   6.054   3.096
 8171SOL     OW25411   1.067   1.782   6.601
 8171SOL    HW125412   1.088   1.819   6.510
 8171SOL    HW225413   1.091   1.850   6.671
 8172SOL     OW25414   0.458   0.485   1.396
 8172SOL    HW125415   0.552   0.456   1.377
 8172SOL    HW225416   0.405   0.407   1.429
 8173SOL     OW25417   3.442   1.878   0.489
 8173SOL    HW125418   3.373   1.943   0.522
 8173SOL    HW225419   3.491   1.840   0.568
 8174SOL     OW25420   5.346   1.559   1.382
 8174SOL    HW125421   5.354   1.486   1.449
 8174SOL    HW225422   5.337   1.647   1.430
 8175SOL     OW25423   0.230   2.879   6.194
 8175SOL    HW125424   0.223   2.806   6.263
 8175SOL    HW225425   0.295   2.949   6.226
 8176SOL     OW25426   2.892   5.939   2.005
 8176SOL    HW125427   2.939   5.961   2.091
 8176SOL    HW225428   2.904   5.842   1.985
 8177SOL     OW25429   1.549   6.035   4.021
 8177SOL    HW125430   1.487   6.065   4.093
 8177SOL    HW225431   1.637   6.010   4.061
 8178SOL     OW25432   1.382   0.165   6.483
 8178SOL    HW125433   1.459   0.227   6.467
 8178SOL    HW225434   1.399   0.111   6.565
 8179SOL     OW25435   3.461   3.569   0.308
 8179SOL    HW125436   3.553   3.595   0.336
 8179SOL    HW225437   3.442   3.476   0.339
 8180SOL     OW25438   6.224   0.146   3.902
 8180SOL    HW125439   6.312   0.136   3.948
 8180SOL    HW225440   6.151   0.143   3.969
 8181SOL     OW25441   2.157   1.277   2.878
 8181SOL    HW125442   2.183   1.358   2.931
 8181SOL    HW225443   2.235   1.246   2.824
 8182SOL     OW25444   3.556   1.577   6.654
 8182SOL    HW125445   3.505   1.650   6.610
 8182SOL    HW225446   3.637   1.555   6.599
 8183SOL     OW25447   0.613   2.757   4.884
 8183SOL    HW125448   0.594   2.847   4.923
 8183SOL    HW225449   0.541   2.733   4.819
 8184SOL     OW25450   5.747   1.669   5.851
 8184SOL    HW125451   5.801   1.734   5.797
 8184SOL    HW225452   5.766   1.683   5.948
 8185SOL     OW25453   2.932   0.455   0.425
 8185SOL    HW125454   2.957   0.487   0.516
 8185SOL    HW225455   2.881   0.369   0.433
 8186SOL     OW25456   2.997   6.471   6.113
 8186SOL    HW125457   3.051   6.550   6.142
 8186SOL    HW225458   2.973   6.481   6.016
 8187SOL     OW25459   1.574   1.979   4.936
 8187SOL    HW125460   1.475   1.988   4.931
 8187SOL    HW225461   1.616   2.069   4.929
 8188SOL     OW25462   5.370   1.869   2.365
 8188SOL    HW125463   5.385   1.963   2.395
 8188SOL    HW225464   5.362   1.809   2.445
 8189SOL     OW25465   5.057   4.227   2.048
 8189SOL    HW125466   4.962   4.229   2.019
 8189SOL    HW225467   5.110   4.294   1.995
 8190SOL     OW25468   5.044   4.882   4.108
 8190SOL    HW125469   4.987   4.915   4.033
 8190SOL    HW225470   5.129   4.845   4.071
 8191SOL     OW25471   2.118   5.494   3.651
 8191SOL    HW125472   2.181   5.419   3.630
 8191SOL    HW225473   2.045   5.497   3.583
 8192SOL     OW25474   2.894   5.924   6.993
 8192SOL    HW125475   2.926   6.005   0.015
 8192SOL    HW225476   2.943   5.918   6.906
 8193SOL     OW25477   5.554   6.827   5.028
 8193SOL    HW125478   5.601   6.750   5.072
 8193SOL    HW225479   5.582   6.912   5.072
 8194SOL     OW25480   6.285   2.522   6.898
 8194SOL    HW125481   6.185   2.515   6.905
 8194SOL    HW225482   6.313   2.613   6.926
 8195SOL     OW25483   0.322   0.684   0.759
 8195SOL    HW125484   0.353   0.643   0.845
 8195SOL    HW225485   0.401   0.715   0.706
 8196SOL     OW25486   3.841   6.812   5.590
 8196SOL    HW125487   3.861   6.908   5.572
 8196SOL    HW225488   3.808   6.769   5.506
 8197SOL     OW25489   5.767   1.769   6.096
 8197SOL    HW125490   5.747   1.866   6.104
 8197SOL    HW225491   5.805   1.735   6.182
 8198SOL     OW25492   3.552   6.522   2.017
 8198SOL    HW125493   3.642   6.489   2.043
 8198SOL    HW225494   3.499   6.448   1.977
 8199SOL     OW25495   6.815   3.889   0.498
 8199SOL    HW125496   6.809   3.967   0.435
 8199SOL    HW225497   6.786   3.806   0.450
 8200SOL     OW25498   4.392   4.671   1.286
 8200SOL    HW125499   4.432   4.741   1.228
 8200SOL    HW225500   4.294   4.665   1.269
 8201SOL     OW25501   5.124   0.838   4.548
 8201SOL    HW125502   5.188   0.908   4.518
 8201SOL    HW225503   5.058   0.878   4.612
 8202SOL     OW25504   1.416   5.113   4.314
 8202SOL    HW125505   1.324   5.142   4.342
 8202SOL    HW225506   1.456   5.057   4.387
 8203SOL     OW25507   5.086   3.475   1.059
 8203SOL    HW125508   5.115   3.486   0.964
 8203SOL    HW225509   5.167   3.466   1.118
 8204SOL     OW25510   3.481   6.296   0.767
 8204SOL    HW125511   3.483   6.247   0.679
 8204SOL    HW225512   3.416   6.251   0.828
 8205SOL     OW25513   5.568   5.036   1.310
 8205SOL    HW125514   5.594   4.991   1.396
 8205SOL    HW225515   5.611   4.989   1.233
 8206SOL     OW25516   3.112   2.608   6.036
 8206SOL    HW125517   3.132   2.623   5.939
 8206SOL    HW225518   3.026   2.652   6.060
 8207SOL     OW25519   3.308   4.788   5.316
 8207SOL    HW125520   3.226   4.832   5.279
 8207SOL    HW225521   3.383   4.799   5.252
 8208SOL     OW25522   2.869   6.461   1.508
 8208SOL    HW125523   2.934   6.395   1.469
 8208SOL    HW225524   2.831   6.516   1.434
 8209SOL     OW25525   1.551   1.374   5.130
 8209SOL    HW125526   1.491   1.302   5.095
 8209SOL    HW225527   1.627   1.388   5.067
 8210SOL     OW25528   3.148   0.843   0.638
 8210SOL    HW125529   3.216   0.847   0.566
 8210SOL    HW225530   3.085   0.767   0.621
 8211SOL     OW25531   3.553   4.159   4.748
 8211SOL    HW125532   3.569   4.194   4.840
 8211SOL    HW225533   3.640   4.155   4.699
 8212SOL     OW25534   2.672   0.158   0.820
 8212SOL    HW125535   2.655   0.060   0.807
 8212SOL    HW225536   2.646   0.184   0.913
 8213SOL     OW25537   4.493   5.095   3.575
 8213SOL    HW125538   4.494   5.003   3.613
 8213SOL    HW225539   4.413   5.105   3.515
 8214SOL     OW25540   2.559   5.764   4.132
 8214SOL    HW125541   2.602   5.685   4.089
 8214SOL    HW225542   2.462   5.744   4.148
 8215SOL     OW25543   4.454   6.249   0.176
 8215SOL    HW125544   4.529   6.212   0.121
 8215SOL    HW225545   4.398   6.310   0.120
 8216SOL     OW25546   5.104   6.849   2.529
 8216SOL    HW125547   5.042   6.800   2.468
 8216SOL    HW225548   5.055   6.923   2.576
 8217SOL     OW25549   2.174   4.207   2.630
 8217SOL    HW125550   2.166   4.108   2.643
 8217SOL    HW225551   2.087   4.243   2.595
 8218SOL     OW25552   1.812   6.859   5.232
 8218SOL    HW125553   1.740   6.824   5.293
 8218SOL    HW225554   1.807   6.959   5.229
 8219SOL     OW25555   3.076   3.998   1.472
 8219SOL    HW125556   3.163   3.977   1.516
 8219SOL    HW225557   3.001   3.991   1.538
 8220SOL     OW25558   3.423   4.426   5.347
 8220SOL    HW125559   3.476   4.466   5.273
 8220SOL    HW225560   3.439   4.328   5.350
 8221SOL     OW25561   5.846   4.171   3.048
 8221SOL    HW125562   5.931   4.126   3.073
 8221SOL    HW225563   5.850   4.268   3.074
 8222SOL     OW25564   6.268   2.878   1.182
 8222SOL    HW125565   6.234   2.963   1.222
 8222SOL    HW225566   6.200   2.842   1.118
 8223SOL     OW25567   0.133   5.166   5.347
 8223SOL    HW125568   0.058   5.205   5.294
 8223SOL    HW225569   0.218   5.173   5.295
 8224SOL     OW25570   4.809   1.543   0.818
 8224SOL    HW125571   4.711   1.544   0.803
 8224SOL    HW225572   4.843   1.637   0.824
 8225SOL     OW25573   3.641   0.334   0.242
 8225SOL    HW125574   3.551   0.339   0.285
 8225SOL    HW225575   3.706   0.390   0.293
 8226SOL     OW25576   3.717   0.738   0.589
 8226SOL    HW125577   3.718   0.685   0.674
 8226SOL    HW225578   3.642   0.707   0.531
 8227SOL     OW25579   5.669   1.597   2.711
 8227SOL    HW125580   5.746   1.540   2.680
 8227SOL    HW225581   5.597   1.538   2.748
 8228SOL     OW25582   1.059   1.063   5.509
 8228SOL    HW125583   1.021   1.002   5.578
 8228SOL    HW225584   1.103   1.008   5.437
 8229SOL     OW25585   3.928   5.001   1.119
 8229SOL    HW125586   3.877   4.966   1.197
 8229SOL    HW225587   4.012   4.948   1.107
 8230SOL     OW25588   4.428   0.159   5.270
 8230SOL    HW125589   4.415   0.234   5.206
 8230SOL    HW225590   4.348   0.150   5.328
 8231SOL     OW25591   3.579   1.350   1.935
 8231SOL    HW125592   3.563   1.278   1.868
 8231SOL    HW225593   3.536   1.326   2.022
 8232SOL     OW25594   4.863   1.280   2.030
 8232SOL    HW125595   4.835   1.196   1.982
 8232SOL    HW225596   4.813   1.358   1.992
 8233SOL     OW25597   0.591   0.889   5.876
 8233SOL    HW125598   0.558   0.814   5.933
 8233SOL    HW225599   0.634   0.959   5.933
 8234SOL     OW25600   2.970   3.512   0.202
 8234SOL    HW125601   2.937   3.555   0.286
 8234SOL    HW225602   2.950   3.571   0.124
 8235SOL     OW25603   6.580   4.877   6.873
 8235SOL    HW125604   6.571   4.795   6.816
 8235SOL    HW225605   6.675   4.888   6.901
 8236SOL     OW25606   0.159   5.969   5.921
 8236SOL    HW125607   0.128   5.936   5.832
 8236SOL    HW225608   0.230   5.909   5.956
 8237SOL     OW25609   4.501   5.545   6.791
 8237SOL    HW125610   4.500   5.638   6.755
 8237SOL    HW225611   4.428   5.534   6.858
 8238SOL     OW25612   1.954   5.570   0.221
 8238SOL    HW125613   1.982   5.656   0.263
 8238SOL    HW225614   1.855   5.568   0.210
 8239SOL     OW25615   0.552   1.424   4.807
 8239SOL    HW125616   0.526   1.489   4.736
 8239SOL    HW225617   0.478   1.358   4.821
 8240SOL     OW25618   3.283   3.120   3.388
 8240SOL    HW125619   3.205   3.110   3.450
 8240SOL    HW225620   3.252   3.115   3.293
 8241SOL     OW25621   1.654   3.731   6.768
 8241SOL    HW125622   1.665   3.782   6.854
 8241SOL    HW225623   1.744   3.710   6.730
 8242SOL     OW25624   1.042   3.716   4.648
 8242SOL    HW125625   0.989   3.712   4.563
 8242SOL    HW225626   1.127   3.664   4.636
 8243SOL     OW25627   0.471   4.491   6.007
 8243SOL    HW125628   0.560   4.493   5.962
 8243SOL    HW225629   0.409   4.556   5.961
 8244SOL     OW25630   0.698   0.428   3.322
 8244SOL    HW125631   0.599   0.441   3.334
 8244SOL    HW225632   0.719   0.331   3.319
 8245SOL     OW25633   4.967   1.621   3.890
 8245SOL    HW125634   4.988   1.569   3.807
 8245SOL    HW225635   4.979   1.563   3.970
 8246SOL     OW25636   1.259   4.065   6.569
 8246SOL    HW125637   1.228   4.061   6.664
 8246SOL    HW225638   1.359   4.067   6.567
 8247SOL     OW25639   3.013   4.829   3.799
 8247SOL    HW125640   2.994   4.837   3.897
 8247SOL    HW225641   3.103   4.867   3.779
 8248SOL     OW25642   1.127   5.651   3.276
 8248SOL    HW125643   1.198   5.721   3.269
 8248SOL    HW225644   1.118   5.604   3.188
 8249SOL     OW25645   2.354   2.407   5.235
 8249SOL    HW125646   2.346   2.315   5.274
 8249SOL    HW225647   2.296   2.470   5.285
 8250SOL     OW25648   2.633   1.736   0.748
 8250SOL    HW125649   2.625   1.783   0.660
 8250SOL    HW225650   2.720   1.760   0.790
 8251SOL     OW25651   6.698   2.037   4.739
 8251SOL    HW125652   6.710   1.969   4.667
 8251SOL    HW225653   6.706   2.129   4.700
 8252SOL     OW25654   2.417   2.286   6.896
 8252SOL    HW125655   2.365   2.364   6.929
 8252SOL    HW225656   2.391   2.266   6.802
 8253SOL     OW25657   3.747   5.680   6.187
 8253SOL    HW125658   3.708   5.691   6.278
 8253SOL    HW225659   3.675   5.685   6.118
 8254SOL     OW25660   5.918   4.892   6.696
 8254SOL    HW125661   5.901   4.830   6.619
 8254SOL    HW225662   5.867   4.861   6.776
 8255SOL     OW25663   0.435   0.154   6.247
 8255SOL    HW125664   0.530   0.169   6.219
 8255SOL    HW225665   0.418   0.056   6.258
 8256SOL     OW25666   0.918   6.545   2.575
 8256SOL    HW125667   0.980   6.597   2.517
 8256SOL    HW225668   0.861   6.608   2.628
 8257SOL     OW25669   5.799   4.222   4.159
 8257SOL    HW125670   5.755   4.208   4.070
 8257SOL    HW225671   5.832   4.316   4.165
 8258SOL     OW25672   5.915   2.703   1.520
 8258SOL    HW125673   5.879   2.637   1.585
 8258SOL    HW225674   5.976   2.657   1.456
 8259SOL     OW25675   4.291   2.231   4.321
 8259SOL    HW125676   4.209   2.196   4.278
 8259SOL    HW225677   4.276   2.240   4.420
 8260SOL     OW25678   2.287   6.604   0.187
 8260SOL    HW125679   2.260   6.615   0.092
 8260SOL    HW225680   2.383   6.576   0.192
 8261SOL     OW25681   5.657   5.985   3.092
 8261SOL    HW125682   5.607   5.940   3.166
 8261SOL    HW225683   5.592   6.026   3.028
 8262SOL     OW25684   0.196   4.637   0.748
 8262SOL    HW125685   0.096   4.633   0.741
 8262SOL    HW225686   0.233   4.691   0.673
 8263SOL     OW25687   6.940   2.615   6.332
 8263SOL    HW125688   6.989   2.631   6.246
 8263SOL    HW225689   6.856   2.669   6.333
 8264SOL     OW25690   2.193   0.096   1.563
 8264SOL    HW125691   2.291   0.112   1.552
 8264SOL    HW225692   2.144   0.183   1.558
 8265SOL     OW25693   3.949   0.413   1.621
 8265SOL    HW125694   3.961   0.438   1.525
 8265SOL    HW225695   3.959   0.494   1.679
 8266SOL     OW25696   2.875   0.121   4.163
 8266SOL    HW125697   2.959   0.173   4.144
 8266SOL    HW225698   2.889   0.025   4.135
 8267SOL     OW25699   1.616   5.034   2.336
 8267SOL    HW125700   1.698   4.998   2.291
 8267SOL    HW225701   1.558   4.958   2.366
 8268SOL     OW25702   2.994   3.678   6.654
 8268SOL    HW125703   3.057   3.741   6.700
 8268SOL    HW225704   3.043   3.593   6.632
 8269SOL     OW25705   4.380   2.393   3.116
 8269SOL    HW125706   4.401   2.442   3.201
 8269SOL    HW225707   4.282   2.373   3.114
 8270SOL     OW25708   3.167   6.967   5.601
 8270SOL    HW125709   3.100   0.000   5.558
 8270SOL    HW225710   3.158   6.972   5.700
 8271SOL     OW25711   5.219   6.014   4.396
 8271SOL    HW125712   5.204   6.025   4.298
 8271SOL    HW225713   5.307   6.055   4.421
 8272SOL     OW25714   0.710   0.088   2.445
 8272SOL    HW125715   0.615   0.076   2.475
 8272SOL    HW225716   0.721   0.049   2.354
 8273SOL     OW25717   2.914   0.049   6.952
 8273SOL    HW125718   2.997   0.031   6.900
 8273SOL    HW225719   2.859   0.118   6.904
 8274SOL     OW25720   4.788   4.941   6.817
 8274SOL    HW125721   4.708   5.001   6.819
 8274SOL    HW225722   4.795   4.892   6.904
 8275SOL     OW25723   0.000   6.979   4.306
 8275SOL    HW125724   0.025   6.894   4.352
 8275SOL    HW225725   0.077   7.009   4.249
 8276SOL     OW25726   6.999   2.464   5.436
 8276SOL    HW125727   6.922   2.406   5.463
 8276SOL    HW225728   7.022   2.446   5.340
 8277SOL     OW25729   1.286   6.080   5.193
 8277SOL    HW125730   1.359   6.054   5.131
 8277SOL    HW225731   1.278   6.180   5.195
 8278SOL     OW25732   3.362   1.674   5.951
 8278SOL    HW125733   3.311   1.692   5.867
 8278SOL    HW225734   3.449   1.724   5.948
 8279SOL     OW25735   4.588   6.022   6.787
 8279SOL    HW125736   4.645   6.059   6.714
 8279SOL    HW225737   4.492   6.028   6.760
 8280SOL     OW25738   5.238   2.739   0.493
 8280SOL    HW125739   5.208   2.820   0.442
 8280SOL    HW225740   5.157   2.688   0.524
 8281SOL     OW25741   1.377   5.218   0.489
 8281SOL    HW125742   1.357   5.144   0.426
 8281SOL    HW225743   1.308   5.290   0.480
 8282SOL     OW25744   2.157   2.500   1.418
 8282SOL    HW125745   2.217   2.421   1.433
 8282SOL    HW225746   2.212   2.581   1.399
 8283SOL     OW25747   0.508   5.326   3.707
 8283SOL    HW125748   0.559   5.279   3.635
 8283SOL    HW225749   0.565   5.334   3.788
 8284SOL     OW25750   2.108   2.628   2.710
 8284SOL    HW125751   2.171   2.701   2.735
 8284SOL    HW225752   2.136   2.589   2.622
 8285SOL     OW25753   2.918   4.274   5.780
 8285SOL    HW125754   2.944   4.305   5.871
 8285SOL    HW225755   2.820   4.254   5.778
 8286SOL     OW25756   5.598   0.850   4.542
 8286SOL    HW125757   5.561   0.820   4.630
 8286SOL    HW225758   5.681   0.798   4.521
 8287SOL     OW25759   1.140   0.045   3.867
 8287SOL    HW125760   1.125   6.981   3.906
 8287SOL    HW225761   1.154   0.037   3.768
 8288SOL     OW25762   2.235   1.946   2.275
 8288SOL    HW125763   2.264   1.960   2.180
 8288SOL    HW225764   2.247   2.032   2.326
 8289SOL     OW25765   5.991   1.557   5.520
 8289SOL    HW125766   5.981   1.635   5.459
 8289SOL    HW225767   6.031   1.480   5.470
 8290SOL     OW25768   3.770   2.645   1.513
 8290SOL    HW125769   3.761   2.546   1.501
 8290SOL    HW225770   3.767   2.668   1.610
 8291SOL     OW25771   5.676   6.892   6.630
 8291SOL    HW125772   5.721   6.860   6.547
 8291SOL    HW225773   5.660   6.991   6.623
 8292SOL     OW25774   0.865   5.197   5.457
 8292SOL    HW125775   0.815   5.126   5.506
 8292SOL    HW225776   0.800   5.262   5.417
 8293SOL     OW25777   1.836   4.696   2.469
 8293SOL    HW125778   1.886   4.653   2.544
 8293SOL    HW225779   1.832   4.633   2.391
 8294SOL     OW25780   6.822   3.910   5.577
 8294SOL    HW125781   6.831   3.875   5.670
 8294SOL    HW225782   6.847   4.006   5.575
 8295SOL     OW25783   4.869   3.726   2.985
 8295SOL    HW125784   4.870   3.652   2.918
 8295SOL    HW225785   4.861   3.687   3.077
 8296SOL     OW25786   3.205   5.310   0.198
 8296SOL    HW125787   3.257   5.261   0.269
 8296SOL    HW225788   3.266   5.375   0.152
 8297SOL     OW25789   6.866   4.611   2.789
 8297SOL    HW125790   6.880   4.640   2.884
 8297SOL    HW225791   6.798   4.538   2.786
 8298SOL     OW25792   1.222   0.525   6.733
 8298SOL    HW125793   1.250   0.573   6.650
 8298SOL    HW225794   1.221   0.588   6.810
 8299SOL     OW25795   0.008   3.811   2.158
 8299SOL    HW125796   0.080   3.742   2.148
 8299SOL    HW225797   0.049   3.902   2.151
 8300SOL     OW25798   5.662   5.439   4.233
 8300SOL    HW125799   5.573   5.421   4.192
 8300SOL    HW225800   5.720   5.487   4.167
 8301SOL     OW25801   4.147   7.013   0.089
 8301SOL    HW125802   4.078   6.942   0.073
 8301SOL    HW225803   4.222   6.975   0.143
 8302SOL     OW25804   3.383   6.238   4.235
 8302SOL    HW125805   3.475   6.232   4.274
 8302SOL    HW225806   3.316   6.212   4.304
 8303SOL     OW25807   6.474   0.232   2.152
 8303SOL    HW125808   6.430   0.204   2.237
 8303SOL    HW225809   6.569   0.200   2.151
 8304SOL     OW25810   6.026   3.752   3.874
 8304SOL    HW125811   5.935   3.728   3.907
 8304SOL    HW225812   6.027   3.753   3.774
 8305SOL     OW25813   4.851   5.358   4.209
 8305SOL    HW125814   4.904   5.355   4.124
 8305SOL    HW225815   4.828   5.265   4.237
 8306SOL     OW25816   6.417   1.012   2.711
 8306SOL    HW125817   6.349   1.085   2.718
 8306SOL    HW225818   6.413   0.954   2.792
 8307SOL     OW25819   1.424   4.969   1.353
 8307SOL    HW125820   1.381   4.970   1.443
 8307SOL    HW225821   1.399   5.052   1.303
 8308SOL     OW25822   1.254   4.438   6.980
 8308SOL    HW125823   1.312   4.454   0.033
 8308SOL    HW225824   1.250   4.341   6.960
 8309SOL     OW25825   6.279   5.009   4.741
 8309SOL    HW125826   6.289   4.911   4.755
 8309SOL    HW225827   6.278   5.055   4.829
 8310SOL     OW25828   0.385   6.786   0.618
 8310SOL    HW125829   0.400   6.756   0.712
 8310SOL    HW225830   0.316   6.858   0.617
 8311SOL     OW25831   5.196   6.276   3.966
 8311SOL    HW125832   5.226   6.366   3.936
 8311SOL    HW225833   5.125   6.242   3.904
 8312SOL     OW25834   5.273   6.858   0.285
 8312SOL    HW125835   5.220   6.943   0.293
 8312SOL    HW225836   5.366   6.880   0.255
 8313SOL     OW25837   3.776   6.747   5.306
 8313SOL    HW125838   3.812   6.841   5.300
 8313SOL    HW225839   3.815   6.692   5.232
 8314SOL     OW25840   5.341   6.298   6.274
 8314SOL    HW125841   5.426   6.275   6.226
 8314SOL    HW225842   5.286   6.360   6.217
 8315SOL     OW25843   3.610   3.403   4.575
 8315SOL    HW125844   3.701   3.400   4.615
 8315SOL    HW225845   3.590   3.315   4.532
 8316SOL     OW25846   1.198   3.221   6.710
 8316SOL    HW125847   1.251   3.147   6.751
 8316SOL    HW225848   1.256   3.273   6.647
 8317SOL     OW25849   1.793   2.192   5.014
 8317SOL    HW125850   1.817   2.199   5.111
 8317SOL    HW225851   1.871   2.158   4.963
 8318SOL     OW25852   4.185   0.376   6.208
 8318SOL    HW125853   4.170   0.464   6.251
 8318SOL    HW225854   4.106   0.316   6.225
 8319SOL     OW25855   0.912   0.088   6.105
 8319SOL    HW125856   1.003   0.107   6.142
 8319SOL    HW225857   0.847   0.156   6.140
 8320SOL     OW25858   3.095   4.070   4.715
 8320SOL    HW125859   3.193   4.085   4.725
 8320SOL    HW225860   3.059   4.025   4.796
 8321SOL     OW25861   0.243   0.304   6.728
 8321SOL    HW125862   0.259   0.310   6.629
 8321SOL    HW225863   0.330   0.290   6.775
 8322SOL     OW25864   0.327   1.023   0.438
 8322SOL    HW125865   0.391   0.979   0.375
 8322SOL    HW225866   0.247   0.964   0.451
 8323SOL     OW25867   4.957   4.564   1.101
 8323SOL    HW125868   4.870   4.597   1.063
 8323SOL    HW225869   4.943   4.535   1.196
 8324SOL     OW25870   6.075   0.910   6.541
 8324SOL    HW125871   5.994   0.952   6.581
 8324SOL    HW225872   6.115   0.845   6.605
 8325SOL     OW25873   1.574   5.354   4.654
 8325SOL    HW125874   1.609   5.345   4.561
 8325SOL    HW225875   1.588   5.268   4.703
 8326SOL     OW25876   2.563   4.017   0.266
 8326SOL    HW125877   2.570   3.920   0.244
 8326SOL    HW225878   2.591   4.071   0.187
 8327SOL     OW25879   0.808   0.656   5.839
 8327SOL    HW125880   0.744   0.720   5.797
 8327SOL    HW225881   0.828   0.684   5.932
 8328SOL     OW25882   0.745   6.074   5.585
 8328SOL    HW125883   0.696   6.058   5.670
 8328SOL    HW225884   0.717   6.006   5.517
 8329SOL     OW25885   0.787   2.834   5.108
 8329SOL    HW125886   0.755   2.912   5.162
 8329SOL    HW225887   0.710   2.794   5.058
 8330SOL     OW25888   3.988   0.804   6.482
 8330SOL    HW125889   3.988   0.803   6.582
 8330SOL    HW225890   3.896   0.822   6.449
 8331SOL     OW25891   2.170   2.065   0.610
 8331SOL    HW125892   2.235   2.049   0.536
 8331SOL    HW225893   2.219   2.072   0.697
 8332SOL     OW25894   5.312   4.798   1.604
 8332SOL    HW125895   5.402   4.838   1.625
 8332SOL    HW225896   5.273   4.759   1.687
 8333SOL     OW25897   1.899   4.860   1.192
 8333SOL    HW125898   1.845   4.776   1.187
 8333SOL    HW225899   1.844   4.933   1.233
 8334SOL     OW25900   3.374   2.162   6.647
 8334SOL    HW125901   3.413   2.254   6.638
 8334SOL    HW225902   3.448   2.095   6.655
 8335SOL     OW25903   4.650   3.096   7.027
 8335SOL    HW125904   4.703   3.024   6.981
 8335SOL    HW225905   4.584   3.055   0.062
 8336SOL     OW25906   1.458   3.523   2.601
 8336SOL    HW125907   1.433   3.428   2.586
 8336SOL    HW225908   1.518   3.554   2.527
 8337SOL     OW25909   1.008   1.036   5.022
 8337SOL    HW125910   1.037   1.074   4.934
 8337SOL    HW225911   1.080   1.051   5.090
 8338SOL     OW25912   3.725   4.970   1.970
 8338SOL    HW125913   3.782   4.976   1.888
 8338SOL    HW225914   3.647   4.909   1.952
 8339SOL     OW25915   0.264   0.640   0.439
 8339SOL    HW125916   0.358   0.650   0.470
 8339SOL    HW225917   0.220   0.730   0.436
 8340SOL     OW25918   5.096   2.964   1.035
 8340SOL    HW125919   5.165   2.970   1.107
 8340SOL    HW225920   5.016   2.915   1.069
 8341SOL     OW25921   3.617   0.200   6.487
 8341SOL    HW125922   3.615   0.282   6.429
 8341SOL    HW225923   3.699   0.146   6.466
 8342SOL     OW25924   3.415   6.477   0.110
 8342SOL    HW125925   3.407   6.559   0.167
 8342SOL    HW225926   3.466   6.499   0.027
 8343SOL     OW25927   6.535   4.924   3.644
 8343SOL    HW125928   6.600   4.992   3.610
 8343SOL    HW225929   6.442   4.952   3.619
 8344SOL     OW25930   0.473   4.673   4.413
 8344SOL    HW125931   0.498   4.588   4.367
 8344SOL    HW225932   0.387   4.660   4.462
 8345SOL     OW25933   5.051   1.063   3.185
 8345SOL    HW125934   4.984   1.099   3.249
 8345SOL    HW225935   5.015   1.069   3.092
 8346SOL     OW25936   4.398   2.993   6.259
 8346SOL    HW125937   4.488   2.959   6.286
 8346SOL    HW225938   4.338   2.916   6.240
 8347SOL     OW25939   2.233   0.011   6.019
 8347SOL    HW125940   2.254   7.010   5.926
 8347SOL    HW225941   2.197   6.960   6.070
 8348SOL     OW25942   3.519   6.697   1.244
 8348SOL    HW125943   3.524   6.656   1.153
 8348SOL    HW225944   3.577   6.778   1.247
 8349SOL     OW25945   0.273   6.818   2.215
 8349SOL    HW125946   0.261   6.781   2.307
 8349SOL    HW225947   0.198   6.880   2.193
 8350SOL     OW25948   2.979   6.977   6.287
 8350SOL    HW125949   2.882   6.988   6.307
 8350SOL    HW225950   3.029   0.028   6.322
 8351SOL     OW25951   6.157   5.640   4.232
 8351SOL    HW125952   6.251   5.655   4.262
 8351SOL    HW225953   6.114   5.571   4.290
 8352SOL     OW25954   3.006   6.540   2.004
 8352SOL    HW125955   3.064   6.475   2.054
 8352SOL    HW225956   2.997   6.511   1.909
 8353SOL     OW25957   1.049   3.856   1.850
 8353SOL    HW125958   1.030   3.786   1.920
 8353SOL    HW225959   1.108   3.818   1.779
 8354SOL     OW25960   3.387   6.447   3.785
 8354SOL    HW125961   3.299   6.471   3.827
 8354SOL    HW225962   3.403   6.507   3.706
 8355SOL     OW25963   1.330   6.948   6.342
 8355SOL    HW125964   1.278   6.955   6.257
 8355SOL    HW225965   1.357   0.012   6.372
 8356SOL     OW25966   1.195   5.791   2.240
 8356SOL    HW125967   1.137   5.718   2.203
 8356SOL    HW225968   1.237   5.842   2.165
 8357SOL     OW25969   4.248   5.612   5.920
 8357SOL    HW125970   4.344   5.590   5.908
 8357SOL    HW225971   4.191   5.547   5.870
 8358SOL     OW25972   1.464   2.888   5.628
 8358SOL    HW125973   1.477   2.987   5.632
 8358SOL    HW225974   1.371   2.867   5.596
 8359SOL     OW25975   2.367   0.484   4.916
 8359SOL    HW125976   2.434   0.409   4.912
 8359SOL    HW225977   2.311   0.483   4.833
 8360SOL     OW25978   4.758   6.860   0.582
 8360SOL    HW125979   4.850   6.821   0.589
 8360SOL    HW225980   4.693   6.801   0.630
 8361SOL     OW25981   2.118   0.185   6.264
 8361SOL    HW125982   2.139   0.106   6.322
 8361SOL    HW225983   2.021   0.208   6.273
 8362SOL     OW25984   6.496   2.709   0.424
 8362SOL    HW125985   6.592   2.720   0.452
 8362SOL    HW225986   6.490   2.714   0.324
 8363SOL     OW25987   4.094   2.175   0.556
 8363SOL    HW125988   4.031   2.252   0.564
 8363SOL    HW225989   4.136   2.176   0.466
 8364SOL     OW25990   0.324   2.998   3.840
 8364SOL    HW125991   0.333   2.900   3.824
 8364SOL    HW225992   0.381   3.048   3.775
 8365SOL     OW25993   1.876   2.563   1.909
 8365SOL    HW125994   1.807   2.525   1.972
 8365SOL    HW225995   1.842   2.559   1.815
 8366SOL     OW25996   4.046   5.802   0.973
 8366SOL    HW125997   4.071   5.844   0.887
 8366SOL    HW225998   4.123   5.750   1.009
 8367SOL     OW25999   2.998   5.115   4.542
 8367SOL    HW126000   2.906   5.075   4.543
 8367SOL    HW226001   3.056   5.065   4.478
 8368SOL     OW26002   0.642   6.191   6.810
 8368SOL    HW126003   0.598   6.268   6.855
 8368SOL    HW226004   0.662   6.120   6.878
 8369SOL     OW26005   0.814   1.825   1.129
 8369SOL    HW126006   0.776   1.825   1.221
 8369SOL    HW226007   0.872   1.744   1.118
 8370SOL     OW26008   2.880   2.082   6.989
 8370SOL    HW126009   2.810   2.153   6.981
 8370SOL    HW226010   2.899   2.045   6.898
 8371SOL     OW26011   1.535   3.185   5.618
 8371SOL    HW126012   1.613   3.245   5.635
 8371SOL    HW226013   1.450   3.237   5.629
 8372SOL     OW26014   2.936   6.724   2.173
 8372SOL    HW126015   2.982   6.667   2.106
 8372SOL    HW226016   2.921   6.672   2.257
 8373SOL     OW26017   0.694   1.778   4.586
 8373SOL    HW126018   0.637   1.812   4.661
 8373SOL    HW226019   0.657   1.810   4.499
 8374SOL     OW26020   1.492   0.773   3.887
 8374SOL    HW126021   1.563   0.720   3.934
 8374SOL    HW226022   1.457   0.720   3.809
 8375SOL     OW26023   4.131   0.961   5.940
 8375SOL    HW126024   4.171   1.037   5.991
 8375SOL    HW226025   4.083   0.900   6.004
 8376SOL     OW26026   1.432   1.123   3.489
 8376SOL    HW126027   1.475   1.101   3.401
 8376SOL    HW226028   1.441   1.221   3.507
 8377SOL     OW26029   5.152   5.534   0.183
 8377SOL    HW126030   5.215   5.605   0.151
 8377SOL    HW226031   5.126   5.553   0.278
 8378SOL     OW26032   5.283   5.439   3.144
 8378SOL    HW126033   5.184   5.440   3.161
 8378SOL    HW226034   5.319   5.348   3.164
 8379SOL     OW26035   4.882   2.137   1.617
 8379SOL    HW126036   4.958   2.077   1.593
 8379SOL    HW226037   4.816   2.086   1.672
 8380SOL     OW26038   6.860   6.481   0.134
 8380SOL    HW126039   6.775   6.429   0.140
 8380SOL    HW226040   6.851   6.566   0.185
 8381SOL     OW26041   0.238   2.552   2.810
 8381SOL    HW126042   0.312   2.559   2.744
 8381SOL    HW226043   0.276   2.525   2.899
 8382SOL     OW26044   2.469   0.471   0.243
 8382SOL    HW126045   2.437   0.500   0.153
 8382SOL    HW226046   2.503   0.378   0.238
 8383SOL     OW26047   2.514   0.009   4.999
 8383SOL    HW126048   2.448   7.001   4.933
 8383SOL    HW226049   2.593   0.047   4.951
 8384SOL     OW26050   6.914   1.898   1.333
 8384SOL    HW126051   6.894   1.960   1.258
 8384SOL    HW226052   7.013   1.887   1.344
 8385SOL     OW26053   4.424   3.170   1.019
 8385SOL    HW126054   4.486   3.216   1.082
 8385SOL    HW226055   4.359   3.114   1.070
 8386SOL     OW26056   1.965   6.102   0.980
 8386SOL    HW126057   1.912   6.130   1.060
 8386SOL    HW226058   1.963   6.002   0.972
 8387SOL     OW26059   2.290   1.662   1.831
 8387SOL    HW126060   2.235   1.718   1.892
 8387SOL    HW226061   2.298   1.707   1.742
 8388SOL     OW26062   1.629   6.988   0.471
 8388SOL    HW126063   1.693   6.939   0.530
 8388SOL    HW226064   1.554   6.927   0.444
 8389SOL     OW26065   1.873   3.132   4.126
 8389SOL    HW126066   1.863   3.039   4.160
 8389SOL    HW226067   1.837   3.197   4.193
 8390SOL     OW26068   2.905   0.917   6.446
 8390SOL    HW126069   2.880   1.007   6.408
 8390SOL    HW226070   2.898   0.848   6.374
 8391SOL     OW26071   5.205   5.662   1.334
 8391SOL    HW126072   5.276   5.636   1.268
 8391SOL    HW226073   5.197   5.592   1.404
 8392SOL     OW26074   6.212   5.713   4.929
 8392SOL    HW126075   6.261   5.710   5.016
 8392SOL    HW226076   6.149   5.791   4.930
 8393SOL     OW26077   6.900   6.995   3.805
 8393SOL    HW126078   6.827   6.946   3.851
 8393SOL    HW226079   6.987   6.947   3.816
 8394SOL     OW26080   0.966   1.497   2.670
 8394SOL    HW126081   1.002   1.424   2.728
 8394SOL    HW226082   0.976   1.471   2.574
 8395SOL     OW26083   0.592   6.307   4.311
 8395SOL    HW126084   0.578   6.369   4.389
 8395SOL    HW226085   0.516   6.241   4.307
 8396SOL     OW26086   4.308   4.610   2.906
 8396SOL    HW126087   4.365   4.552   2.848
 8396SOL    HW226088   4.271   4.686   2.853
 8397SOL     OW26089   2.291   0.317   2.956
 8397SOL    HW126090   2.354   0.244   2.984
 8397SOL    HW226091   2.331   0.369   2.881
 8398SOL     OW26092   3.876   1.861   7.026
 8398SOL    HW126093   3.950   1.848   0.065
 8398SOL    HW226094   3.803   1.795   0.016
 8399SOL     OW26095   6.058   6.088   0.385
 8399SOL    HW126096   6.140   6.110   0.437
 8399SOL    HW226097   5.984   6.151   0.412
 8400SOL     OW26098   0.649   0.261   3.002
 8400SOL    HW126099   0.613   0.168   2.999
 8400SOL    HW226100   0.700   0.274   3.087
 8401SOL     OW26101   4.463   3.268   5.815
 8401SOL    HW126102   4.486   3.279   5.912
 8401SOL    HW226103   4.452   3.358   5.773
 8402SOL     OW26104   3.173   1.529   5.519
 8402SOL    HW126105   3.198   1.594   5.590
 8402SOL    HW226106   3.168   1.575   5.431
 8403SOL     OW26107   0.353   1.472   3.508
 8403SOL    HW126108   0.352   1.445   3.604
 8403SOL    HW226109   0.445   1.499   3.482
 8404SOL     OW26110   5.825   6.847   6.373
 8404SOL    HW126111   5.903   6.814   6.320
 8404SOL    HW226112   5.756   6.884   6.310
 8405SOL     OW26113   1.995   2.284   0.018
 8405SOL    HW126114   2.058   2.352   0.056
 8405SOL    HW226115   1.957   2.228   0.091
 8406SOL     OW26116   4.532   1.545   0.746
 8406SOL    HW126117   4.501   1.633   0.710
 8406SOL    HW226118   4.480   1.523   0.829
 8407SOL     OW26119   5.704   5.120   4.190
 8407SOL    HW126120   5.787   5.175   4.193
 8407SOL    HW226121   5.625   5.179   4.174
 8408SOL     OW26122   5.345   0.393   3.805
 8408SOL    HW126123   5.443   0.382   3.785
 8408SOL    HW226124   5.306   0.305   3.832
 8409SOL     OW26125   0.536   2.039   3.826
 8409SOL    HW126126   0.542   2.090   3.740
 8409SOL    HW226127   0.513   2.101   3.901
 8410SOL     OW26128   4.343   1.058   1.245
 8410SOL    HW126129   4.304   0.987   1.188
 8410SOL    HW226130   4.279   1.135   1.252
 8411SOL     OW26131   1.571   5.371   3.542
 8411SOL    HW126132   1.626   5.290   3.521
 8411SOL    HW226133   1.549   5.419   3.457
 8412SOL     OW26134   4.409   1.891   1.240
 8412SOL    HW126135   4.412   1.861   1.335
 8412SOL    HW226136   4.502   1.909   1.207
 8413SOL     OW26137   4.199   4.754   0.521
 8413SOL    HW126138   4.144   4.670   0.520
 8413SOL    HW226139   4.235   4.771   0.429
 8414SOL     OW26140   3.865   0.508   2.606
 8414SOL    HW126141   3.928   0.436   2.634
 8414SOL    HW226142   3.912   0.575   2.550
 8415SOL     OW26143   0.297   4.870   3.590
 8415SOL    HW126144   0.242   4.867   3.506
 8415SOL    HW226145   0.302   4.964   3.624
 8416SOL     OW26146   5.012   4.281   2.894
 8416SOL    HW126147   4.988   4.360   2.838
 8416SOL    HW226148   4.930   4.246   2.938
 8417SOL     OW26149   2.191   6.023   5.304
 8417SOL    HW126150   2.203   5.953   5.233
 8417SOL    HW226151   2.128   5.990   5.374
 8418SOL     OW26152   5.427   5.226   1.848
 8418SOL    HW126153   5.441   5.264   1.940
 8418SOL    HW226154   5.340   5.177   1.846
 8419SOL     OW26155   4.388   0.439   1.937
 8419SOL    HW126156   4.418   0.499   2.011
 8419SOL    HW226157   4.309   0.479   1.891
 8420SOL     OW26158   3.769   6.697   0.750
 8420SOL    HW126159   3.767   6.616   0.809
 8420SOL    HW226160   3.775   6.779   0.806
 8421SOL     OW26161   2.948   6.738   1.263
 8421SOL    HW126162   3.024   6.679   1.289
 8421SOL    HW226163   2.865   6.683   1.257
 8422SOL     OW26164   5.601   6.151   1.237
 8422SOL    HW126165   5.697   6.149   1.264
 8422SOL    HW226166   5.552   6.219   1.291
 8423SOL     OW26167   3.986   4.599   6.789
 8423SOL    HW126168   3.933   4.615   6.707
 8423SOL    HW226169   4.043   4.517   6.777
 8424SOL     OW26170   2.795   2.313   2.648
 8424SOL    HW126171   2.793   2.348   2.742
 8424SOL    HW226172   2.884   2.333   2.607
 8425SOL     OW26173   0.001   5.466   0.941
 8425SOL    HW126174   7.027   5.416   1.028
 8425SOL    HW226175   6.989   5.409   0.869
 8426SOL     OW26176   3.916   3.087   3.835
 8426SOL    HW126177   3.980   3.019   3.870
 8426SOL    HW226178   3.944   3.114   3.742
 8427SOL     OW26179   1.729   3.991   5.734
 8427SOL    HW126180   1.682   3.927   5.794
 8427SOL    HW226181   1.826   3.995   5.760
 8428SOL     OW26182   6.660   4.646   2.309
 8428SOL    HW126183   6.732   4.671   2.374
 8428SOL    HW226184   6.693   4.572   2.250
 8429SOL     OW26185   2.040   4.368   4.671
 8429SOL    HW126186   2.035   4.380   4.572
 8429SOL    HW226187   2.113   4.303   4.693
 8430SOL     OW26188   4.088   5.370   2.835
 8430SOL    HW126189   4.089   5.389   2.737
 8430SOL    HW226190   4.145   5.290   2.854
 8431SOL     OW26191   2.336   5.044   1.392
 8431SOL    HW126192   2.414   5.071   1.335
 8431SOL    HW226193   2.357   5.063   1.488
 8432SOL     OW26194   4.249   5.146   5.989
 8432SOL    HW126195   4.236   5.055   6.027
 8432SOL    HW226196   4.336   5.151   5.941
 8433SOL     OW26197   1.114   2.763   6.791
 8433SOL    HW126198   1.083   2.782   6.884
 8433SOL    HW226199   1.134   2.666   6.782
 8434SOL     OW26200   2.950   6.787   5.398
 8434SOL    HW126201   2.913   6.724   5.466
 8434SOL    HW226202   2.985   6.869   5.445
 8435SOL     OW26203   5.145   2.006   1.538
 8435SOL    HW126204   5.189   2.037   1.454
 8435SOL    HW226205   5.213   2.002   1.612
 8436SOL     OW26206   3.717   6.449   3.726
 8436SOL    HW126207   3.769   6.531   3.752
 8436SOL    HW226208   3.704   6.449   3.627
 8437SOL     OW26209   1.588   0.333   1.786
 8437SOL    HW126210   1.510   0.294   1.835
 8437SOL    HW226211   1.556   0.403   1.722
 8438SOL     OW26212   2.984   4.806   2.292
 8438SOL    HW126213   2.973   4.870   2.368
 8438SOL    HW226214   2.895   4.764   2.271
 8439SOL     OW26215   6.832   5.924   1.268
 8439SOL    HW126216   6.841   5.938   1.367
 8439SOL    HW226217   6.912   5.962   1.222
 8440SOL     OW26218   6.966   0.645   2.707
 8440SOL    HW126219   0.017   0.704   2.690
 8440SOL    HW226220   6.963   0.620   2.803
 8441SOL     OW26221   5.935   5.852   0.472
 8441SOL    HW126222   5.862   5.826   0.409
 8441SOL    HW226223   5.993   5.921   0.429
 8442SOL     OW26224   4.111   3.179   6.584
 8442SOL    HW126225   4.020   3.198   6.620
 8442SOL    HW226226   4.120   3.082   6.563
 8443SOL     OW26227   1.510   6.889   3.128
 8443SOL    HW126228   1.433   6.829   3.109
 8443SOL    HW226229   1.481   6.960   3.193
 8444SOL     OW26230   3.067   6.026   3.430
 8444SOL    HW126231   2.988   6.065   3.478
 8444SOL    HW226232   3.093   5.939   3.472
 8445SOL     OW26233   2.965   5.070   2.044
 8445SOL    HW126234   3.038   5.102   2.104
 8445SOL    HW226235   2.976   4.971   2.029
 8446SOL     OW26236   5.003   5.453   1.678
 8446SOL    HW126237   4.949   5.500   1.748
 8446SOL    HW226238   4.942   5.417   1.607
 8447SOL     OW26239   5.750   2.317   2.583
 8447SOL    HW126240   5.703   2.284   2.501
 8447SOL    HW226241   5.796   2.403   2.564
 8448SOL     OW26242   0.170   3.838   5.462
 8448SOL    HW126243   0.089   3.782   5.441
 8448SOL    HW226244   0.215   3.802   5.543
 8449SOL     OW26245   0.215   3.003   4.080
 8449SOL    HW126246   0.259   2.986   3.992
 8449SOL    HW226247   0.274   3.062   4.135
 8450SOL     OW26248   2.227   6.160   2.270
 8450SOL    HW126249   2.136   6.192   2.297
 8450SOL    HW226250   2.287   6.239   2.257
 8451SOL     OW26251   4.279   2.510   0.750
 8451SOL    HW126252   4.371   2.521   0.787
 8451SOL    HW226253   4.244   2.420   0.775
 8452SOL     OW26254   0.267   6.784   1.282
 8452SOL    HW126255   0.303   6.709   1.227
 8452SOL    HW226256   0.245   6.751   1.374
 8453SOL     OW26257   6.795   5.178   6.138
 8453SOL    HW126258   6.822   5.082   6.146
 8453SOL    HW226259   6.696   5.184   6.129
 8454SOL     OW26260   1.756   5.741   1.878
 8454SOL    HW126261   1.678   5.802   1.884
 8454SOL    HW226262   1.821   5.776   1.811
 8455SOL     OW26263   5.101   1.637   1.193
 8455SOL    HW126264   5.189   1.652   1.148
 8455SOL    HW226265   5.116   1.591   1.281
 8456SOL     OW26266   6.075   5.414   3.131
 8456SOL    HW126267   6.088   5.315   3.141
 8456SOL    HW226268   5.982   5.432   3.099
 8457SOL     OW26269   6.777   6.720   5.721
 8457SOL    HW126270   6.850   6.722   5.653
 8457SOL    HW226271   6.734   6.810   5.726
 8458SOL     OW26272   2.025   1.282   6.737
 8458SOL    HW126273   2.021   1.322   6.829
 8458SOL    HW226274   1.941   1.231   6.720
 8459SOL     OW26275   3.945   6.652   1.616
 8459SOL    HW126276   3.882   6.590   1.571
 8459SOL    HW226277   3.904   6.687   1.700
 8460SOL     OW26278   4.189   2.878   6.136
 8460SOL    HW126279   4.099   2.878   6.093
 8460SOL    HW226280   4.259   2.857   6.067
 8461SOL     OW26281   1.031   3.113   1.305
 8461SOL    HW126282   1.063   3.207   1.318
 8461SOL    HW226283   1.012   3.072   1.395
 8462SOL     OW26284   3.479   2.414   6.568
 8462SOL    HW126285   3.503   2.341   6.504
 8462SOL    HW226286   3.498   2.503   6.527
 8463SOL     OW26287   0.160   2.108   0.080
 8463SOL    HW126288   0.248   2.129   0.038
 8463SOL    HW226289   0.165   2.018   0.124
 8464SOL     OW26290   0.078   4.312   5.318
 8464SOL    HW126291   0.147   4.266   5.374
 8464SOL    HW226292   0.010   4.354   5.378
 8465SOL     OW26293   2.842   2.093   0.994
 8465SOL    HW126294   2.833   2.056   0.901
 8465SOL    HW226295   2.752   2.120   1.028
 8466SOL     OW26296   6.473   0.128   5.414
 8466SOL    HW126297   6.551   0.098   5.359
 8466SOL    HW226298   6.447   0.221   5.387
 8467SOL     OW26299   3.748   0.875   0.909
 8467SOL    HW126300   3.769   0.904   1.002
 8467SOL    HW226301   3.811   0.919   0.845
 8468SOL     OW26302   6.303   2.907   6.562
 8468SOL    HW126303   6.302   2.807   6.560
 8468SOL    HW226304   6.379   2.938   6.620
 8469SOL     OW26305   2.627   2.586   5.962
 8469SOL    HW126306   2.709   2.582   5.905
 8469SOL    HW226307   2.654   2.589   6.058
 8470SOL     OW26308   0.787   4.736   0.475
 8470SOL    HW126309   0.793   4.812   0.410
 8470SOL    HW226310   0.785   4.772   0.568
 8471SOL     OW26311   3.493   0.382   5.388
 8471SOL    HW126312   3.538   0.303   5.346
 8471SOL    HW226313   3.523   0.466   5.341
 8472SOL     OW26314   5.477   1.710   5.622
 8472SOL    HW126315   5.562   1.694   5.672
 8472SOL    HW226316   5.477   1.655   5.538
 8473SOL     OW26317   4.887   5.269   0.793
 8473SOL    HW126318   4.934   5.181   0.798
 8473SOL    HW226319   4.955   5.343   0.800
 8474SOL     OW26320   3.111   4.007   2.566
 8474SOL    HW126321   3.083   4.099   2.592
 8474SOL    HW226322   3.127   4.003   2.467
 8475SOL     OW26323   6.829   3.019   2.394
 8475SOL    HW126324   6.895   2.954   2.357
 8475SOL    HW226325   6.827   3.101   2.337
 8476SOL     OW26326   0.088   0.839   2.030
 8476SOL    HW126327   0.003   0.806   2.071
 8476SOL    HW226328   0.145   0.761   2.004
 8477SOL     OW26329   4.584   6.282   2.414
 8477SOL    HW126330   4.565   6.201   2.359
 8477SOL    HW226331   4.539   6.361   2.373
 8478SOL     OW26332   0.677   1.567   5.893
 8478SOL    HW126333   0.719   1.517   5.817
 8478SOL    HW226334   0.702   1.663   5.887
 8479SOL     OW26335   0.716   2.826   1.812
 8479SOL    HW126336   0.768   2.763   1.753
 8479SOL    HW226337   0.622   2.833   1.779
 8480SOL     OW26338   5.002   3.045   6.807
 8480SOL    HW126339   5.053   3.064   6.891
 8480SOL    HW226340   4.916   3.001   6.830
 8481SOL     OW26341   4.494   2.225   5.026
 8481SOL    HW126342   4.559   2.193   5.095
 8481SOL    HW226343   4.504   2.324   5.014
 8482SOL     OW26344   4.641   0.437   1.582
 8482SOL    HW126345   4.622   0.370   1.654
 8482SOL    HW226346   4.735   0.471   1.592
 8483SOL     OW26347   2.269   5.511   3.080
 8483SOL    HW126348   2.221   5.588   3.124
 8483SOL    HW226349   2.232   5.496   2.989
 8484SOL     OW26350   6.886   6.105   4.870
 8484SOL    HW126351   6.850   6.114   4.963
 8484SOL    HW226352   6.901   6.008   4.850
 8485SOL     OW26353   4.058   2.512   0.314
 8485SOL    HW126354   4.032   2.486   0.221
 8485SOL    HW226355   4.004   2.460   0.379
 8486SOL     OW26356   1.913   1.088   2.830
 8486SOL    HW126357   1.992   1.148   2.839
 8486SOL    HW226358   1.945   0.996   2.805
 8487SOL     OW26359   5.432   2.245   6.180
 8487SOL    HW126360   5.439   2.174   6.111
 8487SOL    HW226361   5.489   2.323   6.154
 8488SOL     OW26362   5.438   5.804   3.014
 8488SOL    HW126363   5.349   5.759   3.019
 8488SOL    HW226364   5.442   5.878   3.080
 8489SOL     OW26365   0.088   0.275   1.302
 8489SOL    HW126366   0.105   0.240   1.210
 8489SOL    HW226367   0.109   0.204   1.370
 8490SOL     OW26368   3.206   6.598   5.685
 8490SOL    HW126369   3.201   6.505   5.721
 8490SOL    HW226370   3.159   6.661   5.747
 8491SOL     OW26371   2.160   6.306   2.655
 8491SOL    HW126372   2.235   6.243   2.634
 8491SOL    HW226373   2.088   6.296   2.587
 8492SOL     OW26374   6.049   5.171   3.749
 8492SOL    HW126375   6.101   5.132   3.825
 8492SOL    HW226376   6.059   5.270   3.750
 8493SOL     OW26377   2.647   1.642   0.189
 8493SOL    HW126378   2.710   1.720   0.194
 8493SOL    HW226379   2.661   1.594   0.102
 8494SOL     OW26380   4.651   4.939   2.231
 8494SOL    HW126381   4.669   5.038   2.234
 8494SOL    HW226382   4.706   4.897   2.159
 8495SOL     OW26383   0.343   5.161   0.854
 8495SOL    HW126384   0.270   5.125   0.912
 8495SOL    HW226385   0.344   5.261   0.861
 8496SOL     OW26386   5.738   1.685   2.391
 8496SOL    HW126387   5.679   1.701   2.470
 8496SOL    HW226388   5.715   1.749   2.318
 8497SOL     OW26389   0.958   0.211   3.544
 8497SOL    HW126390   0.952   0.301   3.501
 8497SOL    HW226391   1.032   0.159   3.500
 8498SOL     OW26392   6.121   6.398   3.328
 8498SOL    HW126393   6.172   6.477   3.293
 8498SOL    HW226394   6.181   6.318   3.330
 8499SOL     OW26395   0.567   4.394   0.206
 8499SOL    HW126396   0.624   4.433   0.278
 8499SOL    HW226397   0.590   4.435   0.118
 8500SOL     OW26398   1.772   6.369   5.964
 8500SOL    HW126399   1.688   6.350   6.015
 8500SOL    HW226400   1.830   6.430   6.019
 8501SOL     OW26401   0.910   2.358   6.483
 8501SOL    HW126402   0.984   2.402   6.533
 8501SOL    HW226403   0.886   2.272   6.529
 8502SOL     OW26404   0.666   2.792   1.074
 8502SOL    HW126405   0.745   2.790   1.013
 8502SOL    HW226406   0.688   2.848   1.154
 8503SOL     OW26407   6.566   5.864   5.214
 8503SOL    HW126408   6.590   5.896   5.122
 8503SOL    HW226409   6.599   5.931   5.281
 8504SOL     OW26410   1.575   5.053   2.075
 8504SOL    HW126411   1.563   5.061   2.174
 8504SOL    HW226412   1.672   5.058   2.052
 8505SOL     OW26413   5.524   3.509   2.853
 8505SOL    HW126414   5.476   3.473   2.773
 8505SOL    HW226415   5.461   3.515   2.930
 8506SOL     OW26416   1.254   0.582   0.032
 8506SOL    HW126417   1.334   0.577   7.000
 8506SOL    HW226418   1.194   0.656   0.002
 8507SOL     OW26419   3.962   0.005   4.748
 8507SOL    HW126420   3.862   0.005   4.754
 8507SOL    HW226421   3.990   0.024   4.654
 8508SOL     OW26422   4.181   1.450   5.707
 8508SOL    HW126423   4.187   1.531   5.649
 8508SOL    HW226424   4.194   1.368   5.650
 8509SOL     OW26425   5.825   6.636   4.027
 8509SOL    HW126426   5.878   6.613   3.946
 8509SOL    HW226427   5.728   6.628   4.006
 8510SOL     OW26428   5.133   3.778   3.440
 8510SOL    HW126429   5.100   3.819   3.524
 8510SOL    HW226430   5.199   3.706   3.461
 8511SOL     OW26431   6.761   3.190   2.611
 8511SOL    HW126432   6.828   3.148   2.549
 8511SOL    HW226433   6.669   3.175   2.576
 8512SOL     OW26434   2.652   0.143   2.813
 8512SOL    HW126435   2.739   0.106   2.847
 8512SOL    HW226436   2.576   0.098   2.860
 8513SOL     OW26437   0.002   5.700   0.788
 8513SOL    HW126438   6.950   5.760   0.796
 8513SOL    HW226439   7.007   5.610   0.826
 8514SOL     OW26440   3.139   0.199   3.359
 8514SOL    HW126441   3.091   0.286   3.374
 8514SOL    HW226442   3.164   0.191   3.262
 8515SOL     OW26443   4.719   2.723   0.933
 8515SOL    HW126444   4.665   2.807   0.932
 8515SOL    HW226445   4.779   2.723   1.013
 8516SOL     OW26446   6.839   2.085   2.412
 8516SOL    HW126447   6.908   2.074   2.341
 8516SOL    HW226448   6.757   2.033   2.388
 8517SOL     OW26449   0.895   2.630   5.839
 8517SOL    HW126450   0.808   2.680   5.832
 8517SOL    HW226451   0.895   2.555   5.774
 8518SOL     OW26452   4.064   4.526   0.497
 8518SOL    HW126453   4.128   4.463   0.453
 8518SOL    HW226454   3.970   4.499   0.474
 8519SOL     OW26455   1.818   5.796   2.148
 8519SOL    HW126456   1.858   5.886   2.129
 8519SOL    HW226457   1.764   5.767   2.069
 8520SOL     OW26458   3.973   0.945   0.337
 8520SOL    HW126459   3.994   0.872   0.271
 8520SOL    HW226460   3.992   0.912   0.429
 8521SOL     OW26461   1.545   5.779   5.583
 8521SOL    HW126462   1.560   5.843   5.507
 8521SOL    HW226463   1.608   5.799   5.657
 8522SOL     OW26464   1.880   5.668   2.421
 8522SOL    HW126465   1.892   5.703   2.328
 8522SOL    HW226466   1.787   5.689   2.453
 8523SOL     OW26467   2.285   0.288   6.013
 8523SOL    HW126468   2.311   0.346   6.091
 8523SOL    HW226469   2.304   0.192   6.035
 8524SOL     OW26470   1.309   2.709   4.639
 8524SOL    HW126471   1.387   2.752   4.593
 8524SOL    HW226472   1.337   2.676   4.729
 8525SOL     OW26473   6.324   3.859   2.669
 8525SOL    HW126474   6.226   3.872   2.683
 8525SOL    HW226475   6.369   3.948   2.660
 8526SOL     OW26476   2.881   3.696   1.735
 8526SOL    HW126477   2.791   3.669   1.701
 8526SOL    HW226478   2.942   3.617   1.734
 8527SOL     OW26479   4.011   0.618   4.606
 8527SOL    HW126480   4.015   0.562   4.523
 8527SOL    HW226481   4.062   0.573   4.679
 8528SOL     OW26482   4.864   3.601   6.031
 8528SOL    HW126483   4.791   3.549   6.076
 8528SOL    HW226484   4.953   3.574   6.069
 8529SOL     OW26485   1.111   6.267   7.003
 8529SOL    HW126486   1.053   6.230   0.049
 8529SOL    HW226487   1.087   6.223   6.917
 8530SOL     OW26488   0.870   5.221   4.942
 8530SOL    HW126489   0.903   5.180   5.027
 8530SOL    HW226490   0.883   5.157   4.866
 8531SOL     OW26491   5.637   4.439   3.438
 8531SOL    HW126492   5.581   4.380   3.380
 8531SOL    HW226493   5.578   4.503   3.487
 8532SOL     OW26494   4.207   4.800   5.121
 8532SOL    HW126495   4.134   4.846   5.069
 8532SOL    HW226496   4.260   4.743   5.059
 8533SOL     OW26497   1.967   1.078   5.754
 8533SOL    HW126498   1.881   1.032   5.732
 8533SOL    HW226499   1.948   1.172   5.783
 8534SOL     OW26500   0.409   4.971   2.672
 8534SOL    HW126501   0.344   5.046   2.658
 8534SOL    HW226502   0.414   4.917   2.588
 8535SOL     OW26503   0.543   1.868   4.790
 8535SOL    HW126504   0.450   1.857   4.823
 8535SOL    HW226505   0.605   1.878   4.867
 8536SOL     OW26506   6.243   2.772   5.057
 8536SOL    HW126507   6.238   2.672   5.067
 8536SOL    HW226508   6.278   2.812   5.142
 8537SOL     OW26509   6.285   1.106   1.224
 8537SOL    HW126510   6.337   1.190   1.214
 8537SOL    HW226511   6.346   1.031   1.249
 8538SOL     OW26512   0.265   0.707   5.114
 8538SOL    HW126513   0.288   0.688   5.210
 8538SOL    HW226514   0.322   0.781   5.080
 8539SOL     OW26515   6.429   2.474   2.811
 8539SOL    HW126516   6.337   2.509   2.826
 8539SOL    HW226517   6.496   2.545   2.832
 8540SOL     OW26518   3.429   1.408   1.184
 8540SOL    HW126519   3.348   1.424   1.128
 8540SOL    HW226520   3.470   1.495   1.210
 8541SOL     OW26521   2.827   1.417   5.401
 8541SOL    HW126522   2.806   1.429   5.498
 8541SOL    HW226523   2.817   1.504   5.353
 8542SOL     OW26524   2.971   4.334   6.527
 8542SOL    HW126525   2.989   4.251   6.580
 8542SOL    HW226526   2.916   4.397   6.582
 8543SOL     OW26527   2.577   1.893   5.322
 8543SOL    HW126528   2.514   1.830   5.369
 8543SOL    HW226529   2.603   1.966   5.385
 8544SOL     OW26530   5.270   3.527   5.235
 8544SOL    HW126531   5.267   3.467   5.315
 8544SOL    HW226532   5.345   3.498   5.175
 8545SOL     OW26533   2.982   6.443   4.686
 8545SOL    HW126534   2.990   6.539   4.715
 8545SOL    HW226535   2.962   6.386   4.765
 8546SOL     OW26536   5.384   0.527   1.026
 8546SOL    HW126537   5.391   0.591   1.103
 8546SOL    HW226538   5.377   0.579   0.941
 8547SOL     OW26539   6.948   0.049   5.586
 8547SOL    HW126540   6.857   0.029   5.622
 8547SOL    HW226541   6.958   0.147   5.572
 8548SOL     OW26542   0.246   3.340   5.306
 8548SOL    HW126543   0.201   3.306   5.223
 8548SOL    HW226544   0.179   3.385   5.364
 8549SOL     OW26545   1.070   1.949   3.631
 8549SOL    HW126546   1.144   1.883   3.628
 8549SOL    HW226547   1.051   1.982   3.538
 8550SOL     OW26548   0.403   3.890   6.374
 8550SOL    HW126549   0.489   3.892   6.322
 8550SOL    HW226550   0.412   3.827   6.450
 8551SOL     OW26551   2.268   2.298   6.666
 8551SOL    HW126552   2.315   2.376   6.624
 8551SOL    HW226553   2.170   2.316   6.671
 8552SOL     OW26554   3.378   0.486   1.779
 8552SOL    HW126555   3.308   0.555   1.797
 8552SOL    HW226556   3.468   0.526   1.791
 8553SOL     OW26557   3.876   3.712   0.630
 8553SOL    HW126558   3.932   3.722   0.712
 8553SOL    HW226559   3.934   3.718   0.548
 8554SOL     OW26560   0.976   6.949   1.292
 8554SOL    HW126561   1.073   6.954   1.316
 8554SOL    HW226562   0.966   6.935   1.194
 8555SOL     OW26563   4.333   1.845   3.396
 8555SOL    HW126564   4.420   1.797   3.387
 8555SOL    HW226565   4.307   1.850   3.492
 8556SOL     OW26566   1.522   6.167   5.832
 8556SOL    HW126567   1.504   6.146   5.928
 8556SOL    HW226568   1.619   6.155   5.813
 8557SOL     OW26569   6.772   0.933   0.734
 8557SOL    HW126570   6.787   0.878   0.816
 8557SOL    HW226571   6.825   1.018   0.740
 8558SOL     OW26572   1.936   4.682   3.539
 8558SOL    HW126573   2.011   4.713   3.597
 8558SOL    HW226574   1.953   4.588   3.510
 8559SOL     OW26575   0.486   6.761   2.882
 8559SOL    HW126576   0.485   6.777   2.783
 8559SOL    HW226577   0.563   6.703   2.905
 8560SOL     OW26578   1.352   5.400   1.396
 8560SOL    HW126579   1.352   5.332   1.322
 8560SOL    HW226580   1.409   5.478   1.370
 8561SOL     OW26581   4.054   0.399   3.270
 8561SOL    HW126582   4.094   0.390   3.178
 8561SOL    HW226583   4.094   0.479   3.315
 8562SOL     OW26584   3.952   0.760   6.748
 8562SOL    HW126585   4.004   0.738   6.830
 8562SOL    HW226586   3.866   0.805   6.773
 8563SOL     OW26587   1.414   6.096   2.279
 8563SOL    HW126588   1.417   6.120   2.182
 8563SOL    HW226589   1.361   6.164   2.329
 8564SOL     OW26590   3.875   6.229   6.256
 8564SOL    HW126591   3.853   6.238   6.159
 8564SOL    HW226592   3.883   6.132   6.280
 8565SOL     OW26593   3.762   5.183   1.503
 8565SOL    HW126594   3.740   5.143   1.414
 8565SOL    HW226595   3.858   5.209   1.505
 8566SOL     OW26596   2.965   0.767   2.983
 8566SOL    HW126597   2.892   0.834   2.997
 8566SOL    HW226598   2.981   0.755   2.885
 8567SOL     OW26599   1.719   2.018   1.622
 8567SOL    HW126600   1.813   2.025   1.657
 8567SOL    HW226601   1.720   2.035   1.523
 8568SOL     OW26602   0.122   1.342   0.357
 8568SOL    HW126603   0.054   1.289   0.408
 8568SOL    HW226604   0.172   1.401   0.420
 8569SOL     OW26605   4.715   2.318   6.176
 8569SOL    HW126606   4.766   2.380   6.118
 8569SOL    HW226607   4.736   2.336   6.272
 8570SOL     OW26608   1.634   1.691   4.518
 8570SOL    HW126609   1.665   1.732   4.604
 8570SOL    HW226610   1.540   1.721   4.499
 8571SOL     OW26611   1.432   1.173   5.012
 8571SOL    HW126612   1.428   1.185   4.913
 8571SOL    HW226613   1.494   1.098   5.035
 8572SOL     OW26614   2.379   3.900   5.903
 8572SOL    HW126615   2.463   3.847   5.913
 8572SOL    HW226616   2.341   3.886   5.812
 8573SOL     OW26617   2.759   5.905   6.651
 8573SOL    HW126618   2.711   5.902   6.563
 8573SOL    HW226619   2.732   5.988   6.700
 8574SOL     OW26620   6.302   6.763   6.460
 8574SOL    HW126621   6.266   6.770   6.552
 8574SOL    HW226622   6.339   6.851   6.432
 8575SOL     OW26623   3.301   0.909   2.392
 8575SOL    HW126624   3.341   0.909   2.483
 8575SOL    HW226625   3.374   0.917   2.324
 8576SOL     OW26626   1.385   4.089   4.634
 8576SOL    HW126627   1.431   4.024   4.573
 8576SOL    HW226628   1.400   4.063   4.729
 8577SOL     OW26629   1.537   1.124   5.950
 8577SOL    HW126630   1.562   1.212   5.909
 8577SOL    HW226631   1.456   1.136   6.008
 8578SOL     OW26632   6.367   6.494   5.415
 8578SOL    HW126633   6.387   6.447   5.501
 8578SOL    HW226634   6.273   6.527   5.416
 8579SOL     OW26635   2.361   6.404   2.245
 8579SOL    HW126636   2.384   6.467   2.171
 8579SOL    HW226637   2.303   6.451   2.312
 8580SOL     OW26638   1.192   6.450   0.737
 8580SOL    HW126639   1.125   6.376   0.739
 8580SOL    HW226640   1.160   6.522   0.675
 8581SOL     OW26641   3.846   4.840   1.562
 8581SOL    HW126642   3.762   4.786   1.565
 8581SOL    HW226643   3.922   4.781   1.533
 8582SOL     OW26644   4.626   4.607   5.553
 8582SOL    HW126645   4.647   4.520   5.598
 8582SOL    HW226646   4.600   4.674   5.621
 8583SOL     OW26647   4.108   0.010   3.181
 8583SOL    HW126648   4.173   0.076   3.143
 8583SOL    HW226649   4.122   0.003   3.280
 8584SOL     OW26650   0.152   0.698   4.650
 8584SOL    HW126651   0.104   0.768   4.598
 8584SOL    HW226652   0.175   0.621   4.591
 8585SOL     OW26653   5.918   1.447   1.160
 8585SOL    HW126654   5.863   1.507   1.102
 8585SOL    HW226655   5.922   1.486   1.253
 8586SOL     OW26656   5.163   6.387   1.289
 8586SOL    HW126657   5.130   6.379   1.383
 8586SOL    HW226658   5.159   6.298   1.244
 8587SOL     OW26659   0.960   1.885   4.604
 8587SOL    HW126660   0.886   1.828   4.570
 8587SOL    HW226661   0.939   1.915   4.697
 8588SOL     OW26662   4.079   0.986   6.886
 8588SOL    HW126663   4.117   1.031   6.967
 8588SOL    HW226664   4.129   0.900   6.870
 8589SOL     OW26665   6.557   2.902   4.828
 8589SOL    HW126666   6.599   2.877   4.741
 8589SOL    HW226667   6.606   2.981   4.867
 8590SOL     OW26668   0.133   0.223   3.069
 8590SOL    HW126669   0.200   0.210   3.141
 8590SOL    HW226670   0.114   0.321   3.057
 8591SOL     OW26671   6.635   4.499   0.341
 8591SOL    HW126672   6.655   4.428   0.272
 8591SOL    HW226673   6.650   4.462   0.432
 8592SOL     OW26674   0.025   2.676   0.229
 8592SOL    HW126675   0.107   2.620   0.221
 8592SOL    HW226676   0.032   2.735   0.309
 8593SOL     OW26677   3.238   1.167   6.927
 8593SOL    HW126678   3.308   1.119   6.874
 8593SOL    HW226679   3.151   1.120   6.918
 8594SOL     OW26680   6.321   2.839   5.800
 8594SOL    HW126681   6.420   2.835   5.791
 8594SOL    HW226682   6.294   2.931   5.830
 8595SOL     OW26683   5.626   0.399   3.721
 8595SOL    HW126684   5.648   0.439   3.633
 8595SOL    HW226685   5.682   0.442   3.792
 8596SOL     OW26686   1.190   4.118   3.407
 8596SOL    HW126687   1.198   4.063   3.491
 8596SOL    HW226688   1.147   4.206   3.429
 8597SOL     OW26689   5.985   2.402   0.816
 8597SOL    HW126690   6.022   2.360   0.899
 8597SOL    HW226691   5.888   2.422   0.829
 8598SOL     OW26692   5.441   0.367   5.454
 8598SOL    HW126693   5.405   0.412   5.536
 8598SOL    HW226694   5.535   0.338   5.470
 8599SOL     OW26695   1.388   2.826   3.925
 8599SOL    HW126696   1.454   2.825   3.850
 8599SOL    HW226697   1.306   2.776   3.898
 8600SOL     OW26698   5.051   3.783   1.121
 8600SOL    HW126699   5.021   3.691   1.095
 8600SOL    HW226700   5.028   3.799   1.217
 8601SOL     OW26701   7.002   1.134   3.948
 8601SOL    HW126702   0.013   1.049   3.985
 8601SOL    HW226703   0.046   1.204   3.945
 8602SOL     OW26704   2.769   6.534   3.164
 8602SOL    HW126705   2.702   6.527   3.089
 8602SOL    HW226706   2.852   6.578   3.129
 8603SOL     OW26707   5.880   1.021   6.225
 8603SOL    HW126708   5.862   0.962   6.304
 8603SOL    HW226709   5.795   1.063   6.194
 8604SOL     OW26710   0.658   2.651   6.187
 8604SOL    HW126711   0.647   2.711   6.108
 8604SOL    HW226712   0.655   2.706   6.271
 8605SOL     OW26713   1.062   4.318   4.254
 8605SOL    HW126714   1.057   4.286   4.160
 8605SOL    HW226715   1.155   4.350   4.274
 8606SOL     OW26716   3.230   2.095   0.132
 8606SOL    HW126717   3.203   2.111   0.037
 8606SOL    HW226718   3.297   2.021   0.135
 8607SOL     OW26719   2.260   4.783   6.903
 8607SOL    HW126720   2.247   4.685   6.893
 8607SOL    HW226721   2.342   4.811   6.852
 8608SOL     OW26722   2.273   4.967   2.490
 8608SOL    HW126723   2.202   4.945   2.423
 8608SOL    HW226724   2.337   5.033   2.450
 8609SOL     OW26725   5.062   0.599   4.040
 8609SOL    HW126726   5.053   0.653   4.124
 8609SOL    HW226727   4.985   0.617   3.979
 8610SOL     OW26728   6.916   6.851   3.268
 8610SOL    HW126729   6.930   6.942   3.230
 8610SOL    HW226730   6.883   6.790   3.197
 8611SOL     OW26731   2.554   1.154   4.608
 8611SOL    HW126732   2.610   1.227   4.569
 8611SOL    HW226733   2.458   1.175   4.594
 8612SOL     OW26734   2.896   3.499   2.158
 8612SOL    HW126735   2.847   3.585   2.158
 8612SOL    HW226736   2.888   3.455   2.069
 8613SOL     OW26737   2.492   2.586   1.788
 8613SOL    HW126738   2.540   2.669   1.817
 8613SOL    HW226739   2.492   2.581   1.688
 8614SOL     OW26740   1.398   2.625   3.027
 8614SOL    HW126741   1.308   2.646   3.064
 8614SOL    HW226742   1.455   2.707   3.030
 8615SOL     OW26743   4.393   1.750   5.148
 8615SOL    HW126744   4.343   1.799   5.076
 8615SOL    HW226745   4.491   1.767   5.138
 8616SOL     OW26746   2.347   4.549   1.673
 8616SOL    HW126747   2.344   4.593   1.583
 8616SOL    HW226748   2.442   4.536   1.701
 8617SOL     OW26749   5.708   0.670   4.109
 8617SOL    HW126750   5.745   0.603   4.044
 8617SOL    HW226751   5.609   0.679   4.095
 8618SOL     OW26752   6.914   3.928   0.913
 8618SOL    HW126753   6.982   3.867   0.872
 8618SOL    HW226754   6.960   4.011   0.946
 8619SOL     OW26755   4.444   5.226   3.312
 8619SOL    HW126756   4.363   5.174   3.339
 8619SOL    HW226757   4.526   5.176   3.340
 8620SOL     OW26758   1.578   0.261   4.449
 8620SOL    HW126759   1.604   0.290   4.541
 8620SOL    HW226760   1.540   0.340   4.400
 8621SOL     OW26761   4.808   2.907   2.324
 8621SOL    HW126762   4.804   2.916   2.423
 8621SOL    HW226763   4.721   2.936   2.284
 8622SOL     OW26764   6.024   5.298   1.653
 8622SOL    HW126765   6.018   5.224   1.586
 8622SOL    HW226766   6.116   5.300   1.693
 8623SOL     OW26767   7.002   3.548   4.896
 8623SOL    HW126768   6.987   3.576   4.801
 8623SOL    HW226769   0.059   3.495   4.902
 8624SOL     OW26770   3.698   3.819   6.127
 8624SOL    HW126771   3.607   3.861   6.125
 8624SOL    HW226772   3.688   3.720   6.142
 8625SOL     OW26773   4.470   1.083   6.253
 8625SOL    HW126774   4.381   1.043   6.277
 8625SOL    HW226775   4.470   1.180   6.277
 8626SOL     OW26776   3.925   3.293   0.129
 8626SOL    HW126777   3.901   3.388   0.110
 8626SOL    HW226778   4.009   3.290   0.184
 8627SOL     OW26779   2.276   1.528   2.656
 8627SOL    HW126780   2.332   1.566   2.730
 8627SOL    HW226781   2.335   1.479   2.592
 8628SOL     OW26782   6.677   6.734   0.336
 8628SOL    HW126783   6.601   6.799   0.336
 8628SOL    HW226784   6.714   6.727   0.243
 8629SOL     OW26785   1.244   6.843   5.145
 8629SOL    HW126786   1.341   6.843   5.169
 8629SOL    HW226787   1.191   6.884   5.219
 8630SOL     OW26788   4.773   3.946   3.890
 8630SOL    HW126789   4.788   3.943   3.989
 8630SOL    HW226790   4.677   3.924   3.871
 8631SOL     OW26791   1.548   6.332   6.122
 8631SOL    HW126792   1.560   6.234   6.112
 8631SOL    HW226793   1.604   6.366   6.198
 8632SOL     OW26794   3.889   4.172   5.520
 8632SOL    HW126795   3.881   4.156   5.422
 8632SOL    HW226796   3.827   4.245   5.548
 8633SOL     OW26797   5.797   3.705   5.872
 8633SOL    HW126798   5.827   3.785   5.925
 8633SOL    HW226799   5.859   3.628   5.890
 8634SOL     OW26800   5.536   4.548   0.141
 8634SOL    HW126801   5.609   4.484   0.119
 8634SOL    HW226802   5.554   4.591   0.229
 8635SOL     OW26803   6.164   2.117   6.877
 8635SOL    HW126804   6.252   2.162   6.888
 8635SOL    HW226805   6.099   2.152   6.944
 8636SOL     OW26806   4.316   5.463   0.670
 8636SOL    HW126807   4.368   5.541   0.635
 8636SOL    HW226808   4.261   5.492   0.748
 8637SOL     OW26809   2.232   1.372   6.272
 8637SOL    HW126810   2.257   1.276   6.259
 8637SOL    HW226811   2.164   1.379   6.345
 8638SOL     OW26812   3.943   2.562   5.354
 8638SOL    HW126813   4.024   2.548   5.297
 8638SOL    HW226814   3.884   2.482   5.347
 8639SOL     OW26815   4.901   3.709   7.006
 8639SOL    HW126816   4.969   3.779   0.002
 8639SOL    HW226817   4.811   3.739   0.010
 8640SOL     OW26818   4.146   3.195   1.146
 8640SOL    HW126819   4.088   3.262   1.101
 8640SOL    HW226820   4.124   3.192   1.244
 8641SOL     OW26821   4.277   5.207   4.199
 8641SOL    HW126822   4.198   5.145   4.205
 8641SOL    HW226823   4.361   5.153   4.207
 8642SOL     OW26824   0.122   7.007   3.441
 8642SOL    HW126825   0.085   0.068   3.467
 8642SOL    HW226826   0.050   6.953   3.397
 8643SOL     OW26827   2.067   6.943   0.550
 8643SOL    HW126828   2.066   0.002   0.500
 8643SOL    HW226829   2.093   6.869   0.489
 8644SOL     OW26830   6.490   2.486   6.469
 8644SOL    HW126831   6.468   2.477   6.372
 8644SOL    HW226832   6.484   2.397   6.514
 8645SOL     OW26833   4.832   5.355   1.479
 8645SOL    HW126834   4.746   5.392   1.446
 8645SOL    HW226835   4.886   5.320   1.402
 8646SOL     OW26836   0.318   1.949   6.929
 8646SOL    HW126837   0.379   1.994   6.863
 8646SOL    HW226838   0.223   1.977   6.910
 8647SOL     OW26839   2.646   5.447   0.541
 8647SOL    HW126840   2.704   5.380   0.495
 8647SOL    HW226841   2.613   5.409   0.628
 8648SOL     OW26842   5.523   6.388   0.879
 8648SOL    HW126843   5.567   6.474   0.907
 8648SOL    HW226844   5.593   6.324   0.847
 8649SOL     OW26845   4.986   6.532   0.010
 8649SOL    HW126846   4.932   6.546   6.954
 8649SOL    HW226847   5.082   6.517   7.013
 8650SOL     OW26848   1.616   6.813   4.321
 8650SOL    HW126849   1.532   6.856   4.354
 8650SOL    HW226850   1.663   6.768   4.396
 8651SOL     OW26851   2.931   1.727   0.821
 8651SOL    HW126852   2.900   1.748   0.914
 8651SOL    HW226853   3.017   1.775   0.803
 8652SOL     OW26854   0.895   4.754   3.943
 8652SOL    HW126855   0.989   4.720   3.950
 8652SOL    HW226856   0.837   4.684   3.902
 8653SOL     OW26857   6.792   1.652   5.424
 8653SOL    HW126858   6.763   1.689   5.512
 8653SOL    HW226859   6.768   1.555   5.418
 8654SOL     OW26860   1.030   4.851   0.952
 8654SOL    HW126861   1.047   4.909   0.873
 8654SOL    HW226862   0.933   4.856   0.978
 8655SOL     OW26863   6.625   1.236   5.119
 8655SOL    HW126864   6.629   1.145   5.077
 8655SOL    HW226865   6.587   1.228   5.211
 8656SOL     OW26866   5.419   0.610   1.964
 8656SOL    HW126867   5.388   0.623   2.058
 8656SOL    HW226868   5.496   0.546   1.963
 8657SOL     OW26869   5.754   5.883   0.018
 8657SOL    HW126870   5.713   5.834   6.969
 8657SOL    HW226871   5.779   5.975   7.016
 8658SOL     OW26872   5.794   5.611   0.584
 8658SOL    HW126873   5.854   5.681   0.544
 8658SOL    HW226874   5.704   5.616   0.541
 8659SOL     OW26875   4.532   2.275   2.916
 8659SOL    HW126876   4.503   2.185   2.886
 8659SOL    HW226877   4.460   2.317   2.971
 8660SOL     OW26878   6.995   2.508   2.241
 8660SOL    HW126879   0.028   2.551   2.308
 8660SOL    HW226880   6.928   2.451   2.289
 8661SOL     OW26881   5.869   3.931   2.482
 8661SOL    HW126882   5.898   3.865   2.413
 8661SOL    HW226883   5.776   3.962   2.462
 8662SOL     OW26884   3.777   6.303   2.137
 8662SOL    HW126885   3.859   6.346   2.175
 8662SOL    HW226886   3.754   6.223   2.192
 8663SOL     OW26887   2.656   5.353   2.830
 8663SOL    HW126888   2.605   5.370   2.914
 8663SOL    HW226889   2.599   5.301   2.766
 8664SOL     OW26890   2.673   5.776   2.596
 8664SOL    HW126891   2.734   5.709   2.638
 8664SOL    HW226892   2.640   5.840   2.667
 8665SOL     OW26893   6.596   5.484   4.937
 8665SOL    HW126894   6.511   5.487   4.884
 8665SOL    HW226895   6.602   5.565   4.995
 8666SOL     OW26896   5.687   0.336   4.508
 8666SOL    HW126897   5.677   0.430   4.474
 8666SOL    HW226898   5.744   0.283   4.445
 8667SOL     OW26899   5.355   1.193   4.639
 8667SOL    HW126900   5.291   1.180   4.714
 8667SOL    HW226901   5.422   1.264   4.664
 8668SOL     OW26902   5.231   3.100   4.655
 8668SOL    HW126903   5.322   3.083   4.691
 8668SOL    HW226904   5.180   3.157   4.719
 8669SOL     OW26905   6.691   6.403   6.734
 8669SOL    HW126906   6.782   6.422   6.769
 8669SOL    HW226907   6.677   6.451   6.648
 8670SOL     OW26908   4.984   5.093   5.966
 8670SOL    HW126909   4.978   5.186   6.001
 8670SOL    HW226910   4.962   5.092   5.868
 8671SOL     OW26911   0.755   1.701   2.312
 8671SOL    HW126912   0.785   1.796   2.304
 8671SOL    HW226913   0.662   1.698   2.350
 8672SOL     OW26914   0.326   6.930   3.616
 8672SOL    HW126915   0.242   6.950   3.566
 8672SOL    HW226916   0.390   6.883   3.556
 8673SOL     OW26917   0.067   1.077   0.238
 8673SOL    HW126918   0.091   1.169   0.269
 8673SOL    HW226919   0.075   1.013   0.314
 8674SOL     OW26920   6.516   4.608   2.958
 8674SOL    HW126921   6.584   4.665   3.002
 8674SOL    HW226922   6.434   4.662   2.938
 8675SOL     OW26923   3.857   1.309   5.990
 8675SOL    HW126924   3.880   1.392   5.938
 8675SOL    HW226925   3.843   1.233   5.927
 8676SOL     OW26926   5.108   1.121   1.443
 8676SOL    HW126927   5.204   1.106   1.419
 8676SOL    HW226928   5.050   1.063   1.387
 8677SOL     OW26929   1.740   5.808   5.757
 8677SOL    HW126930   1.806   5.861   5.703
 8677SOL    HW226931   1.760   5.820   5.854
 8678SOL     OW26932   0.791   6.764   0.648
 8678SOL    HW126933   0.755   6.699   0.580
 8678SOL    HW226934   0.878   6.801   0.615
 8679SOL     OW26935   2.017   1.131   4.163
 8679SOL    HW126936   1.974   1.218   4.140
 8679SOL    HW226937   2.053   1.088   4.080
 8680SOL     OW26938   6.326   2.638   6.613
 8680SOL    HW126939   6.398   2.600   6.555
 8680SOL    HW226940   6.309   2.575   6.690
 8681SOL     OW26941   4.570   5.145   1.140
 8681SOL    HW126942   4.667   5.120   1.149
 8681SOL    HW226943   4.515   5.085   1.198
 8682SOL     OW26944   0.109   6.965   1.155
 8682SOL    HW126945   0.155   6.988   1.069
 8682SOL    HW226946   0.155   6.886   1.196
 8683SOL     OW26947   1.586   2.912   4.727
 8683SOL    HW126948   1.676   2.870   4.717
 8683SOL    HW226949   1.546   2.930   4.637
 8684SOL     OW26950   6.819   3.786   4.873
 8684SOL    HW126951   6.862   3.764   4.961
 8684SOL    HW226952   6.720   3.774   4.880
 8685SOL     OW26953   5.554   2.669   6.223
 8685SOL    HW126954   5.459   2.647   6.244
 8685SOL    HW226955   5.588   2.735   6.289
 8686SOL     OW26956   6.081   7.000   2.751
 8686SOL    HW126957   6.146   6.953   2.810
 8686SOL    HW226958   5.993   7.008   2.797
 8687SOL     OW26959   6.095   4.790   3.102
 8687SOL    HW126960   6.077   4.699   3.139
 8687SOL    HW226961   6.077   4.859   3.173
 8688SOL     OW26962   1.510   4.177   6.781
 8688SOL    HW126963   1.533   4.272   6.757
 8688SOL    HW226964   1.552   4.115   6.715
 8689SOL     OW26965   4.919   3.514   0.732
 8689SOL    HW126966   4.967   3.595   0.697
 8689SOL    HW226967   4.838   3.497   0.675
 8690SOL     OW26968   0.415   2.793   3.156
 8690SOL    HW126969   0.447   2.846   3.078
 8690SOL    HW226970   0.447   2.836   3.241
 8691SOL     OW26971   3.686   1.162   5.249
 8691SOL    HW126972   3.671   1.252   5.208
 8691SOL    HW226973   3.709   1.096   5.177
 8692SOL     OW26974   3.525   1.275   5.431
 8692SOL    HW126975   3.589   1.219   5.379
 8692SOL    HW226976   3.575   1.338   5.491
 8693SOL     OW26977   6.756   1.352   6.504
 8693SOL    HW126978   6.790   1.431   6.554
 8693SOL    HW226979   6.827   1.316   6.445
 8694SOL     OW26980   5.684   2.031   5.088
 8694SOL    HW126981   5.716   1.963   5.021
 8694SOL    HW226982   5.610   2.084   5.047
 8695SOL     OW26983   4.182   3.128   5.978
 8695SOL    HW126984   4.146   3.059   5.915
 8695SOL    HW226985   4.190   3.215   5.929
 8696SOL     OW26986   2.701   5.740   4.743
 8696SOL    HW126987   2.677   5.728   4.646
 8696SOL    HW226988   2.628   5.701   4.800
 8697SOL     OW26989   1.016   4.455   5.909
 8697SOL    HW126990   1.021   4.479   5.812
 8697SOL    HW226991   1.105   4.420   5.939
 8698SOL     OW26992   5.304   6.109   5.986
 8698SOL    HW126993   5.400   6.125   6.006
 8698SOL    HW226994   5.275   6.023   6.029
 8699SOL     OW26995   1.911   3.365   5.994
 8699SOL    HW126996   1.862   3.288   5.953
 8699SOL    HW226997   2.008   3.358   5.972
 8700SOL     OW26998   1.308   1.229   5.544
 8700SOL    HW126999   1.379   1.162   5.521
 8700SOL    HW227000   1.219   1.185   5.545
 8701SOL     OW27001   2.068   1.349   6.993
 8701SOL    HW127002   2.026   1.291   0.035
 8701SOL    HW227003   2.161   1.373   7.022
 8702SOL     OW27004   4.903   5.345   1.992
 8702SOL    HW127005   4.949   5.373   1.908
 8702SOL    HW227006   4.868   5.252   1.981
 8703SOL     OW27007   3.139   4.474   6.875
 8703SOL    HW127008   3.046   4.447   6.850
 8703SOL    HW227009   3.165   4.427   6.960
 8704SOL     OW27010   6.893   3.357   3.846
 8704SOL    HW127011   6.856   3.409   3.924
 8704SOL    HW227012   6.879   3.409   3.762
 8705SOL     OW27013   4.377   2.159   6.811
 8705SOL    HW127014   4.383   2.242   6.756
 8705SOL    HW227015   4.464   2.110   6.808
 8706SOL     OW27016   5.864   2.860   0.182
 8706SOL    HW127017   5.824   2.772   0.208
 8706SOL    HW227018   5.953   2.844   0.139
 8707SOL     OW27019   0.801   2.684   3.539
 8707SOL    HW127020   0.783   2.766   3.484
 8707SOL    HW227021   0.898   2.660   3.532
 8708SOL     OW27022   4.347   1.767   4.277
 8708SOL    HW127023   4.350   1.715   4.362
 8708SOL    HW227024   4.439   1.776   4.239
 8709SOL     OW27025   6.820   6.956   6.900
 8709SOL    HW127026   6.813   0.021   6.861
 8709SOL    HW227027   6.885   6.903   6.845
 8710SOL     OW27028   1.910   2.219   3.541
 8710SOL    HW127029   1.912   2.166   3.457
 8710SOL    HW227030   1.998   2.264   3.554
 8711SOL     OW27031   1.458   0.522   1.627
 8711SOL    HW127032   1.455   0.586   1.704
 8711SOL    HW227033   1.366   0.488   1.610
 8712SOL     OW27034   2.843   1.803   4.571
 8712SOL    HW127035   2.927   1.793   4.517
 8712SOL    HW227036   2.862   1.780   4.666
 8713SOL     OW27037   0.229   4.140   1.459
 8713SOL    HW127038   0.209   4.209   1.529
 8713SOL    HW227039   0.327   4.125   1.453
 8714SOL     OW27040   0.615   6.338   0.048
 8714SOL    HW127041   0.631   6.280   0.127
 8714SOL    HW227042   0.700   6.349   7.024
 8715SOL     OW27043   3.277   1.838   6.874
 8715SOL    HW127044   3.360   1.888   6.899
 8715SOL    HW227045   3.278   1.819   6.776
 8716SOL     OW27046   6.985   6.880   0.753
 8716SOL    HW127047   6.916   6.825   0.705
 8716SOL    HW227048   6.940   6.938   0.821
 8717SOL     OW27049   2.341   3.128   6.157
 8717SOL    HW127050   2.275   3.057   6.180
 8717SOL    HW227051   2.394   3.100   6.077
 8718SOL     OW27052   1.589   2.766   6.224
 8718SOL    HW127053   1.650   2.709   6.279
 8718SOL    HW227054   1.628   2.858   6.217
 8719SOL     OW27055   4.183   1.138   0.092
 8719SOL    HW127056   4.085   1.141   0.111
 8719SOL    HW227057   4.211   1.224   0.049
 8720SOL     OW27058   0.104   5.274   5.891
 8720SOL    HW127059   0.146   5.251   5.980
 8720SOL    HW227060   0.020   5.325   5.906
 8721SOL     OW27061   6.403   6.878   0.451
 8721SOL    HW127062   6.487   6.914   0.491
 8721SOL    HW227063   6.379   6.932   0.370
 8722SOL     OW27064   3.371   0.973   0.492
 8722SOL    HW127065   3.434   0.996   0.566
 8722SOL    HW227066   3.326   1.057   0.460
 8723SOL     OW27067   5.646   6.852   2.551
 8723SOL    HW127068   5.653   6.922   2.479
 8723SOL    HW227069   5.569   6.873   2.611
 8724SOL     OW27070   5.311   0.214   4.496
 8724SOL    HW127071   5.339   0.145   4.430
 8724SOL    HW227072   5.229   0.261   4.464
 8725SOL     OW27073   0.715   6.357   4.793
 8725SOL    HW127074   0.715   6.277   4.732
 8725SOL    HW227075   0.651   6.341   4.868
 8726SOL     OW27076   6.948   1.236   0.507
 8726SOL    HW127077   6.853   1.225   0.478
 8726SOL    HW227078   6.956   1.210   0.604
 8727SOL     OW27079   5.706   0.040   7.026
 8727SOL    HW127080   5.740   0.032   0.092
 8727SOL    HW227081   5.766   7.016   6.964
 8728SOL     OW27082   5.344   1.434   2.279
 8728SOL    HW127083   5.358   1.519   2.228
 8728SOL    HW227084   5.279   1.450   2.353
 8729SOL     OW27085   2.838   5.635   5.503
 8729SOL    HW127086   2.820   5.670   5.595
 8729SOL    HW227087   2.767   5.668   5.441
 8730SOL     OW27088   4.839   4.748   3.275
 8730SOL    HW127089   4.773   4.822   3.281
 8730SOL    HW227090   4.931   4.786   3.265
 8731SOL     OW27091   0.742   2.980   2.971
 8731SOL    HW127092   0.733   3.035   3.054
 8731SOL    HW227093   0.675   3.012   2.903
 8732SOL     OW27094   5.398   4.615   1.184
 8732SOL    HW127095   5.309   4.652   1.211
 8732SOL    HW227096   5.432   4.553   1.255
 8733SOL     OW27097   0.710   5.874   1.221
 8733SOL    HW127098   0.705   5.911   1.128
 8733SOL    HW227099   0.805   5.852   1.243
 8734SOL     OW27100   6.996   3.394   2.454
 8734SOL    HW127101   6.999   3.492   2.432
 8734SOL    HW227102   6.985   3.383   2.553
 8735SOL     OW27103   1.237   3.647   5.117
 8735SOL    HW127104   1.206   3.552   5.116
 8735SOL    HW227105   1.161   3.707   5.093
 8736SOL     OW27106   0.805   5.263   1.935
 8736SOL    HW127107   0.806   5.254   1.835
 8736SOL    HW227108   0.715   5.236   1.970
 8737SOL     OW27109   2.849   6.063   6.022
 8737SOL    HW127110   2.771   6.103   6.070
 8737SOL    HW227111   2.934   6.098   6.060
 8738SOL     OW27112   1.730   4.243   3.333
 8738SOL    HW127113   1.714   4.331   3.288
 8738SOL    HW227114   1.643   4.200   3.355
 8739SOL     OW27115   5.464   4.420   4.911
 8739SOL    HW127116   5.413   4.426   4.826
 8739SOL    HW227117   5.485   4.324   4.931
 8740SOL     OW27118   3.946   2.169   2.440
 8740SOL    HW127119   4.023   2.214   2.484
 8740SOL    HW227120   3.959   2.168   2.341
 8741SOL     OW27121   2.732   0.276   2.176
 8741SOL    HW127122   2.724   0.226   2.089
 8741SOL    HW227123   2.735   0.374   2.158
 8742SOL     OW27124   4.034   0.925   2.470
 8742SOL    HW127125   4.026   1.015   2.427
 8742SOL    HW227126   3.962   0.916   2.539
 8743SOL     OW27127   1.993   1.317   2.409
 8743SOL    HW127128   1.970   1.377   2.332
 8743SOL    HW227129   1.967   1.363   2.494
 8744SOL     OW27130   4.507   2.808   0.186
 8744SOL    HW127131   4.587   2.750   0.173
 8744SOL    HW227132   4.431   2.753   0.219
 8745SOL     OW27133   6.865   2.392   6.149
 8745SOL    HW127134   6.880   2.484   6.114
 8745SOL    HW227135   6.875   2.391   6.248
 8746SOL     OW27136   4.744   5.751   4.510
 8746SOL    HW127137   4.772   5.733   4.604
 8746SOL    HW227138   4.719   5.664   4.465
 8747SOL     OW27139   6.884   1.364   1.976
 8747SOL    HW127140   6.865   1.333   2.069
 8747SOL    HW227141   6.808   1.420   1.944
 8748SOL     OW27142   1.275   1.585   4.063
 8748SOL    HW127143   1.229   1.525   3.997
 8748SOL    HW227144   1.286   1.676   4.023
 8749SOL     OW27145   2.151   1.214   5.482
 8749SOL    HW127146   2.174   1.248   5.391
 8749SOL    HW227147   2.051   1.213   5.493
 8750SOL     OW27148   4.037   2.957   5.354
 8750SOL    HW127149   4.070   3.049   5.372
 8750SOL    HW227150   4.074   2.894   5.423
 8751SOL     OW27151   6.820   0.311   0.641
 8751SOL    HW127152   6.874   0.285   0.721
 8751SOL    HW227153   6.834   0.408   0.621
 8752SOL     OW27154   5.363   2.929   6.867
 8752SOL    HW127155   5.438   2.990   6.894
 8752SOL    HW227156   5.361   2.922   6.768
 8753SOL     OW27157   2.247   3.783   6.764
 8753SOL    HW127158   2.257   3.690   6.729
 8753SOL    HW227159   2.332   3.812   6.809
 8754SOL     OW27160   3.145   4.932   5.853
 8754SOL    HW127161   3.223   4.892   5.805
 8754SOL    HW227162   3.177   4.978   5.936
 8755SOL     OW27163   1.279   0.920   1.016
 8755SOL    HW127164   1.368   0.909   1.061
 8755SOL    HW227165   1.294   0.948   0.921
 8756SOL     OW27166   1.831   2.953   3.319
 8756SOL    HW127167   1.902   2.882   3.315
 8756SOL    HW227168   1.818   2.991   3.227
 8757SOL     OW27169   5.095   6.281   5.979
 8757SOL    HW127170   5.170   6.218   5.999
 8757SOL    HW227171   5.128   6.375   5.985
 8758SOL     OW27172   4.380   6.818   3.407
 8758SOL    HW127173   4.390   6.855   3.499
 8758SOL    HW227174   4.465   6.832   3.356
 8759SOL     OW27175   5.879   1.886   0.116
 8759SOL    HW127176   5.868   1.819   0.043
 8759SOL    HW227177   5.955   1.947   0.094
 8760SOL     OW27178   2.209   2.189   3.897
 8760SOL    HW127179   2.224   2.241   3.813
 8760SOL    HW227180   2.287   2.202   3.959
 8761SOL     OW27181   5.903   2.065   1.807
 8761SOL    HW127182   5.996   2.036   1.828
 8761SOL    HW227183   5.873   2.133   1.874
 8762SOL     OW27184   1.851   6.063   3.673
 8762SOL    HW127185   1.784   6.134   3.690
 8762SOL    HW227186   1.865   6.053   3.574
 8763SOL     OW27187   6.759   0.727   4.583
 8763SOL    HW127188   6.691   0.655   4.586
 8763SOL    HW227189   6.840   0.699   4.635
 8764SOL     OW27190   4.571   5.944   6.389
 8764SOL    HW127191   4.589   6.023   6.331
 8764SOL    HW227192   4.508   5.882   6.343
 8765SOL     OW27193   5.450   1.040   5.000
 8765SOL    HW127194   5.478   0.947   5.026
 8765SOL    HW227195   5.526   1.087   4.955
 8766SOL     OW27196   4.321   4.162   5.323
 8766SOL    HW127197   4.281   4.241   5.278
 8766SOL    HW227198   4.385   4.192   5.394
 8767SOL     OW27199   3.444   0.384   3.762
 8767SOL    HW127200   3.384   0.411   3.837
 8767SOL    HW227201   3.486   0.296   3.784
 8768SOL     OW27202   0.935   2.252   0.294
 8768SOL    HW127203   1.017   2.306   0.315
 8768SOL    HW227204   0.924   2.181   0.364
 8769SOL     OW27205   6.912   1.008   1.942
 8769SOL    HW127206   7.010   1.022   1.958
 8769SOL    HW227207   6.899   0.940   1.871
 8770SOL     OW27208   5.596   4.513   1.871
 8770SOL    HW127209   5.688   4.486   1.845
 8770SOL    HW227210   5.529   4.456   1.824
 8771SOL     OW27211   0.671   3.046   6.049
 8771SOL    HW127212   0.636   2.958   6.019
 8771SOL    HW227213   0.771   3.041   6.060
 8772SOL     OW27214   5.133   0.908   5.393
 8772SOL    HW127215   5.155   0.912   5.295
 8772SOL    HW227216   5.218   0.902   5.446
 8773SOL     OW27217   6.078   2.637   3.620
 8773SOL    HW127218   6.112   2.731   3.628
 8773SOL    HW227219   6.006   2.622   3.688
 8774SOL     OW27220   0.492   6.901   6.261
 8774SOL    HW127221   0.569   6.876   6.320
 8774SOL    HW227222   0.505   6.861   6.171
 8775SOL     OW27223   5.482   1.546   5.390
 8775SOL    HW127224   5.532   1.622   5.348
 8775SOL    HW227225   5.529   1.460   5.369
 8776SOL     OW27226   5.022   3.400   1.532
 8776SOL    HW127227   4.998   3.388   1.436
 8776SOL    HW227228   5.100   3.340   1.554
 8777SOL     OW27229   0.572   3.556   3.019
 8777SOL    HW127230   0.667   3.586   3.026
 8777SOL    HW227231   0.515   3.633   2.988
 8778SOL     OW27232   4.620   3.998   6.034
 8778SOL    HW127233   4.601   3.998   6.132
 8778SOL    HW227234   4.717   3.983   6.019
 8779SOL     OW27235   2.546   5.674   2.199
 8779SOL    HW127236   2.532   5.772   2.213
 8779SOL    HW227237   2.644   5.655   2.195
 8780SOL     OW27238   0.675   6.157   2.715
 8780SOL    HW127239   0.624   6.085   2.670
 8780SOL    HW227240   0.747   6.117   2.772
 8781SOL     OW27241   4.269   6.810   2.977
 8781SOL    HW127242   4.183   6.856   2.999
 8781SOL    HW227243   4.270   6.719   3.018
 8782SOL     OW27244   5.901   1.285   2.095
 8782SOL    HW127245   5.859   1.218   2.156
 8782SOL    HW227246   5.973   1.241   2.041
 8783SOL     OW27247   5.933   3.207   4.240
 8783SOL    HW127248   5.946   3.132   4.176
 8783SOL    HW227249   5.984   3.288   4.208
 8784SOL     OW27250   6.244   6.232   0.580
 8784SOL    HW127251   6.293   6.238   0.493
 8784SOL    HW227252   6.292   6.170   0.642
 8785SOL     OW27253   0.659   5.488   6.139
 8785SOL    HW127254   0.596   5.435   6.082
 8785SOL    HW227255   0.674   5.439   6.225
 8786SOL     OW27256   4.019   1.913   2.565
 8786SOL    HW127257   3.949   1.843   2.572
 8786SOL    HW227258   3.991   1.982   2.498
 8787SOL     OW27259   3.522   0.653   1.361
 8787SOL    HW127260   3.507   0.746   1.394
 8787SOL    HW227261   3.515   0.651   1.261
 8788SOL     OW27262   6.863   0.837   5.331
 8788SOL    HW127263   6.876   0.835   5.232
 8788SOL    HW227264   6.895   0.924   5.368
 8789SOL     OW27265   6.834   4.052   5.235
 8789SOL    HW127266   6.925   4.076   5.269
 8789SOL    HW227267   6.803   4.121   5.170
 8790SOL     OW27268   6.346   1.940   0.281
 8790SOL    HW127269   6.319   1.940   0.185
 8790SOL    HW227270   6.314   1.857   0.325
 8791SOL     OW27271   4.643   6.409   4.984
 8791SOL    HW127272   4.742   6.420   4.983
 8791SOL    HW227273   4.620   6.326   5.034
 8792SOL     OW27274   3.302   5.478   2.486
 8792SOL    HW127275   3.203   5.474   2.475
 8792SOL    HW227276   3.327   5.565   2.529
 8793SOL     OW27277   0.868   4.622   4.521
 8793SOL    HW127278   0.872   4.684   4.443
 8793SOL    HW227279   0.783   4.637   4.571
 8794SOL     OW27280   6.281   1.034   3.388
 8794SOL    HW127281   6.376   1.055   3.409
 8794SOL    HW227282   6.237   1.114   3.348
 8795SOL     OW27283   1.255   5.137   5.148
 8795SOL    HW127284   1.297   5.051   5.178
 8795SOL    HW227285   1.167   5.149   5.195
 8796SOL     OW27286   6.226   3.849   3.197
 8796SOL    HW127287   6.273   3.834   3.110
 8796SOL    HW227288   6.273   3.798   3.269
 8797SOL     OW27289   0.229   0.024   4.200
 8797SOL    HW127290   0.239   6.953   4.188
 8797SOL    HW227291   0.300   0.058   4.261
 8798SOL     OW27292   4.455   6.616   5.640
 8798SOL    HW127293   4.530   6.638   5.702
 8798SOL    HW227294   4.401   6.699   5.623
 8799SOL     OW27295   2.212   4.606   2.257
 8799SOL    HW127296   2.232   4.607   2.159
 8799SOL    HW227297   2.295   4.631   2.308
 8800SOL     OW27298   6.175   6.080   5.601
 8800SOL    HW127299   6.196   6.039   5.512
 8800SOL    HW227300   6.219   6.028   5.674
 8801SOL     OW27301   6.041   1.904   5.384
 8801SOL    HW127302   6.132   1.902   5.342
 8801SOL    HW227303   5.986   1.974   5.340
 8802SOL     OW27304   1.196   5.826   5.167
 8802SOL    HW127305   1.223   5.923   5.172
 8802SOL    HW227306   1.225   5.780   5.251
 8803SOL     OW27307   6.841   0.984   0.210
 8803SOL    HW127308   6.932   1.025   0.212
 8803SOL    HW227309   6.804   0.981   0.303
 8804SOL     OW27310   2.199   6.208   0.881
 8804SOL    HW127311   2.105   6.181   0.904
 8804SOL    HW227312   2.204   6.230   0.783
 8805SOL     OW27313   4.280   5.427   3.574
 8805SOL    HW127314   4.358   5.489   3.573
 8805SOL    HW227315   4.291   5.361   3.648
 8806SOL     OW27316   2.337   5.839   0.418
 8806SOL    HW127317   2.310   5.872   0.509
 8806SOL    HW227318   2.351   5.740   0.421
 8807SOL     OW27319   4.517   2.167   0.033
 8807SOL    HW127320   4.501   2.073   0.062
 8807SOL    HW227321   4.432   2.219   0.038
 8808SOL     OW27322   1.155   2.466   6.843
 8808SOL    HW127323   1.154   2.376   6.886
 8808SOL    HW227324   1.142   2.456   6.745
 8809SOL     OW27325   2.200   4.104   3.265
 8809SOL    HW127326   2.173   4.078   3.357
 8809SOL    HW227327   2.278   4.048   3.236
 8810SOL     OW27328   6.090   1.325   5.350
 8810SOL    HW127329   6.164   1.277   5.302
 8810SOL    HW227330   6.042   1.261   5.410
 8811SOL     OW27331   4.449   0.343   2.728
 8811SOL    HW127332   4.351   0.363   2.736
 8811SOL    HW227333   4.497   0.427   2.703
 8812SOL     OW27334   3.158   0.249   6.756
 8812SOL    HW127335   3.248   0.252   6.711
 8812SOL    HW227336   3.171   0.241   6.855
 8813SOL     OW27337   2.374   4.325   2.400
 8813SOL    HW127338   2.315   4.308   2.480
 8813SOL    HW227339   2.345   4.266   2.325
 8814SOL     OW27340   5.447   6.552   0.547
 8814SOL    HW127341   5.524   6.492   0.525
 8814SOL    HW227342   5.412   6.593   0.463
 8815SOL     OW27343   5.361   0.729   1.250
 8815SOL    HW127344   5.409   0.727   1.338
 8815SOL    HW227345   5.263   0.718   1.265
 8816SOL     OW27346   0.035   6.705   6.789
 8816SOL    HW127347   0.105   6.761   6.832
 8816SOL    HW227348   0.077   6.646   6.719
 8817SOL     OW27349   0.831   3.353   4.073
 8817SOL    HW127350   0.852   3.351   4.170
 8817SOL    HW227351   0.740   3.392   4.059
 8818SOL     OW27352   1.571   6.562   3.043
 8818SOL    HW127353   1.634   6.639   3.050
 8818SOL    HW227354   1.477   6.594   3.058
 8819SOL     OW27355   5.899   4.674   5.117
 8819SOL    HW127356   5.831   4.717   5.058
 8819SOL    HW227357   5.937   4.743   5.180
 8820SOL     OW27358   3.030   1.532   4.711
 8820SOL    HW127359   3.091   1.583   4.650
 8820SOL    HW227360   3.006   1.588   4.790
 8821SOL     OW27361   0.843   4.960   0.326
 8821SOL    HW127362   0.843   5.043   0.382
 8821SOL    HW227363   0.841   4.985   0.229
 8822SOL     OW27364   0.066   0.478   3.150
 8822SOL    HW127365   0.104   0.496   3.241
 8822SOL    HW227366   6.995   0.462   3.157
 8823SOL     OW27367   2.195   0.615   2.510
 8823SOL    HW127368   2.145   0.541   2.466
 8823SOL    HW227369   2.290   0.614   2.480
 8824SOL     OW27370   1.681   6.998   1.263
 8824SOL    HW127371   1.736   6.919   1.237
 8824SOL    HW227372   1.730   0.055   1.239
 8825SOL     OW27373   0.373   0.769   1.469
 8825SOL    HW127374   0.427   0.840   1.425
 8825SOL    HW227375   0.386   0.682   1.421
 8826SOL     OW27376   1.024   3.305   0.820
 8826SOL    HW127377   0.993   3.371   0.753
 8826SOL    HW227378   1.108   3.337   0.863
 8827SOL     OW27379   3.994   0.657   2.402
 8827SOL    HW127380   3.964   0.604   2.322
 8827SOL    HW227381   4.020   0.749   2.373
 8828SOL     OW27382   4.198   4.256   6.526
 8828SOL    HW127383   4.288   4.224   6.497
 8828SOL    HW227384   4.167   4.329   6.465
 8829SOL     OW27385   6.183   1.831   2.060
 8829SOL    HW127386   6.214   1.761   1.996
 8829SOL    HW227387   6.211   1.807   2.153
 8830SOL     OW27388   1.528   1.550   2.499
 8830SOL    HW127389   1.544   1.643   2.465
 8830SOL    HW227390   1.514   1.552   2.597
 8831SOL     OW27391   6.505   3.103   2.493
 8831SOL    HW127392   6.492   3.199   2.466
 8831SOL    HW227393   6.563   3.057   2.427
 8832SOL     OW27394   0.158   6.474   4.365
 8832SOL    HW127395   0.065   6.456   4.330
 8832SOL    HW227396   0.176   6.572   4.360
 8833SOL     OW27397   3.683   3.784   0.817
 8833SOL    HW127398   3.664   3.873   0.777
 8833SOL    HW227399   3.757   3.739   0.766
 8834SOL     OW27400   5.850   3.406   5.018
 8834SOL    HW127401   5.854   3.349   5.100
 8834SOL    HW227402   5.796   3.488   5.037
 8835SOL     OW27403   5.744   1.208   5.817
 8835SOL    HW127404   5.794   1.285   5.777
 8835SOL    HW227405   5.802   1.127   5.818
 8836SOL     OW27406   6.194   2.341   0.660
 8836SOL    HW127407   6.115   2.355   0.719
 8836SOL    HW227408   6.252   2.422   0.661
 8837SOL     OW27409   0.129   0.263   1.691
 8837SOL    HW127410   0.083   0.322   1.625
 8837SOL    HW227411   0.075   0.181   1.707
 8838SOL     OW27412   0.739   4.678   2.340
 8838SOL    HW127413   0.823   4.732   2.334
 8838SOL    HW227414   0.723   4.631   2.254
 8839SOL     OW27415   4.906   5.613   2.532
 8839SOL    HW127416   4.846   5.656   2.600
 8839SOL    HW227417   4.852   5.581   2.455
 8840SOL     OW27418   6.106   0.360   1.937
 8840SOL    HW127419   6.117   0.347   1.838
 8840SOL    HW227420   6.145   0.448   1.963
 8841SOL     OW27421   4.440   0.697   2.100
 8841SOL    HW127422   4.371   0.768   2.092
 8841SOL    HW227423   4.531   0.739   2.109
 8842SOL     OW27424   3.347   4.077   4.430
 8842SOL    HW127425   3.276   4.039   4.370
 8842SOL    HW227426   3.323   4.170   4.456
 8843SOL     OW27427   1.774   3.256   4.677
 8843SOL    HW127428   1.831   3.181   4.710
 8843SOL    HW227429   1.832   3.331   4.647
 8844SOL     OW27430   0.046   2.359   5.195
 8844SOL    HW127431   0.004   2.349   5.105
 8844SOL    HW227432   0.089   2.273   5.222
 8845SOL     OW27433   2.092   5.152   0.884
 8845SOL    HW127434   2.012   5.209   0.899
 8845SOL    HW227435   2.126   5.165   0.791
 8846SOL     OW27436   5.541   4.924   4.067
 8846SOL    HW127437   5.481   5.002   4.051
 8846SOL    HW227438   5.622   4.953   4.119
 8847SOL     OW27439   1.532   0.981   2.359
 8847SOL    HW127440   1.491   1.050   2.418
 8847SOL    HW227441   1.629   0.971   2.381
 8848SOL     OW27442   3.277   1.995   2.103
 8848SOL    HW127443   3.187   1.990   2.147
 8848SOL    HW227444   3.270   2.046   2.017
 8849SOL     OW27445   2.910   5.183   4.080
 8849SOL    HW127446   2.943   5.235   4.159
 8849SOL    HW227447   2.935   5.231   3.996
 8850SOL     OW27448   2.916   1.112   0.992
 8850SOL    HW127449   2.947   1.024   0.957
 8850SOL    HW227450   2.943   1.121   1.089
 8851SOL     OW27451   0.980   4.424   2.071
 8851SOL    HW127452   0.990   4.523   2.075
 8851SOL    HW227453   1.060   4.381   2.112
 8852SOL     OW27454   5.068   3.031   6.428
 8852SOL    HW127455   5.034   2.988   6.345
 8852SOL    HW227456   5.068   3.130   6.416
 8853SOL     OW27457   3.875   0.802   4.427
 8853SOL    HW127458   3.841   0.883   4.473
 8853SOL    HW227459   3.931   0.749   4.490
 8854SOL     OW27460   2.333   0.474   6.327
 8854SOL    HW127461   2.254   0.490   6.387
 8854SOL    HW227462   2.402   0.544   6.344
 8855SOL     OW27463   6.594   5.724   0.034
 8855SOL    HW127464   6.513   5.669   0.052
 8855SOL    HW227465   6.676   5.669   0.052
 8856SOL     OW27466   6.735   0.081   5.035
 8856SOL    HW127467   6.776   0.120   4.952
 8856SOL    HW227468   6.654   0.028   5.010
 8857SOL     OW27469   6.425   1.724   3.371
 8857SOL    HW127470   6.466   1.655   3.430
 8857SOL    HW227471   6.327   1.730   3.389
 8858SOL     OW27472   1.757   3.338   5.640
 8858SOL    HW127473   1.780   3.314   5.546
 8858SOL    HW227474   1.815   3.413   5.670
 8859SOL     OW27475   0.856   0.016   5.449
 8859SOL    HW127476   0.832   0.074   5.371
 8859SOL    HW227477   0.781   6.982   5.470
 8860SOL     OW27478   1.792   3.875   2.606
 8860SOL    HW127479   1.824   3.963   2.572
 8860SOL    HW227480   1.816   3.866   2.703
 8861SOL     OW27481   3.360   2.635   6.396
 8861SOL    HW127482   3.300   2.667   6.470
 8861SOL    HW227483   3.445   2.688   6.398
 8862SOL     OW27484   5.990   1.484   3.796
 8862SOL    HW127485   6.058   1.425   3.753
 8862SOL    HW227486   6.030   1.528   3.877
 8863SOL     OW27487   1.985   5.404   4.437
 8863SOL    HW127488   1.966   5.426   4.342
 8863SOL    HW227489   1.899   5.382   4.484
 8864SOL     OW27490   2.471   3.270   6.363
 8864SOL    HW127491   2.483   3.366   6.338
 8864SOL    HW227492   2.422   3.223   6.290
 8865SOL     OW27493   3.078   0.994   4.567
 8865SOL    HW127494   3.122   1.040   4.644
 8865SOL    HW227495   3.115   1.030   4.481
 8866SOL     OW27496   4.389   6.484   3.450
 8866SOL    HW127497   4.333   6.562   3.477
 8866SOL    HW227498   4.332   6.418   3.401
 8867SOL     OW27499   5.268   2.759   3.093
 8867SOL    HW127500   5.355   2.720   3.062
 8867SOL    HW227501   5.210   2.775   3.014
 8868SOL     OW27502   5.530   3.697   0.615
 8868SOL    HW127503   5.573   3.693   0.706
 8868SOL    HW227504   5.593   3.742   0.551
 8869SOL     OW27505   4.250   5.074   3.411
 8869SOL    HW127506   4.219   5.080   3.506
 8869SOL    HW227507   4.172   5.066   3.350
 8870SOL     OW27508   2.935   0.249   0.825
 8870SOL    HW127509   2.846   0.204   0.814
 8870SOL    HW227510   2.985   0.206   0.899
 8871SOL     OW27511   3.319   1.772   3.623
 8871SOL    HW127512   3.232   1.812   3.653
 8871SOL    HW227513   3.302   1.681   3.584
 8872SOL     OW27514   1.661   3.742   4.476
 8872SOL    HW127515   1.737   3.746   4.541
 8872SOL    HW227516   1.656   3.650   4.437
 8873SOL     OW27517   6.292   5.950   1.951
 8873SOL    HW127518   6.276   5.967   2.048
 8873SOL    HW227519   6.205   5.956   1.901
 8874SOL     OW27520   2.436   6.874   1.339
 8874SOL    HW127521   2.412   6.895   1.245
 8874SOL    HW227522   2.449   6.959   1.390
 8875SOL     OW27523   0.957   2.466   4.506
 8875SOL    HW127524   0.952   2.434   4.601
 8875SOL    HW227525   1.053   2.480   4.481
 8876SOL     OW27526   0.612   0.551   4.693
 8876SOL    HW127527   0.693   0.599   4.659
 8876SOL    HW227528   0.534   0.613   4.695
 8877SOL     OW27529   2.614   0.545   4.427
 8877SOL    HW127530   2.657   0.501   4.506
 8877SOL    HW227531   2.586   0.475   4.361
 8878SOL     OW27532   0.776   4.901   1.071
 8878SOL    HW127533   0.683   4.937   1.064
 8878SOL    HW227534   0.820   4.939   1.152
 8879SOL     OW27535   5.761   5.343   1.042
 8879SOL    HW127536   5.729   5.414   1.105
 8879SOL    HW227537   5.690   5.272   1.032
 8880SOL     OW27538   0.400   5.759   4.978
 8880SOL    HW127539   0.431   5.763   5.073
 8880SOL    HW227540   0.455   5.693   4.927
 8881SOL     OW27541   5.732   0.074   3.501
 8881SOL    HW127542   5.782   0.110   3.580
 8881SOL    HW227543   5.650   0.128   3.486
 8882SOL     OW27544   5.243   0.773   0.506
 8882SOL    HW127545   5.287   0.736   0.587
 8882SOL    HW227546   5.280   0.864   0.487
 8883SOL     OW27547   0.379   1.261   6.002
 8883SOL    HW127548   0.461   1.294   6.048
 8883SOL    HW227549   0.301   1.268   6.064
 8884SOL     OW27550   5.754   6.457   6.477
 8884SOL    HW127551   5.713   6.497   6.559
 8884SOL    HW227552   5.842   6.500   6.459
 8885SOL     OW27553   6.433   3.563   1.263
 8885SOL    HW127554   6.394   3.638   1.210
 8885SOL    HW227555   6.360   3.513   1.310
 8886SOL     OW27556   3.118   5.908   5.711
 8886SOL    HW127557   3.105   5.833   5.646
 8886SOL    HW227558   3.142   5.871   5.800
 8887SOL     OW27559   3.182   1.601   1.348
 8887SOL    HW127560   3.120   1.678   1.330
 8887SOL    HW227561   3.137   1.516   1.322
 8888SOL     OW27562   1.239   2.029   1.324
 8888SOL    HW127563   1.165   2.000   1.262
 8888SOL    HW227564   1.216   2.002   1.417
 8889SOL     OW27565   4.869   6.624   5.852
 8889SOL    HW127566   4.860   6.541   5.798
 8889SOL    HW227567   4.913   6.603   5.939
 8890SOL     OW27568   6.546   6.081   4.680
 8890SOL    HW127569   6.570   6.009   4.615
 8890SOL    HW227570   6.487   6.044   4.751
 8891SOL     OW27571   6.193   3.337   6.125
 8891SOL    HW127572   6.132   3.389   6.186
 8891SOL    HW227573   6.166   3.240   6.126
 8892SOL     OW27574   2.908   6.208   3.554
 8892SOL    HW127575   2.919   6.258   3.469
 8892SOL    HW227576   2.871   6.269   3.624
 8893SOL     OW27577   0.753   0.621   2.099
 8893SOL    HW127578   0.781   0.661   2.012
 8893SOL    HW227579   0.818   0.550   2.126
 8894SOL     OW27580   3.869   3.251   6.050
 8894SOL    HW127581   3.876   3.289   5.958
 8894SOL    HW227582   3.957   3.259   6.096
 8895SOL     OW27583   0.015   0.576   1.636
 8895SOL    HW127584   6.962   0.538   1.682
 8895SOL    HW227585   0.094   0.567   1.695
 8896SOL     OW27586   1.073   3.089   4.633
 8896SOL    HW127587   1.030   3.000   4.646
 8896SOL    HW227588   1.133   3.109   4.711
 8897SOL     OW27589   1.259   1.715   2.662
 8897SOL    HW127590   1.196   1.698   2.586
 8897SOL    HW227591   1.335   1.771   2.630
 8898SOL     OW27592   6.172   3.156   4.347
 8898SOL    HW127593   6.175   3.070   4.399
 8898SOL    HW227594   6.078   3.178   4.323
 8899SOL     OW27595   1.582   4.213   0.069
 8899SOL    HW127596   1.669   4.213   0.018
 8899SOL    HW227597   1.527   4.135   0.040
 8900SOL     OW27598   5.524   3.793   2.717
 8900SOL    HW127599   5.433   3.784   2.757
 8900SOL    HW227600   5.581   3.717   2.749
 8901SOL     OW27601   3.022   0.746   4.016
 8901SOL    HW127602   3.093   0.746   4.087
 8901SOL    HW227603   2.948   0.808   4.044
 8902SOL     OW27604   3.248   6.046   6.513
 8902SOL    HW127605   3.280   5.960   6.473
 8902SOL    HW227606   3.148   6.050   6.505
 8903SOL     OW27607   2.521   0.979   4.116
 8903SOL    HW127608   2.559   1.071   4.113
 8903SOL    HW227609   2.474   0.966   4.203
 8904SOL     OW27610   6.990   5.088   3.657
 8904SOL    HW127611   7.019   5.075   3.562
 8904SOL    HW227612   6.920   5.020   3.680
 8905SOL     OW27613   2.003   4.008   4.321
 8905SOL    HW127614   1.940   3.933   4.301
 8905SOL    HW227615   1.954   4.095   4.315
 8906SOL     OW27616   6.749   6.709   6.697
 8906SOL    HW127617   6.758   6.767   6.616
 8906SOL    HW227618   6.838   6.670   6.720
 8907SOL     OW27619   3.186   2.036   5.066
 8907SOL    HW127620   3.284   2.055   5.059
 8907SOL    HW227621   3.136   2.123   5.071
 8908SOL     OW27622   1.514   3.285   6.895
 8908SOL    HW127623   1.584   3.215   6.881
 8908SOL    HW227624   1.443   3.251   6.957
 8909SOL     OW27625   1.861   0.264   5.174
 8909SOL    HW127626   1.789   0.333   5.174
 8909SOL    HW227627   1.830   0.185   5.122
 8910SOL     OW27628   1.900   2.897   6.111
 8910SOL    HW127629   1.818   2.934   6.154
 8910SOL    HW227630   1.894   2.908   6.012
 8911SOL     OW27631   3.480   2.142   5.008
 8911SOL    HW127632   3.557   2.188   4.964
 8911SOL    HW227633   3.492   2.146   5.108
 8912SOL     OW27634   3.976   1.204   6.763
 8912SOL    HW127635   3.882   1.226   6.788
 8912SOL    HW227636   4.006   1.123   6.813
 8913SOL     OW27637   5.053   5.017   0.935
 8913SOL    HW127638   5.091   5.062   1.016
 8913SOL    HW227639   4.963   4.979   0.957
 8914SOL     OW27640   4.556   0.982   5.843
 8914SOL    HW127641   4.607   0.953   5.762
 8914SOL    HW227642   4.512   0.903   5.885
 8915SOL     OW27643   0.867   2.228   3.822
 8915SOL    HW127644   0.773   2.253   3.845
 8915SOL    HW227645   0.917   2.204   3.906
 8916SOL     OW27646   0.685   3.466   2.129
 8916SOL    HW127647   0.694   3.443   2.226
 8916SOL    HW227648   0.730   3.395   2.074
 8917SOL     OW27649   5.855   5.012   6.106
 8917SOL    HW127650   5.830   5.032   6.201
 8917SOL    HW227651   5.833   5.092   6.049
 8918SOL     OW27652   0.046   5.936   0.398
 8918SOL    HW127653   6.978   5.931   0.369
 8918SOL    HW227654   0.071   5.851   0.444
 8919SOL     OW27655   4.199   3.210   0.614
 8919SOL    HW127656   4.173   3.148   0.689
 8919SOL    HW227657   4.208   3.158   0.529
 8920SOL     OW27658   6.911   6.495   6.883
 8920SOL    HW127659   6.967   6.576   6.865
 8920SOL    HW227660   6.901   6.483   6.981
 8921SOL     OW27661   2.233   1.489   3.321
 8921SOL    HW127662   2.235   1.476   3.222
 8921SOL    HW227663   2.259   1.584   3.342
 8922SOL     OW27664   2.574   5.319   1.164
 8922SOL    HW127665   2.652   5.302   1.104
 8922SOL    HW227666   2.565   5.244   1.230
 8923SOL     OW27667   2.051   3.934   6.553
 8923SOL    HW127668   2.086   4.026   6.535
 8923SOL    HW227669   2.118   3.867   6.521
 8924SOL     OW27670   2.924   5.572   5.886
 8924SOL    HW127671   2.915   5.509   5.809
 8924SOL    HW227672   2.834   5.591   5.924
 8925SOL     OW27673   0.963   0.444   2.085
 8925SOL    HW127674   0.983   0.373   2.017
 8925SOL    HW227675   0.949   0.402   2.175
 8926SOL     OW27676   5.800   2.936   0.922
 8926SOL    HW127677   5.848   2.884   0.851
 8926SOL    HW227678   5.713   2.890   0.942
 8927SOL     OW27679   1.977   1.893   5.136
 8927SOL    HW127680   1.938   1.971   5.186
 8927SOL    HW227681   2.062   1.922   5.091
 8928SOL     OW27682   6.974   0.802   5.052
 8928SOL    HW127683   7.024   0.886   5.074
 8928SOL    HW227684   7.025   0.750   4.983
 8929SOL     OW27685   0.347   3.558   3.770
 8929SOL    HW127686   0.390   3.643   3.742
 8929SOL    HW227687   0.247   3.565   3.758
 8930SOL     OW27688   1.480   4.877   4.912
 8930SOL    HW127689   1.414   4.883   4.987
 8930SOL    HW227690   1.465   4.792   4.861
 8931SOL     OW27691   3.924   2.867   0.659
 8931SOL    HW127692   3.903   2.929   0.583
 8931SOL    HW227693   3.995   2.802   0.630
 8932SOL     OW27694   5.208   0.142   6.997
 8932SOL    HW127695   5.303   0.152   6.970
 8932SOL    HW227696   5.177   0.049   6.977
 8933SOL     OW27697   0.710   2.084   5.419
 8933SOL    HW127698   0.792   2.027   5.409
 8933SOL    HW227699   0.680   2.115   5.329
 8934SOL     OW27700   2.606   5.328   3.796
 8934SOL    HW127701   2.623   5.423   3.768
 8934SOL    HW227702   2.668   5.267   3.747
 8935SOL     OW27703   4.955   3.928   1.773
 8935SOL    HW127704   5.004   3.842   1.762
 8935SOL    HW227705   4.931   3.965   1.683
 8936SOL     OW27706   0.573   3.276   0.638
 8936SOL    HW127707   0.511   3.311   0.708
 8936SOL    HW227708   0.627   3.201   0.676
 8937SOL     OW27709   0.368   1.042   3.881
 8937SOL    HW127710   0.340   0.948   3.896
 8937SOL    HW227711   0.330   1.075   3.795
 8938SOL     OW27712   6.405   1.480   0.739
 8938SOL    HW127713   6.381   1.396   0.690
 8938SOL    HW227714   6.463   1.537   0.681
 8939SOL     OW27715   6.659   2.824   4.582
 8939SOL    HW127716   6.678   2.904   4.524
 8939SOL    HW227717   6.680   2.740   4.531
 8940SOL     OW27718   5.975   2.520   0.323
 8940SOL    HW127719   5.993   2.422   0.309
 8940SOL    HW227720   5.898   2.548   0.266
 8941SOL     OW27721   5.125   2.369   1.612
 8941SOL    HW127722   5.037   2.346   1.654
 8941SOL    HW227723   5.197   2.364   1.681
 8942SOL     OW27724   0.331   4.995   4.095
 8942SOL    HW127725   0.403   4.927   4.108
 8942SOL    HW227726   0.364   5.084   4.127
 8943SOL     OW27727   4.324   4.539   0.176
 8943SOL    HW127728   4.258   4.506   0.108
 8943SOL    HW227729   4.288   4.523   0.267
 8944SOL     OW27730   4.897   4.856   4.342
 8944SOL    HW127731   4.950   4.869   4.258
 8944SOL    HW227732   4.934   4.914   4.414
 8945SOL     OW27733   6.678   3.106   4.953
 8945SOL    HW127734   6.729   3.188   4.927
 8945SOL    HW227735   6.714   3.070   5.039
 8946SOL     OW27736   3.608   0.417   4.674
 8946SOL    HW127737   3.528   0.472   4.649
 8946SOL    HW227738   3.678   0.426   4.603
 8947SOL     OW27739   1.697   4.320   6.442
 8947SOL    HW127740   1.768   4.373   6.396
 8947SOL    HW227741   1.678   4.361   6.532
 8948SOL     OW27742   6.781   6.263   4.034
 8948SOL    HW127743   6.701   6.315   4.064
 8948SOL    HW227744   6.800   6.283   3.938
 8949SOL     OW27745   3.676   5.819   6.908
 8949SOL    HW127746   3.763   5.815   6.957
 8949SOL    HW227747   3.692   5.805   6.810
 8950SOL     OW27748   4.688   3.707   1.152
 8950SOL    HW127749   4.724   3.797   1.125
 8950SOL    HW227750   4.622   3.719   1.226
 8951SOL     OW27751   2.323   1.289   4.591
 8951SOL    HW127752   2.299   1.327   4.680
 8951SOL    HW227753   2.256   1.319   4.523
 8952SOL     OW27754   2.128   4.762   3.701
 8952SOL    HW127755   2.158   4.680   3.750
 8952SOL    HW227756   2.125   4.839   3.764
 8953SOL     OW27757   2.716   5.368   1.550
 8953SOL    HW127758   2.810   5.341   1.567
 8953SOL    HW227759   2.697   5.454   1.598
 8954SOL     OW27760   0.858   5.821   3.950
 8954SOL    HW127761   0.947   5.804   3.907
 8954SOL    HW227762   0.836   5.918   3.942
 8955SOL     OW27763   7.002   2.953   2.723
 8955SOL    HW127764   6.932   2.922   2.659
 8955SOL    HW227765   0.035   3.018   2.676
 8956SOL     OW27766   0.766   6.832   6.655
 8956SOL    HW127767   0.841   6.836   6.588
 8956SOL    HW227768   0.704   6.909   6.639
 8957SOL     OW27769   1.990   5.430   1.802
 8957SOL    HW127770   1.906   5.377   1.794
 8957SOL    HW227771   1.984   5.512   1.745
 8958SOL     OW27772   1.621   2.561   4.736
 8958SOL    HW127773   1.678   2.606   4.668
 8958SOL    HW227774   1.648   2.464   4.744
 8959SOL     OW27775   0.996   3.517   2.344
 8959SOL    HW127776   0.904   3.493   2.315
 8959SOL    HW227777   1.043   3.436   2.378
 8960SOL     OW27778   6.575   4.893   4.228
 8960SOL    HW127779   6.485   4.854   4.245
 8960SOL    HW227780   6.610   4.861   4.140
 8961SOL     OW27781   3.458   0.572   4.143
 8961SOL    HW127782   3.506   0.601   4.226
 8961SOL    HW227783   3.525   0.561   4.069
 8962SOL     OW27784   0.650   6.217   2.069
 8962SOL    HW127785   0.560   6.260   2.076
 8962SOL    HW227786   0.721   6.288   2.070
 8963SOL     OW27787   3.552   5.954   4.532
 8963SOL    HW127788   3.470   5.906   4.562
 8963SOL    HW227789   3.632   5.897   4.550
 8964SOL     OW27790   5.556   4.041   2.594
 8964SOL    HW127791   5.553   4.084   2.684
 8964SOL    HW227792   5.548   3.942   2.604
 8965SOL     OW27793   2.911   4.562   0.403
 8965SOL    HW127794   2.935   4.537   0.496
 8965SOL    HW227795   2.994   4.562   0.346
 8966SOL     OW27796   6.875   5.506   6.357
 8966SOL    HW127797   6.863   5.411   6.385
 8966SOL    HW227798   6.960   5.516   6.307
 8967SOL     OW27799   4.282   0.795   3.623
 8967SOL    HW127800   4.369   0.841   3.639
 8967SOL    HW227801   4.208   0.845   3.667
 8968SOL     OW27802   2.596   4.710   1.546
 8968SOL    HW127803   2.538   4.777   1.592
 8968SOL    HW227804   2.634   4.647   1.613
 8969SOL     OW27805   0.414   0.370   3.287
 8969SOL    HW127806   0.402   0.416   3.200
 8969SOL    HW227807   0.418   0.271   3.272
 8970SOL     OW27808   1.835   2.594   6.739
 8970SOL    HW127809   1.760   2.541   6.777
 8970SOL    HW227810   1.819   2.610   6.642
 8971SOL     OW27811   4.640   6.826   1.247
 8971SOL    HW127812   4.547   6.821   1.284
 8971SOL    HW227813   4.638   6.875   1.160
 8972SOL     OW27814   5.460   4.624   0.670
 8972SOL    HW127815   5.456   4.623   0.770
 8972SOL    HW227816   5.371   4.652   0.634
 8973SOL     OW27817   0.167   2.681   2.394
 8973SOL    HW127818   0.218   2.647   2.315
 8973SOL    HW227819   0.231   2.713   2.464
 8974SOL     OW27820   2.095   3.622   3.610
 8974SOL    HW127821   2.139   3.666   3.688
 8974SOL    HW227822   2.143   3.649   3.526
 8975SOL     OW27823   0.257   6.814   6.398
 8975SOL    HW127824   0.207   6.897   6.421
 8975SOL    HW227825   0.336   6.837   6.341
 8976SOL     OW27826   6.443   6.799   1.175
 8976SOL    HW127827   6.505   6.784   1.098
 8976SOL    HW227828   6.486   6.860   1.242
 8977SOL     OW27829   7.007   4.928   6.663
 8977SOL    HW127830   6.939   4.994   6.629
 8977SOL    HW227831   6.963   4.838   6.672
 8978SOL     OW27832   5.275   6.625   5.171
 8978SOL    HW127833   5.289   6.687   5.094
 8978SOL    HW227834   5.179   6.597   5.174
 8979SOL     OW27835   1.039   5.555   6.271
 8979SOL    HW127836   1.045   5.535   6.173
 8979SOL    HW227837   1.002   5.476   6.319
 8980SOL     OW27838   4.347   2.042   5.696
 8980SOL    HW127839   4.274   2.028   5.629
 8980SOL    HW227840   4.307   2.067   5.784
 8981SOL     OW27841   4.499   2.297   5.696
 8981SOL    HW127842   4.453   2.224   5.647
 8981SOL    HW227843   4.532   2.263   5.784
 8982SOL     OW27844   6.642   1.801   1.759
 8982SOL    HW127845   6.668   1.871   1.694
 8982SOL    HW227846   6.697   1.810   1.842
 8983SOL     OW27847   1.425   5.057   1.668
 8983SOL    HW127848   1.326   5.068   1.667
 8983SOL    HW227849   1.467   5.130   1.613
 8984SOL     OW27850   6.215   6.926   4.400
 8984SOL    HW127851   6.192   6.940   4.304
 8984SOL    HW227852   6.227   7.014   4.445
 8985SOL     OW27853   4.862   1.825   0.827
 8985SOL    HW127854   4.915   1.827   0.912
 8985SOL    HW227855   4.860   1.917   0.787
 8986SOL     OW27856   5.374   4.379   2.303
 8986SOL    HW127857   5.298   4.315   2.315
 8986SOL    HW227858   5.441   4.340   2.239
 8987SOL     OW27859   2.937   0.481   1.139
 8987SOL    HW127860   2.923   0.383   1.156
 8987SOL    HW227861   3.033   0.496   1.112
 8988SOL     OW27862   1.935   5.526   1.033
 8988SOL    HW127863   2.016   5.559   1.083
 8988SOL    HW227864   1.875   5.603   1.012
 8989SOL     OW27865   5.110   3.070   2.901
 8989SOL    HW127866   5.055   3.143   2.944
 8989SOL    HW227867   5.051   2.993   2.879
 8990SOL     OW27868   2.717   6.180   0.995
 8990SOL    HW127869   2.735   6.276   1.017
 8990SOL    HW227870   2.691   6.173   0.899
 8991SOL     OW27871   2.477   2.527   1.500
 8991SOL    HW127872   2.447   2.598   1.436
 8991SOL    HW227873   2.419   2.446   1.489
 8992SOL     OW27874   0.623   3.132   0.217
 8992SOL    HW127875   0.598   3.049   0.167
 8992SOL    HW227876   0.546   3.196   0.217
 8993SOL     OW27877   4.796   2.295   3.660
 8993SOL    HW127878   4.814   2.315   3.564
 8993SOL    HW227879   4.880   2.307   3.713
 8994SOL     OW27880   1.715   4.720   4.577
 8994SOL    HW127881   1.694   4.622   4.571
 8994SOL    HW227882   1.764   4.739   4.662
 8995SOL     OW27883   1.146   2.577   5.241
 8995SOL    HW127884   1.134   2.488   5.199
 8995SOL    HW227885   1.069   2.595   5.303
 8996SOL     OW27886   0.533   3.515   1.162
 8996SOL    HW127887   0.584   3.601   1.167
 8996SOL    HW227888   0.572   3.458   1.090
 8997SOL     OW27889   5.131   1.193   5.699
 8997SOL    HW127890   5.134   1.094   5.716
 8997SOL    HW227891   5.113   1.240   5.785
 8998SOL     OW27892   6.886   2.407   4.990
 8998SOL    HW127893   6.818   2.334   4.988
 8998SOL    HW227894   6.847   2.491   4.953
 8999SOL     OW27895   5.277   1.151   6.441
 8999SOL    HW127896   5.227   1.084   6.385
 8999SOL    HW227897   5.287   1.236   6.389
 9000SOL     OW27898   3.050   4.055   7.017
 9000SOL    HW127899   2.970   4.092   6.969
 9000SOL    HW227900   3.026   4.038   0.085
 9001SOL     OW27901   1.371   4.699   3.292
 9001SOL    HW127902   1.434   4.757   3.345
 9001SOL    HW227903   1.402   4.604   3.298
 9002SOL     OW27904   0.039   5.555   5.523
 9002SOL    HW127905   6.993   5.508   5.573
 9002SOL    HW227906   0.080   5.624   5.582
 9003SOL     OW27907   6.383   2.533   0.675
 9003SOL    HW127908   6.469   2.513   0.722
 9003SOL    HW227909   6.401   2.590   0.595
 9004SOL     OW27910   4.958   6.959   1.503
 9004SOL    HW127911   4.982   6.877   1.554
 9004SOL    HW227912   4.995   6.953   1.410
 9005SOL     OW27913   5.159   2.453   4.144
 9005SOL    HW127914   5.181   2.375   4.202
 9005SOL    HW227915   5.082   2.430   4.085
 9006SOL     OW27916   1.358   5.554   0.962
 9006SOL    HW127917   1.386   5.647   0.936
 9006SOL    HW227918   1.425   5.489   0.927
 9007SOL     OW27919   3.336   5.263   3.426
 9007SOL    HW127920   3.279   5.329   3.377
 9007SOL    HW227921   3.280   5.218   3.496
 9008SOL     OW27922   6.492   4.871   2.474
 9008SOL    HW127923   6.545   4.912   2.400
 9008SOL    HW227924   6.552   4.813   2.529
 9009SOL     OW27925   2.912   6.649   0.887
 9009SOL    HW127926   2.984   6.668   0.821
 9009SOL    HW227927   2.952   6.609   0.969
 9010SOL     OW27928   0.894   7.004   4.509
 9010SOL    HW127929   0.901   6.940   4.586
 9010SOL    HW227930   0.983   7.012   4.465
 9011SOL     OW27931   3.902   2.155   1.564
 9011SOL    HW127932   3.953   2.100   1.497
 9011SOL    HW227933   3.959   2.230   1.596
 9012SOL     OW27934   1.764   5.545   0.616
 9012SOL    HW127935   1.710   5.560   0.699
 9012SOL    HW227936   1.833   5.476   0.632
 9013SOL     OW27937   6.583   5.876   4.493
 9013SOL    HW127938   6.678   5.886   4.464
 9013SOL    HW227939   6.522   5.889   4.415
 9014SOL     OW27940   1.568   1.283   0.108
 9014SOL    HW127941   1.581   1.358   0.174
 9014SOL    HW227942   1.541   1.200   0.157
 9015SOL     OW27943   0.067   1.160   6.978
 9015SOL    HW127944   0.156   1.117   6.991
 9015SOL    HW227945   0.012   1.151   0.033
 9016SOL     OW27946   6.652   6.291   5.469
 9016SOL    HW127947   6.557   6.300   5.500
 9016SOL    HW227948   6.706   6.367   5.504
 9017SOL     OW27949   6.170   2.256   3.851
 9017SOL    HW127950   6.268   2.272   3.837
 9017SOL    HW227951   6.131   2.212   3.771
 9018SOL     OW27952   3.654   1.438   5.163
 9018SOL    HW127953   3.681   1.485   5.079
 9018SOL    HW227954   3.601   1.500   5.221
 9019SOL     OW27955   2.145   6.354   6.770
 9019SOL    HW127956   2.219   6.357   6.703
 9019SOL    HW227957   2.111   6.260   6.778
 9020SOL     OW27958   1.684   3.944   2.339
 9020SOL    HW127959   1.656   4.040   2.346
 9020SOL    HW227960   1.688   3.904   2.430
 9021SOL     OW27961   6.778   6.374   3.772
 9021SOL    HW127962   6.840   6.358   3.695
 9021SOL    HW227963   6.683   6.369   3.741
 9022SOL     OW27964   2.584   0.266   0.571
 9022SOL    HW127965   2.612   0.265   0.667
 9022SOL    HW227966   2.665   0.252   0.513
 9023SOL     OW27967   3.330   3.759   3.975
 9023SOL    HW127968   3.263   3.702   4.023
 9023SOL    HW227969   3.375   3.820   4.040
 9024SOL     OW27970   1.590   6.079   6.111
 9024SOL    HW127971   1.654   6.015   6.068
 9024SOL    HW227972   1.585   6.060   6.209
 9025SOL     OW27973   6.252   5.688   1.380
 9025SOL    HW127974   6.343   5.687   1.340
 9025SOL    HW227975   6.259   5.704   1.479
 9026SOL     OW27976   3.488   3.069   4.257
 9026SOL    HW127977   3.551   3.143   4.284
 9026SOL    HW227978   3.486   3.061   4.158
 9027SOL     OW27979   2.692   2.074   3.201
 9027SOL    HW127980   2.668   1.979   3.225
 9027SOL    HW227981   2.608   2.129   3.200
 9028SOL     OW27982   1.843   4.737   6.386
 9028SOL    HW127983   1.873   4.728   6.291
 9028SOL    HW227984   1.743   4.744   6.389
 9029SOL     OW27985   3.727   5.107   4.985
 9029SOL    HW127986   3.771   5.031   4.936
 9029SOL    HW227987   3.794   5.152   5.044
 9030SOL     OW27988   1.851   0.724   2.361
 9030SOL    HW127989   1.763   0.702   2.318
 9030SOL    HW227990   1.882   0.814   2.329
 9031SOL     OW27991   3.168   5.416   5.337
 9031SOL    HW127992   3.170   5.394   5.434
 9031SOL    HW227993   3.235   5.359   5.289
 9032SOL     OW27994   3.460   2.624   1.147
 9032SOL    HW127995   3.553   2.658   1.129
 9032SOL    HW227996   3.455   2.527   1.123
 9033SOL     OW27997   2.182   2.979   4.246
 9033SOL    HW127998   2.192   3.077   4.227
 9033SOL    HW227999   2.216   2.926   4.168
 9034SOL     OW28000   2.695   6.901   5.242
 9034SOL    HW128001   2.773   6.870   5.297
 9034SOL    HW228002   2.721   6.905   5.146
 9035SOL     OW28003   0.706   6.649   5.331
 9035SOL    HW128004   0.656   6.565   5.351
 9035SOL    HW228005   0.804   6.630   5.328
 9036SOL     OW28006   2.079   2.483   5.386
 9036SOL    HW128007   2.034   2.572   5.377
 9036SOL    HW228008   2.114   2.471   5.479
 9037SOL     OW28009   2.494   3.808   6.515
 9037SOL    HW128010   2.556   3.741   6.555
 9037SOL    HW228011   2.504   3.807   6.415
 9038SOL     OW28012   5.595   0.823   5.864
 9038SOL    HW128013   5.690   0.849   5.882
 9038SOL    HW228014   5.555   0.787   5.949
 9039SOL     OW28015   1.712   4.206   5.154
 9039SOL    HW128016   1.650   4.240   5.084
 9039SOL    HW228017   1.668   4.209   5.243
 9040SOL     OW28018   2.799   0.627   3.150
 9040SOL    HW128019   2.865   0.655   3.080
 9040SOL    HW228020   2.813   0.681   3.233
 9041SOL     OW28021   0.636   1.876   2.112
 9041SOL    HW128022   0.582   1.800   2.149
 9041SOL    HW228023   0.706   1.903   2.179
 9042SOL     OW28024   2.541   0.065   3.565
 9042SOL    HW128025   2.442   0.052   3.560
 9042SOL    HW228026   2.563   0.117   3.648
 9043SOL     OW28027   1.995   2.131   5.907
 9043SOL    HW128028   1.959   2.044   5.941
 9043SOL    HW228029   1.938   2.206   5.940
 9044SOL     OW28030   6.215   1.319   0.396
 9044SOL    HW128031   6.300   1.302   0.345
 9044SOL    HW228032   6.232   1.307   0.494
 9045SOL     OW28033   4.291   0.861   2.959
 9045SOL    HW128034   4.236   0.864   2.875
 9045SOL    HW228035   4.248   0.799   3.025
 9046SOL     OW28036   3.526   4.032   5.818
 9046SOL    HW128037   3.622   4.034   5.788
 9046SOL    HW228038   3.472   4.093   5.760
 9047SOL     OW28039   2.136   3.936   5.241
 9047SOL    HW128040   2.128   3.886   5.328
 9047SOL    HW228041   2.231   3.966   5.229
 9048SOL     OW28042   1.660   3.656   5.910
 9048SOL    HW128043   1.707   3.673   5.823
 9048SOL    HW228044   1.727   3.648   5.984
 9049SOL     OW28045   5.075   6.284   6.285
 9049SOL    HW128046   5.165   6.304   6.323
 9049SOL    HW228047   5.084   6.268   6.186
 9050SOL     OW28048   0.885   4.905   0.062
 9050SOL    HW128049   0.947   4.833   0.032
 9050SOL    HW228050   0.901   4.988   0.009
 9051SOL     OW28051   4.306   6.349   0.810
 9051SOL    HW128052   4.308   6.267   0.867
 9051SOL    HW228053   4.397   6.390   0.807
 9052SOL     OW28054   2.622   4.603   4.605
 9052SOL    HW128055   2.629   4.587   4.704
 9052SOL    HW228056   2.713   4.621   4.568
 9053SOL     OW28057   2.522   2.504   3.647
 9053SOL    HW128058   2.606   2.473   3.603
 9053SOL    HW228059   2.527   2.486   3.745
 9054SOL     OW28060   1.828   0.671   2.646
 9054SOL    HW128061   1.895   0.728   2.693
 9054SOL    HW228062   1.835   0.686   2.547
 9055SOL     OW28063   0.456   3.823   3.659
 9055SOL    HW128064   0.556   3.819   3.651
 9055SOL    HW228065   0.415   3.815   3.568
 9056SOL     OW28066   4.600   0.654   1.241
 9056SOL    HW128067   4.583   0.628   1.145
 9056SOL    HW228068   4.632   0.748   1.244
 9057SOL     OW28069   6.066   4.703   6.386
 9057SOL    HW128070   5.969   4.727   6.389
 9057SOL    HW228071   6.114   4.762   6.322
 9058SOL     OW28072   1.981   2.138   4.819
 9058SOL    HW128073   1.992   2.179   4.728
 9058SOL    HW228074   2.063   2.086   4.841
 9059SOL     OW28075   6.386   0.668   3.279
 9059SOL    HW128076   6.326   0.744   3.255
 9059SOL    HW228077   6.477   0.703   3.300
 9060SOL     OW28078   6.843   3.676   2.270
 9060SOL    HW128079   6.889   3.729   2.199
 9060SOL    HW228080   6.909   3.652   2.341
 9061SOL     OW28081   4.848   5.712   3.276
 9061SOL    HW128082   4.771   5.750   3.224
 9061SOL    HW228083   4.838   5.736   3.373
 9062SOL     OW28084   1.194   4.743   1.811
 9062SOL    HW128085   1.138   4.813   1.855
 9062SOL    HW228086   1.192   4.659   1.865
 9063SOL     OW28087   3.219   1.243   2.728
 9063SOL    HW128088   3.263   1.307   2.792
 9063SOL    HW228089   3.189   1.292   2.647
 9064SOL     OW28090   6.566   4.188   4.036
 9064SOL    HW128091   6.606   4.271   3.998
 9064SOL    HW228092   6.467   4.199   4.045
 9065SOL     OW28093   2.671   5.755   5.729
 9065SOL    HW128094   2.577   5.786   5.715
 9065SOL    HW228095   2.732   5.833   5.734
 9066SOL     OW28096   6.380   0.234   6.011
 9066SOL    HW128097   6.340   0.265   6.097
 9066SOL    HW228098   6.324   0.160   5.972
 9067SOL     OW28099   6.658   6.440   4.547
 9067SOL    HW128100   6.689   6.527   4.584
 9067SOL    HW228101   6.734   6.375   4.544
 9068SOL     OW28102   3.700   0.134   5.053
 9068SOL    HW128103   3.671   0.039   5.039
 9068SOL    HW228104   3.661   0.191   4.981
 9069SOL     OW28105   4.939   2.235   3.162
 9069SOL    HW128106   4.974   2.147   3.196
 9069SOL    HW228107   4.892   2.220   3.075
 9070SOL     OW28108   1.513   2.113   6.251
 9070SOL    HW128109   1.602   2.157   6.241
 9070SOL    HW228110   1.452   2.143   6.177
 9071SOL     OW28111   5.308   0.755   6.376
 9071SOL    HW128112   5.406   0.771   6.365
 9071SOL    HW228113   5.292   0.708   6.462
 9072SOL     OW28114   5.048   6.690   1.622
 9072SOL    HW128115   5.028   6.615   1.559
 9072SOL    HW228116   5.147   6.702   1.630
 9073SOL     OW28117   3.876   6.526   0.549
 9073SOL    HW128118   3.808   6.541   0.477
 9073SOL    HW228119   3.864   6.594   0.621
 9074SOL     OW28120   1.466   1.010   1.384
 9074SOL    HW128121   1.403   1.081   1.354
 9074SOL    HW228122   1.515   0.973   1.305
 9075SOL     OW28123   0.188   0.516   2.266
 9075SOL    HW128124   0.135   0.572   2.329
 9075SOL    HW228125   0.218   0.572   2.188
 9076SOL     OW28126   4.429   1.081   4.153
 9076SOL    HW128127   4.471   0.990   4.153
 9076SOL    HW228128   4.330   1.072   4.143
 9077SOL     OW28129   4.491   1.371   6.325
 9077SOL    HW128130   4.458   1.464   6.309
 9077SOL    HW228131   4.565   1.373   6.393
 9078SOL     OW28132   5.459   4.994   6.528
 9078SOL    HW128133   5.540   5.037   6.569
 9078SOL    HW228134   5.488   4.922   6.466
 9079SOL     OW28135   1.500   0.449   5.387
 9079SOL    HW128136   1.437   0.397   5.445
 9079SOL    HW228137   1.592   0.445   5.426
 9080SOL     OW28138   6.335   2.800   6.935
 9080SOL    HW128139   6.432   2.827   6.937
 9080SOL    HW228140   6.280   2.874   6.896
 9081SOL     OW28141   3.490   1.708   1.619
 9081SOL    HW128142   3.411   1.651   1.596
 9081SOL    HW228143   3.480   1.797   1.575
 9082SOL     OW28144   2.512   6.728   4.472
 9082SOL    HW128145   2.422   6.761   4.497
 9082SOL    HW228146   2.518   6.630   4.488
 9083SOL     OW28147   4.531   3.919   6.273
 9083SOL    HW128148   4.464   3.845   6.267
 9083SOL    HW228149   4.571   3.922   6.365
 9084SOL     OW28150   1.000   2.124   6.269
 9084SOL    HW128151   0.982   2.161   6.178
 9084SOL    HW228152   0.959   2.185   6.338
 9085SOL     OW28153   2.554   5.937   1.385
 9085SOL    HW128154   2.513   5.980   1.305
 9085SOL    HW228155   2.648   5.969   1.396
 9086SOL     OW28156   6.306   4.183   0.668
 9086SOL    HW128157   6.384   4.138   0.711
 9086SOL    HW228158   6.233   4.194   0.735
 9087SOL     OW28159   5.461   3.000   2.601
 9087SOL    HW128160   5.538   3.063   2.615
 9087SOL    HW228161   5.413   2.986   2.687
 9088SOL     OW28162   5.838   0.085   1.658
 9088SOL    HW128163   5.915   0.021   1.653
 9088SOL    HW228164   5.779   0.061   1.735
 9089SOL     OW28165   4.050   5.842   5.295
 9089SOL    HW128166   3.994   5.792   5.362
 9089SOL    HW228167   3.991   5.891   5.232
 9090SOL     OW28168   4.765   6.708   4.545
 9090SOL    HW128169   4.745   6.706   4.447
 9090SOL    HW228170   4.793   6.800   4.572
 9091SOL     OW28171   3.184   2.989   0.966
 9091SOL    HW128172   3.244   2.924   1.012
 9091SOL    HW228173   3.091   2.978   1.000
 9092SOL     OW28174   1.299   1.053   6.691
 9092SOL    HW128175   1.217   1.066   6.635
 9092SOL    HW228176   1.315   1.135   6.747
 9093SOL     OW28177   1.718   6.294   6.987
 9093SOL    HW128178   1.658   6.307   0.039
 9093SOL    HW228179   1.791   6.361   6.989
 9094SOL     OW28180   0.903   5.277   2.940
 9094SOL    HW128181   0.978   5.324   2.894
 9094SOL    HW228182   0.909   5.292   3.038
 9095SOL     OW28183   5.263   3.702   5.858
 9095SOL    HW128184   5.363   3.701   5.853
 9095SOL    HW228185   5.225   3.712   5.765
 9096SOL     OW28186   5.149   3.752   2.911
 9096SOL    HW128187   5.170   3.733   2.815
 9096SOL    HW228188   5.056   3.723   2.931
 9097SOL     OW28189   0.357   3.260   0.241
 9097SOL    HW128190   0.368   3.358   0.257
 9097SOL    HW228191   0.321   3.245   0.149
 9098SOL     OW28192   3.679   3.317   0.524
 9098SOL    HW128193   3.593   3.303   0.474
 9098SOL    HW228194   3.659   3.359   0.612
 9099SOL     OW28195   3.486   3.629   0.648
 9099SOL    HW128196   3.534   3.716   0.657
 9099SOL    HW228197   3.446   3.622   0.557
 9100SOL     OW28198   1.193   3.056   2.656
 9100SOL    HW128199   1.177   3.108   2.741
 9100SOL    HW228200   1.105   3.038   2.612
 9101SOL     OW28201   1.997   2.921   2.828
 9101SOL    HW128202   2.053   2.923   2.911
 9101SOL    HW228203   1.946   2.836   2.824
 9102SOL     OW28204   3.784   6.500   1.484
 9102SOL    HW128205   3.685   6.484   1.489
 9102SOL    HW228206   3.819   6.465   1.398
 9103SOL     OW28207   6.508   3.555   0.106
 9103SOL    HW128208   6.443   3.616   0.150
 9103SOL    HW228209   6.514   3.577   0.008
 9104SOL     OW28210   4.492   6.030   2.288
 9104SOL    HW128211   4.591   6.019   2.295
 9104SOL    HW228212   4.463   6.010   2.194
 9105SOL     OW28213   1.245   0.859   0.547
 9105SOL    HW128214   1.271   0.918   0.624
 9105SOL    HW228215   1.234   0.915   0.465
 9106SOL     OW28216   5.910   3.768   6.569
 9106SOL    HW128217   5.917   3.830   6.490
 9106SOL    HW228218   5.952   3.811   6.648
 9107SOL     OW28219   3.948   0.569   6.009
 9107SOL    HW128220   3.880   0.585   5.938
 9107SOL    HW228221   4.030   0.529   5.969
 9108SOL     OW28222   4.769   4.173   5.874
 9108SOL    HW128223   4.794   4.219   5.959
 9108SOL    HW228224   4.849   4.126   5.837
 9109SOL     OW28225   1.514   2.778   2.709
 9109SOL    HW128226   1.558   2.764   2.798
 9109SOL    HW228227   1.415   2.784   2.722
 9110SOL     OW28228   1.940   4.245   3.977
 9110SOL    HW128229   1.946   4.323   3.914
 9110SOL    HW228230   2.031   4.203   3.986
 9111SOL     OW28231   4.455   3.677   0.335
 9111SOL    HW128232   4.403   3.757   0.304
 9111SOL    HW228233   4.396   3.619   0.391
 9112SOL     OW28234   0.469   4.187   4.668
 9112SOL    HW128235   0.471   4.096   4.710
 9112SOL    HW228236   0.554   4.203   4.619
 9113SOL     OW28237   4.593   6.665   0.726
 9113SOL    HW128238   4.568   6.688   0.820
 9113SOL    HW228239   4.683   6.621   0.725
 9114SOL     OW28240   1.722   5.037   1.306
 9114SOL    HW128241   1.771   5.108   1.355
 9114SOL    HW228242   1.684   4.971   1.372
 9115SOL     OW28243   1.049   5.773   6.049
 9115SOL    HW128244   1.146   5.792   6.058
 9115SOL    HW228245   0.996   5.844   6.095
 9116SOL     OW28246   6.579   2.070   0.542
 9116SOL    HW128247   6.608   2.002   0.474
 9116SOL    HW228248   6.486   2.100   0.522
 9117SOL     OW28249   6.213   2.964   0.152
 9117SOL    HW128250   6.305   2.949   0.189
 9117SOL    HW228251   6.170   2.876   0.132
 9118SOL     OW28252   6.597   5.646   0.680
 9118SOL    HW128253   6.651   5.668   0.761
 9118SOL    HW228254   6.598   5.724   0.618
 9119SOL     OW28255   5.900   1.870   2.032
 9119SOL    HW128256   5.998   1.854   2.048
 9119SOL    HW228257   5.889   1.919   1.946
 9120SOL     OW28258   5.731   3.174   5.909
 9120SOL    HW128259   5.742   3.079   5.937
 9120SOL    HW228260   5.635   3.191   5.886
 9121SOL     OW28261   2.154   2.525   6.397
 9121SOL    HW128262   2.180   2.434   6.365
 9121SOL    HW228263   2.068   2.552   6.354
 9122SOL     OW28264   1.800   3.446   1.994
 9122SOL    HW128265   1.843   3.422   1.907
 9122SOL    HW228266   1.705   3.474   1.979
 9123SOL     OW28267   3.547   0.276   4.900
 9123SOL    HW128268   3.566   0.332   4.819
 9123SOL    HW228269   3.514   0.334   4.974
 9124SOL     OW28270   5.535   0.077   5.884
 9124SOL    HW128271   5.448   0.125   5.870
 9124SOL    HW228272   5.611   0.138   5.859
 9125SOL     OW28273   5.178   3.991   1.921
 9125SOL    HW128274   5.133   4.063   1.973
 9125SOL    HW228275   5.125   3.970   1.839
 9126SOL     OW28276   5.834   2.641   2.236
 9126SOL    HW128277   5.831   2.728   2.285
 9126SOL    HW228278   5.920   2.594   2.257
 9127SOL     OW28279   6.668   1.740   6.056
 9127SOL    HW128280   6.745   1.736   5.993
 9127SOL    HW228281   6.701   1.746   6.150
 9128SOL     OW28282   4.266   1.225   5.135
 9128SOL    HW128283   4.284   1.300   5.071
 9128SOL    HW228284   4.169   1.227   5.161
 9129SOL     OW28285   0.151   3.207   1.620
 9129SOL    HW128286   0.115   3.266   1.692
 9129SOL    HW228287   0.110   3.234   1.532
 9130SOL     OW28288   6.970   3.202   0.608
 9130SOL    HW128289   7.023   3.118   0.621
 9130SOL    HW228290   6.942   3.210   0.513
 9131SOL     OW28291   6.852   3.500   5.754
 9131SOL    HW128292   6.940   3.532   5.789
 9131SOL    HW228293   6.779   3.531   5.815
 9132SOL     OW28294   6.884   4.733   4.227
 9132SOL    HW128295   6.940   4.652   4.215
 9132SOL    HW228296   6.813   4.715   4.295
 9133SOL     OW28297   3.917   6.358   1.265
 9133SOL    HW128298   4.011   6.323   1.262
 9133SOL    HW228299   3.867   6.325   1.185
 9134SOL     OW28300   4.033   5.631   0.495
 9134SOL    HW128301   4.075   5.700   0.437
 9134SOL    HW228302   4.075   5.633   0.586
 9135SOL     OW28303   6.450   6.098   1.647
 9135SOL    HW128304   6.357   6.123   1.675
 9135SOL    HW228305   6.496   6.178   1.609
 9136SOL     OW28306   5.241   5.079   6.240
 9136SOL    HW128307   5.337   5.073   6.267
 9136SOL    HW228308   5.187   5.012   6.290
 9137SOL     OW28309   5.351   2.055   1.339
 9137SOL    HW128310   5.440   2.046   1.385
 9137SOL    HW228311   5.311   2.144   1.363
 9138SOL     OW28312   6.427   5.662   5.863
 9138SOL    HW128313   6.511   5.626   5.824
 9138SOL    HW228314   6.433   5.662   5.963
 9139SOL     OW28315   2.512   1.792   4.872
 9139SOL    HW128316   2.583   1.728   4.844
 9139SOL    HW228317   2.454   1.814   4.794
 9140SOL     OW28318   5.897   3.228   2.957
 9140SOL    HW128319   5.937   3.151   3.007
 9140SOL    HW228320   5.908   3.213   2.859
 9141SOL     OW28321   5.969   0.547   6.877
 9141SOL    HW128322   6.039   0.554   6.806
 9141SOL    HW228323   5.924   0.636   6.888
 9142SOL     OW28324   1.013   2.000   1.165
 9142SOL    HW128325   0.951   1.922   1.159
 9142SOL    HW228326   0.980   2.075   1.107
 9143SOL     OW28327   5.851   2.779   1.256
 9143SOL    HW128328   5.802   2.716   1.196
 9143SOL    HW228329   5.843   2.747   1.351
 9144SOL     OW28330   2.266   5.343   5.831
 9144SOL    HW128331   2.210   5.265   5.859
 9144SOL    HW228332   2.353   5.310   5.794
 9145SOL     OW28333   6.986   5.491   0.406
 9145SOL    HW128334   6.949   5.422   0.343
 9145SOL    HW228335   6.915   5.557   0.429
 9146SOL     OW28336   5.296   3.032   3.203
 9146SOL    HW128337   5.327   3.092   3.129
 9146SOL    HW228338   5.265   2.945   3.164
 9147SOL     OW28339   5.887   0.224   4.342
 9147SOL    HW128340   5.930   0.232   4.252
 9147SOL    HW228341   5.958   0.220   4.413
 9148SOL     OW28342   5.149   6.330   0.415
 9148SOL    HW128343   5.134   6.417   0.463
 9148SOL    HW228344   5.150   6.346   0.316
 9149SOL     OW28345   6.010   3.303   3.594
 9149SOL    HW128346   6.051   3.218   3.560
 9149SOL    HW228347   5.961   3.348   3.519
 9150SOL     OW28348   2.837   5.537   2.274
 9150SOL    HW128349   2.897   5.508   2.348
 9150SOL    HW228350   2.890   5.549   2.190
 9151SOL     OW28351   1.670   4.363   3.843
 9151SOL    HW128352   1.607   4.432   3.807
 9151SOL    HW228353   1.620   4.300   3.902
 9152SOL     OW28354   2.221   4.554   4.836
 9152SOL    HW128355   2.176   4.642   4.851
 9152SOL    HW228356   2.167   4.500   4.772
 9153SOL     OW28357   1.201   3.346   0.514
 9153SOL    HW128358   1.182   3.415   0.584
 9153SOL    HW228359   1.280   3.374   0.460
 9154SOL     OW28360   4.434   4.450   6.204
 9154SOL    HW128361   4.426   4.426   6.301
 9154SOL    HW228362   4.369   4.395   6.151
 9155SOL     OW28363   1.693   3.596   1.554
 9155SOL    HW128364   1.638   3.628   1.478
 9155SOL    HW228365   1.637   3.538   1.614
 9156SOL     OW28366   1.265   2.783   0.486
 9156SOL    HW128367   1.238   2.747   0.397
 9156SOL    HW228368   1.183   2.804   0.540
 9157SOL     OW28369   6.544   4.739   5.867
 9157SOL    HW128370   6.572   4.687   5.948
 9157SOL    HW228371   6.521   4.675   5.793
 9158SOL     OW28372   5.753   3.669   4.653
 9158SOL    HW128373   5.769   3.738   4.582
 9158SOL    HW228374   5.821   3.596   4.645
 9159SOL     OW28375   1.921   0.213   2.569
 9159SOL    HW128376   2.015   0.210   2.603
 9159SOL    HW228377   1.918   0.175   2.477
 9160SOL     OW28378   6.192   0.378   5.232
 9160SOL    HW128379   6.272   0.326   5.203
 9160SOL    HW228380   6.220   0.470   5.261
 9161SOL     OW28381   4.662   4.306   4.855
 9161SOL    HW128382   4.579   4.255   4.831
 9161SOL    HW228383   4.659   4.333   4.951
 9162SOL     OW28384   4.435   0.666   4.772
 9162SOL    HW128385   4.382   0.630   4.695
 9162SOL    HW228386   4.438   0.766   4.767
 9163SOL     OW28387   1.485   2.804   4.460
 9163SOL    HW128388   1.418   2.828   4.389
 9163SOL    HW228389   1.552   2.741   4.422
 9164SOL     OW28390   2.663   0.836   6.115
 9164SOL    HW128391   2.751   0.793   6.140
 9164SOL    HW228392   2.673   0.885   6.029
 9165SOL     OW28393   6.121   2.107   5.653
 9165SOL    HW128394   6.126   2.011   5.680
 9165SOL    HW228395   6.027   2.130   5.627
 9166SOL     OW28396   4.228   5.884   0.762
 9166SOL    HW128397   4.312   5.845   0.723
 9166SOL    HW228398   4.171   5.921   0.688
 9167SOL     OW28399   2.013   2.948   6.868
 9167SOL    HW128400   2.006   2.909   6.776
 9167SOL    HW228401   1.923   2.979   6.899
 9168SOL     OW28402   6.810   0.090   6.325
 9168SOL    HW128403   6.903   0.075   6.293
 9168SOL    HW228404   6.810   0.164   6.393
 9169SOL     OW28405   5.839   0.930   4.811
 9169SOL    HW128406   5.908   0.863   4.840
 9169SOL    HW228407   5.783   0.956   4.890
 9170SOL     OW28408   1.531   5.643   0.020
 9170SOL    HW128409   1.564   5.635   6.954
 9170SOL    HW228410   1.604   5.615   0.083
 9171SOL     OW28411   4.207   5.147   0.924
 9171SOL    HW128412   4.149   5.223   0.896
 9171SOL    HW228413   4.222   5.085   0.846
 9172SOL     OW28414   3.998   1.188   3.576
 9172SOL    HW128415   3.923   1.145   3.626
 9172SOL    HW228416   4.018   1.135   3.493
 9173SOL     OW28417   6.262   3.721   5.060
 9173SOL    HW128418   6.203   3.645   5.087
 9173SOL    HW228419   6.348   3.716   5.109
 9174SOL     OW28420   5.191   3.958   1.544
 9174SOL    HW128421   5.227   3.915   1.627
 9174SOL    HW228422   5.265   3.968   1.477
 9175SOL     OW28423   1.064   0.326   5.220
 9175SOL    HW128424   1.142   0.263   5.216
 9175SOL    HW228425   1.097   0.418   5.244
 9176SOL     OW28426   3.071   0.996   5.258
 9176SOL    HW128427   3.141   1.055   5.218
 9176SOL    HW228428   2.997   1.051   5.296
 9177SOL     OW28429   0.716   4.878   5.000
 9177SOL    HW128430   0.621   4.886   5.030
 9177SOL    HW228431   0.721   4.894   4.902
 9178SOL     OW28432   1.692   5.477   0.190
 9178SOL    HW128433   1.673   5.438   0.280
 9178SOL    HW228434   1.722   5.405   0.128
 9179SOL     OW28435   2.843   4.734   4.526
 9179SOL    HW128436   2.875   4.781   4.444
 9179SOL    HW228437   2.909   4.747   4.600
 9180SOL     OW28438   6.033   2.721   3.064
 9180SOL    HW128439   5.999   2.810   3.095
 9180SOL    HW228440   6.067   2.669   3.143
 9181SOL     OW28441   4.545   1.830   5.591
 9181SOL    HW128442   4.472   1.894   5.615
 9181SOL    HW228443   4.633   1.870   5.613
 9182SOL     OW28444   2.906   0.066   2.042
 9182SOL    HW128445   2.907   0.039   1.946
 9182SOL    HW228446   2.999   0.070   2.077
 9183SOL     OW28447   4.711   5.669   0.423
 9183SOL    HW128448   4.723   5.601   0.496
 9183SOL    HW228449   4.623   5.715   0.435
 9184SOL     OW28450   4.632   1.469   0.506
 9184SOL    HW128451   4.725   1.504   0.501
 9184SOL    HW228452   4.593   1.489   0.596
 9185SOL     OW28453   4.337   6.650   4.481
 9185SOL    HW128454   4.287   6.636   4.396
 9185SOL    HW228455   4.420   6.702   4.463
 9186SOL     OW28456   5.351   6.079   4.864
 9186SOL    HW128457   5.445   6.071   4.831
 9186SOL    HW228458   5.352   6.101   4.961
 9187SOL     OW28459   2.388   2.116   0.825
 9187SOL    HW128460   2.458   2.146   0.760
 9187SOL    HW228461   2.414   2.029   0.866
 9188SOL     OW28462   1.665   6.467   0.852
 9188SOL    HW128463   1.740   6.405   0.875
 9188SOL    HW228464   1.587   6.413   0.819
 9189SOL     OW28465   3.956   5.672   1.716
 9189SOL    HW128466   3.999   5.760   1.697
 9189SOL    HW228467   3.859   5.676   1.691
 9190SOL     OW28468   2.958   4.321   6.032
 9190SOL    HW128469   2.917   4.410   6.052
 9190SOL    HW228470   2.948   4.260   6.111
 9191SOL     OW28471   6.148   2.159   6.394
 9191SOL    HW128472   6.094   2.110   6.462
 9191SOL    HW228473   6.176   2.247   6.431
 9192SOL     OW28474   0.751   3.097   5.800
 9192SOL    HW128475   0.710   3.087   5.891
 9192SOL    HW228476   0.692   3.154   5.744
 9193SOL     OW28477   4.754   4.352   6.984
 9193SOL    HW128478   4.683   4.401   0.007
 9193SOL    HW228479   4.809   4.297   0.019
 9194SOL     OW28480   3.185   0.986   3.488
 9194SOL    HW128481   3.151   1.061   3.431
 9194SOL    HW228482   3.159   1.001   3.583
 9195SOL     OW28483   1.870   1.664   3.605
 9195SOL    HW128484   1.952   1.690   3.554
 9195SOL    HW228485   1.796   1.729   3.583
 9196SOL     OW28486   5.042   0.518   2.629
 9196SOL    HW128487   5.140   0.508   2.649
 9196SOL    HW228488   4.991   0.517   2.714
 9197SOL     OW28489   1.866   5.662   1.558
 9197SOL    HW128490   1.928   5.713   1.618
 9197SOL    HW228491   1.919   5.597   1.503
 9198SOL     OW28492   6.137   4.997   6.853
 9198SOL    HW128493   6.073   4.955   6.789
 9198SOL    HW228494   6.134   4.948   6.940
 9199SOL     OW28495   0.860   3.775   5.886
 9199SOL    HW128496   0.824   3.717   5.959
 9199SOL    HW228497   0.864   3.870   5.918
 9200SOL     OW28498   2.933   6.466   6.759
 9200SOL    HW128499   3.012   6.516   6.723
 9200SOL    HW228500   2.939   6.460   6.858
 9201SOL     OW28501   6.760   2.672   0.270
 9201SOL    HW128502   6.859   2.665   0.273
 9201SOL    HW228503   6.723   2.604   0.207
 9202SOL     OW28504   1.184   6.743   2.142
 9202SOL    HW128505   1.260   6.802   2.170
 9202SOL    HW228506   1.196   6.652   2.182
 9203SOL     OW28507   0.503   3.708   6.126
 9203SOL    HW128508   0.446   3.644   6.179
 9203SOL    HW228509   0.444   3.767   6.071
 9204SOL     OW28510   4.847   3.055   5.871
 9204SOL    HW128511   4.822   3.114   5.795
 9204SOL    HW228512   4.908   2.982   5.839
 9205SOL     OW28513   5.757   5.174   3.343
 9205SOL    HW128514   5.808   5.088   3.342
 9205SOL    HW228515   5.750   5.210   3.249
 9206SOL     OW28516   4.043   5.874   2.972
 9206SOL    HW128517   4.086   5.952   2.926
 9206SOL    HW228518   3.990   5.821   2.905
 9207SOL     OW28519   5.183   3.737   5.580
 9207SOL    HW128520   5.255   3.754   5.513
 9207SOL    HW228521   5.122   3.664   5.547
 9208SOL     OW28522   5.685   4.720   3.679
 9208SOL    HW128523   5.611   4.662   3.646
 9208SOL    HW228524   5.716   4.687   3.768
 9209SOL     OW28525   3.922   0.290   6.638
 9209SOL    HW128526   3.993   0.237   6.685
 9209SOL    HW228527   3.840   0.295   6.695
 9210SOL     OW28528   0.141   0.808   2.638
 9210SOL    HW128529   0.108   0.883   2.581
 9210SOL    HW228530   0.238   0.793   2.620
 9211SOL     OW28531   0.980   2.303   6.081
 9211SOL    HW128532   1.051   2.300   6.010
 9211SOL    HW228533   0.971   2.397   6.114
 9212SOL     OW28534   4.557   5.787   4.235
 9212SOL    HW128535   4.495   5.787   4.157
 9212SOL    HW228536   4.592   5.695   4.251
 9213SOL     OW28537   5.452   3.057   4.842
 9213SOL    HW128538   5.514   3.062   4.764
 9213SOL    HW228539   5.492   3.105   4.920
 9214SOL     OW28540   6.629   3.596   6.542
 9214SOL    HW128541   6.641   3.598   6.641
 9214SOL    HW228542   6.622   3.690   6.508
 9215SOL     OW28543   0.576   2.622   1.476
 9215SOL    HW128544   0.578   2.593   1.380
 9215SOL    HW228545   0.545   2.717   1.481
 9216SOL     OW28546   3.555   0.008   2.390
 9216SOL    HW128547   3.578   0.041   2.481
 9216SOL    HW228548   3.634   0.018   2.330
 9217SOL     OW28549   0.014   2.918   6.835
 9217SOL    HW128550   0.106   2.882   6.846
 9217SOL    HW228551   6.989   2.903   6.918
 9218SOL     OW28552   1.729   6.851   0.022
 9218SOL    HW128553   1.684   6.767   0.054
 9218SOL    HW228554   1.750   6.910   0.100
 9219SOL     OW28555   6.499   3.158   1.177
 9219SOL    HW128556   6.526   3.065   1.199
 9219SOL    HW228557   6.410   3.178   1.219
 9220SOL     OW28558   1.601   6.573   1.250
 9220SOL    HW128559   1.664   6.496   1.254
 9220SOL    HW228560   1.580   6.605   1.342
 9221SOL     OW28561   3.345   0.456   3.262
 9221SOL    HW128562   3.321   0.465   3.358
 9221SOL    HW228563   3.408   0.379   3.250
 9222SOL     OW28564   2.229   6.447   6.321
 9222SOL    HW128565   2.273   6.452   6.410
 9222SOL    HW228566   2.273   6.375   6.266
 9223SOL     OW28567   1.122   1.358   3.877
 9223SOL    HW128568   1.117   1.259   3.882
 9223SOL    HW228569   1.030   1.397   3.871
 9224SOL     OW28570   1.121   5.130   4.576
 9224SOL    HW128571   1.193   5.138   4.644
 9224SOL    HW228572   1.034   5.113   4.621
 9225SOL     OW28573   3.104   6.715   5.912
 9225SOL    HW128574   3.170   6.685   5.981
 9225SOL    HW228575   3.079   6.810   5.928
 9226SOL     OW28576   5.978   6.563   0.800
 9226SOL    HW128577   5.980   6.560   0.900
 9226SOL    HW228578   6.063   6.526   0.764
 9227SOL     OW28579   1.151   5.646   0.665
 9227SOL    HW128580   1.061   5.630   0.705
 9227SOL    HW228581   1.205   5.705   0.726
 9228SOL     OW28582   1.422   1.911   5.502
 9228SOL    HW128583   1.358   1.958   5.441
 9228SOL    HW228584   1.507   1.894   5.454
 9229SOL     OW28585   0.962   5.865   5.002
 9229SOL    HW128586   1.006   5.899   5.085
 9229SOL    HW228587   0.997   5.915   4.922
 9230SOL     OW28588   4.958   1.888   3.889
 9230SOL    HW128589   4.968   1.789   3.891
 9230SOL    HW228590   4.925   1.916   3.799
 9231SOL     OW28591   0.283   4.047   4.467
 9231SOL    HW128592   0.346   4.050   4.390
 9231SOL    HW228593   0.299   4.127   4.526
 9232SOL     OW28594   3.547   5.287   0.149
 9232SOL    HW128595   3.617   5.247   0.089
 9232SOL    HW228596   3.581   5.289   0.243
 9233SOL     OW28597   5.507   5.344   2.069
 9233SOL    HW128598   5.579   5.346   2.138
 9233SOL    HW228599   5.424   5.303   2.108
 9234SOL     OW28600   3.600   6.086   5.816
 9234SOL    HW128601   3.677   6.126   5.766
 9234SOL    HW228602   3.554   6.157   5.869
 9235SOL     OW28603   1.502   3.521   3.467
 9235SOL    HW128604   1.571   3.586   3.435
 9235SOL    HW228605   1.510   3.510   3.566
 9236SOL     OW28606   2.433   4.441   5.962
 9236SOL    HW128607   2.452   4.387   5.879
 9236SOL    HW228608   2.423   4.537   5.937
 9237SOL     OW28609   1.687   5.344   4.418
 9237SOL    HW128610   1.724   5.266   4.367
 9237SOL    HW228611   1.622   5.392   4.360
 9238SOL     OW28612   3.700   1.087   0.031
 9238SOL    HW128613   3.623   1.146   0.006
 9238SOL    HW228614   3.669   1.015   0.092
 9239SOL     OW28615   6.922   4.107   0.325
 9239SOL    HW128616   7.013   4.130   0.359
 9239SOL    HW228617   6.930   4.066   0.234
 9240SOL     OW28618   5.739   1.127   1.396
 9240SOL    HW128619   5.718   1.127   1.298
 9240SOL    HW228620   5.804   1.200   1.417
 9241SOL     OW28621   0.597   5.433   5.408
 9241SOL    HW128622   0.662   5.431   5.332
 9241SOL    HW228623   0.600   5.523   5.452
 9242SOL     OW28624   0.471   5.237   0.045
 9242SOL    HW128625   0.429   5.323   0.017
 9242SOL    HW228626   0.538   5.255   0.117
 9243SOL     OW28627   5.305   6.634   1.285
 9243SOL    HW128628   5.256   6.550   1.307
 9243SOL    HW228629   5.288   6.658   1.189
 9244SOL     OW28630   4.376   5.711   6.294
 9244SOL    HW128631   4.366   5.631   6.235
 9244SOL    HW228632   4.340   5.792   6.246
 9245SOL     OW28633   1.246   5.008   3.527
 9245SOL    HW128634   1.295   5.007   3.440
 9245SOL    HW228635   1.211   4.916   3.546
 9246SOL     OW28636   0.295   5.903   2.369
 9246SOL    HW128637   0.310   5.804   2.369
 9246SOL    HW228638   0.321   5.941   2.280
 9247SOL     OW28639   1.281   0.046   2.480
 9247SOL    HW128640   1.227   0.069   2.400
 9247SOL    HW228641   1.378   0.047   2.456
 9248SOL     OW28642   1.820   1.999   4.388
 9248SOL    HW128643   1.799   1.966   4.480
 9248SOL    HW228644   1.919   1.991   4.372
 9249SOL     OW28645   4.392   4.216   0.332
 9249SOL    HW128646   4.320   4.248   0.270
 9249SOL    HW228647   4.471   4.277   0.325
 9250SOL     OW28648   5.553   3.400   4.237
 9250SOL    HW128649   5.589   3.488   4.269
 9250SOL    HW228650   5.464   3.383   4.279
 9251SOL     OW28651   4.425   2.023   3.163
 9251SOL    HW128652   4.425   2.007   3.064
 9251SOL    HW228653   4.339   1.990   3.203
 9252SOL     OW28654   5.830   0.314   4.736
 9252SOL    HW128655   5.780   0.318   4.650
 9252SOL    HW228656   5.843   0.407   4.771
 9253SOL     OW28657   5.795   6.388   5.510
 9253SOL    HW128658   5.707   6.393   5.557
 9253SOL    HW228659   5.819   6.479   5.476
 9254SOL     OW28660   6.407   4.525   2.669
 9254SOL    HW128661   6.336   4.522   2.739
 9254SOL    HW228662   6.493   4.490   2.706
 9255SOL     OW28663   4.939   3.440   6.815
 9255SOL    HW128664   4.866   3.393   6.865
 9255SOL    HW228665   4.953   3.531   6.855
 9256SOL     OW28666   4.497   6.566   2.867
 9256SOL    HW128667   4.438   6.591   2.943
 9256SOL    HW228668   4.586   6.610   2.877
 9257SOL     OW28669   0.664   3.850   2.805
 9257SOL    HW128670   0.617   3.935   2.827
 9257SOL    HW228671   0.602   3.788   2.757
 9258SOL     OW28672   3.210   3.319   4.175
 9258SOL    HW128673   3.127   3.265   4.177
 9258SOL    HW228674   3.285   3.268   4.216
 9259SOL     OW28675   1.096   2.772   6.201
 9259SOL    HW128676   1.117   2.759   6.298
 9259SOL    HW228677   1.073   2.685   6.159
 9260SOL     OW28678   5.307   2.123   4.726
 9260SOL    HW128679   5.279   2.033   4.693
 9260SOL    HW228680   5.300   2.190   4.652
 9261SOL     OW28681   4.640   0.741   6.806
 9261SOL    HW128682   4.595   0.825   6.775
 9261SOL    HW228683   4.571   0.670   6.820
 9262SOL     OW28684   6.648   3.629   5.950
 9262SOL    HW128685   6.603   3.603   6.035
 9262SOL    HW228686   6.588   3.689   5.897
 9263SOL     OW28687   5.426   5.876   1.996
 9263SOL    HW128688   5.342   5.822   2.003
 9263SOL    HW228689   5.475   5.871   2.083
 9264SOL     OW28690   5.687   4.232   0.207
 9264SOL    HW128691   5.751   4.308   0.199
 9264SOL    HW228692   5.664   4.218   0.303
 9265SOL     OW28693   3.497   2.003   6.989
 9265SOL    HW128694   3.546   1.960   0.037
 9265SOL    HW228695   3.515   2.101   6.989
 9266SOL     OW28696   2.298   6.999   2.012
 9266SOL    HW128697   2.282   6.920   2.070
 9266SOL    HW228698   2.370   6.977   1.946
 9267SOL     OW28699   0.692   3.749   5.685
 9267SOL    HW128700   0.761   3.779   5.751
 9267SOL    HW228701   0.622   3.695   5.732
 9268SOL     OW28702   1.389   5.625   1.846
 9268SOL    HW128703   1.458   5.586   1.908
 9268SOL    HW228704   1.360   5.555   1.781
 9269SOL     OW28705   2.737   1.325   6.108
 9269SOL    HW128706   2.831   1.329   6.073
 9269SOL    HW228707   2.677   1.287   6.037
 9270SOL     OW28708   4.372   6.791   6.117
 9270SOL    HW128709   4.313   6.738   6.057
 9270SOL    HW228710   4.325   6.811   6.203
 9271SOL     OW28711   0.998   6.819   0.011
 9271SOL    HW128712   1.015   6.752   0.084
 9271SOL    HW228713   0.957   6.773   6.960
 9272SOL     OW28714   1.597   5.041   4.713
 9272SOL    HW128715   1.582   4.969   4.781
 9272SOL    HW228716   1.579   5.006   4.621
 9273SOL     OW28717   5.814   6.108   3.730
 9273SOL    HW128718   5.721   6.070   3.734
 9273SOL    HW228719   5.815   6.198   3.773
 9274SOL     OW28720   6.357   2.630   0.155
 9274SOL    HW128721   6.287   2.657   0.221
 9274SOL    HW228722   6.345   2.682   0.071
 9275SOL     OW28723   6.620   2.125   6.913
 9275SOL    HW128724   6.650   2.167   6.999
 9275SOL    HW228725   6.675   2.160   6.838
 9276SOL     OW28726   1.746   4.286   2.344
 9276SOL    HW128727   1.758   4.386   2.349
 9276SOL    HW228728   1.719   4.260   2.251
 9277SOL     OW28729   5.351   3.105   0.221
 9277SOL    HW128730   5.429   3.129   0.164
 9277SOL    HW228731   5.356   3.156   0.307
 9278SOL     OW28732   1.176   0.190   6.052
 9278SOL    HW128733   1.187   0.092   6.070
 9278SOL    HW228734   1.140   0.203   5.959
 9279SOL     OW28735   5.171   0.735   1.588
 9279SOL    HW128736   5.153   0.679   1.507
 9279SOL    HW228737   5.252   0.792   1.571
 9280SOL     OW28738   1.815   1.222   3.216
 9280SOL    HW128739   1.846   1.314   3.241
 9280SOL    HW228740   1.782   1.222   3.122
 9281SOL     OW28741   2.643   4.443   1.011
 9281SOL    HW128742   2.629   4.453   0.913
 9281SOL    HW228743   2.588   4.367   1.045
 9282SOL     OW28744   5.198   0.585   4.538
 9282SOL    HW128745   5.206   0.557   4.633
 9282SOL    HW228746   5.185   0.684   4.533
 9283SOL     OW28747   5.779   0.527   3.886
 9283SOL    HW128748   5.873   0.494   3.871
 9283SOL    HW228749   5.770   0.619   3.849
 9284SOL     OW28750   3.219   4.265   6.376
 9284SOL    HW128751   3.141   4.299   6.428
 9284SOL    HW228752   3.282   4.340   6.357
 9285SOL     OW28753   5.227   2.454   1.171
 9285SOL    HW128754   5.254   2.543   1.208
 9285SOL    HW228755   5.273   2.439   1.084
 9286SOL     OW28756   5.014   6.042   0.038
 9286SOL    HW128757   5.060   5.978   7.003
 9286SOL    HW228758   5.081   6.107   0.074
 9287SOL     OW28759   3.410   4.926   6.482
 9287SOL    HW128760   3.501   4.897   6.453
 9287SOL    HW228761   3.404   5.025   6.478
 9288SOL     OW28762   4.201   1.416   4.419
 9288SOL    HW128763   4.238   1.324   4.426
 9288SOL    HW228764   4.247   1.476   4.485
 9289SOL     OW28765   4.203   1.547   2.467
 9289SOL    HW128766   4.239   1.636   2.495
 9289SOL    HW228767   4.153   1.506   2.544
 9290SOL     OW28768   5.242   1.297   3.166
 9290SOL    HW128769   5.188   1.214   3.151
 9290SOL    HW228770   5.231   1.359   3.088
 9291SOL     OW28771   1.733   6.880   4.096
 9291SOL    HW128772   1.820   6.907   4.137
 9291SOL    HW228773   1.671   6.849   4.169
 9292SOL     OW28774   0.659   3.236   6.765
 9292SOL    HW128775   0.602   3.279   6.834
 9292SOL    HW228776   0.753   3.229   6.798
 9293SOL     OW28777   5.703   3.825   6.768
 9293SOL    HW128778   5.712   3.768   6.850
 9293SOL    HW228779   5.781   3.810   6.708
 9294SOL     OW28780   3.251   0.294   4.708
 9294SOL    HW128781   3.287   0.209   4.746
 9294SOL    HW228782   3.324   0.345   4.663
 9295SOL     OW28783   5.504   2.001   4.318
 9295SOL    HW128784   5.586   1.950   4.295
 9295SOL    HW228785   5.478   2.059   4.240
 9296SOL     OW28786   0.511   6.301   6.312
 9296SOL    HW128787   0.477   6.310   6.406
 9296SOL    HW228788   0.442   6.256   6.256
 9297SOL     OW28789   6.685   1.217   0.431
 9297SOL    HW128790   6.621   1.194   0.505
 9297SOL    HW228791   6.641   1.276   0.365
 9298SOL     OW28792   1.345   0.783   5.022
 9298SOL    HW128793   1.387   0.693   5.034
 9298SOL    HW228794   1.246   0.775   5.034
 9299SOL     OW28795   0.782   2.205   4.125
 9299SOL    HW128796   0.813   2.128   4.182
 9299SOL    HW228797   0.683   2.210   4.127
 9300SOL     OW28798   0.763   4.489   5.426
 9300SOL    HW128799   0.726   4.522   5.339
 9300SOL    HW228800   0.862   4.478   5.418
 9301SOL     OW28801   4.799   4.312   3.858
 9301SOL    HW128802   4.895   4.288   3.849
 9301SOL    HW228803   4.766   4.286   3.949
 9302SOL     OW28804   2.280   2.803   4.051
 9302SOL    HW128805   2.193   2.791   4.003
 9302SOL    HW228806   2.335   2.720   4.041
 9303SOL     OW28807   3.084   5.102   0.411
 9303SOL    HW128808   3.028   5.185   0.403
 9303SOL    HW228809   3.181   5.127   0.410
 9304SOL     OW28810   4.644   4.453   2.185
 9304SOL    HW128811   4.602   4.395   2.115
 9304SOL    HW228812   4.684   4.396   2.256
 9305SOL     OW28813   3.365   0.914   1.435
 9305SOL    HW128814   3.314   0.994   1.404
 9305SOL    HW228815   3.370   0.915   1.535
 9306SOL     OW28816   0.063   4.418   4.652
 9306SOL    HW128817   0.070   4.331   4.702
 9306SOL    HW228818   0.066   4.493   4.718
 9307SOL     OW28819   1.470   3.413   1.694
 9307SOL    HW128820   1.376   3.436   1.722
 9307SOL    HW228821   1.472   3.320   1.656
 9308SOL     OW28822   1.972   4.359   0.722
 9308SOL    HW128823   1.970   4.435   0.658
 9308SOL    HW228824   2.066   4.342   0.751
 9309SOL     OW28825   3.261   4.867   5.605
 9309SOL    HW128826   3.295   4.834   5.517
 9309SOL    HW228827   3.225   4.960   5.594
 9310SOL     OW28828   4.571   5.116   6.516
 9310SOL    HW128829   4.585   5.177   6.438
 9310SOL    HW228830   4.578   5.169   6.600
 9311SOL     OW28831   4.194   4.729   2.020
 9311SOL    HW128832   4.265   4.668   1.984
 9311SOL    HW228833   4.115   4.727   1.960
 9312SOL     OW28834   1.131   3.354   1.375
 9312SOL    HW128835   1.174   3.429   1.325
 9312SOL    HW228836   1.081   3.391   1.453
 9313SOL     OW28837   0.263   0.311   0.998
 9313SOL    HW128838   0.290   0.388   1.057
 9313SOL    HW228839   0.216   0.346   0.917
 9314SOL     OW28840   4.938   5.947   5.926
 9314SOL    HW128841   5.026   5.994   5.934
 9314SOL    HW228842   4.885   5.988   5.852
 9315SOL     OW28843   6.652   0.667   5.350
 9315SOL    HW128844   6.573   0.715   5.387
 9315SOL    HW228845   6.732   0.727   5.353
 9316SOL     OW28846   4.163   5.545   5.501
 9316SOL    HW128847   4.232   5.527   5.570
 9316SOL    HW228848   4.095   5.609   5.537
 9317SOL     OW28849   6.461   5.301   3.159
 9317SOL    HW128850   6.500   5.209   3.158
 9317SOL    HW228851   6.386   5.306   3.093
 9318SOL     OW28852   6.336   0.574   5.579
 9318SOL    HW128853   6.365   0.523   5.660
 9318SOL    HW228854   6.394   0.654   5.568
 9319SOL     OW28855   1.755   3.214   0.097
 9319SOL    HW128856   1.829   3.236   0.161
 9319SOL    HW228857   1.702   3.137   0.133
 9320SOL     OW28858   3.735   0.511   5.270
 9320SOL    HW128859   3.765   0.539   5.178
 9320SOL    HW228860   3.744   0.588   5.332
 9321SOL     OW28861   6.467   0.484   3.774
 9321SOL    HW128862   6.413   0.533   3.842
 9321SOL    HW228863   6.421   0.487   3.685
 9322SOL     OW28864   1.170   4.256   6.416
 9322SOL    HW128865   1.259   4.301   6.404
 9322SOL    HW228866   1.178   4.186   6.488
 9323SOL     OW28867   1.436   0.944   5.565
 9323SOL    HW128868   1.364   0.915   5.502
 9323SOL    HW228869   1.457   0.870   5.628
 9324SOL     OW28870   1.635   4.431   0.691
 9324SOL    HW128871   1.662   4.362   0.758
 9324SOL    HW228872   1.714   4.453   0.633
 9325SOL     OW28873   4.634   0.871   0.022
 9325SOL    HW128874   4.665   0.790   6.999
 9325SOL    HW228875   4.534   0.874   0.020
 9326SOL     OW28876   2.244   5.540   0.781
 9326SOL    HW128877   2.211   5.599   0.855
 9326SOL    HW228878   2.189   5.556   0.699
 9327SOL     OW28879   5.180   0.288   3.188
 9327SOL    HW128880   5.161   0.217   3.255
 9327SOL    HW228881   5.255   0.258   3.128
 9328SOL     OW28882   2.437   0.626   5.646
 9328SOL    HW128883   2.473   0.583   5.729
 9328SOL    HW228884   2.350   0.584   5.622
 9329SOL     OW28885   5.689   4.031   1.532
 9329SOL    HW128886   5.724   4.123   1.548
 9329SOL    HW228887   5.666   3.988   1.619
 9330SOL     OW28888   6.003   6.595   6.714
 9330SOL    HW128889   5.945   6.572   6.793
 9330SOL    HW228890   6.045   6.511   6.679
 9331SOL     OW28891   1.950   1.143   0.124
 9331SOL    HW128892   1.899   1.082   0.062
 9331SOL    HW228893   1.891   1.170   0.200
 9332SOL     OW28894   3.866   4.065   1.844
 9332SOL    HW128895   3.915   4.146   1.811
 9332SOL    HW228896   3.884   3.988   1.783
 9333SOL     OW28897   4.013   3.431   1.048
 9333SOL    HW128898   3.975   3.513   1.091
 9333SOL    HW228899   3.989   3.430   0.951
 9334SOL     OW28900   5.571   5.961   3.777
 9334SOL    HW128901   5.523   5.916   3.701
 9334SOL    HW228902   5.657   5.912   3.796
 9335SOL     OW28903   0.845   1.022   6.499
 9335SOL    HW128904   0.841   0.922   6.496
 9335SOL    HW228905   0.940   1.052   6.484
 9336SOL     OW28906   2.912   5.386   5.657
 9336SOL    HW128907   2.867   5.442   5.587
 9336SOL    HW228908   2.877   5.292   5.653
 9337SOL     OW28909   4.823   1.938   4.133
 9337SOL    HW128910   4.866   1.933   4.043
 9337SOL    HW228911   4.748   1.872   4.138
 9338SOL     OW28912   5.009   1.008   2.203
 9338SOL    HW128913   4.992   0.911   2.188
 9338SOL    HW228914   5.018   1.054   2.114
 9339SOL     OW28915   5.715   7.006   1.396
 9339SOL    HW128916   5.634   0.018   1.353
 9339SOL    HW228917   5.743   0.037   1.473
 9340SOL     OW28918   5.837   3.874   4.487
 9340SOL    HW128919   5.859   3.971   4.500
 9340SOL    HW228920   5.783   3.863   4.404
 9341SOL     OW28921   0.132   5.689   0.521
 9341SOL    HW128922   0.115   5.704   0.619
 9341SOL    HW228923   0.074   5.613   0.489
 9342SOL     OW28924   1.862   6.633   3.955
 9342SOL    HW128925   1.862   6.612   4.053
 9342SOL    HW228926   1.803   6.712   3.938
 9343SOL     OW28927   5.998   4.183   2.515
 9343SOL    HW128928   5.943   4.265   2.500
 9343SOL    HW228929   5.940   4.102   2.505
 9344SOL     OW28930   4.644   6.305   2.880
 9344SOL    HW128931   4.639   6.389   2.826
 9344SOL    HW228932   4.701   6.321   2.961
 9345SOL     OW28933   6.115   5.108   2.310
 9345SOL    HW128934   6.157   5.080   2.397
 9345SOL    HW228935   6.017   5.089   2.312
 9346SOL     OW28936   6.605   0.758   1.122
 9346SOL    HW128937   6.524   0.796   1.168
 9346SOL    HW228938   6.685   0.813   1.145
 9347SOL     OW28939   1.968   3.668   0.800
 9347SOL    HW128940   1.921   3.681   0.713
 9347SOL    HW228941   1.907   3.692   0.875
 9348SOL     OW28942   3.534   5.837   1.992
 9348SOL    HW128943   3.608   5.904   1.986
 9348SOL    HW228944   3.560   5.755   1.941
 9349SOL     OW28945   6.586   5.662   3.639
 9349SOL    HW128946   6.673   5.612   3.643
 9349SOL    HW228947   6.510   5.598   3.650
 9350SOL     OW28948   0.791   3.669   5.327
 9350SOL    HW128949   0.743   3.602   5.384
 9350SOL    HW228950   0.756   3.761   5.347
 9351SOL     OW28951   2.730   0.224   6.825
 9351SOL    HW128952   2.706   0.267   6.738
 9351SOL    HW228953   2.648   0.185   6.867
 9352SOL     OW28954   3.551   1.945   6.706
 9352SOL    HW128955   3.548   1.958   6.805
 9352SOL    HW228956   3.646   1.943   6.676
 9353SOL     OW28957   0.268   4.126   0.732
 9353SOL    HW128958   0.266   4.064   0.810
 9353SOL    HW228959   0.260   4.073   0.647
 9354SOL     OW28960   7.018   2.038   6.414
 9354SOL    HW128961   0.025   2.124   6.452
 9354SOL    HW228962   0.028   1.961   6.467
 9355SOL     OW28963   0.280   2.247   4.411
 9355SOL    HW128964   0.205   2.291   4.461
 9355SOL    HW228965   0.319   2.312   4.346
 9356SOL     OW28966   4.782   0.743   1.829
 9356SOL    HW128967   4.814   0.658   1.786
 9356SOL    HW228968   4.753   0.723   1.923
 9357SOL     OW28969   1.706   2.832   5.528
 9357SOL    HW128970   1.757   2.882   5.458
 9357SOL    HW228971   1.614   2.870   5.536
 9358SOL     OW28972   6.394   3.827   2.084
 9358SOL    HW128973   6.338   3.908   2.066
 9358SOL    HW228974   6.376   3.794   2.176
 9359SOL     OW28975   1.273   4.403   6.041
 9359SOL    HW128976   1.248   4.458   6.120
 9359SOL    HW228977   1.301   4.312   6.070
 9360SOL     OW28978   1.180   4.896   6.241
 9360SOL    HW128979   1.247   4.949   6.190
 9360SOL    HW228980   1.214   4.802   6.253
 9361SOL     OW28981   1.517   4.499   3.687
 9361SOL    HW128982   1.599   4.556   3.689
 9361SOL    HW228983   1.435   4.557   3.690
 9362SOL     OW28984   0.910   1.242   2.420
 9362SOL    HW128985   0.929   1.340   2.422
 9362SOL    HW228986   0.976   1.194   2.478
 9363SOL     OW28987   2.826   5.635   1.998
 9363SOL    HW128988   2.748   5.581   1.966
 9363SOL    HW228989   2.909   5.580   1.992
 9364SOL     OW28990   2.608   2.004   0.283
 9364SOL    HW128991   2.537   2.029   0.216
 9364SOL    HW228992   2.682   1.956   0.236
 9365SOL     OW28993   3.132   2.030   3.081
 9365SOL    HW128994   3.084   1.942   3.086
 9365SOL    HW228995   3.125   2.077   3.168
 9366SOL     OW28996   2.883   5.520   6.695
 9366SOL    HW128997   2.843   5.428   6.694
 9366SOL    HW228998   2.831   5.578   6.758
 9367SOL     OW28999   6.594   6.489   2.098
 9367SOL    HW129000   6.606   6.393   2.123
 9367SOL    HW229001   6.606   6.547   2.179
 9368SOL     OW29002   3.501   0.411   2.268
 9368SOL    HW129003   3.468   0.326   2.227
 9368SOL    HW229004   3.535   0.392   2.360
 9369SOL     OW29005   6.453   6.799   3.724
 9369SOL    HW129006   6.489   6.892   3.729
 9369SOL    HW229007   6.353   6.802   3.729
 9370SOL     OW29008   5.526   0.145   4.647
 9370SOL    HW129009   5.587   0.218   4.677
 9370SOL    HW229010   5.449   0.184   4.597
 9371SOL     OW29011   2.805   5.729   0.128
 9371SOL    HW129012   2.837   5.785   0.052
 9371SOL    HW229013   2.742   5.783   0.185
 9372SOL     OW29014   5.315   0.056   1.533
 9372SOL    HW129015   5.297   0.088   1.440
 9372SOL    HW229016   5.252   0.102   1.596
 9373SOL     OW29017   4.634   2.211   1.073
 9373SOL    HW129018   4.713   2.252   1.119
 9373SOL    HW229019   4.639   2.111   1.079
 9374SOL     OW29020   0.672   3.302   6.261
 9374SOL    HW129021   0.665   3.382   6.202
 9374SOL    HW229022   0.750   3.246   6.233
 9375SOL     OW29023   0.791   2.162   0.630
 9375SOL    HW129024   0.696   2.133   0.616
 9375SOL    HW229025   0.846   2.082   0.654
 9376SOL     OW29026   2.210   3.833   1.869
 9376SOL    HW129027   2.243   3.812   1.776
 9376SOL    HW229028   2.233   3.927   1.892
 9377SOL     OW29029   1.732   5.149   3.516
 9377SOL    HW129030   1.830   5.131   3.529
 9377SOL    HW229031   1.688   5.068   3.477
 9378SOL     OW29032   3.769   1.290   3.441
 9378SOL    HW129033   3.721   1.241   3.368
 9378SOL    HW229034   3.860   1.250   3.454
 9379SOL     OW29035   4.939   0.197   4.607
 9379SOL    HW129036   4.874   0.270   4.627
 9379SOL    HW229037   5.014   0.232   4.551
 9380SOL     OW29038   3.800   5.865   5.186
 9380SOL    HW129039   3.726   5.854   5.121
 9380SOL    HW229040   3.793   5.795   5.257
 9381SOL     OW29041   5.331   2.840   5.802
 9381SOL    HW129042   5.314   2.818   5.706
 9381SOL    HW229043   5.350   2.938   5.810
 9382SOL     OW29044   4.129   1.509   4.135
 9382SOL    HW129045   4.114   1.442   4.062
 9382SOL    HW229046   4.150   1.461   4.220
 9383SOL     OW29047   5.558   5.025   4.428
 9383SOL    HW129048   5.609   5.045   4.345
 9383SOL    HW229049   5.466   5.063   4.421
 9384SOL     OW29050   3.726   0.007   2.153
 9384SOL    HW129051   3.825   0.009   2.143
 9384SOL    HW229052   3.685   0.083   2.102
 9385SOL     OW29053   4.662   1.176   4.287
 9385SOL    HW129054   4.655   1.143   4.381
 9385SOL    HW229055   4.581   1.149   4.236
 9386SOL     OW29056   3.048   5.599   4.945
 9386SOL    HW129057   3.007   5.575   5.033
 9386SOL    HW229058   3.146   5.610   4.956
 9387SOL     OW29059   3.449   2.198   0.826
 9387SOL    HW129060   3.367   2.250   0.801
 9387SOL    HW229061   3.530   2.247   0.794
 9388SOL     OW29062   1.759   6.508   3.517
 9388SOL    HW129063   1.701   6.569   3.462
 9388SOL    HW229064   1.708   6.425   3.539
 9389SOL     OW29065   3.206   6.500   2.696
 9389SOL    HW129066   3.164   6.411   2.714
 9389SOL    HW229067   3.235   6.503   2.600
 9390SOL     OW29068   5.992   5.469   5.848
 9390SOL    HW129069   6.079   5.458   5.896
 9390SOL    HW229070   5.998   5.429   5.756
 9391SOL     OW29071   0.163   0.575   5.795
 9391SOL    HW129072   0.253   0.533   5.783
 9391SOL    HW229073   0.152   0.649   5.729
 9392SOL     OW29074   5.280   4.457   4.696
 9392SOL    HW129075   5.227   4.515   4.758
 9392SOL    HW229076   5.289   4.502   4.608
 9393SOL     OW29077   2.849   6.580   5.523
 9393SOL    HW129078   2.750   6.576   5.511
 9393SOL    HW229079   2.889   6.491   5.498
 9394SOL     OW29080   6.157   0.593   0.970
 9394SOL    HW129081   6.211   0.509   0.969
 9394SOL    HW229082   6.126   0.611   1.063
 9395SOL     OW29083   2.293   1.146   0.932
 9395SOL    HW129084   2.378   1.165   0.980
 9395SOL    HW229085   2.268   1.225   0.876
 9396SOL     OW29086   1.229   4.509   4.730
 9396SOL    HW129087   1.212   4.412   4.711
 9396SOL    HW229088   1.141   4.555   4.746
 9397SOL     OW29089   2.585   6.400   5.847
 9397SOL    HW129090   2.565   6.317   5.795
 9397SOL    HW229091   2.506   6.462   5.841
 9398SOL     OW29092   6.149   1.476   5.722
 9398SOL    HW129093   6.113   1.532   5.648
 9398SOL    HW229094   6.167   1.534   5.802
 9399SOL     OW29095   0.977   3.146   3.944
 9399SOL    HW129096   1.004   3.067   3.998
 9399SOL    HW229097   0.938   3.216   4.004
 9400SOL     OW29098   4.678   0.398   0.729
 9400SOL    HW129099   4.653   0.491   0.703
 9400SOL    HW229100   4.617   0.365   0.800
 9401SOL     OW29101   0.295   1.997   2.400
 9401SOL    HW129102   0.274   1.955   2.311
 9401SOL    HW229103   0.242   1.953   2.471
 9402SOL     OW29104   1.188   4.380   2.977
 9402SOL    HW129105   1.151   4.294   3.012
 9402SOL    HW229106   1.276   4.362   2.932
 9403SOL     OW29107   6.686   1.558   1.925
 9403SOL    HW129108   6.686   1.577   1.826
 9403SOL    HW229109   6.635   1.630   1.972
 9404SOL     OW29110   0.242   1.721   0.785
 9404SOL    HW129111   0.154   1.764   0.805
 9404SOL    HW229112   0.315   1.788   0.796
 9405SOL     OW29113   1.410   3.865   4.409
 9405SOL    HW129114   1.388   3.863   4.312
 9405SOL    HW229115   1.500   3.825   4.423
 9406SOL     OW29116   1.332   3.535   0.227
 9406SOL    HW129117   1.287   3.604   0.283
 9406SOL    HW229118   1.367   3.576   0.143
 9407SOL     OW29119   2.683   5.079   4.271
 9407SOL    HW129120   2.751   5.113   4.206
 9407SOL    HW229121   2.727   5.062   4.359
 9408SOL     OW29122   0.757   1.911   6.410
 9408SOL    HW129123   0.830   1.929   6.477
 9408SOL    HW229124   0.743   1.992   6.354
 9409SOL     OW29125   6.432   5.901   1.384
 9409SOL    HW129126   6.361   5.864   1.444
 9409SOL    HW229127   6.485   5.826   1.345
 9410SOL     OW29128   4.115   1.424   1.748
 9410SOL    HW129129   4.018   1.426   1.772
 9410SOL    HW229130   4.170   1.409   1.830
 9411SOL     OW29131   3.733   3.555   3.193
 9411SOL    HW129132   3.743   3.646   3.152
 9411SOL    HW229133   3.698   3.564   3.286
 9412SOL     OW29134   1.333   0.138   2.100
 9412SOL    HW129135   1.248   0.177   2.134
 9412SOL    HW229136   1.317   0.097   2.010
 9413SOL     OW29137   4.749   5.238   4.847
 9413SOL    HW129138   4.702   5.273   4.928
 9413SOL    HW229139   4.844   5.269   4.847
 9414SOL     OW29140   3.154   2.064   4.229
 9414SOL    HW129141   3.196   2.094   4.315
 9414SOL    HW229142   3.214   1.998   4.184
 9415SOL     OW29143   2.488   0.075   1.484
 9415SOL    HW129144   2.528   0.085   1.575
 9415SOL    HW229145   2.475   0.166   1.444
 9416SOL     OW29146   0.381   0.931   5.348
 9416SOL    HW129147   0.382   0.880   5.435
 9416SOL    HW229148   0.472   0.926   5.306
 9417SOL     OW29149   4.058   6.766   1.350
 9417SOL    HW129150   4.128   6.708   1.309
 9417SOL    HW229151   4.040   6.735   1.443
 9418SOL     OW29152   2.461   1.287   2.801
 9418SOL    HW129153   2.499   1.299   2.893
 9418SOL    HW229154   2.536   1.287   2.734
 9419SOL     OW29155   2.279   3.304   6.582
 9419SOL    HW129156   2.228   3.322   6.498
 9419SOL    HW229157   2.328   3.217   6.573
 9420SOL     OW29158   5.270   4.457   0.255
 9420SOL    HW129159   5.314   4.439   0.342
 9420SOL    HW229160   5.331   4.509   0.196
 9421SOL     OW29161   3.181   5.205   3.927
 9421SOL    HW129162   3.101   5.259   3.901
 9421SOL    HW229163   3.169   5.111   3.896
 9422SOL     OW29164   2.923   6.322   3.809
 9422SOL    HW129165   2.997   6.262   3.839
 9422SOL    HW229166   2.914   6.398   3.873
 9423SOL     OW29167   3.960   6.243   2.909
 9423SOL    HW129168   3.932   6.275   2.999
 9423SOL    HW229169   4.052   6.202   2.915
 9424SOL     OW29170   5.570   1.598   4.566
 9424SOL    HW129171   5.626   1.574   4.486
 9424SOL    HW229172   5.478   1.562   4.555
 9425SOL     OW29173   5.639   5.548   1.220
 9425SOL    HW129174   5.569   5.554   1.149
 9425SOL    HW229175   5.633   5.628   1.279
 9426SOL     OW29176   2.297   1.394   5.987
 9426SOL    HW129177   2.217   1.398   6.046
 9426SOL    HW229178   2.285   1.322   5.918
 9427SOL     OW29179   2.431   6.105   3.163
 9427SOL    HW129180   2.432   6.042   3.086
 9427SOL    HW229181   2.522   6.110   3.203
 9428SOL     OW29182   6.868   0.119   0.450
 9428SOL    HW129183   6.817   0.094   0.368
 9428SOL    HW229184   6.847   0.214   0.475
 9429SOL     OW29185   1.687   2.288   3.796
 9429SOL    HW129186   1.590   2.270   3.776
 9429SOL    HW229187   1.736   2.202   3.807
 9430SOL     OW29188   0.434   2.486   4.288
 9430SOL    HW129189   0.497   2.544   4.237
 9430SOL    HW229190   0.340   2.504   4.256
 9431SOL     OW29191   6.596   4.428   1.139
 9431SOL    HW129192   6.642   4.377   1.066
 9431SOL    HW229193   6.665   4.473   1.196
 9432SOL     OW29194   6.099   1.388   4.602
 9432SOL    HW129195   6.068   1.456   4.668
 9432SOL    HW229196   6.052   1.302   4.617
 9433SOL     OW29197   3.843   5.932   3.491
 9433SOL    HW129198   3.796   6.003   3.545
 9433SOL    HW229199   3.861   5.967   3.399
 9434SOL     OW29200   5.730   5.700   3.555
 9434SOL    HW129201   5.797   5.752   3.502
 9434SOL    HW229202   5.748   5.602   3.544
 9435SOL     OW29203   0.055   1.869   2.696
 9435SOL    HW129204   0.036   1.836   2.788
 9435SOL    HW229205   0.033   1.966   2.690
 9436SOL     OW29206   1.309   1.300   2.764
 9436SOL    HW129207   1.353   1.390   2.758
 9436SOL    HW229208   1.379   1.229   2.759
 9437SOL     OW29209   0.884   5.190   3.743
 9437SOL    HW129210   0.926   5.129   3.810
 9437SOL    HW229211   0.885   5.284   3.778
 9438SOL     OW29212   1.041   0.235   1.921
 9438SOL    HW129213   1.083   0.145   1.912
 9438SOL    HW229214   1.104   0.305   1.887
 9439SOL     OW29215   0.891   3.222   1.059
 9439SOL    HW129216   0.954   3.211   0.983
 9439SOL    HW229217   0.928   3.176   1.140
 9440SOL     OW29218   3.297   4.953   3.185
 9440SOL    HW129219   3.270   5.049   3.172
 9440SOL    HW229220   3.218   4.900   3.217
 9441SOL     OW29221   6.445   6.107   5.764
 9441SOL    HW129222   6.514   6.144   5.826
 9441SOL    HW229223   6.391   6.037   5.812
 9442SOL     OW29224   4.653   3.399   1.713
 9442SOL    HW129225   4.689   3.492   1.701
 9442SOL    HW229226   4.685   3.341   1.638
 9443SOL     OW29227   2.804   6.020   1.390
 9443SOL    HW129228   2.866   6.093   1.359
 9443SOL    HW229229   2.822   6.001   1.486
 9444SOL     OW29230   1.773   4.233   0.839
 9444SOL    HW129231   1.776   4.135   0.856
 9444SOL    HW229232   1.853   4.261   0.786
 9445SOL     OW29233   6.822   2.358   2.945
 9445SOL    HW129234   6.740   2.328   2.895
 9445SOL    HW229235   6.831   2.305   3.029
 9446SOL     OW29236   0.448   5.227   4.232
 9446SOL    HW129237   0.433   5.214   4.330
 9446SOL    HW229238   0.402   5.312   4.203
 9447SOL     OW29239   5.381   4.498   3.246
 9447SOL    HW129240   5.397   4.587   3.288
 9447SOL    HW229241   5.293   4.500   3.197
 9448SOL     OW29242   6.506   6.786   5.970
 9448SOL    HW129243   6.480   6.736   5.887
 9448SOL    HW229244   6.559   6.726   6.030
 9449SOL     OW29245   5.692   6.619   0.348
 9449SOL    HW129246   5.655   6.710   0.364
 9449SOL    HW229247   5.774   6.606   0.404
 9450SOL     OW29248   1.797   5.303   3.758
 9450SOL    HW129249   1.778   5.268   3.666
 9450SOL    HW229250   1.755   5.393   3.768
 9451SOL     OW29251   4.302   5.962   6.172
 9451SOL    HW129252   4.269   5.934   6.082
 9451SOL    HW229253   4.300   6.062   6.179
 9452SOL     OW29254   0.449   3.955   0.000
 9452SOL    HW129255   0.462   3.926   6.933
 9452SOL    HW229256   0.499   4.040   0.017
 9453SOL     OW29257   2.593   5.001   2.482
 9453SOL    HW129258   2.667   5.051   2.438
 9453SOL    HW229259   2.548   4.942   2.416
 9454SOL     OW29260   4.120   3.686   0.100
 9454SOL    HW129261   4.041   3.631   0.072
 9454SOL    HW229262   4.203   3.648   0.059
 9455SOL     OW29263   2.342   2.104   2.679
 9455SOL    HW129264   2.256   2.128   2.634
 9455SOL    HW229265   2.365   2.174   2.747
 9456SOL     OW29266   6.212   4.442   1.985
 9456SOL    HW129267   6.195   4.368   2.050
 9456SOL    HW229268   6.152   4.432   1.906
 9457SOL     OW29269   0.497   4.438   4.286
 9457SOL    HW129270   0.518   4.434   4.188
 9457SOL    HW229271   0.421   4.376   4.307
 9458SOL     OW29272   0.113   3.696   0.321
 9458SOL    HW129273   0.141   3.783   0.361
 9458SOL    HW229274   0.089   3.710   0.225
 9459SOL     OW29275   5.438   4.472   3.989
 9459SOL    HW129276   5.351   4.423   3.999
 9459SOL    HW229277   5.421   4.561   3.947
 9460SOL     OW29278   2.334   2.856   4.450
 9460SOL    HW129279   2.407   2.922   4.430
 9460SOL    HW229280   2.263   2.863   4.380
 9461SOL     OW29281   0.854   1.162   1.486
 9461SOL    HW129282   0.820   1.167   1.580
 9461SOL    HW229283   0.860   1.066   1.459
 9462SOL     OW29284   1.886   2.971   3.751
 9462SOL    HW129285   1.892   2.897   3.684
 9462SOL    HW229286   1.817   2.947   3.820
 9463SOL     OW29287   5.262   0.110   1.270
 9463SOL    HW129288   5.333   0.070   1.213
 9463SOL    HW229289   5.243   0.203   1.241
 9464SOL     OW29290   5.786   0.022   0.832
 9464SOL    HW129291   5.830   7.024   0.918
 9464SOL    HW229292   5.804   0.119   0.813
 9465SOL     OW29293   6.842   3.906   1.503
 9465SOL    HW129294   6.778   3.830   1.499
 9465SOL    HW229295   6.926   3.882   1.454
 9466SOL     OW29296   3.667   4.755   6.059
 9466SOL    HW129297   3.670   4.758   6.159
 9466SOL    HW229298   3.611   4.678   6.030
 9467SOL     OW29299   1.136   2.598   0.958
 9467SOL    HW129300   1.163   2.513   1.003
 9467SOL    HW229301   1.082   2.577   0.876
 9468SOL     OW29302   6.570   3.549   6.839
 9468SOL    HW129303   6.510   3.472   6.857
 9468SOL    HW229304   6.661   3.516   6.814
 9469SOL     OW29305   0.328   6.005   1.041
 9469SOL    HW129306   0.248   5.947   1.029
 9469SOL    HW229307   0.299   6.101   1.051
 9470SOL     OW29308   4.823   3.776   6.734
 9470SOL    HW129309   4.851   3.870   6.716
 9470SOL    HW229310   4.850   3.750   6.827
 9471SOL     OW29311   5.340   2.236   5.694
 9471SOL    HW129312   5.372   2.142   5.705
 9471SOL    HW229313   5.286   2.243   5.610
 9472SOL     OW29314   0.778   4.039   6.018
 9472SOL    HW129315   0.837   4.092   6.079
 9472SOL    HW229316   0.791   4.071   5.924
 9473SOL     OW29317   3.141   3.976   6.771
 9473SOL    HW129318   3.200   3.896   6.785
 9473SOL    HW229319   3.113   4.012   6.860
 9474SOL     OW29320   5.925   3.289   1.799
 9474SOL    HW129321   5.950   3.200   1.760
 9474SOL    HW229322   5.996   3.318   1.863
 9475SOL     OW29323   4.615   3.538   0.155
 9475SOL    HW129324   4.630   3.628   0.114
 9475SOL    HW229325   4.579   3.549   0.247
 9476SOL     OW29326   3.916   3.801   5.733
 9476SOL    HW129327   3.880   3.734   5.667
 9476SOL    HW229328   3.938   3.754   5.819
 9477SOL     OW29329   1.557   3.313   0.886
 9477SOL    HW129330   1.504   3.239   0.844
 9477SOL    HW229331   1.506   3.398   0.879
 9478SOL     OW29332   4.510   2.929   0.859
 9478SOL    HW129333   4.444   3.003   0.867
 9478SOL    HW229334   4.603   2.967   0.859
 9479SOL     OW29335   4.071   6.839   0.615
 9479SOL    HW129336   4.157   6.884   0.637
 9479SOL    HW229337   4.011   6.841   0.695
 9480SOL     OW29338   5.913   5.162   0.497
 9480SOL    HW129339   5.915   5.246   0.552
 9480SOL    HW229340   5.986   5.166   0.428
 9481SOL     OW29341   5.039   2.503   3.069
 9481SOL    HW129342   5.010   2.567   3.140
 9481SOL    HW229343   5.008   2.411   3.093
 9482SOL     OW29344   6.104   0.419   2.453
 9482SOL    HW129345   6.188   0.462   2.419
 9482SOL    HW229346   6.101   0.425   2.552
 9483SOL     OW29347   1.527   1.071   0.272
 9483SOL    HW129348   1.436   1.030   0.262
 9483SOL    HW229349   1.595   0.999   0.282
 9484SOL     OW29350   2.609   0.331   4.835
 9484SOL    HW129351   2.667   0.410   4.816
 9484SOL    HW229352   2.645   0.251   4.787
 9485SOL     OW29353   6.968   1.491   0.813
 9485SOL    HW129354   6.975   1.543   0.727
 9485SOL    HW229355   6.939   1.397   0.793
 9486SOL     OW29356   4.870   6.107   1.236
 9486SOL    HW129357   4.969   6.116   1.238
 9486SOL    HW229358   4.832   6.139   1.323
 9487SOL     OW29359   3.369   3.966   4.681
 9487SOL    HW129360   3.372   3.984   4.582
 9487SOL    HW229361   3.419   4.037   4.730
 9488SOL     OW29362   2.322   0.165   0.929
 9488SOL    HW129363   2.348   0.132   0.838
 9488SOL    HW229364   2.293   0.260   0.923
 9489SOL     OW29365   5.099   4.255   1.084
 9489SOL    HW129366   5.126   4.320   1.012
 9489SOL    HW229367   5.012   4.213   1.061
 9490SOL     OW29368   6.913   6.293   3.546
 9490SOL    HW129369   6.974   6.216   3.563
 9490SOL    HW229370   6.968   6.375   3.528
 9491SOL     OW29371   5.977   5.670   4.589
 9491SOL    HW129372   5.990   5.592   4.650
 9491SOL    HW229373   6.064   5.719   4.579
 9492SOL     OW29374   3.950   3.097   5.716
 9492SOL    HW129375   3.863   3.047   5.721
 9492SOL    HW229376   4.026   3.032   5.716
 9493SOL     OW29377   3.682   5.486   4.037
 9493SOL    HW129378   3.647   5.562   3.981
 9493SOL    HW229379   3.668   5.400   3.988
 9494SOL     OW29380   5.736   2.838   2.425
 9494SOL    HW129381   5.740   2.934   2.398
 9494SOL    HW229382   5.813   2.817   2.485
 9495SOL     OW29383   6.998   1.431   2.619
 9495SOL    HW129384   7.007   1.492   2.540
 9495SOL    HW229385   6.917   1.456   2.672
 9496SOL     OW29386   4.962   2.393   2.074
 9496SOL    HW129387   5.006   2.390   2.164
 9496SOL    HW229388   5.029   2.419   2.005
 9497SOL     OW29389   5.271   6.419   5.777
 9497SOL    HW129390   5.195   6.436   5.714
 9497SOL    HW229391   5.296   6.323   5.773
 9498SOL     OW29392   6.518   4.487   5.381
 9498SOL    HW129393   6.458   4.414   5.414
 9498SOL    HW229394   6.501   4.502   5.283
 9499SOL     OW29395   0.571   6.041   5.044
 9499SOL    HW129396   0.581   5.943   5.026
 9499SOL    HW229397   0.511   6.053   5.124
 9500SOL     OW29398   3.818   6.239   0.634
 9500SOL    HW129399   3.907   6.217   0.672
 9500SOL    HW229400   3.808   6.338   0.625
 9501SOL     OW29401   1.746   1.425   4.609
 9501SOL    HW129402   1.702   1.508   4.575
 9501SOL    HW229403   1.833   1.449   4.652
 9502SOL     OW29404   6.299   4.167   4.072
 9502SOL    HW129405   6.219   4.124   4.031
 9502SOL    HW229406   6.275   4.201   4.163
 9503SOL     OW29407   0.090   2.652   0.643
 9503SOL    HW129408   0.105   2.706   0.726
 9503SOL    HW229409   0.054   2.711   0.571
 9504SOL     OW29410   6.421   3.885   1.399
 9504SOL    HW129411   6.504   3.838   1.429
 9504SOL    HW229412   6.439   3.934   1.314
 9505SOL     OW29413   5.534   4.564   5.257
 9505SOL    HW129414   5.463   4.496   5.279
 9505SOL    HW229415   5.624   4.521   5.266
 9506SOL     OW29416   2.043   2.640   0.640
 9506SOL    HW129417   2.088   2.615   0.554
 9506SOL    HW229418   2.040   2.739   0.648
 9507SOL     OW29419   6.592   0.613   1.436
 9507SOL    HW129420   6.685   0.602   1.400
 9507SOL    HW229421   6.544   0.526   1.431
 9508SOL     OW29422   5.905   2.112   3.106
 9508SOL    HW129423   5.912   2.211   3.110
 9508SOL    HW229424   5.846   2.085   3.030
 9509SOL     OW29425   7.024   0.259   3.467
 9509SOL    HW129426   0.028   0.353   3.482
 9509SOL    HW229427   6.950   0.238   3.531
 9510SOL     OW29428   1.152   3.380   3.210
 9510SOL    HW129429   1.226   3.447   3.209
 9510SOL    HW229430   1.079   3.413   3.271
 9511SOL     OW29431   1.553   0.755   1.833
 9511SOL    HW129432   1.574   0.705   1.916
 9511SOL    HW229433   1.569   0.853   1.847
 9512SOL     OW29434   6.370   2.276   1.473
 9512SOL    HW129435   6.323   2.356   1.512
 9512SOL    HW229436   6.367   2.200   1.538
 9513SOL     OW29437   2.864   4.583   6.063
 9513SOL    HW129438   2.774   4.539   6.074
 9513SOL    HW229439   2.873   4.619   5.971
 9514SOL     OW29440   2.825   4.164   6.897
 9514SOL    HW129441   2.762   4.102   6.850
 9514SOL    HW229442   2.792   4.182   6.989
 9515SOL     OW29443   2.133   5.977   2.774
 9515SOL    HW129444   2.203   6.010   2.711
 9515SOL    HW229445   2.084   5.900   2.733
 9516SOL     OW29446   5.870   4.437   0.178
 9516SOL    HW129447   5.884   4.534   0.197
 9516SOL    HW229448   5.957   4.389   0.184
 9517SOL     OW29449   1.419   3.529   1.448
 9517SOL    HW129450   1.450   3.494   1.536
 9517SOL    HW229451   1.419   3.629   1.449
 9518SOL     OW29452   2.508   1.494   0.925
 9518SOL    HW129453   2.547   1.552   0.853
 9518SOL    HW229454   2.581   1.447   0.973
 9519SOL     OW29455   2.710   2.782   5.384
 9519SOL    HW129456   2.656   2.703   5.354
 9519SOL    HW229457   2.807   2.759   5.381
 9520SOL     OW29458   2.937   0.450   2.861
 9520SOL    HW129459   2.982   0.537   2.840
 9520SOL    HW229460   2.990   0.374   2.824
 9521SOL     OW29461   5.709   5.173   2.513
 9521SOL    HW129462   5.771   5.103   2.476
 9521SOL    HW229463   5.623   5.170   2.462
 9522SOL     OW29464   3.256   5.177   0.757
 9522SOL    HW129465   3.235   5.269   0.722
 9522SOL    HW229466   3.285   5.119   0.681
 9523SOL     OW29467   3.249   5.318   4.477
 9523SOL    HW129468   3.185   5.330   4.553
 9523SOL    HW229469   3.311   5.396   4.474
 9524SOL     OW29470   4.008   2.709   1.662
 9524SOL    HW129471   3.977   2.789   1.714
 9524SOL    HW229472   3.988   2.722   1.565
 9525SOL     OW29473   2.268   2.706   6.237
 9525SOL    HW129474   2.362   2.719   6.270
 9525SOL    HW229475   2.222   2.638   6.294
 9526SOL     OW29476   5.670   5.640   2.449
 9526SOL    HW129477   5.666   5.574   2.524
 9526SOL    HW229478   5.758   5.688   2.452
 9527SOL     OW29479   1.185   0.716   1.427
 9527SOL    HW129480   1.170   0.801   1.478
 9527SOL    HW229481   1.098   0.684   1.391
 9528SOL     OW29482   0.052   0.561   0.067
 9528SOL    HW129483   7.011   0.634   0.062
 9528SOL    HW229484   0.136   0.597   0.107
 9529SOL     OW29485   0.039   3.331   5.159
 9529SOL    HW129486   6.978   3.369   5.184
 9529SOL    HW229487   0.076   3.382   5.081
 9530SOL     OW29488   1.622   2.767   3.438
 9530SOL    HW129489   1.590   2.693   3.380
 9530SOL    HW229490   1.663   2.839   3.382
 9531SOL     OW29491   4.110   5.531   3.396
 9531SOL    HW129492   4.038   5.587   3.437
 9531SOL    HW229493   4.178   5.509   3.465
 9532SOL     OW29494   1.238   5.841   1.961
 9532SOL    HW129495   1.158   5.784   1.982
 9532SOL    HW229496   1.308   5.785   1.916
 9533SOL     OW29497   0.172   1.112   5.327
 9533SOL    HW129498   0.265   1.077   5.338
 9533SOL    HW229499   0.162   1.195   5.383
 9534SOL     OW29500   5.811   3.145   5.490
 9534SOL    HW129501   5.815   3.230   5.543
 9534SOL    HW229502   5.725   3.099   5.507
 9535SOL     OW29503   2.568   1.167   5.930
 9535SOL    HW129504   2.576   1.207   5.838
 9535SOL    HW229505   2.476   1.131   5.942
 9536SOL     OW29506   2.056   5.450   5.220
 9536SOL    HW129507   2.050   5.513   5.297
 9536SOL    HW229508   2.130   5.384   5.235
 9537SOL     OW29509   3.053   0.797   2.362
 9537SOL    HW129510   3.021   0.779   2.269
 9537SOL    HW229511   3.152   0.810   2.361
 9538SOL     OW29512   6.454   1.426   4.265
 9538SOL    HW129513   6.443   1.334   4.229
 9538SOL    HW229514   6.395   1.489   4.215
 9539SOL     OW29515   2.179   4.575   6.585
 9539SOL    HW129516   2.232   4.597   6.504
 9539SOL    HW229517   2.131   4.656   6.618
 9540SOL     OW29518   4.558   4.340   5.117
 9540SOL    HW129519   4.585   4.285   5.196
 9540SOL    HW229520   4.458   4.352   5.118
 9541SOL     OW29521   2.034   2.095   5.482
 9541SOL    HW129522   2.082   2.041   5.413
 9541SOL    HW229523   2.096   2.117   5.557
 9542SOL     OW29524   4.932   3.644   5.312
 9542SOL    HW129525   4.867   3.608   5.245
 9542SOL    HW229526   4.906   3.738   5.335
 9543SOL     OW29527   4.799   0.430   4.589
 9543SOL    HW129528   4.847   0.508   4.549
 9543SOL    HW229529   4.759   0.457   4.677
 9544SOL     OW29530   5.385   0.494   1.481
 9544SOL    HW129531   5.470   0.546   1.470
 9544SOL    HW229532   5.404   0.410   1.532
 9545SOL     OW29533   6.689   5.477   2.724
 9545SOL    HW129534   6.715   5.474   2.821
 9545SOL    HW229535   6.770   5.486   2.667
 9546SOL     OW29536   2.713   3.959   6.705
 9546SOL    HW129537   2.746   3.869   6.733
 9546SOL    HW229538   2.613   3.959   6.704
 9547SOL     OW29539   2.329   6.208   4.310
 9547SOL    HW129540   2.346   6.188   4.213
 9547SOL    HW229541   2.239   6.174   4.336
 9548SOL     OW29542   6.538   5.224   4.987
 9548SOL    HW129543   6.448   5.224   5.031
 9548SOL    HW229544   6.565   5.318   4.967
 9549SOL     OW29545   3.174   4.906   0.894
 9549SOL    HW129546   3.120   4.944   0.969
 9549SOL    HW229547   3.205   4.980   0.834
 9550SOL     OW29548   6.563   1.128   6.522
 9550SOL    HW129549   6.637   1.195   6.517
 9550SOL    HW229550   6.603   1.037   6.538
 9551SOL     OW29551   0.400   6.676   4.418
 9551SOL    HW129552   0.419   6.766   4.459
 9551SOL    HW229553   0.436   6.604   4.478
 9552SOL     OW29554   1.952   6.400   3.008
 9552SOL    HW129555   1.907   6.319   3.045
 9552SOL    HW229556   2.047   6.378   2.984
 9553SOL     OW29557   6.102   5.056   6.496
 9553SOL    HW129558   6.192   5.080   6.531
 9553SOL    HW229559   6.064   4.981   6.551
 9554SOL     OW29560   3.168   1.165   1.634
 9554SOL    HW129561   3.121   1.183   1.720
 9554SOL    HW229562   3.262   1.197   1.641
 9555SOL     OW29563   6.282   2.560   1.522
 9555SOL    HW129564   6.246   2.653   1.517
 9555SOL    HW229565   6.367   2.560   1.575
 9556SOL     OW29566   2.520   1.720   1.966
 9556SOL    HW129567   2.451   1.686   1.902
 9556SOL    HW229568   2.605   1.739   1.916
 9557SOL     OW29569   5.670   0.612   2.439
 9557SOL    HW129570   5.630   0.667   2.366
 9557SOL    HW229571   5.767   0.637   2.450
 9558SOL     OW29572   6.843   5.256   3.229
 9558SOL    HW129573   6.843   5.188   3.156
 9558SOL    HW229574   6.755   5.304   3.230
 9559SOL     OW29575   0.242   4.231   2.481
 9559SOL    HW129576   0.238   4.277   2.391
 9559SOL    HW229577   0.314   4.162   2.479
 9560SOL     OW29578   2.257   1.199   2.330
 9560SOL    HW129579   2.274   1.169   2.424
 9560SOL    HW229580   2.172   1.251   2.326
 9561SOL     OW29581   2.638   6.766   0.393
 9561SOL    HW129582   2.604   6.678   0.426
 9561SOL    HW229583   2.627   6.772   0.294
 9562SOL     OW29584   3.587   5.453   4.536
 9562SOL    HW129585   3.557   5.502   4.618
 9562SOL    HW229586   3.567   5.356   4.546
 9563SOL     OW29587   6.256   6.328   6.895
 9563SOL    HW129588   6.326   6.271   6.854
 9563SOL    HW229589   6.298   6.396   6.956
 9564SOL     OW29590   2.758   6.986   6.633
 9564SOL    HW129591   2.688   0.025   6.607
 9564SOL    HW229592   2.842   0.006   6.659
 9565SOL     OW29593   4.471   5.863   5.541
 9565SOL    HW129594   4.400   5.795   5.558
 9565SOL    HW229595   4.550   5.818   5.498
 9566SOL     OW29596   3.735   4.227   6.613
 9566SOL    HW129597   3.819   4.173   6.618
 9566SOL    HW229598   3.672   4.183   6.549
 9567SOL     OW29599   6.148   5.727   6.527
 9567SOL    HW129600   6.102   5.649   6.570
 9567SOL    HW229601   6.127   5.728   6.429
 9568SOL     OW29602   5.182   3.521   6.416
 9568SOL    HW129603   5.169   3.529   6.515
 9568SOL    HW229604   5.181   3.612   6.375
 9569SOL     OW29605   6.250   1.086   0.189
 9569SOL    HW129606   6.178   1.114   0.125
 9569SOL    HW229607   6.274   0.991   0.171
 9570SOL     OW29608   0.666   1.367   1.439
 9570SOL    HW129609   0.595   1.360   1.509
 9570SOL    HW229610   0.743   1.307   1.464
 9571SOL     OW29611   2.749   3.826   0.015
 9571SOL    HW129612   2.761   3.844   0.113
 9571SOL    HW229613   2.837   3.802   7.002
 9572SOL     OW29614   1.340   4.322   1.145
 9572SOL    HW129615   1.344   4.260   1.066
 9572SOL    HW229616   1.329   4.416   1.113
 9573SOL     OW29617   0.959   0.519   6.631
 9573SOL    HW129618   0.889   0.511   6.702
 9573SOL    HW229619   1.049   0.520   6.674
 9574SOL     OW29620   3.056   3.461   5.523
 9574SOL    HW129621   2.973   3.436   5.474
 9574SOL    HW229622   3.130   3.397   5.500
 9575SOL     OW29623   6.074   0.630   1.229
 9575SOL    HW129624   6.082   0.542   1.276
 9575SOL    HW229625   6.039   0.699   1.293
 9576SOL     OW29626   3.895   1.583   3.841
 9576SOL    HW129627   3.960   1.508   3.849
 9576SOL    HW229628   3.856   1.583   3.749
 9577SOL     OW29629   0.899   0.361   2.334
 9577SOL    HW129630   0.908   0.449   2.380
 9577SOL    HW229631   0.822   0.310   2.373
 9578SOL     OW29632   6.070   2.936   2.846
 9578SOL    HW129633   6.034   2.930   2.939
 9578SOL    HW229634   6.168   2.952   2.849
 9579SOL     OW29635   0.932   6.826   2.065
 9579SOL    HW129636   1.026   6.803   2.091
 9579SOL    HW229637   0.895   6.755   2.006
 9580SOL     OW29638   5.182   3.576   0.058
 9580SOL    HW129639   5.085   3.554   0.046
 9580SOL    HW229640   5.220   3.518   0.129
 9581SOL     OW29641   1.809   5.296   5.977
 9581SOL    HW129642   1.839   5.284   6.072
 9581SOL    HW229643   1.711   5.315   5.975
 9582SOL     OW29644   4.251   4.686   4.162
 9582SOL    HW129645   4.288   4.597   4.137
 9582SOL    HW229646   4.304   4.724   4.238
 9583SOL     OW29647   2.021   3.513   1.798
 9583SOL    HW129648   2.053   3.450   1.727
 9583SOL    HW229649   2.076   3.500   1.881
 9584SOL     OW29650   6.120   5.120   0.302
 9584SOL    HW129651   6.178   5.040   0.285
 9584SOL    HW229652   6.118   5.177   0.220
 9585SOL     OW29653   5.546   0.076   2.911
 9585SOL    HW129654   5.520   0.168   2.882
 9585SOL    HW229655   5.465   0.018   2.914
 9586SOL     OW29656   5.212   3.622   3.785
 9586SOL    HW129657   5.259   3.629   3.697
 9586SOL    HW229658   5.251   3.546   3.837
 9587SOL     OW29659   6.102   0.415   1.397
 9587SOL    HW129660   6.071   0.390   1.489
 9587SOL    HW229661   6.133   0.333   1.348
 9588SOL     OW29662   0.037   0.709   1.147
 9588SOL    HW129663   0.118   0.651   1.154
 9588SOL    HW229664   7.026   0.723   1.239
 9589SOL     OW29665   2.175   6.623   6.128
 9589SOL    HW129666   2.075   6.614   6.125
 9589SOL    HW229667   2.211   6.562   6.199
 9590SOL     OW29668   0.415   3.766   2.374
 9590SOL    HW129669   0.507   3.770   2.412
 9590SOL    HW229670   0.419   3.779   2.275
 9591SOL     OW29671   2.043   6.466   0.651
 9591SOL    HW129672   1.967   6.519   0.613
 9591SOL    HW229673   2.121   6.473   0.589
 9592SOL     OW29674   3.938   5.428   3.074
 9592SOL    HW129675   3.994   5.443   3.155
 9592SOL    HW229676   3.994   5.389   3.001
 9593SOL     OW29677   5.543   2.352   4.450
 9593SOL    HW129678   5.637   2.326   4.426
 9593SOL    HW229679   5.545   2.418   4.526
 9594SOL     OW29680   6.592   6.178   2.863
 9594SOL    HW129681   6.619   6.270   2.834
 9594SOL    HW229682   6.602   6.170   2.962
 9595SOL     OW29683   1.577   5.879   4.356
 9595SOL    HW129684   1.514   5.929   4.297
 9595SOL    HW229685   1.539   5.789   4.378
 9596SOL     OW29686   0.101   5.633   5.279
 9596SOL    HW129687   0.199   5.617   5.270
 9596SOL    HW229688   0.069   5.598   5.367
 9597SOL     OW29689   0.350   4.152   1.888
 9597SOL    HW129690   0.380   4.224   1.826
 9597SOL    HW229691   0.382   4.063   1.854
 9598SOL     OW29692   0.664   4.376   5.660
 9598SOL    HW129693   0.715   4.435   5.723
 9598SOL    HW229694   0.673   4.411   5.567
 9599SOL     OW29695   3.339   0.253   5.580
 9599SOL    HW129696   3.398   0.299   5.513
 9599SOL    HW229697   3.327   0.158   5.553
 9600SOL     OW29698   1.371   0.436   5.835
 9600SOL    HW129699   1.333   0.517   5.792
 9600SOL    HW229700   1.361   0.442   5.934
 9601SOL     OW29701   0.167   4.684   6.182
 9601SOL    HW129702   0.202   4.776   6.162
 9601SOL    HW229703   0.244   4.622   6.198
 9602SOL     OW29704   6.760   4.773   6.109
 9602SOL    HW129705   6.720   4.787   6.200
 9602SOL    HW229706   6.785   4.677   6.098
 9603SOL     OW29707   2.633   5.834   4.378
 9603SOL    HW129708   2.612   5.931   4.395
 9603SOL    HW229709   2.611   5.811   4.283
 9604SOL     OW29710   5.090   1.113   0.154
 9604SOL    HW129711   5.003   1.068   0.132
 9604SOL    HW229712   5.098   1.197   0.101
 9605SOL     OW29713   1.772   5.373   5.282
 9605SOL    HW129714   1.713   5.390   5.203
 9605SOL    HW229715   1.866   5.359   5.251
 9606SOL     OW29716   0.427   6.481   3.084
 9606SOL    HW129717   0.423   6.517   3.177
 9606SOL    HW229718   0.519   6.495   3.047
 9607SOL     OW29719   0.848   0.684   1.834
 9607SOL    HW129720   0.827   0.775   1.798
 9607SOL    HW229721   0.946   0.668   1.827
 9608SOL     OW29722   6.775   0.149   2.147
 9608SOL    HW129723   6.844   0.222   2.144
 9608SOL    HW229724   6.736   0.144   2.239
 9609SOL     OW29725   1.891   4.267   4.863
 9609SOL    HW129726   1.947   4.318   4.798
 9609SOL    HW229727   1.938   4.262   4.951
 9610SOL     OW29728   1.556   2.317   5.701
 9610SOL    HW129729   1.516   2.226   5.712
 9610SOL    HW229730   1.486   2.379   5.664
 9611SOL     OW29731   6.728   0.228   1.038
 9611SOL    HW129732   6.666   0.295   1.080
 9611SOL    HW229733   6.812   0.273   1.009
 9612SOL     OW29734   6.732   2.930   0.563
 9612SOL    HW129735   6.695   2.997   0.499
 9612SOL    HW229736   6.701   2.952   0.656
 9613SOL     OW29737   5.575   6.903   4.749
 9613SOL    HW129738   5.546   6.892   4.844
 9613SOL    HW229739   5.555   6.996   4.718
 9614SOL     OW29740   3.814   4.019   2.213
 9614SOL    HW129741   3.762   4.042   2.130
 9614SOL    HW229742   3.878   4.093   2.233
 9615SOL     OW29743   1.623   5.927   2.733
 9615SOL    HW129744   1.677   6.001   2.773
 9615SOL    HW229745   1.588   5.955   2.644
 9616SOL     OW29746   3.696   2.676   1.029
 9616SOL    HW129747   3.652   2.747   0.974
 9616SOL    HW229748   3.795   2.689   1.028
 9617SOL     OW29749   0.872   3.133   3.457
 9617SOL    HW129750   0.944   3.064   3.469
 9617SOL    HW229751   0.865   3.188   3.540
 9618SOL     OW29752   3.922   6.723   6.786
 9618SOL    HW129753   3.952   6.639   6.742
 9618SOL    HW229754   3.884   6.785   6.718
 9619SOL     OW29755   2.057   5.823   0.323
 9619SOL    HW129756   2.000   5.904   0.330
 9619SOL    HW229757   2.152   5.847   0.342
 9620SOL     OW29758   3.220   0.550   6.511
 9620SOL    HW129759   3.296   0.532   6.449
 9620SOL    HW229760   3.190   0.645   6.501
 9621SOL     OW29761   0.473   0.221   2.713
 9621SOL    HW129762   0.534   0.270   2.775
 9621SOL    HW229763   0.398   0.182   2.765
 9622SOL     OW29764   6.606   0.789   6.994
 9622SOL    HW129765   6.578   0.881   6.965
 9622SOL    HW229766   6.533   0.747   0.020
 9623SOL     OW29767   4.956   5.791   6.591
 9623SOL    HW129768   4.984   5.887   6.584
 9623SOL    HW229769   4.857   5.785   6.585
 9624SOL     OW29770   5.231   5.167   5.451
 9624SOL    HW129771   5.222   5.070   5.473
 9624SOL    HW229772   5.313   5.203   5.494
 9625SOL     OW29773   5.587   4.680   6.488
 9625SOL    HW129774   5.496   4.688   6.445
 9625SOL    HW229775   5.577   4.646   6.581
 9626SOL     OW29776   1.733   4.865   5.033
 9626SOL    HW129777   1.643   4.854   4.992
 9626SOL    HW229778   1.769   4.776   5.059
 9627SOL     OW29779   1.740   4.761   5.814
 9627SOL    HW129780   1.731   4.859   5.833
 9627SOL    HW229781   1.812   4.746   5.746
 9628SOL     OW29782   5.803   4.188   6.973
 9628SOL    HW129783   5.765   4.170   0.036
 9628SOL    HW229784   5.785   4.283   6.948
 9629SOL     OW29785   6.591   5.934   2.690
 9629SOL    HW129786   6.583   6.017   2.745
 9629SOL    HW229787   6.688   5.914   2.673
 9630SOL     OW29788   6.271   6.528   5.789
 9630SOL    HW129789   6.175   6.515   5.765
 9630SOL    HW229790   6.309   6.603   5.736
 9631SOL     OW29791   4.410   1.054   0.953
 9631SOL    HW129792   4.445   1.116   0.883
 9631SOL    HW229793   4.379   1.107   1.032
 9632SOL     OW29794   2.433   5.165   1.643
 9632SOL    HW129795   2.521   5.208   1.627
 9632SOL    HW229796   2.365   5.235   1.665
 9633SOL     OW29797   3.752   3.240   1.876
 9633SOL    HW129798   3.700   3.186   1.809
 9633SOL    HW229799   3.834   3.277   1.832
 9634SOL     OW29800   4.959   4.451   2.459
 9634SOL    HW129801   5.027   4.520   2.434
 9634SOL    HW229802   4.895   4.491   2.525
 9635SOL     OW29803   0.412   3.423   4.419
 9635SOL    HW129804   0.492   3.482   4.428
 9635SOL    HW229805   0.330   3.480   4.407
 9636SOL     OW29806   4.367   1.860   5.896
 9636SOL    HW129807   4.351   1.888   5.802
 9636SOL    HW229808   4.317   1.775   5.915
 9637SOL     OW29809   2.376   3.040   1.351
 9637SOL    HW129810   2.448   3.030   1.282
 9637SOL    HW229811   2.287   3.028   1.308
 9638SOL     OW29812   0.119   4.367   6.024
 9638SOL    HW129813   0.167   4.384   5.938
 9638SOL    HW229814   0.183   4.374   6.100
 9639SOL     OW29815   4.582   2.392   1.896
 9639SOL    HW129816   4.528   2.458   1.844
 9639SOL    HW229817   4.522   2.341   1.958
 9640SOL     OW29818   4.141   1.426   2.230
 9640SOL    HW129819   4.070   1.487   2.194
 9640SOL    HW229820   4.183   1.467   2.310
 9641SOL     OW29821   5.779   4.666   2.663
 9641SOL    HW129822   5.707   4.736   2.655
 9641SOL    HW229823   5.864   4.709   2.694
 9642SOL     OW29824   1.468   6.997   4.481
 9642SOL    HW129825   1.429   6.982   4.573
 9642SOL    HW229826   1.467   0.067   4.460
 9643SOL     OW29827   4.908   4.225   4.235
 9643SOL    HW129828   4.935   4.318   4.210
 9643SOL    HW229829   4.974   4.187   4.299
 9644SOL     OW29830   2.142   6.450   5.041
 9644SOL    HW129831   2.238   6.477   5.045
 9644SOL    HW229832   2.086   6.522   5.082
 9645SOL     OW29833   0.921   4.859   5.161
 9645SOL    HW129834   0.836   4.887   5.117
 9645SOL    HW229835   0.920   4.760   5.176
 9646SOL     OW29836   3.008   6.911   4.640
 9646SOL    HW129837   2.945   6.966   4.586
 9646SOL    HW229838   2.980   6.815   4.637
 9647SOL     OW29839   6.241   6.271   2.709
 9647SOL    HW129840   6.269   6.293   2.803
 9647SOL    HW229841   6.214   6.174   2.704
 9648SOL     OW29842   5.461   2.597   1.683
 9648SOL    HW129843   5.521   2.619   1.605
 9648SOL    HW229844   5.366   2.605   1.654
 9649SOL     OW29845   2.060   3.541   6.486
 9649SOL    HW129846   2.055   3.528   6.585
 9649SOL    HW229847   2.132   3.607   6.464
 9650SOL     OW29848   6.226   4.852   3.854
 9650SOL    HW129849   6.297   4.911   3.891
 9650SOL    HW229850   6.225   4.766   3.905
 9651SOL     OW29851   3.250   1.337   0.117
 9651SOL    HW129852   3.256   1.292   0.028
 9651SOL    HW229853   3.165   1.389   0.122
 9652SOL     OW29854   0.781   4.193   1.118
 9652SOL    HW129855   0.687   4.196   1.151
 9652SOL    HW229856   0.833   4.127   1.171
 9653SOL     OW29857   4.458   4.299   5.805
 9653SOL    HW129858   4.412   4.229   5.860
 9653SOL    HW229859   4.529   4.344   5.859
 9654SOL     OW29860   3.795   3.102   2.962
 9654SOL    HW129861   3.731   3.042   2.915
 9654SOL    HW229862   3.745   3.160   3.026
 9655SOL     OW29863   6.561   1.212   1.119
 9655SOL    HW129864   6.519   1.302   1.105
 9655SOL    HW229865   6.547   1.182   1.213
 9656SOL     OW29866   4.893   2.967   0.573
 9656SOL    HW129867   4.875   3.025   0.494
 9656SOL    HW229868   4.967   3.007   0.628
 9657SOL     OW29869   5.315   4.098   4.008
 9657SOL    HW129870   5.304   4.049   3.922
 9657SOL    HW229871   5.271   4.188   4.002
 9658SOL     OW29872   5.109   2.113   2.459
 9658SOL    HW129873   5.039   2.051   2.423
 9658SOL    HW229874   5.127   2.091   2.555
 9659SOL     OW29875   2.963   1.753   0.481
 9659SOL    HW129876   3.001   1.703   0.559
 9659SOL    HW229877   2.866   1.769   0.496
 9660SOL     OW29878   0.832   6.391   0.848
 9660SOL    HW129879   0.733   6.382   0.844
 9660SOL    HW229880   0.870   6.316   0.903
 9661SOL     OW29881   4.304   5.899   1.202
 9661SOL    HW129882   4.212   5.937   1.202
 9661SOL    HW229883   4.370   5.974   1.193
 9662SOL     OW29884   5.657   4.088   6.693
 9662SOL    HW129885   5.711   4.124   6.769
 9662SOL    HW229886   5.642   3.990   6.706
 9663SOL     OW29887   0.431   4.832   2.905
 9663SOL    HW129888   0.429   4.893   2.826
 9663SOL    HW229889   0.510   4.772   2.899
 9664SOL     OW29890   5.248   3.992   3.759
 9664SOL    HW129891   5.153   3.961   3.749
 9664SOL    HW229892   5.257   4.083   3.718
 9665SOL     OW29893   6.525   6.454   5.198
 9665SOL    HW129894   6.615   6.491   5.222
 9665SOL    HW229895   6.458   6.482   5.267
 9666SOL     OW29896   6.331   4.634   1.422
 9666SOL    HW129897   6.406   4.571   1.402
 9666SOL    HW229898   6.366   4.727   1.428
 9667SOL     OW29899   4.710   4.396   1.028
 9667SOL    HW129900   4.771   4.321   1.001
 9667SOL    HW229901   4.698   4.459   0.952
 9668SOL     OW29902   1.370   0.373   6.101
 9668SOL    HW129903   1.294   0.308   6.091
 9668SOL    HW229904   1.359   0.423   6.187
 9669SOL     OW29905   2.853   6.963   0.654
 9669SOL    HW129906   2.866   6.986   0.750
 9669SOL    HW229907   2.759   6.931   0.640
 9670SOL     OW29908   0.540   0.085   5.191
 9670SOL    HW129909   0.580   0.115   5.277
 9670SOL    HW229910   0.440   0.088   5.198
 9671SOL     OW29911   0.422   4.496   0.586
 9671SOL    HW129912   0.448   4.584   0.624
 9671SOL    HW229913   0.499   4.457   0.536
 9672SOL     OW29914   1.488   5.114   2.606
 9672SOL    HW129915   1.573   5.110   2.554
 9672SOL    HW229916   1.488   5.042   2.676
 9673SOL     OW29917   3.326   4.238   1.644
 9673SOL    HW129918   3.392   4.166   1.663
 9673SOL    HW229919   3.267   4.253   1.723
 9674SOL     OW29920   4.011   6.600   3.055
 9674SOL    HW129921   3.929   6.657   3.048
 9674SOL    HW229922   4.032   6.561   2.965
 9675SOL     OW29923   5.072   3.855   0.590
 9675SOL    HW129924   5.134   3.933   0.585
 9675SOL    HW229925   4.985   3.883   0.632
 9676SOL     OW29926   1.601   3.391   6.652
 9676SOL    HW129927   1.545   3.468   6.619
 9676SOL    HW229928   1.557   3.350   6.732
 9677SOL     OW29929   6.379   5.049   6.527
 9677SOL    HW129930   6.398   5.066   6.623
 9677SOL    HW229931   6.407   4.957   6.502
 9678SOL     OW29932   3.228   3.775   5.182
 9678SOL    HW129933   3.196   3.860   5.225
 9678SOL    HW229934   3.247   3.792   5.086
 9679SOL     OW29935   2.530   2.031   4.701
 9679SOL    HW129936   2.548   2.129   4.690
 9679SOL    HW229937   2.522   1.989   4.610
 9680SOL     OW29938   4.914   6.465   4.472
 9680SOL    HW129939   4.931   6.551   4.520
 9680SOL    HW229940   4.925   6.388   4.535
 9681SOL     OW29941   3.136   1.228   1.903
 9681SOL    HW129942   3.098   1.140   1.931
 9681SOL    HW229943   3.093   1.301   1.956
 9682SOL     OW29944   5.329   4.937   3.705
 9682SOL    HW129945   5.278   4.999   3.645
 9682SOL    HW229946   5.426   4.938   3.680
 9683SOL     OW29947   1.944   6.072   0.349
 9683SOL    HW129948   2.010   6.144   0.332
 9683SOL    HW229949   1.888   6.096   0.428
 9684SOL     OW29950   1.097   3.269   4.898
 9684SOL    HW129951   1.043   3.344   4.935
 9684SOL    HW229952   1.060   3.182   4.931
 9685SOL     OW29953   4.682   3.670   0.676
 9685SOL    HW129954   4.649   3.615   0.752
 9685SOL    HW229955   4.702   3.611   0.598
 9686SOL     OW29956   0.513   2.493   6.596
 9686SOL    HW129957   0.511   2.408   6.648
 9686SOL    HW229958   0.579   2.484   6.521
 9687SOL     OW29959   6.405   6.567   1.939
 9687SOL    HW129960   6.393   6.666   1.950
 9687SOL    HW229961   6.478   6.535   1.999
 9688SOL     OW29962   0.876   3.833   0.986
 9688SOL    HW129963   0.882   3.743   0.942
 9688SOL    HW229964   0.937   3.897   0.939
 9689SOL     OW29965   0.847   5.115   5.946
 9689SOL    HW129966   0.874   5.144   5.855
 9689SOL    HW229967   0.859   5.016   5.954
 9690SOL     OW29968   4.905   5.402   5.829
 9690SOL    HW129969   4.966   5.377   5.904
 9690SOL    HW229970   4.840   5.472   5.860
 9691SOL     OW29971   3.318   4.016   2.998
 9691SOL    HW129972   3.240   3.971   2.954
 9691SOL    HW229973   3.335   3.973   3.087
 9692SOL     OW29974   5.015   5.217   0.434
 9692SOL    HW129975   5.045   5.158   0.509
 9692SOL    HW229976   5.094   5.245   0.380
 9693SOL     OW29977   5.902   4.472   4.171
 9693SOL    HW129978   5.879   4.566   4.143
 9693SOL    HW229979   5.961   4.475   4.252
 9694SOL     OW29980   3.247   0.553   1.150
 9694SOL    HW129981   3.344   0.574   1.137
 9694SOL    HW229982   3.213   0.600   1.231
 9695SOL     OW29983   6.969   3.928   2.542
 9695SOL    HW129984   0.009   3.960   2.609
 9695SOL    HW229985   6.974   3.986   2.460
 9696SOL     OW29986   5.878   1.957   2.715
 9696SOL    HW129987   5.913   1.986   2.626
 9696SOL    HW229988   5.862   2.037   2.772
 9697SOL     OW29989   0.072   6.326   0.199
 9697SOL    HW129990   7.025   6.393   0.196
 9697SOL    HW229991   0.046   6.245   0.147
 9698SOL     OW29992   5.562   3.131   6.160
 9698SOL    HW129993   5.649   3.180   6.164
 9698SOL    HW229994   5.491   3.192   6.125
 9699SOL     OW29995   0.741   5.998   6.978
 9699SOL    HW129996   0.657   6.005   0.005
 9699SOL    HW229997   0.813   5.955   0.005
 9700SOL     OW29998   6.992   6.086   3.944
 9700SOL    HW129999   0.011   6.172   3.964
 9700SOL    HW230000   6.940   6.095   3.859
 9701SOL     OW30001   4.654   3.175   6.467
 9701SOL    HW130002   4.557   3.164   6.487
 9701SOL    HW230003   4.691   3.250   6.522
 9702SOL     OW30004   4.121   2.703   0.633
 9702SOL    HW130005   4.150   2.638   0.704
 9702SOL    HW230006   4.200   2.756   0.602
 9703SOL     OW30007   5.766   3.897   4.220
 9703SOL    HW130008   5.853   3.929   4.256
 9703SOL    HW230009   5.751   3.934   4.128
 9704SOL     OW30010   3.174   4.899   2.672
 9704SOL    HW130011   3.274   4.901   2.675
 9704SOL    HW230012   3.138   4.918   2.764
 9705SOL     OW30013   6.127   3.865   5.861
 9705SOL    HW130014   6.227   3.868   5.857
 9705SOL    HW230015   6.097   3.874   5.956
 9706SOL     OW30016   2.271   1.574   1.112
 9706SOL    HW130017   2.267   1.604   1.208
 9706SOL    HW230018   2.366   1.556   1.087
 9707SOL     OW30019   5.693   5.047   2.120
 9707SOL    HW130020   5.693   4.960   2.071
 9707SOL    HW230021   5.618   5.047   2.187
 9708SOL     OW30022   1.186   1.728   2.290
 9708SOL    HW130023   1.238   1.735   2.205
 9708SOL    HW230024   1.212   1.644   2.338
 9709SOL     OW30025   5.173   4.381   1.860
 9709SOL    HW130026   5.114   4.336   1.793
 9709SOL    HW230027   5.268   4.357   1.843
 9710SOL     OW30028   6.480   0.349   0.058
 9710SOL    HW130029   6.525   0.305   0.136
 9710SOL    HW230030   6.384   0.365   0.080
 9711SOL     OW30031   3.851   6.218   5.768
 9711SOL    HW130032   3.802   6.239   5.853
 9711SOL    HW230033   3.949   6.229   5.782
 9712SOL     OW30034   6.241   3.304   0.464
 9712SOL    HW130035   6.177   3.230   0.446
 9712SOL    HW230036   6.331   3.266   0.486
 9713SOL     OW30037   2.578   6.496   2.942
 9713SOL    HW130038   2.486   6.495   2.979
 9713SOL    HW230039   2.579   6.452   2.852
 9714SOL     OW30040   4.189   6.005   5.571
 9714SOL    HW130041   4.108   6.025   5.514
 9714SOL    HW230042   4.269   5.998   5.512
 9715SOL     OW30043   6.240   4.800   0.489
 9715SOL    HW130044   6.146   4.823   0.466
 9715SOL    HW230045   6.289   4.884   0.514
 9716SOL     OW30046   3.957   3.873   0.021
 9716SOL    HW130047   3.870   3.849   0.064
 9716SOL    HW230048   4.029   3.814   0.057
 9717SOL     OW30049   4.377   6.389   7.000
 9717SOL    HW130050   4.411   6.360   6.910
 9717SOL    HW230051   4.364   6.488   7.000
 9718SOL     OW30052   4.346   2.588   0.198
 9718SOL    HW130053   4.357   2.566   0.295
 9718SOL    HW230054   4.291   2.517   0.154
 9719SOL     OW30055   5.302   6.969   5.598
 9719SOL    HW130056   5.214   6.927   5.577
 9719SOL    HW230057   5.326   6.951   5.693
 9720SOL     OW30058   1.368   3.678   2.803
 9720SOL    HW130059   1.407   3.628   2.725
 9720SOL    HW230060   1.269   3.675   2.797
 9721SOL     OW30061   0.457   1.747   0.034
 9721SOL    HW130062   0.405   1.809   7.002
 9721SOL    HW230063   0.516   1.689   7.005
 9722SOL     OW30064   3.565   1.755   4.973
 9722SOL    HW130065   3.613   1.733   4.889
 9722SOL    HW230066   3.483   1.699   4.980
 9723SOL     OW30067   5.950   5.236   4.183
 9723SOL    HW130068   6.014   5.195   4.118
 9723SOL    HW230069   5.948   5.335   4.170
 9724SOL     OW30070   2.290   4.897   6.578
 9724SOL    HW130071   2.345   4.888   6.495
 9724SOL    HW230072   2.195   4.872   6.557
 9725SOL     OW30073   4.372   6.047   5.374
 9725SOL    HW130074   4.425   6.095   5.304
 9725SOL    HW230075   4.432   5.982   5.422
 9726SOL     OW30076   5.030   1.226   4.349
 9726SOL    HW130077   5.009   1.154   4.282
 9726SOL    HW230078   5.129   1.243   4.349
 9727SOL     OW30079   0.451   2.626   0.062
 9727SOL    HW130080   0.427   2.583   7.003
 9727SOL    HW230081   0.375   2.616   0.127
 9728SOL     OW30082   6.914   1.872   5.957
 9728SOL    HW130083   6.980   1.830   5.895
 9728SOL    HW230084   6.960   1.899   6.041
 9729SOL     OW30085   1.627   3.376   4.046
 9729SOL    HW130086   1.706   3.400   3.989
 9729SOL    HW230087   1.605   3.279   4.034
 9730SOL     OW30088   1.137   4.758   3.183
 9730SOL    HW130089   1.233   4.742   3.209
 9730SOL    HW230090   1.123   4.855   3.164
 9731SOL     OW30091   5.208   5.265   2.083
 9731SOL    HW130092   5.143   5.252   2.008
 9731SOL    HW230093   5.194   5.193   2.151
 9732SOL     OW30094   0.060   2.740   1.742
 9732SOL    HW130095   0.055   2.812   1.673
 9732SOL    HW230096   0.143   2.753   1.798
 9733SOL     OW30097   5.874   5.468   1.318
 9733SOL    HW130098   5.783   5.492   1.282
 9733SOL    HW230099   5.936   5.545   1.306
 9734SOL     OW30100   6.641   6.911   0.587
 9734SOL    HW130101   6.654   6.969   0.667
 9734SOL    HW230102   6.707   6.836   0.588
 9735SOL     OW30103   1.446   2.577   3.382
 9735SOL    HW130104   1.446   2.597   3.480
 9735SOL    HW230105   1.457   2.479   3.367
 9736SOL     OW30106   4.746   2.047   6.305
 9736SOL    HW130107   4.700   2.119   6.253
 9736SOL    HW230108   4.842   2.072   6.317
 9737SOL     OW30109   5.864   2.105   3.395
 9737SOL    HW130110   5.878   2.101   3.297
 9737SOL    HW230111   5.836   2.014   3.428
 9738SOL     OW30112   1.949   6.616   0.408
 9738SOL    HW130113   1.884   6.572   0.346
 9738SOL    HW230114   1.906   6.630   0.497
 9739SOL     OW30115   4.661   6.171   0.036
 9739SOL    HW130116   4.637   6.127   6.976
 9739SOL    HW230117   4.750   6.215   0.027
 9740SOL     OW30118   5.781   1.142   2.775
 9740SOL    HW130119   5.686   1.113   2.763
 9740SOL    HW230120   5.817   1.101   2.859
 9741SOL     OW30121   2.430   0.854   3.879
 9741SOL    HW130122   2.389   0.763   3.884
 9741SOL    HW230123   2.434   0.894   3.971
 9742SOL     OW30124   4.317   0.897   0.505
 9742SOL    HW130125   4.296   0.939   0.593
 9742SOL    HW230126   4.311   0.966   0.432
 9743SOL     OW30127   0.194   4.184   3.418
 9743SOL    HW130128   0.273   4.135   3.454
 9743SOL    HW230129   0.160   4.136   3.337
 9744SOL     OW30130   2.550   6.887   3.151
 9744SOL    HW130131   2.496   6.807   3.175
 9744SOL    HW230132   2.617   6.904   3.223
 9745SOL     OW30133   5.452   2.628   5.934
 9745SOL    HW130134   5.419   2.702   5.875
 9745SOL    HW230135   5.478   2.665   6.023
 9746SOL     OW30136   5.665   6.474   6.206
 9746SOL    HW130137   5.588   6.538   6.196
 9746SOL    HW230138   5.707   6.487   6.296
 9747SOL     OW30139   2.819   2.178   1.616
 9747SOL    HW130140   2.750   2.249   1.631
 9747SOL    HW230141   2.864   2.193   1.528
 9748SOL     OW30142   0.238   6.522   2.652
 9748SOL    HW130143   0.216   6.425   2.637
 9748SOL    HW230144   0.211   6.548   2.744
 9749SOL     OW30145   0.629   1.176   2.422
 9749SOL    HW130146   0.727   1.197   2.412
 9749SOL    HW230147   0.590   1.159   2.332
 9750SOL     OW30148   6.463   5.215   3.958
 9750SOL    HW130149   6.471   5.115   3.957
 9750SOL    HW230150   6.535   5.254   4.015
 9751SOL     OW30151   1.626   0.101   0.784
 9751SOL    HW130152   1.603   0.112   0.881
 9751SOL    HW230153   1.611   0.188   0.736
 9752SOL     OW30154   3.747   1.931   6.123
 9752SOL    HW130155   3.718   1.856   6.183
 9752SOL    HW230156   3.846   1.938   6.123
 9753SOL     OW30157   1.394   5.519   6.242
 9753SOL    HW130158   1.322   5.576   6.203
 9753SOL    HW230159   1.483   5.561   6.223
 9754SOL     OW30160   3.512   6.687   0.620
 9754SOL    HW130161   3.604   6.710   0.652
 9754SOL    HW230162   3.496   6.729   0.531
 9755SOL     OW30163   3.518   3.932   5.535
 9755SOL    HW130164   3.507   3.833   5.531
 9755SOL    HW230165   3.589   3.955   5.602
 9756SOL     OW30166   5.932   1.771   6.361
 9756SOL    HW130167   6.020   1.767   6.314
 9756SOL    HW230168   5.947   1.769   6.460
 9757SOL     OW30169   5.813   4.890   4.425
 9757SOL    HW130170   5.730   4.932   4.462
 9757SOL    HW230171   5.854   4.830   4.494
 9758SOL     OW30172   1.569   1.159   6.899
 9758SOL    HW130173   1.480   1.113   6.888
 9758SOL    HW230174   1.565   1.218   6.980
 9759SOL     OW30175   1.125   1.952   0.400
 9759SOL    HW130176   1.170   2.012   0.466
 9759SOL    HW230177   1.192   1.919   0.335
 9760SOL     OW30178   5.279   3.205   6.934
 9760SOL    HW130179   5.283   3.156   6.847
 9760SOL    HW230180   5.369   3.202   6.977
 9761SOL     OW30181   1.365   2.216   2.234
 9761SOL    HW130182   1.416   2.299   2.212
 9761SOL    HW230183   1.281   2.240   2.282
 9762SOL     OW30184   3.315   1.548   4.948
 9762SOL    HW130185   3.232   1.602   4.933
 9762SOL    HW230186   3.363   1.536   4.861
 9763SOL     OW30187   5.646   1.137   3.193
 9763SOL    HW130188   5.726   1.104   3.144
 9763SOL    HW230189   5.590   1.194   3.133
 9764SOL     OW30190   6.583   2.104   2.610
 9764SOL    HW130191   6.592   2.044   2.531
 9764SOL    HW230192   6.491   2.097   2.647
 9765SOL     OW30193   6.736   0.560   2.972
 9765SOL    HW130194   6.772   0.552   3.065
 9765SOL    HW230195   6.638   0.575   2.975
 9766SOL     OW30196   2.439   0.193   2.573
 9766SOL    HW130197   2.464   0.167   2.480
 9766SOL    HW230198   2.515   0.172   2.635
 9767SOL     OW30199   2.074   2.723   5.093
 9767SOL    HW130200   2.062   2.716   5.192
 9767SOL    HW230201   2.171   2.741   5.073
 9768SOL     OW30202   4.672   1.949   1.109
 9768SOL    HW130203   4.680   1.912   1.016
 9768SOL    HW230204   4.731   1.897   1.171
 9769SOL     OW30205   3.477   0.768   4.810
 9769SOL    HW130206   3.435   0.788   4.899
 9769SOL    HW230207   3.569   0.731   4.825
 9770SOL     OW30208   4.155   1.592   5.458
 9770SOL    HW130209   4.099   1.671   5.432
 9770SOL    HW230210   4.119   1.510   5.414
 9771SOL     OW30211   2.500   6.056   1.147
 9771SOL    HW130212   2.583   6.093   1.105
 9771SOL    HW230213   2.430   6.128   1.150
 9772SOL     OW30214   2.271   6.195   1.445
 9772SOL    HW130215   2.323   6.172   1.527
 9772SOL    HW230216   2.334   6.230   1.375
 9773SOL     OW30217   5.524   5.548   3.243
 9773SOL    HW130218   5.472   5.471   3.205
 9773SOL    HW230219   5.592   5.579   3.177
 9774SOL     OW30220   0.750   4.507   3.355
 9774SOL    HW130221   0.745   4.607   3.355
 9774SOL    HW230222   0.826   4.477   3.299
 9775SOL     OW30223   2.579   0.319   3.204
 9775SOL    HW130224   2.590   0.355   3.296
 9775SOL    HW230225   2.582   0.395   3.138
 9776SOL     OW30226   1.299   4.634   5.828
 9776SOL    HW130227   1.252   4.546   5.823
 9776SOL    HW230228   1.263   4.686   5.906
 9777SOL     OW30229   5.335   5.731   0.491
 9777SOL    HW130230   5.260   5.686   0.443
 9777SOL    HW230231   5.303   5.763   0.581
 9778SOL     OW30232   0.083   1.956   4.549
 9778SOL    HW130233   0.016   1.882   4.545
 9778SOL    HW230234   0.053   2.032   4.491
 9779SOL     OW30235   0.047   2.345   3.433
 9779SOL    HW130236   6.980   2.347   3.467
 9779SOL    HW230237   0.095   2.267   3.472
 9780SOL     OW30238   2.091   1.720   0.909
 9780SOL    HW130239   2.056   1.653   0.843
 9780SOL    HW230240   2.175   1.684   0.950
 9781SOL     OW30241   2.181   3.219   4.562
 9781SOL    HW130242   2.206   3.150   4.631
 9781SOL    HW230243   2.123   3.288   4.604
 9782SOL     OW30244   0.651   1.726   0.234
 9782SOL    HW130245   0.707   1.646   0.213
 9782SOL    HW230246   0.591   1.746   0.156
 9783SOL     OW30247   4.312   2.360   3.690
 9783SOL    HW130248   4.410   2.351   3.710
 9783SOL    HW230249   4.300   2.386   3.594
 9784SOL     OW30250   3.519   0.898   5.995
 9784SOL    HW130251   3.536   0.809   5.953
 9784SOL    HW230252   3.429   0.931   5.968
 9785SOL     OW30253   6.121   2.787   5.510
 9785SOL    HW130254   6.066   2.854   5.461
 9785SOL    HW230255   6.072   2.700   5.514
 9786SOL     OW30256   2.293   3.999   0.400
 9786SOL    HW130257   2.392   4.012   0.394
 9786SOL    HW230258   2.249   4.085   0.424
 9787SOL     OW30259   3.005   3.291   3.777
 9787SOL    HW130260   3.024   3.198   3.744
 9787SOL    HW230261   3.037   3.357   3.709
 9788SOL     OW30262   0.412   6.906   1.987
 9788SOL    HW130263   0.358   6.975   1.937
 9788SOL    HW230264   0.367   6.887   2.075
 9789SOL     OW30265   2.326   6.505   6.887
 9789SOL    HW130266   2.243   6.470   6.844
 9789SOL    HW230267   2.386   6.429   6.911
 9790SOL     OW30268   6.281   4.799   6.203
 9790SOL    HW130269   6.246   4.875   6.148
 9790SOL    HW230270   6.281   4.715   6.148
 9791SOL     OW30271   0.787   0.119   0.282
 9791SOL    HW130272   0.821   0.208   0.313
 9791SOL    HW230273   0.697   0.102   0.321
 9792SOL     OW30274   3.313   4.967   0.588
 9792SOL    HW130275   3.263   4.880   0.583
 9792SOL    HW230276   3.411   4.949   0.596
 9793SOL     OW30277   4.154   0.011   2.714
 9793SOL    HW130278   4.160   6.939   2.702
 9793SOL    HW230279   4.229   0.055   2.666
 9794SOL     OW30280   5.799   4.454   5.256
 9794SOL    HW130281   5.864   4.415   5.320
 9794SOL    HW230282   5.839   4.534   5.211
 9795SOL     OW30283   0.909   2.860   4.685
 9795SOL    HW130284   0.906   2.838   4.587
 9795SOL    HW230285   0.823   2.834   4.728
 9796SOL     OW30286   3.859   3.851   3.749
 9796SOL    HW130287   3.865   3.907   3.832
 9796SOL    HW230288   3.905   3.764   3.763
 9797SOL     OW30289   2.322   5.363   6.739
 9797SOL    HW130290   2.297   5.267   6.740
 9797SOL    HW230291   2.403   5.377   6.797
 9798SOL     OW30292   2.382   0.942   1.742
 9798SOL    HW130293   2.402   0.995   1.660
 9798SOL    HW230294   2.386   1.002   1.822
 9799SOL     OW30295   3.228   3.861   5.885
 9799SOL    HW130296   3.164   3.784   5.888
 9799SOL    HW230297   3.209   3.917   5.804
 9800SOL     OW30298   5.719   4.646   3.970
 9800SOL    HW130299   5.655   4.622   4.043
 9800SOL    HW230300   5.758   4.736   3.988
 9801SOL     OW30301   5.169   4.820   0.382
 9801SOL    HW130302   5.268   4.829   0.371
 9801SOL    HW230303   5.143   4.845   0.476
 9802SOL     OW30304   4.764   5.042   0.696
 9802SOL    HW130305   4.673   5.033   0.655
 9802SOL    HW230306   4.772   5.131   0.741
 9803SOL     OW30307   2.485   3.521   6.197
 9803SOL    HW130308   2.483   3.619   6.177
 9803SOL    HW230309   2.392   3.488   6.207
 9804SOL     OW30310   0.253   6.110   3.197
 9804SOL    HW130311   0.153   6.121   3.196
 9804SOL    HW230312   0.276   6.013   3.190
 9805SOL     OW30313   0.410   6.819   3.161
 9805SOL    HW130314   0.457   6.906   3.173
 9805SOL    HW230315   0.406   6.796   3.064
 9806SOL     OW30316   1.943   1.607   6.964
 9806SOL    HW130317   2.008   1.664   6.915
 9806SOL    HW230318   1.974   1.512   6.963
 9807SOL     OW30319   3.240   3.354   1.875
 9807SOL    HW130320   3.298   3.278   1.844
 9807SOL    HW230321   3.274   3.439   1.836
 9808SOL     OW30322   3.373   5.699   3.982
 9808SOL    HW130323   3.449   5.738   3.930
 9808SOL    HW230324   3.382   5.599   3.983
 9809SOL     OW30325   0.609   3.413   0.398
 9809SOL    HW130326   0.609   3.353   0.478
 9809SOL    HW230327   0.515   3.442   0.379
 9810SOL     OW30328   2.906   2.260   4.851
 9810SOL    HW130329   2.858   2.174   4.862
 9810SOL    HW230330   2.974   2.270   4.923
 9811SOL     OW30331   5.793   4.720   3.424
 9811SOL    HW130332   5.818   4.625   3.408
 9811SOL    HW230333   5.760   4.731   3.517
 9812SOL     OW30334   2.741   1.159   4.796
 9812SOL    HW130335   2.672   1.143   4.725
 9812SOL    HW230336   2.826   1.190   4.753
 9813SOL     OW30337   5.291   1.932   1.085
 9813SOL    HW130338   5.297   2.031   1.085
 9813SOL    HW230339   5.324   1.896   1.172
 9814SOL     OW30340   6.131   1.387   0.139
 9814SOL    HW130341   6.166   1.388   0.232
 9814SOL    HW230342   6.167   1.307   0.091
 9815SOL     OW30343   4.636   2.519   4.227
 9815SOL    HW130344   4.569   2.466   4.175
 9815SOL    HW230345   4.707   2.458   4.263
 9816SOL     OW30346   0.866   0.731   6.492
 9816SOL    HW130347   0.930   0.725   6.416
 9816SOL    HW230348   0.882   0.656   6.556
 9817SOL     OW30349   1.165   0.076   3.415
 9817SOL    HW130350   1.152   7.022   3.471
 9817SOL    HW230351   1.240   0.060   3.351
 9818SOL     OW30352   6.275   2.199   4.673
 9818SOL    HW130353   6.224   2.166   4.593
 9818SOL    HW230354   6.352   2.256   4.643
 9819SOL     OW30355   4.827   3.157   3.471
 9819SOL    HW130356   4.813   3.205   3.557
 9819SOL    HW230357   4.802   3.061   3.482
 9820SOL     OW30358   3.840   3.210   6.631
 9820SOL    HW130359   3.742   3.192   6.643
 9820SOL    HW230360   3.852   3.302   6.594
 9821SOL     OW30361   5.608   1.023   6.964
 9821SOL    HW130362   5.515   1.002   6.934
 9821SOL    HW230363   5.621   0.992   0.031
 9822SOL     OW30364   1.558   6.637   3.352
 9822SOL    HW130365   1.467   6.678   3.353
 9822SOL    HW230366   1.622   6.700   3.307
 9823SOL     OW30367   3.903   0.080   0.951
 9823SOL    HW130368   3.964   0.007   0.919
 9823SOL    HW230369   3.925   0.102   1.046
 9824SOL     OW30370   1.864   4.642   5.396
 9824SOL    HW130371   1.937   4.671   5.335
 9824SOL    HW230372   1.882   4.549   5.428
 9825SOL     OW30373   3.154   5.114   5.483
 9825SOL    HW130374   3.141   5.069   5.396
 9825SOL    HW230375   3.143   5.213   5.471
 9826SOL     OW30376   5.108   4.927   6.411
 9826SOL    HW130377   5.026   4.885   6.371
 9826SOL    HW230378   5.086   5.016   6.449
 9827SOL     OW30379   1.973   3.240   3.700
 9827SOL    HW130380   1.908   3.246   3.624
 9827SOL    HW230381   1.970   3.149   3.739
 9828SOL     OW30382   2.640   2.963   6.482
 9828SOL    HW130383   2.598   3.047   6.514
 9828SOL    HW230384   2.711   2.934   6.547
 9829SOL     OW30385   3.283   6.063   0.248
 9829SOL    HW130386   3.305   5.971   0.280
 9829SOL    HW230387   3.367   6.112   0.229
 9830SOL     OW30388   5.603   2.658   1.427
 9830SOL    HW130389   5.601   2.562   1.397
 9830SOL    HW230390   5.670   2.708   1.372
 9831SOL     OW30391   1.763   6.123   1.186
 9831SOL    HW130392   1.724   6.083   1.269
 9831SOL    HW230393   1.759   6.223   1.192
 9832SOL     OW30394   4.970   5.242   2.631
 9832SOL    HW130395   4.892   5.295   2.664
 9832SOL    HW230396   5.009   5.289   2.551
 9833SOL     OW30397   3.609   2.918   4.952
 9833SOL    HW130398   3.676   2.988   4.975
 9833SOL    HW230399   3.580   2.871   5.036
 9834SOL     OW30400   3.449   4.660   5.487
 9834SOL    HW130401   3.457   4.567   5.451
 9834SOL    HW230402   3.388   4.713   5.428
 9835SOL     OW30403   3.287   2.629   5.777
 9835SOL    HW130404   3.298   2.721   5.815
 9835SOL    HW230405   3.369   2.575   5.796
 9836SOL     OW30406   6.148   4.637   3.478
 9836SOL    HW130407   6.112   4.726   3.449
 9836SOL    HW230408   6.095   4.605   3.556
 9837SOL     OW30409   3.419   0.137   2.761
 9837SOL    HW130410   3.512   0.164   2.739
 9837SOL    HW230411   3.365   0.218   2.784
 9838SOL     OW30412   0.340   6.984   5.868
 9838SOL    HW130413   0.364   0.049   5.839
 9838SOL    HW230414   0.242   6.970   5.857
 9839SOL     OW30415   5.521   1.335   3.041
 9839SOL    HW130416   5.498   1.322   2.945
 9839SOL    HW230417   5.437   1.347   3.094
 9840SOL     OW30418   0.894   0.882   1.510
 9840SOL    HW130419   0.848   0.797   1.482
 9840SOL    HW230420   0.855   0.914   1.596
 9841SOL     OW30421   1.139   4.026   5.010
 9841SOL    HW130422   1.067   4.000   4.946
 9841SOL    HW230423   1.127   3.977   5.096
 9842SOL     OW30424   4.048   3.682   3.036
 9842SOL    HW130425   3.951   3.701   3.030
 9842SOL    HW230426   4.081   3.708   3.127
 9843SOL     OW30427   6.271   1.232   1.718
 9843SOL    HW130428   6.223   1.184   1.645
 9843SOL    HW230429   6.220   1.314   1.744
 9844SOL     OW30430   5.305   0.500   2.675
 9844SOL    HW130431   5.355   0.574   2.719
 9844SOL    HW230432   5.364   0.455   2.608
 9845SOL     OW30433   3.010   1.254   3.619
 9845SOL    HW130434   2.912   1.270   3.624
 9845SOL    HW230435   3.049   1.307   3.545
 9846SOL     OW30436   3.945   3.476   1.540
 9846SOL    HW130437   4.000   3.446   1.618
 9846SOL    HW230438   3.937   3.401   1.474
 9847SOL     OW30439   3.206   2.886   5.082
 9847SOL    HW130440   3.177   2.981   5.096
 9847SOL    HW230441   3.288   2.867   5.138
 9848SOL     OW30442   3.469   2.844   5.987
 9848SOL    HW130443   3.553   2.895   6.007
 9848SOL    HW230444   3.477   2.751   6.023
 9849SOL     OW30445   6.565   0.264   0.329
 9849SOL    HW130446   6.483   0.285   0.381
 9849SOL    HW230447   6.635   0.333   0.346
 9850SOL     OW30448   6.374   6.012   3.098
 9850SOL    HW130449   6.431   5.936   3.129
 9850SOL    HW230450   6.315   5.980   3.023
 9851SOL     OW30451   4.647   1.944   5.959
 9851SOL    HW130452   4.690   1.911   6.043
 9851SOL    HW230453   4.569   1.886   5.936
 9852SOL     OW30454   4.280   2.015   2.303
 9852SOL    HW130455   4.217   2.076   2.254
 9852SOL    HW230456   4.372   2.052   2.298
 9853SOL     OW30457   5.085   4.286   3.692
 9853SOL    HW130458   5.138   4.345   3.630
 9853SOL    HW230459   5.055   4.204   3.643
 9854SOL     OW30460   0.214   5.188   4.914
 9854SOL    HW130461   0.148   5.255   4.880
 9854SOL    HW230462   0.166   5.104   4.939
 9855SOL     OW30463   2.463   3.843   1.328
 9855SOL    HW130464   2.466   3.793   1.414
 9855SOL    HW230465   2.409   3.926   1.340
 9856SOL     OW30466   5.008   3.809   6.284
 9856SOL    HW130467   5.059   3.745   6.225
 9856SOL    HW230468   5.073   3.861   6.340
 9857SOL     OW30469   4.491   1.939   4.543
 9857SOL    HW130470   4.482   1.993   4.459
 9857SOL    HW230471   4.468   1.997   4.621
 9858SOL     OW30472   0.264   0.569   1.163
 9858SOL    HW130473   0.324   0.568   1.083
 9858SOL    HW230474   0.313   0.534   1.242
 9859SOL     OW30475   5.630   6.760   1.980
 9859SOL    HW130476   5.676   6.677   2.012
 9859SOL    HW230477   5.572   6.737   1.901
 9860SOL     OW30478   6.962   1.540   3.256
 9860SOL    HW130479   6.908   1.495   3.327
 9860SOL    HW230480   7.014   1.471   3.206
 9861SOL     OW30481   3.685   0.182   2.690
 9861SOL    HW130482   3.765   0.152   2.639
 9861SOL    HW230483   3.712   0.206   2.783
 9862SOL     OW30484   2.594   4.483   0.705
 9862SOL    HW130485   2.590   4.582   0.721
 9862SOL    HW230486   2.535   4.460   0.628
 9863SOL     OW30487   3.730   0.612   3.632
 9863SOL    HW130488   3.770   0.627   3.542
 9863SOL    HW230489   3.630   0.603   3.623
 9864SOL     OW30490   3.433   6.236   3.940
 9864SOL    HW130491   3.424   6.255   4.037
 9864SOL    HW230492   3.423   6.321   3.888
 9865SOL     OW30493   1.829   0.888   4.241
 9865SOL    HW130494   1.897   0.953   4.207
 9865SOL    HW230495   1.873   0.800   4.259
 9866SOL     OW30496   5.752   5.004   5.563
 9866SOL    HW130497   5.718   5.032   5.653
 9866SOL    HW230498   5.770   4.906   5.564
 9867SOL     OW30499   5.998   0.484   0.730
 9867SOL    HW130500   6.034   0.507   0.820
 9867SOL    HW230501   5.930   0.411   0.739
 9868SOL     OW30502   0.779   3.930   5.464
 9868SOL    HW130503   0.771   4.029   5.470
 9868SOL    HW230504   0.737   3.888   5.544
 9869SOL     OW30505   1.592   3.325   2.317
 9869SOL    HW130506   1.567   3.310   2.222
 9869SOL    HW230507   1.662   3.396   2.323
 9870SOL     OW30508   4.354   5.781   2.351
 9870SOL    HW130509   4.397   5.871   2.354
 9870SOL    HW230510   4.305   5.765   2.436
 9871SOL     OW30511   0.758   6.354   6.204
 9871SOL    HW130512   0.667   6.325   6.232
 9871SOL    HW230513   0.773   6.449   6.231
 9872SOL     OW30514   2.548   4.570   4.339
 9872SOL    HW130515   2.617   4.616   4.283
 9872SOL    HW230516   2.558   4.598   4.434
 9873SOL     OW30517   3.060   2.574   1.159
 9873SOL    HW130518   3.032   2.651   1.101
 9873SOL    HW230519   3.095   2.608   1.246
 9874SOL     OW30520   1.320   3.167   4.360
 9874SOL    HW130521   1.277   3.250   4.324
 9874SOL    HW230522   1.296   3.089   4.302
 9875SOL     OW30523   6.686   6.771   1.898
 9875SOL    HW130524   6.668   6.707   1.823
 9875SOL    HW230525   6.772   6.746   1.942
 9876SOL     OW30526   6.365   0.923   2.985
 9876SOL    HW130527   6.448   0.979   2.987
 9876SOL    HW230528   6.317   0.932   3.072
 9877SOL     OW30529   0.342   6.363   3.441
 9877SOL    HW130530   0.415   6.315   3.391
 9877SOL    HW230531   0.345   6.460   3.418
 9878SOL     OW30532   2.567   4.973   4.980
 9878SOL    HW130533   2.544   4.920   4.898
 9878SOL    HW230534   2.648   4.933   5.024
 9879SOL     OW30535   5.411   5.615   4.103
 9879SOL    HW130536   5.312   5.606   4.103
 9879SOL    HW230537   5.443   5.635   4.011
 9880SOL     OW30538   3.257   1.292   5.454
 9880SOL    HW130539   3.208   1.377   5.475
 9880SOL    HW230540   3.350   1.314   5.424
 9881SOL     OW30541   1.069   1.353   5.161
 9881SOL    HW130542   1.013   1.427   5.199
 9881SOL    HW230543   1.084   1.371   5.064
 9882SOL     OW30544   0.911   2.688   3.805
 9882SOL    HW130545   0.882   2.667   3.711
 9882SOL    HW230546   0.870   2.775   3.832
 9883SOL     OW30547   1.114   5.737   0.202
 9883SOL    HW130548   1.178   5.757   0.277
 9883SOL    HW230549   1.124   5.641   0.174
 9884SOL     OW30550   4.582   1.985   2.693
 9884SOL    HW130551   4.615   1.976   2.599
 9884SOL    HW230552   4.661   1.989   2.756
 9885SOL     OW30553   6.984   2.667   5.086
 9885SOL    HW130554   6.894   2.658   5.042
 9885SOL    HW230555   0.028   2.669   5.016
 9886SOL     OW30556   1.184   4.297   2.189
 9886SOL    HW130557   1.210   4.207   2.155
 9886SOL    HW230558   1.261   4.337   2.240
 9887SOL     OW30559   3.607   0.516   5.615
 9887SOL    HW130560   3.707   0.506   5.608
 9887SOL    HW230561   3.563   0.461   5.545
 9888SOL     OW30562   5.795   4.505   2.446
 9888SOL    HW130563   5.781   4.568   2.522
 9888SOL    HW230564   5.747   4.419   2.464
 9889SOL     OW30565   0.027   5.321   1.687
 9889SOL    HW130566   6.994   5.285   1.616
 9889SOL    HW230567   7.005   5.324   1.774
 9890SOL     OW30568   1.543   1.977   0.465
 9890SOL    HW130569   1.459   1.932   0.495
 9890SOL    HW230570   1.520   2.063   0.419
 9891SOL     OW30571   5.400   3.229   2.056
 9891SOL    HW130572   5.488   3.195   2.088
 9891SOL    HW230573   5.412   3.321   2.017
 9892SOL     OW30574   6.999   4.758   0.835
 9892SOL    HW130575   6.906   4.720   0.842
 9892SOL    HW230576   0.014   4.756   0.926
 9893SOL     OW30577   0.892   0.421   0.976
 9893SOL    HW130578   0.878   0.476   0.893
 9893SOL    HW230579   0.925   0.331   0.950
 9894SOL     OW30580   2.752   2.368   1.239
 9894SOL    HW130581   2.746   2.429   1.319
 9894SOL    HW230582   2.848   2.350   1.218
 9895SOL     OW30583   6.030   4.729   4.772
 9895SOL    HW130584   6.101   4.683   4.718
 9895SOL    HW230585   5.943   4.726   4.723
 9896SOL     OW30586   6.781   0.939   6.633
 9896SOL    HW130587   6.855   0.935   6.699
 9896SOL    HW230588   6.745   0.847   6.617
 9897SOL     OW30589   5.695   6.202   2.559
 9897SOL    HW130590   5.680   6.112   2.601
 9897SOL    HW230591   5.766   6.250   2.611
 9898SOL     OW30592   1.696   6.219   4.240
 9898SOL    HW130593   1.608   6.190   4.279
 9898SOL    HW230594   1.763   6.145   4.249
 9899SOL     OW30595   0.731   6.085   0.562
 9899SOL    HW130596   0.734   6.184   0.578
 9899SOL    HW230597   0.650   6.047   0.606
 9900SOL     OW30598   1.900   3.326   2.990
 9900SOL    HW130599   1.821   3.385   2.973
 9900SOL    HW230600   1.949   3.310   2.904
 9901SOL     OW30601   2.739   0.548   0.031
 9901SOL    HW130602   2.646   0.584   0.042
 9901SOL    HW230603   2.802   0.600   0.089
 9902SOL     OW30604   2.742   4.791   0.483
 9902SOL    HW130605   2.742   4.789   0.583
 9902SOL    HW230606   2.775   4.704   0.447
 9903SOL     OW30607   5.307   2.159   2.253
 9903SOL    HW130608   5.280   2.255   2.263
 9903SOL    HW230609   5.287   2.110   2.338
 9904SOL     OW30610   1.011   3.708   6.817
 9904SOL    HW130611   0.941   3.778   6.832
 9904SOL    HW230612   1.033   3.703   6.720
 9905SOL     OW30613   1.892   6.987   6.010
 9905SOL    HW130614   1.884   0.016   6.092
 9905SOL    HW230615   1.817   6.921   6.009
 9906SOL     OW30616   2.433   3.486   1.641
 9906SOL    HW130617   2.392   3.467   1.730
 9906SOL    HW230618   2.425   3.405   1.582
 9907SOL     OW30619   6.792   0.474   1.293
 9907SOL    HW130620   6.794   0.487   1.193
 9907SOL    HW230621   6.853   0.541   1.336
 9908SOL     OW30622   5.841   1.839   4.884
 9908SOL    HW130623   5.914   1.815   4.948
 9908SOL    HW230624   5.786   1.758   4.862
 9909SOL     OW30625   4.526   0.735   3.403
 9909SOL    HW130626   4.483   0.685   3.328
 9909SOL    HW230627   4.623   0.714   3.406
 9910SOL     OW30628   1.324   4.672   2.254
 9910SOL    HW130629   1.234   4.704   2.224
 9910SOL    HW230630   1.324   4.572   2.256
 9911SOL     OW30631   2.717   6.084   2.173
 9911SOL    HW130632   2.728   6.038   2.261
 9911SOL    HW230633   2.779   6.042   2.106
 9912SOL     OW30634   3.364   0.470   1.505
 9912SOL    HW130635   3.414   0.526   1.439
 9912SOL    HW230636   3.364   0.516   1.594
 9913SOL     OW30637   5.904   3.632   1.347
 9913SOL    HW130638   5.963   3.709   1.368
 9913SOL    HW230639   5.812   3.665   1.324
 9914SOL     OW30640   5.785   1.281   5.078
 9914SOL    HW130641   5.715   1.222   5.119
 9914SOL    HW230642   5.785   1.370   5.124
 9915SOL     OW30643   5.350   0.490   3.469
 9915SOL    HW130644   5.413   0.563   3.494
 9915SOL    HW230645   5.268   0.494   3.527
 9916SOL     OW30646   2.107   2.279   2.630
 9916SOL    HW130647   2.113   2.352   2.562
 9916SOL    HW230648   2.025   2.292   2.686
 9917SOL     OW30649   5.243   4.367   6.857
 9917SOL    HW130650   5.198   4.304   6.794
 9917SOL    HW230651   5.178   4.439   6.883
 9918SOL     OW30652   3.456   1.446   2.713
 9918SOL    HW130653   3.540   1.394   2.708
 9918SOL    HW230654   3.417   1.455   2.621
 9919SOL     OW30655   0.905   5.368   1.074
 9919SOL    HW130656   0.826   5.411   1.032
 9919SOL    HW230657   0.981   5.365   1.009
 9920SOL     OW30658   5.131   1.476   2.444
 9920SOL    HW130659   5.098   1.492   2.536
 9920SOL    HW230660   5.057   1.491   2.378
 9921SOL     OW30661   3.948   0.285   5.035
 9921SOL    HW130662   4.021   0.264   4.971
 9921SOL    HW230663   3.877   0.214   5.030
 9922SOL     OW30664   2.539   4.145   1.032
 9922SOL    HW130665   2.537   4.081   0.955
 9922SOL    HW230666   2.447   4.177   1.051
 9923SOL     OW30667   5.442   4.675   6.929
 9923SOL    HW130668   5.474   4.642   7.018
 9923SOL    HW230669   5.402   4.766   6.939
 9924SOL     OW30670   6.278   1.300   4.028
 9924SOL    HW130671   6.315   1.232   3.965
 9924SOL    HW230672   6.305   1.392   3.999
 9925SOL     OW30673   0.382   3.771   4.231
 9925SOL    HW130674   0.431   3.715   4.165
 9925SOL    HW230675   0.383   3.867   4.202
 9926SOL     OW30676   4.317   2.765   1.326
 9926SOL    HW130677   4.381   2.766   1.403
 9926SOL    HW230678   4.367   2.743   1.242
 9927SOL     OW30679   0.187   0.058   0.888
 9927SOL    HW130680   0.201   0.154   0.909
 9927SOL    HW230681   0.274   0.015   0.865
 9928SOL     OW30682   4.719   4.161   2.762
 9928SOL    HW130683   4.694   4.189   2.855
 9928SOL    HW230684   4.794   4.095   2.766
 9929SOL     OW30685   3.678   4.380   5.569
 9929SOL    HW130686   3.705   4.464   5.522
 9929SOL    HW230687   3.672   4.398   5.667
 9930SOL     OW30688   6.525   6.355   4.842
 9930SOL    HW130689   6.538   6.291   4.918
 9930SOL    HW230690   6.555   6.313   4.757
 9931SOL     OW30691   0.786   5.541   4.078
 9931SOL    HW130692   0.750   5.573   4.166
 9931SOL    HW230693   0.839   5.614   4.035
 9932SOL     OW30694   3.774   3.235   6.952
 9932SOL    HW130695   3.820   3.159   6.906
 9932SOL    HW230696   3.837   3.278   7.017
 9933SOL     OW30697   0.433   5.719   3.290
 9933SOL    HW130698   0.388   5.769   3.216
 9933SOL    HW230699   0.445   5.624   3.263
 9934SOL     OW30700   6.506   2.459   5.578
 9934SOL    HW130701   6.566   2.390   5.616
 9934SOL    HW230702   6.413   2.423   5.571
 9935SOL     OW30703   2.783   6.290   6.624
 9935SOL    HW130704   2.823   6.373   6.663
 9935SOL    HW230705   2.852   6.242   6.570
 9936SOL     OW30706   6.818   4.961   6.962
 9936SOL    HW130707   6.854   4.923   0.020
 9936SOL    HW230708   6.737   5.016   6.982
 9937SOL     OW30709   0.035   1.599   1.263
 9937SOL    HW130710   7.006   1.608   1.180
 9937SOL    HW230711   0.085   1.685   1.278
 9938SOL     OW30712   6.588   5.057   3.171
 9938SOL    HW130713   6.645   5.020   3.097
 9938SOL    HW230714   6.611   5.011   3.257
 9939SOL     OW30715   4.019   2.056   1.342
 9939SOL    HW130716   4.056   2.146   1.316
 9939SOL    HW230717   3.966   2.019   1.266
 9940SOL     OW30718   1.218   0.422   1.230
 9940SOL    HW130719   1.217   0.511   1.185
 9940SOL    HW230720   1.311   0.386   1.231
 9941SOL     OW30721   3.556   3.436   5.325
 9941SOL    HW130722   3.607   3.362   5.369
 9941SOL    HW230723   3.603   3.465   5.242
 9942SOL     OW30724   2.259   5.587   2.549
 9942SOL    HW130725   2.355   5.591   2.524
 9942SOL    HW230726   2.247   5.523   2.626
 9943SOL     OW30727   0.278   4.641   5.889
 9943SOL    HW130728   0.309   4.706   5.820
 9943SOL    HW230729   0.206   4.682   5.945
 9944SOL     OW30730   0.602   4.336   6.691
 9944SOL    HW130731   0.600   4.414   6.628
 9944SOL    HW230732   0.641   4.256   6.645
 9945SOL     OW30733   4.864   5.389   6.809
 9945SOL    HW130734   4.949   5.385   6.757
 9945SOL    HW230735   4.884   5.410   6.905
 9946SOL     OW30736   5.914   0.519   3.626
 9946SOL    HW130737   5.855   0.460   3.572
 9946SOL    HW230738   5.970   0.576   3.566
 9947SOL     OW30739   2.250   2.098   5.099
 9947SOL    HW130740   2.184   2.166   5.133
 9947SOL    HW230741   2.332   2.101   5.156
 9948SOL     OW30742   6.117   3.824   5.354
 9948SOL    HW130743   6.024   3.856   5.339
 9948SOL    HW230744   6.156   3.793   5.268
 9949SOL     OW30745   6.064   5.440   4.380
 9949SOL    HW130746   5.965   5.448   4.391
 9949SOL    HW230747   6.102   5.388   4.457
 9950SOL     OW30748   5.838   6.119   5.498
 9950SOL    HW130749   5.810   6.211   5.469
 9950SOL    HW230750   5.893   6.126   5.581
 9951SOL     OW30751   0.146   1.361   3.844
 9951SOL    HW130752   0.098   1.415   3.775
 9951SOL    HW230753   0.244   1.377   3.837
 9952SOL     OW30754   1.377   4.517   0.668
 9952SOL    HW130755   1.364   4.519   0.568
 9952SOL    HW230756   1.464   4.472   0.688
 9953SOL     OW30757   5.245   2.664   4.480
 9953SOL    HW130758   5.268   2.628   4.571
 9953SOL    HW230759   5.265   2.761   4.476
 9954SOL     OW30760   6.790   0.932   6.307
 9954SOL    HW130761   6.782   0.932   6.407
 9954SOL    HW230762   6.829   0.846   6.276
 9955SOL     OW30763   6.031   3.396   5.739
 9955SOL    HW130764   6.043   3.471   5.805
 9955SOL    HW230765   5.943   3.408   5.692
 9956SOL     OW30766   1.497   6.978   1.493
 9956SOL    HW130767   1.561   6.983   1.416
 9956SOL    HW230768   1.538   7.020   1.574
 9957SOL     OW30769   5.057   5.932   2.479
 9957SOL    HW130770   5.057   6.027   2.446
 9957SOL    HW230771   5.111   5.875   2.416
 9958SOL     OW30772   3.012   5.192   0.012
 9958SOL    HW130773   2.946   5.267   0.003
 9958SOL    HW230774   3.086   5.219   0.073
 9959SOL     OW30775   4.088   3.625   4.996
 9959SOL    HW130776   4.170   3.574   5.021
 9959SOL    HW230777   4.068   3.693   5.066
 9960SOL     OW30778   0.043   0.712   2.362
 9960SOL    HW130779   0.066   0.805   2.393
 9960SOL    HW230780   7.003   0.717   2.289
 9961SOL     OW30781   1.316   4.737   4.437
 9961SOL    HW130782   1.237   4.796   4.422
 9961SOL    HW230783   1.318   4.707   4.532
 9962SOL     OW30784   5.776   5.825   1.908
 9962SOL    HW130785   5.839   5.841   1.984
 9962SOL    HW230786   5.682   5.823   1.943
 9963SOL     OW30787   3.021   3.406   6.653
 9963SOL    HW130788   3.064   3.445   6.571
 9963SOL    HW230789   3.003   3.309   6.638
 9964SOL     OW30790   5.697   4.550   5.544
 9964SOL    HW130791   5.655   4.574   5.632
 9964SOL    HW230792   5.755   4.469   5.556
 9965SOL     OW30793   3.774   6.540   6.061
 9965SOL    HW130794   3.819   6.626   6.083
 9965SOL    HW230795   3.704   6.520   6.130
 9966SOL     OW30796   1.766   6.203   2.340
 9966SOL    HW130797   1.741   6.112   2.375
 9966SOL    HW230798   1.748   6.207   2.242
 9967SOL     OW30799   6.607   0.139   2.386
 9967SOL    HW130800   6.604   0.060   2.446
 9967SOL    HW230801   6.589   0.222   2.439
 9968SOL     OW30802   3.321   3.883   0.530
 9968SOL    HW130803   3.318   3.918   0.437
 9968SOL    HW230804   3.230   3.888   0.570
 9969SOL     OW30805   1.679   3.088   2.871
 9969SOL    HW130806   1.629   3.170   2.900
 9969SOL    HW230807   1.713   3.101   2.778
 9970SOL     OW30808   5.230   3.688   2.669
 9970SOL    HW130809   5.281   3.607   2.638
 9970SOL    HW230810   5.216   3.750   2.593
 9971SOL     OW30811   2.175   5.492   1.200
 9971SOL    HW130812   2.264   5.522   1.232
 9971SOL    HW230813   2.184   5.405   1.152
 9972SOL     OW30814   4.075   4.707   1.493
 9972SOL    HW130815   4.131   4.788   1.510
 9972SOL    HW230816   4.100   4.667   1.405
 9973SOL     OW30817   4.742   2.219   4.080
 9973SOL    HW130818   4.760   2.178   4.169
 9973SOL    HW230819   4.809   2.186   4.013
 9974SOL     OW30820   7.002   3.035   3.336
 9974SOL    HW130821   6.944   2.971   3.285
 9974SOL    HW230822   6.960   3.054   3.425
 9975SOL     OW30823   6.196   4.517   7.002
 9975SOL    HW130824   6.161   4.589   0.033
 9975SOL    HW230825   6.193   4.429   0.022
 9976SOL     OW30826   0.224   6.523   5.444
 9976SOL    HW130827   0.293   6.546   5.512
 9976SOL    HW230828   0.152   6.594   5.444
 9977SOL     OW30829   6.960   5.276   5.202
 9977SOL    HW130830   6.934   5.195   5.148
 9977SOL    HW230831   6.970   5.354   5.141
 9978SOL     OW30832   6.555   2.876   3.321
 9978SOL    HW130833   6.617   2.814   3.272
 9978SOL    HW230834   6.584   2.970   3.307
 9979SOL     OW30835   5.997   5.080   5.460
 9979SOL    HW130836   5.910   5.040   5.489
 9979SOL    HW230837   6.054   5.097   5.540
 9980SOL     OW30838   2.167   1.667   5.943
 9980SOL    HW130839   2.078   1.668   5.988
 9980SOL    HW230840   2.207   1.575   5.950
 9981SOL     OW30841   2.140   1.838   1.992
 9981SOL    HW130842   2.070   1.869   2.056
 9981SOL    HW230843   2.218   1.900   1.996
 9982SOL     OW30844   6.625   6.824   3.937
 9982SOL    HW130845   6.669   6.738   3.913
 9982SOL    HW230846   6.567   6.854   3.861
 9983SOL     OW30847   0.070   2.680   3.096
 9983SOL    HW130848   0.141   2.715   3.156
 9983SOL    HW230849   0.058   2.582   3.112
 9984SOL     OW30850   2.194   1.242   0.238
 9984SOL    HW130851   2.115   1.181   0.231
 9984SOL    HW230852   2.276   1.187   0.259
 9985SOL     OW30853   1.784   1.300   1.593
 9985SOL    HW130854   1.740   1.362   1.658
 9985SOL    HW230855   1.812   1.216   1.641
 9986SOL     OW30856   5.806   4.283   5.633
 9986SOL    HW130857   5.813   4.255   5.729
 9986SOL    HW230858   5.734   4.231   5.588
 9987SOL     OW30859   6.618   3.144   3.949
 9987SOL    HW130860   6.602   3.166   4.045
 9987SOL    HW230861   6.711   3.108   3.938
 9988SOL     OW30862   0.117   6.030   5.058
 9988SOL    HW130863   0.091   5.974   5.137
 9988SOL    HW230864   0.139   5.970   4.981
 9989SOL     OW30865   6.303   4.085   3.356
 9989SOL    HW130866   6.388   4.138   3.361
 9989SOL    HW230867   6.299   4.036   3.269
 9990SOL     OW30868   2.757   5.622   1.665
 9990SOL    HW130869   2.700   5.602   1.745
 9990SOL    HW230870   2.700   5.652   1.589
 9991SOL     OW30871   1.820   2.585   3.541
 9991SOL    HW130872   1.746   2.651   3.533
 9991SOL    HW230873   1.798   2.520   3.614
 9992SOL     OW30874   5.603   4.667   0.365
 9992SOL    HW130875   5.583   4.648   0.461
 9992SOL    HW230876   5.581   4.762   0.344
 9993SOL     OW30877   3.190   0.211   0.701
 9993SOL    HW130878   3.104   0.208   0.751
 9993SOL    HW230879   3.205   0.124   0.654
 9994SOL     OW30880   6.734   4.899   3.364
 9994SOL    HW130881   6.750   4.818   3.421
 9994SOL    HW230882   6.768   4.980   3.411
 9995SOL     OW30883   4.475   1.012   3.401
 9995SOL    HW130884   4.491   0.914   3.393
 9995SOL    HW230885   4.388   1.035   3.356
 9996SOL     OW30886   2.863   2.829   1.347
 9996SOL    HW130887   2.819   2.882   1.419
 9996SOL    HW230888   2.819   2.740   1.339
 9997SOL     OW30889   3.402   1.604   0.488
 9997SOL    HW130890   3.472   1.540   0.456
 9997SOL    HW230891   3.434   1.697   0.473
 9998SOL     OW30892   5.229   4.493   6.462
 9998SOL    HW130893   5.201   4.557   6.534
 9998SOL    HW230894   5.281   4.418   6.503
 9999SOL     OW30895   6.958   3.106   5.268
 9999SOL    HW130896   6.920   3.055   5.191
 9999SOL    HW230897   0.006   3.164   5.236
10000SOL     OW30898   0.224   4.333   6.979
10000SOL    HW130899   0.266   4.304   6.893
10000SOL    HW230900   0.126   4.312   6.977
10001SOL     OW30901   4.621   6.736   2.195
10001SOL    HW130902   4.708   6.718   2.148
10001SOL    HW230903   4.638   6.790   2.277
10002SOL     OW30904   1.953   6.527   2.750
10002SOL    HW130905   2.022   6.457   2.733
10002SOL    HW230906   1.911   6.511   2.839
10003SOL     OW30907   3.958   1.463   3.210
10003SOL    HW130908   3.927   1.528   3.279
10003SOL    HW230909   4.057   1.449   3.219
10004SOL     OW30910   6.140   2.134   4.444
10004SOL    HW130911   6.147   2.227   4.408
10004SOL    HW230912   6.183   2.070   4.380
10005SOL     OW30913   4.568   0.417   4.451
10005SOL    HW130914   4.609   0.463   4.373
10005SOL    HW230915   4.640   0.387   4.514
10006SOL     OW30916   5.193   6.055   4.125
10006SOL    HW130917   5.281   6.015   4.099
10006SOL    HW230918   5.175   6.135   4.068
10007SOL     OW30919   6.917   5.365   5.670
10007SOL    HW130920   6.881   5.370   5.763
10007SOL    HW230921   6.932   5.270   5.645
10008SOL     OW30922   4.302   1.169   4.420
10008SOL    HW130923   4.340   1.173   4.327
10008SOL    HW230924   4.263   1.079   4.436
10009SOL     OW30925   1.887   3.703   1.686
10009SOL    HW130926   1.818   3.659   1.628
10009SOL    HW230927   1.938   3.633   1.736
10010SOL     OW30928   1.931   0.809   5.970
10010SOL    HW130929   1.953   0.887   5.911
10010SOL    HW230930   2.015   0.762   5.996
10011SOL     OW30931   5.151   1.260   5.445
10011SOL    HW130932   5.144   1.241   5.543
10011SOL    HW230933   5.201   1.186   5.401
10012SOL     OW30934   5.788   1.454   3.150
10012SOL    HW130935   5.726   1.377   3.132
10012SOL    HW230936   5.769   1.528   3.086
10013SOL     OW30937   0.195   0.935   3.275
10013SOL    HW130938   0.274   0.892   3.318
10013SOL    HW230939   0.128   0.961   3.344
10014SOL     OW30940   0.155   3.756   0.832
10014SOL    HW130941   0.143   3.687   0.903
10014SOL    HW230942   0.127   3.718   0.744
10015SOL     OW30943   2.287   4.728   0.668
10015SOL    HW130944   2.304   4.798   0.737
10015SOL    HW230945   2.253   4.644   0.712
10016SOL     OW30946   1.693   0.736   6.872
10016SOL    HW130947   1.767   0.697   6.927
10016SOL    HW230948   1.726   0.816   6.823
10017SOL     OW30949   3.029   1.759   3.080
10017SOL    HW130950   2.949   1.801   3.036
10017SOL    HW230951   3.054   1.676   3.031
10018SOL     OW30952   4.211   0.391   5.868
10018SOL    HW130953   4.215   0.441   5.781
10018SOL    HW230954   4.300   0.395   5.914
10019SOL     OW30955   0.390   1.730   3.048
10019SOL    HW130956   0.333   1.648   3.048
10019SOL    HW230957   0.390   1.771   3.139
10020SOL     OW30958   1.147   2.509   0.581
10020SOL    HW130959   1.189   2.600   0.577
10020SOL    HW230960   1.211   2.444   0.623
10021SOL     OW30961   6.824   2.288   1.487
10021SOL    HW130962   6.840   2.383   1.514
10021SOL    HW230963   6.840   2.279   1.389
10022SOL     OW30964   2.713   0.949   5.861
10022SOL    HW130965   2.642   1.015   5.884
10022SOL    HW230966   2.704   0.923   5.765
10023SOL     OW30967   0.786   4.907   0.715
10023SOL    HW130968   0.732   4.961   0.779
10023SOL    HW230969   0.876   4.950   0.703
10024SOL     OW30970   2.559   6.272   2.369
10024SOL    HW130971   2.486   6.291   2.303
10024SOL    HW230972   2.644   6.314   2.338
10025SOL     OW30973   1.537   2.032   1.007
10025SOL    HW130974   1.624   2.028   0.958
10025SOL    HW230975   1.467   1.983   0.955
10026SOL     OW30976   5.489   6.433   3.785
10026SOL    HW130977   5.557   6.492   3.741
10026SOL    HW230978   5.495   6.341   3.748
10027SOL     OW30979   6.323   4.721   4.806
10027SOL    HW130980   6.249   4.684   4.861
10027SOL    HW230981   6.408   4.674   4.829
10028SOL     OW30982   1.101   1.096   2.565
10028SOL    HW130983   1.108   1.015   2.507
10028SOL    HW230984   1.063   1.071   2.654
10029SOL     OW30985   4.934   1.893   4.668
10029SOL    HW130986   4.903   1.938   4.751
10029SOL    HW230987   4.881   1.809   4.654
10030SOL     OW30988   2.008   0.514   3.950
10030SOL    HW130989   1.956   0.443   3.999
10030SOL    HW230990   1.946   0.567   3.892
10031SOL     OW30991   5.255   4.851   4.984
10031SOL    HW130992   5.205   4.868   5.069
10031SOL    HW230993   5.324   4.780   5.000
10032SOL     OW30994   2.831   1.322   5.026
10032SOL    HW130995   2.925   1.293   5.046
10032SOL    HW230996   2.803   1.283   4.938
10033SOL     OW30997   6.850   3.027   4.463
10033SOL    HW130998   6.885   3.022   4.557
10033SOL    HW230999   6.926   3.042   4.400
10034SOL     OW31000   3.859   0.484   4.179
10034SOL    HW131001   3.954   0.480   4.149
10034SOL    HW231002   3.827   0.579   4.177
10035SOL     OW31003   6.919   5.251   1.468
10035SOL    HW131004   6.930   5.299   1.380
10035SOL    HW231005   6.888   5.158   1.451
10036SOL     OW31006   6.272   2.155   1.133
10036SOL    HW131007   6.337   2.172   1.206
10036SOL    HW231008   6.226   2.067   1.148
10037SOL     OW31009   0.425   1.466   0.191
10037SOL    HW131010   0.419   1.542   0.256
10037SOL    HW231011   0.341   1.460   0.138
10038SOL     OW31012   5.516   0.511   6.907
10038SOL    HW131013   5.423   0.501   6.943
10038SOL    HW231014   5.566   0.576   6.963
10039SOL     OW31015   3.833   0.770   4.148
10039SOL    HW131016   3.746   0.815   4.130
10039SOL    HW231017   3.857   0.779   4.244
10040SOL     OW31018   5.711   5.197   6.712
10040SOL    HW131019   5.736   5.271   6.774
10040SOL    HW231020   5.740   5.220   6.619
10041SOL     OW31021   4.335   5.480   6.979
10041SOL    HW131022   4.319   5.385   7.004
10041SOL    HW231023   4.267   5.538   7.026
10042SOL     OW31024   0.633   1.537   3.767
10042SOL    HW131025   0.575   1.617   3.779
10042SOL    HW231026   0.729   1.563   3.782
10043SOL     OW31027   6.048   1.577   5.235
10043SOL    HW131028   5.958   1.580   5.190
10043SOL    HW231029   6.066   1.485   5.267
10044SOL     OW31030   2.379   2.448   4.975
10044SOL    HW131031   2.347   2.413   5.063
10044SOL    HW231032   2.390   2.547   4.980
10045SOL     OW31033   3.968   0.947   1.792
10045SOL    HW131034   3.902   0.897   1.737
10045SOL    HW231035   3.932   1.038   1.812
10046SOL     OW31036   1.980   3.375   0.825
10046SOL    HW131037   1.949   3.469   0.813
10046SOL    HW231038   1.908   3.321   0.867
10047SOL     OW31039   0.805   3.143   5.226
10047SOL    HW131040   0.796   3.238   5.194
10047SOL    HW231041   0.899   3.126   5.254
10048SOL     OW31042   6.741   6.898   2.774
10048SOL    HW131043   6.716   6.807   2.806
10048SOL    HW231044   6.659   6.946   2.743
10049SOL     OW31045   1.551   1.494   5.611
10049SOL    HW131046   1.473   1.482   5.549
10049SOL    HW231047   1.636   1.497   5.558
10050SOL     OW31048   5.564   3.462   4.613
10050SOL    HW131049   5.587   3.559   4.626
10050SOL    HW231050   5.618   3.406   4.676
10051SOL     OW31051   0.922   4.425   4.952
10051SOL    HW131052   0.923   4.495   4.881
10051SOL    HW231053   0.910   4.335   4.910
10052SOL     OW31054   1.989   0.616   3.354
10052SOL    HW131055   2.065   0.673   3.387
10052SOL    HW231056   2.016   0.520   3.357
10053SOL     OW31057   4.337   5.957   4.096
10053SOL    HW131058   4.282   6.039   4.105
10053SOL    HW231059   4.294   5.882   4.147
10054SOL     OW31060   5.592   4.167   5.243
10054SOL    HW131061   5.568   4.087   5.188
10054SOL    HW231062   5.687   4.193   5.225
10055SOL     OW31063   6.683   2.677   6.201
10055SOL    HW131064   6.646   2.747   6.140
10055SOL    HW231065   6.648   2.587   6.173
10056SOL     OW31066   5.178   4.257   3.091
10056SOL    HW131067   5.188   4.159   3.072
10056SOL    HW231068   5.122   4.298   3.019
10057SOL     OW31069   5.610   3.575   5.397
10057SOL    HW131070   5.575   3.487   5.430
10057SOL    HW231071   5.676   3.611   5.462
10058SOL     OW31072   6.638   3.760   4.181
10058SOL    HW131073   6.612   3.795   4.091
10058SOL    HW231074   6.622   3.662   4.184
10059SOL     OW31075   6.515   1.694   0.626
10059SOL    HW131076   6.445   1.754   0.590
10059SOL    HW231077   6.605   1.731   0.605
10060SOL     OW31078   2.547   2.011   2.507
10060SOL    HW131079   2.502   2.020   2.595
10060SOL    HW231080   2.479   2.004   2.434
10061SOL     OW31081   4.714   1.558   3.848
10061SOL    HW131082   4.806   1.594   3.862
10061SOL    HW231083   4.717   1.458   3.852
10062SOL     OW31084   6.545   6.589   4.342
10062SOL    HW131085   6.571   6.552   4.431
10062SOL    HW231086   6.606   6.664   4.317
10063SOL     OW31087   2.480   1.945   4.435
10063SOL    HW131088   2.431   1.861   4.460
10063SOL    HW231089   2.422   2.000   4.375
10064SOL     OW31090   4.281   5.770   6.560
10064SOL    HW131091   4.346   5.736   6.492
10064SOL    HW231092   4.189   5.766   6.522
10065SOL     OW31093   1.609   1.037   1.804
10065SOL    HW131094   1.631   1.107   1.872
10065SOL    HW231095   1.688   1.023   1.744
10066SOL     OW31096   0.470   3.261   5.132
10066SOL    HW131097   0.415   3.318   5.194
10066SOL    HW231098   0.567   3.281   5.147
10067SOL     OW31099   0.937   2.981   6.069
10067SOL    HW131100   0.968   2.908   6.130
10067SOL    HW231101   0.959   2.958   5.975
10068SOL     OW31102   1.901   3.400   2.682
10068SOL    HW131103   1.834   3.333   2.649
10068SOL    HW231104   1.905   3.478   2.619
10069SOL     OW31105   3.590   4.978   1.680
10069SOL    HW131106   3.650   4.991   1.601
10069SOL    HW231107   3.569   5.067   1.721
10070SOL     OW31108   1.491   5.553   4.251
10070SOL    HW131109   1.432   5.501   4.189
10070SOL    HW231110   1.434   5.606   4.314
10071SOL     OW31111   0.509   6.584   3.943
10071SOL    HW131112   0.535   6.677   3.920
10071SOL    HW231113   0.561   6.553   4.023
10072SOL     OW31114   0.302   1.481   2.330
10072SOL    HW131115   0.211   1.522   2.333
10072SOL    HW231116   0.315   1.423   2.410
10073SOL     OW31117   5.949   3.021   3.837
10073SOL    HW131118   5.939   2.990   3.932
10073SOL    HW231119   6.046   3.017   3.811
10074SOL     OW31120   1.194   5.470   0.192
10074SOL    HW131121   1.201   5.468   0.292
10074SOL    HW231122   1.253   5.399   0.153
10075SOL     OW31123   2.630   0.730   2.668
10075SOL    HW131124   2.690   0.726   2.588
10075SOL    HW231125   2.605   0.638   2.696
10076SOL     OW31126   5.153   5.496   3.458
10076SOL    HW131127   5.110   5.514   3.370
10076SOL    HW231128   5.093   5.438   3.514
10077SOL     OW31129   5.760   3.280   0.357
10077SOL    HW131130   5.724   3.190   0.331
10077SOL    HW231131   5.714   3.313   0.439
10078SOL     OW31132   0.122   6.683   4.915
10078SOL    HW131133   0.051   6.754   4.921
10078SOL    HW231134   0.080   6.596   4.888
10079SOL     OW31135   5.767   2.562   3.734
10079SOL    HW131136   5.709   2.604   3.665
10079SOL    HW231137   5.785   2.628   3.808
10080SOL     OW31138   5.371   0.967   5.785
10080SOL    HW131139   5.441   0.910   5.829
10080SOL    HW231140   5.415   1.045   5.741
10081SOL     OW31141   1.455   1.470   6.894
10081SOL    HW131142   1.552   1.484   6.915
10081SOL    HW231143   1.436   1.500   6.801
10082SOL     OW31144   1.385   5.075   3.275
10082SOL    HW131145   1.354   5.166   3.247
10082SOL    HW231146   1.484   5.069   3.265
10083SOL     OW31147   3.536   5.894   3.405
10083SOL    HW131148   3.485   5.854   3.481
10083SOL    HW231149   3.497   5.983   3.382
10084SOL     OW31150   0.652   6.858   5.477
10084SOL    HW131151   0.558   6.890   5.489
10084SOL    HW231152   0.650   6.766   5.436
10085SOL     OW31153   3.894   6.444   0.199
10085SOL    HW131154   3.848   6.516   0.250
10085SOL    HW231155   3.982   6.423   0.243
10086SOL     OW31156   5.698   6.592   2.604
10086SOL    HW131157   5.673   6.689   2.602
10086SOL    HW231158   5.706   6.557   2.511
10087SOL     OW31159   0.472   6.898   4.552
10087SOL    HW131160   0.502   6.860   4.639
10087SOL    HW231161   0.442   6.993   4.566
10088SOL     OW31162   6.983   1.949   0.002
10088SOL    HW131163   7.020   2.020   0.062
10088SOL    HW231164   7.014   1.963   6.936
10089SOL     OW31165   3.783   1.426   2.488
10089SOL    HW131166   3.715   1.363   2.526
10089SOL    HW231167   3.803   1.498   2.555
10090SOL     OW31168   0.869   5.251   1.648
10090SOL    HW131169   0.858   5.297   1.560
10090SOL    HW231170   0.883   5.153   1.633
10091SOL     OW31171   6.390   5.553   6.488
10091SOL    HW131172   6.382   5.478   6.555
10091SOL    HW231173   6.316   5.618   6.502
10092SOL     OW31174   1.177   3.376   5.151
10092SOL    HW131175   1.154   3.286   5.114
10092SOL    HW231176   1.115   3.398   5.226
10093SOL     OW31177   5.078   3.440   5.441
10093SOL    HW131178   5.026   3.356   5.458
10093SOL    HW231179   5.024   3.504   5.388
10094SOL     OW31180   3.152   6.546   0.408
10094SOL    HW131181   3.202   6.522   0.491
10094SOL    HW231182   3.164   6.473   0.340
10095SOL     OW31183   5.176   2.347   4.538
10095SOL    HW131184   5.233   2.422   4.572
10095SOL    HW231185   5.086   2.351   4.582
10096SOL     OW31186   4.763   0.564   2.370
10096SOL    HW131187   4.813   0.637   2.416
10096SOL    HW231188   4.672   0.555   2.412
10097SOL     OW31189   1.908   2.151   6.370
10097SOL    HW131190   1.850   2.192   6.441
10097SOL    HW231191   1.857   2.148   6.284
10098SOL     OW31192   3.335   5.581   4.395
10098SOL    HW131193   3.302   5.656   4.338
10098SOL    HW231194   3.430   5.598   4.421
10099SOL     OW31195   6.530   4.322   1.555
10099SOL    HW131196   6.549   4.417   1.529
10099SOL    HW231197   6.476   4.278   1.484
10100SOL     OW31198   5.480   5.541   5.496
10100SOL    HW131199   5.511   5.605   5.566
10100SOL    HW231200   5.486   5.447   5.531
10101SOL     OW31201   6.541   2.828   1.871
10101SOL    HW131202   6.617   2.862   1.815
10101SOL    HW231203   6.574   2.805   1.962
10102SOL     OW31204   5.360   0.251   0.369
10102SOL    HW131205   5.322   0.216   0.455
10102SOL    HW231206   5.423   0.183   0.331
10103SOL     OW31207   0.722   0.454   6.131
10103SOL    HW131208   0.798   0.506   6.170
10103SOL    HW231209   0.637   0.505   6.142
10104SOL     OW31210   2.039   0.686   6.351
10104SOL    HW131211   2.029   0.743   6.433
10104SOL    HW231212   1.958   0.628   6.341
10105SOL     OW31213   2.756   1.433   5.653
10105SOL    HW131214   2.727   1.503   5.719
10105SOL    HW231215   2.686   1.361   5.650
10106SOL     OW31216   5.075   6.219   1.830
10106SOL    HW131217   4.991   6.273   1.831
10106SOL    HW231218   5.125   6.234   1.916
10107SOL     OW31219   5.082   4.266   6.659
10107SOL    HW131220   5.012   4.221   6.603
10107SOL    HW231221   5.121   4.343   6.608
10108SOL     OW31222   2.089   3.006   0.280
10108SOL    HW131223   2.146   2.994   0.361
10108SOL    HW231224   2.023   2.931   0.274
10109SOL     OW31225   0.451   0.904   6.987
10109SOL    HW131226   0.480   0.830   6.926
10109SOL    HW231227   0.450   0.990   6.935
10110SOL     OW31228   4.810   4.886   2.491
10110SOL    HW131229   4.849   4.821   2.426
10110SOL    HW231230   4.729   4.929   2.451
10111SOL     OW31231   0.810   2.662   2.037
10111SOL    HW131232   0.772   2.725   1.969
10111SOL    HW231233   0.737   2.605   2.074
10112SOL     OW31234   6.619   3.145   3.338
10112SOL    HW131235   6.701   3.196   3.365
10112SOL    HW231236   6.543   3.172   3.396
10113SOL     OW31237   5.236   1.310   6.829
10113SOL    HW131238   5.256   1.316   6.927
10113SOL    HW231239   5.142   1.280   6.817
10114SOL     OW31240   4.167   2.195   3.334
10114SOL    HW131241   4.161   2.100   3.303
10114SOL    HW231242   4.081   2.222   3.376
10115SOL     OW31243   3.333   1.364   4.231
10115SOL    HW131244   3.426   1.398   4.244
10115SOL    HW231245   3.297   1.396   4.144
10116SOL     OW31246   5.712   0.281   5.432
10116SOL    HW131247   5.735   0.246   5.523
10116SOL    HW231248   5.789   0.334   5.397
10117SOL     OW31249   6.402   5.218   5.422
10117SOL    HW131250   6.491   5.186   5.390
10117SOL    HW231251   6.330   5.186   5.360
10118SOL     OW31252   2.737   5.026   4.572
10118SOL    HW131253   2.757   4.985   4.661
10118SOL    HW231254   2.683   5.109   4.584
10119SOL     OW31255   0.538   4.825   4.125
10119SOL    HW131256   0.628   4.847   4.163
10119SOL    HW231257   0.500   4.745   4.172
10120SOL     OW31258   1.265   2.844   2.490
10120SOL    HW131259   1.187   2.783   2.477
10120SOL    HW231260   1.243   2.914   2.557
10121SOL     OW31261   6.699   4.665   0.747
10121SOL    HW131262   6.741   4.579   0.718
10121SOL    HW231263   6.699   4.729   0.670
10122SOL     OW31264   6.996   1.876   4.128
10122SOL    HW131265   6.985   1.938   4.051
10122SOL    HW231266   7.004   1.929   4.213
10123SOL     OW31267   5.815   6.295   1.097
10123SOL    HW131268   5.886   6.363   1.080
10123SOL    HW231269   5.803   6.238   1.016
10124SOL     OW31270   1.494   5.459   2.232
10124SOL    HW131271   1.395   5.446   2.226
10124SOL    HW231272   1.535   5.450   2.141
10125SOL     OW31273   1.737   1.636   0.838
10125SOL    HW131274   1.744   1.568   0.911
10125SOL    HW231275   1.803   1.614   0.766
10126SOL     OW31276   5.934   0.842   6.926
10126SOL    HW131277   5.904   0.902   7.001
10126SOL    HW231278   6.021   0.875   6.890
10127SOL     OW31279   1.517   4.685   5.649
10127SOL    HW131280   1.595   4.710   5.706
10127SOL    HW231281   1.438   4.667   5.707
10128SOL     OW31282   3.249   0.892   0.220
10128SOL    HW131283   3.314   0.956   0.262
10128SOL    HW231284   3.234   0.815   0.282
10129SOL     OW31285   5.944   1.674   3.273
10129SOL    HW131286   5.894   1.593   3.241
10129SOL    HW231287   5.878   1.740   3.310
10130SOL     OW31288   0.596   2.295   2.383
10130SOL    HW131289   0.566   2.385   2.413
10130SOL    HW231290   0.681   2.271   2.429
10131SOL     OW31291   2.033   0.782   4.609
10131SOL    HW131292   2.127   0.777   4.643
10131SOL    HW231293   1.996   0.689   4.603
10132SOL     OW31294   6.557   0.627   2.697
10132SOL    HW131295   6.587   0.533   2.712
10132SOL    HW231296   6.632   0.690   2.715
10133SOL     OW31297   4.710   5.402   0.937
10133SOL    HW131298   4.777   5.344   0.983
10133SOL    HW231299   4.675   5.354   0.857
10134SOL     OW31300   5.997   0.904   1.911
10134SOL    HW131301   6.026   0.992   1.948
10134SOL    HW231302   6.031   0.831   1.970
10135SOL     OW31303   5.546   0.177   3.838
10135SOL    HW131304   5.580   0.251   3.780
10135SOL    HW231305   5.618   0.150   3.902
10136SOL     OW31306   4.873   2.004   2.750
10136SOL    HW131307   4.873   1.958   2.839
10136SOL    HW231308   4.893   2.101   2.763
10137SOL     OW31309   0.057   5.889   5.685
10137SOL    HW131310   7.004   5.829   5.692
10137SOL    HW231311   0.045   5.952   5.608
10138SOL     OW31312   5.872   1.544   0.469
10138SOL    HW131313   5.899   1.449   0.455
10138SOL    HW231314   5.920   1.603   0.405
10139SOL     OW31315   3.045   3.499   6.095
10139SOL    HW131316   3.054   3.403   6.070
10139SOL    HW231317   3.136   3.537   6.113
10140SOL     OW31318   7.016   5.813   6.299
10140SOL    HW131319   7.024   5.779   6.205
10140SOL    HW231320   6.928   5.787   6.337
10141SOL     OW31321   3.307   1.472   3.959
10141SOL    HW131322   3.399   1.512   3.960
10141SOL    HW231323   3.305   1.398   3.891
10142SOL     OW31324   5.622   6.406   4.500
10142SOL    HW131325   5.614   6.482   4.435
10142SOL    HW231326   5.619   6.442   4.593
10143SOL     OW31327   5.924   3.428   0.542
10143SOL    HW131328   5.947   3.354   0.480
10143SOL    HW231329   5.830   3.419   0.572
10144SOL     OW31330   4.139   6.444   5.396
10144SOL    HW131331   4.218   6.391   5.427
10144SOL    HW231332   4.154   6.541   5.414
10145SOL     OW31333   5.001   5.963   1.775
10145SOL    HW131334   5.085   5.914   1.753
10145SOL    HW231335   5.022   6.058   1.800
10146SOL     OW31336   0.490   3.603   4.055
10146SOL    HW131337   0.553   3.616   3.978
10146SOL    HW231338   0.400   3.576   4.020
10147SOL     OW31339   4.383   5.441   6.538
10147SOL    HW131340   4.453   5.482   6.479
10147SOL    HW231341   4.413   5.445   6.633
10148SOL     OW31342   0.634   4.723   0.174
10148SOL    HW131343   0.721   4.769   0.190
10148SOL    HW231344   0.651   4.627   0.150
10149SOL     OW31345   4.916   4.944   1.533
10149SOL    HW131346   4.843   4.908   1.591
10149SOL    HW231347   4.981   4.871   1.511
10150SOL     OW31348   4.849   3.870   0.751
10150SOL    HW131349   4.874   3.846   0.845
10150SOL    HW231350   4.783   3.805   0.715
10151SOL     OW31351   6.790   0.359   5.851
10151SOL    HW131352   6.843   0.279   5.879
10151SOL    HW231353   6.774   0.356   5.752
10152SOL     OW31354   5.870   6.306   2.750
10152SOL    HW131355   5.813   6.364   2.809
10152SOL    HW231356   5.936   6.257   2.807
10153SOL     OW31357   4.723   5.206   3.854
10153SOL    HW131358   4.785   5.281   3.880
10153SOL    HW231359   4.704   5.211   3.756
10154SOL     OW31360   3.854   4.590   5.535
10154SOL    HW131361   3.937   4.536   5.548
10154SOL    HW231362   3.855   4.668   5.598
10155SOL     OW31363   4.599   2.213   5.929
10155SOL    HW131364   4.647   2.255   6.006
10155SOL    HW231365   4.622   2.116   5.924
10156SOL     OW31366   5.037   0.545   0.766
10156SOL    HW131367   4.982   0.577   0.689
10156SOL    HW231368   4.989   0.473   0.814
10157SOL     OW31369   6.966   2.759   1.303
10157SOL    HW131370   6.886   2.708   1.335
10157SOL    HW231371   0.022   2.706   1.322
10158SOL     OW31372   5.134   6.699   2.211
10158SOL    HW131373   5.207   6.758   2.248
10158SOL    HW231374   5.151   6.604   2.239
10159SOL     OW31375   3.674   3.263   3.183
10159SOL    HW131376   3.700   3.360   3.181
10159SOL    HW231377   3.590   3.251   3.130
10160SOL     OW31378   1.965   4.414   2.827
10160SOL    HW131379   1.975   4.495   2.769
10160SOL    HW231380   1.869   4.402   2.851
10161SOL     OW31381   3.667   4.833   6.331
10161SOL    HW131382   3.702   4.927   6.333
10161SOL    HW231383   3.736   4.771   6.369
10162SOL     OW31384   1.885   4.297   1.770
10162SOL    HW131385   1.973   4.301   1.722
10162SOL    HW231386   1.821   4.362   1.729
10163SOL     OW31387   1.502   6.179   5.468
10163SOL    HW131388   1.428   6.166   5.535
10163SOL    HW231389   1.501   6.103   5.403
10164SOL     OW31390   6.481   2.934   3.618
10164SOL    HW131391   6.531   3.020   3.614
10164SOL    HW231392   6.492   2.885   3.531
10165SOL     OW31393   6.177   2.781   4.002
10165SOL    HW131394   6.199   2.827   3.915
10165SOL    HW231395   6.147   2.687   3.983
10166SOL     OW31396   0.923   2.559   0.742
10166SOL    HW131397   0.977   2.533   0.662
10166SOL    HW231398   0.835   2.595   0.713
10167SOL     OW31399   0.414   5.602   6.235
10167SOL    HW131400   0.496   5.584   6.182
10167SOL    HW231401   0.351   5.659   6.183
10168SOL     OW31402   5.946   1.446   6.977
10168SOL    HW131403   6.015   1.414   0.015
10168SOL    HW231404   5.861   1.396   6.992
10169SOL     OW31405   6.935   3.881   3.234
10169SOL    HW131406   6.944   3.842   3.326
10169SOL    HW231407   6.935   3.808   3.166
10170SOL     OW31408   6.364   6.145   0.111
10170SOL    HW131409   6.277   6.140   0.061
10170SOL    HW231410   6.437   6.104   0.056
10171SOL     OW31411   1.855   2.899   5.042
10171SOL    HW131412   1.939   2.851   5.068
10171SOL    HW231413   1.856   2.918   4.944
10172SOL     OW31414   6.485   0.348   3.066
10172SOL    HW131415   6.448   0.348   3.159
10172SOL    HW231416   6.468   0.437   3.024
10173SOL     OW31417   3.462   4.670   6.932
10173SOL    HW131418   3.405   4.685   6.851
10173SOL    HW231419   3.553   4.639   6.903
10174SOL     OW31420   5.173   6.886   3.191
10174SOL    HW131421   5.241   6.887   3.118
10174SOL    HW231422   5.192   6.809   3.253
10175SOL     OW31423   6.694   2.249   3.783
10175SOL    HW131424   6.597   2.270   3.775
10175SOL    HW231425   6.744   2.291   3.707
10176SOL     OW31426   6.471   3.165   5.778
10176SOL    HW131427   6.567   3.193   5.772
10176SOL    HW231428   6.413   3.236   5.736
10177SOL     OW31429   2.387   0.356   1.630
10177SOL    HW131430   2.400   0.448   1.669
10177SOL    HW231431   2.385   0.363   1.530
10178SOL     OW31432   1.945   1.827   0.377
10178SOL    HW131433   1.880   1.836   0.452
10178SOL    HW231434   1.896   1.817   0.291
10179SOL     OW31435   7.006   4.264   0.631
10179SOL    HW131436   6.996   4.164   0.635
10179SOL    HW231437   0.070   4.286   0.597
10180SOL     OW31438   4.540   6.982   6.006
10180SOL    HW131439   4.575   7.027   6.088
10180SOL    HW231440   4.476   6.910   6.032
10181SOL     OW31441   6.440   3.996   1.141
10181SOL    HW131442   6.488   3.928   1.086
10181SOL    HW231443   6.344   4.000   1.114
10182SOL     OW31444   5.515   1.700   0.066
10182SOL    HW131445   5.418   1.687   0.050
10182SOL    HW231446   5.558   1.612   0.085
10183SOL     OW31447   6.635   2.257   6.115
10183SOL    HW131448   6.722   2.307   6.112
10183SOL    HW231449   6.649   2.170   6.162
10184SOL     OW31450   6.268   3.462   6.611
10184SOL    HW131451   6.296   3.543   6.663
10184SOL    HW231452   6.326   3.452   6.531
10185SOL     OW31453   3.990   5.942   2.206
10185SOL    HW131454   4.065   5.876   2.198
10185SOL    HW231455   3.962   5.949   2.302
10186SOL     OW31456   4.957   3.938   5.357
10186SOL    HW131457   4.953   4.034   5.328
10186SOL    HW231458   4.871   3.913   5.402
10187SOL     OW31459   2.479   4.236   5.721
10187SOL    HW131460   2.482   4.160   5.657
10187SOL    HW231461   2.412   4.304   5.690
10188SOL     OW31462   2.576   6.570   6.619
10188SOL    HW131463   2.607   6.656   6.658
10188SOL    HW231464   2.648   6.532   6.560
10189SOL     OW31465   1.459   1.415   6.232
10189SOL    HW131466   1.439   1.320   6.208
10189SOL    HW231467   1.540   1.418   6.292
10190SOL     OW31468   2.805   4.230   1.408
10190SOL    HW131469   2.833   4.219   1.312
10190SOL    HW231470   2.774   4.141   1.443
10191SOL     OW31471   5.913   5.398   0.085
10191SOL    HW131472   5.839   5.346   0.128
10191SOL    HW231473   5.968   5.443   0.155
10192SOL     OW31474   2.228   1.947   5.361
10192SOL    HW131475   2.275   1.897   5.434
10192SOL    HW231476   2.224   1.890   5.279
10193SOL     OW31477   4.076   3.266   2.487
10193SOL    HW131478   4.028   3.263   2.574
10193SOL    HW231479   4.120   3.355   2.476
10194SOL     OW31480   3.816   0.438   4.473
10194SOL    HW131481   3.898   0.383   4.488
10194SOL    HW231482   3.792   0.438   4.376
10195SOL     OW31483   5.513   0.114   2.015
10195SOL    HW131484   5.587   0.057   1.978
10195SOL    HW231485   5.505   0.099   2.113
10196SOL     OW31486   5.590   2.098   3.271
10196SOL    HW131487   5.567   2.118   3.176
10196SOL    HW231488   5.690   2.098   3.282
10197SOL     OW31489   5.935   0.162   3.156
10197SOL    HW131490   5.991   0.198   3.081
10197SOL    HW231491   5.841   0.194   3.145
10198SOL     OW31492   3.237   6.381   1.494
10198SOL    HW131493   3.273   6.400   1.586
10198SOL    HW231494   3.247   6.284   1.474
10199SOL     OW31495   1.341   1.923   6.783
10199SOL    HW131496   1.355   1.901   6.687
10199SOL    HW231497   1.424   1.902   6.835
10200SOL     OW31498   5.928   4.022   5.755
10200SOL    HW131499   5.856   4.030   5.824
10200SOL    HW231500   6.002   3.964   5.790
10201SOL     OW31501   0.876   5.375   2.241
10201SOL    HW131502   0.937   5.410   2.170
10201SOL    HW231503   0.864   5.445   2.312
10202SOL     OW31504   0.086   3.863   1.434
10202SOL    HW131505   0.046   3.870   1.343
10202SOL    HW231506   0.139   3.945   1.453
10203SOL     OW31507   1.926   3.049   2.334
10203SOL    HW131508   1.881   3.007   2.414
10203SOL    HW231509   2.021   3.069   2.357
10204SOL     OW31510   3.047   4.696   5.567
10204SOL    HW131511   3.091   4.613   5.533
10204SOL    HW231512   3.117   4.763   5.591
10205SOL     OW31513   5.270   1.381   3.788
10205SOL    HW131514   5.275   1.323   3.869
10205SOL    HW231515   5.334   1.348   3.719
10206SOL     OW31516   5.514   6.681   6.122
10206SOL    HW131517   5.561   6.769   6.133
10206SOL    HW231518   5.453   6.686   6.043
10207SOL     OW31519   2.285   0.878   2.211
10207SOL    HW131520   2.279   0.977   2.199
10207SOL    HW231521   2.225   0.849   2.285
10208SOL     OW31522   5.835   5.781   5.199
10208SOL    HW131523   5.918   5.729   5.220
10208SOL    HW231524   5.841   5.815   5.105
10209SOL     OW31525   6.940   1.246   6.302
10209SOL    HW131526   6.879   1.259   6.224
10209SOL    HW231527   6.983   1.156   6.296
10210SOL     OW31528   5.730   7.011   1.942
10210SOL    HW131529   5.779   0.007   2.026
10210SOL    HW231530   5.701   6.916   1.945
10211SOL     OW31531   3.926   6.533   5.194
10211SOL    HW131532   3.998   6.503   5.257
10211SOL    HW231533   3.860   6.459   5.182
10212SOL     OW31534   0.294   1.107   4.143
10212SOL    HW131535   0.364   1.153   4.197
10212SOL    HW231536   0.331   1.083   4.054
10213SOL     OW31537   5.692   1.812   2.889
10213SOL    HW131538   5.689   1.725   2.840
10213SOL    HW231539   5.780   1.856   2.873
10214SOL     OW31540   6.268   0.539   2.073
10214SOL    HW131541   6.351   0.499   2.034
10214SOL    HW231542   6.272   0.532   2.173
10215SOL     OW31543   3.225   3.728   6.303
10215SOL    HW131544   3.159   3.790   6.344
10215SOL    HW231545   3.300   3.781   6.262
10216SOL     OW31546   6.638   6.869   0.997
10216SOL    HW131547   6.717   6.865   1.059
10216SOL    HW231548   6.644   6.951   0.940
10217SOL     OW31549   2.601   1.824   4.229
10217SOL    HW131550   2.560   1.878   4.303
10217SOL    HW231551   2.530   1.770   4.185
10218SOL     OW31552   1.093   1.297   1.510
10218SOL    HW131553   1.086   1.390   1.472
10218SOL    HW231554   1.007   1.249   1.498
10219SOL     OW31555   0.597   2.162   2.119
10219SOL    HW131556   0.660   2.195   2.189
10219SOL    HW231557   0.592   2.062   2.122
10220SOL     OW31558   4.172   1.796   1.193
10220SOL    HW131559   4.171   1.719   1.257
10220SOL    HW231560   4.249   1.856   1.213
10221SOL     OW31561   2.646   1.050   5.260
10221SOL    HW131562   2.620   1.039   5.164
10221SOL    HW231563   2.591   0.988   5.316
10222SOL     OW31564   1.027   3.812   5.438
10222SOL    HW131565   0.933   3.843   5.451
10222SOL    HW231566   1.029   3.737   5.373
10223SOL     OW31567   1.134   4.912   6.816
10223SOL    HW131568   1.203   4.983   6.805
10223SOL    HW231569   1.115   4.870   6.727
10224SOL     OW31570   1.603   0.823   4.657
10224SOL    HW131571   1.639   0.869   4.575
10224SOL    HW231572   1.651   0.857   4.738
10225SOL     OW31573   0.750   6.110   4.645
10225SOL    HW131574   0.832   6.064   4.679
10225SOL    HW231575   0.689   6.044   4.601
10226SOL     OW31576   2.947   1.223   6.648
10226SOL    HW131577   2.896   1.192   6.728
10226SOL    HW231578   3.045   1.212   6.665
10227SOL     OW31579   4.620   4.397   0.447
10227SOL    HW131580   4.680   4.453   0.390
10227SOL    HW231581   4.675   4.347   0.514
10228SOL     OW31582   0.609   5.557   2.094
10228SOL    HW131583   0.557   5.641   2.079
10228SOL    HW231584   0.638   5.519   2.006
10229SOL     OW31585   0.944   0.797   3.486
10229SOL    HW131586   0.928   0.851   3.569
10229SOL    HW231587   0.945   0.700   3.509
10230SOL     OW31588   6.785   0.096   3.588
10230SOL    HW131589   6.824   0.059   3.672
10230SOL    HW231590   6.805   0.036   3.511
10231SOL     OW31591   6.568   6.631   4.862
10231SOL    HW131592   6.550   6.536   4.888
10231SOL    HW231593   6.513   6.653   4.781
10232SOL     OW31594   3.974   1.184   4.299
10232SOL    HW131595   3.973   1.142   4.390
10232SOL    HW231596   4.053   1.150   4.248
10233SOL     OW31597   4.374   2.944   5.910
10233SOL    HW131598   4.465   2.909   5.934
10233SOL    HW231599   4.353   3.024   5.965
10234SOL     OW31600   5.061   0.613   0.369
10234SOL    HW131601   4.997   0.588   0.441
10234SOL    HW231602   5.133   0.671   0.407
10235SOL     OW31603   4.444   0.774   0.315
10235SOL    HW131604   4.534   0.811   0.292
10235SOL    HW231605   4.404   0.827   0.390
10236SOL     OW31606   2.052   6.433   1.673
10236SOL    HW131607   2.002   6.394   1.595
10236SOL    HW231608   2.108   6.510   1.641
10237SOL     OW31609   6.468   4.299   1.843
10237SOL    HW131610   6.544   4.248   1.883
10237SOL    HW231611   6.494   4.336   1.754
10238SOL     OW31612   3.758   3.993   5.676
10238SOL    HW131613   3.806   3.916   5.717
10238SOL    HW231614   3.823   4.051   5.626
10239SOL     OW31615   0.808   4.202   5.483
10239SOL    HW131616   0.906   4.197   5.503
10239SOL    HW231617   0.790   4.276   5.418
10240SOL     OW31618   1.090   4.433   2.606
10240SOL    HW131619   1.079   4.463   2.701
10240SOL    HW231620   1.155   4.493   2.560
10241SOL     OW31621   0.219   1.080   1.850
10241SOL    HW131622   0.319   1.078   1.841
10241SOL    HW231623   0.188   0.996   1.894
10242SOL     OW31624   0.529   1.805   6.126
10242SOL    HW131625   0.500   1.850   6.211
10242SOL    HW231626   0.616   1.758   6.142
10243SOL     OW31627   0.131   5.333   1.400
10243SOL    HW131628   0.091   5.292   1.482
10243SOL    HW231629   0.202   5.273   1.363
10244SOL     OW31630   1.960   4.804   6.915
10244SOL    HW131631   2.058   4.822   6.908
10244SOL    HW231632   1.910   4.884   6.882
10245SOL     OW31633   2.465   3.543   7.018
10245SOL    HW131634   2.521   3.468   0.026
10245SOL    HW231635   2.398   3.507   6.953
10246SOL     OW31636   2.965   3.962   4.947
10246SOL    HW131637   2.894   4.033   4.947
10246SOL    HW231638   2.934   3.885   5.002
10247SOL     OW31639   0.492   5.180   5.328
10247SOL    HW131640   0.410   5.215   5.283
10247SOL    HW231641   0.540   5.255   5.373
10248SOL     OW31642   3.275   0.311   2.483
10248SOL    HW131643   3.231   0.389   2.439
10248SOL    HW231644   3.329   0.344   2.561
10249SOL     OW31645   3.328   0.617   5.275
10249SOL    HW131646   3.273   0.641   5.195
10249SOL    HW231647   3.279   0.548   5.328
10250SOL     OW31648   6.903   1.620   1.048
10250SOL    HW131649   6.894   1.554   0.973
10250SOL    HW231650   6.822   1.615   1.106
10251SOL     OW31651   2.467   2.696   5.690
10251SOL    HW131652   2.407   2.694   5.770
10251SOL    HW231653   2.522   2.780   5.691
10252SOL     OW31654   5.924   6.614   0.502
10252SOL    HW131655   5.931   6.669   0.585
10252SOL    HW231656   5.939   6.518   0.523
10253SOL     OW31657   4.779   5.216   0.299
10253SOL    HW131658   4.783   5.303   0.250
10253SOL    HW231659   4.861   5.206   0.356
10254SOL     OW31660   3.472   1.991   4.639
10254SOL    HW131661   3.557   2.033   4.669
10254SOL    HW231662   3.400   2.010   4.706
10255SOL     OW31663   1.963   6.285   1.939
10255SOL    HW131664   1.947   6.373   1.985
10255SOL    HW231665   2.004   6.301   1.849
10256SOL     OW31666   5.383   0.006   1.022
10256SOL    HW131667   5.427   7.002   0.939
10256SOL    HW231668   5.297   0.051   0.999
10257SOL     OW31669   0.933   4.586   5.165
10257SOL    HW131670   0.926   4.509   5.102
10257SOL    HW231671   1.011   4.572   5.226
10258SOL     OW31672   5.224   6.772   3.722
10258SOL    HW131673   5.313   6.751   3.682
10258SOL    HW231674   5.152   6.754   3.656
10259SOL     OW31675   1.045   5.423   3.779
10259SOL    HW131676   1.113   5.352   3.795
10259SOL    HW231677   1.068   5.473   3.696
10260SOL     OW31678   6.840   6.715   3.073
10260SOL    HW131679   6.759   6.717   3.016
10260SOL    HW231680   6.921   6.696   3.017
10261SOL     OW31681   0.055   6.203   1.943
10261SOL    HW131682   0.024   6.155   2.025
10261SOL    HW231683   7.006   6.255   1.905
10262SOL     OW31684   3.486   5.179   4.546
10262SOL    HW131685   3.506   5.146   4.638
10262SOL    HW231686   3.389   5.200   4.539
10263SOL     OW31687   4.781   1.880   6.937
10263SOL    HW131688   4.813   1.818   6.865
10263SOL    HW231689   4.757   1.826   7.018
10264SOL     OW31690   5.848   1.476   6.609
10264SOL    HW131691   5.868   1.571   6.633
10264SOL    HW231692   5.759   1.471   6.563
10265SOL     OW31693   3.177   1.664   2.670
10265SOL    HW131694   3.272   1.651   2.696
10265SOL    HW231695   3.154   1.761   2.673
10266SOL     OW31696   3.917   3.995   6.052
10266SOL    HW131697   3.870   4.069   6.005
10266SOL    HW231698   3.855   3.918   6.064
10267SOL     OW31699   6.621   1.839   6.897
10267SOL    HW131700   6.523   1.841   6.919
10267SOL    HW231701   6.660   1.929   6.915
10268SOL     OW31702   5.442   6.281   1.429
10268SOL    HW131703   5.345   6.270   1.452
10268SOL    HW231704   5.485   6.342   1.496
10269SOL     OW31705   2.403   1.465   5.543
10269SOL    HW131706   2.309   1.454   5.510
10269SOL    HW231707   2.464   1.403   5.493
10270SOL     OW31708   2.417   5.812   1.047
10270SOL    HW131709   2.468   5.746   1.103
10270SOL    HW231710   2.440   5.905   1.076
10271SOL     OW31711   3.129   3.759   0.281
10271SOL    HW131712   3.185   3.690   0.235
10271SOL    HW231713   3.181   3.844   0.289
10272SOL     OW31714   1.090   1.111   4.266
10272SOL    HW131715   0.997   1.120   4.232
10272SOL    HW231716   1.094   1.037   4.333
10273SOL     OW31717   4.087   5.640   4.216
10273SOL    HW131718   4.123   5.601   4.301
10273SOL    HW231719   4.022   5.576   4.175
10274SOL     OW31720   1.102   4.747   5.416
10274SOL    HW131721   1.153   4.830   5.436
10274SOL    HW231722   1.150   4.693   5.347
10275SOL     OW31723   0.926   7.017   2.825
10275SOL    HW131724   0.854   0.017   2.888
10275SOL    HW231725   1.012   7.005   2.874
10276SOL     OW31726   0.050   5.675   6.023
10276SOL    HW131727   0.125   5.669   5.957
10276SOL    HW231728   0.005   5.764   6.013
10277SOL     OW31729   3.167   6.332   4.091
10277SOL    HW131730   3.121   6.400   4.149
10277SOL    HW231731   3.246   6.295   4.140
10278SOL     OW31732   6.794   1.338   6.115
10278SOL    HW131733   6.860   1.318   6.043
10278SOL    HW231734   6.722   1.398   6.080
10279SOL     OW31735   3.644   0.491   3.943
10279SOL    HW131736   3.678   0.400   3.967
10279SOL    HW231737   3.610   0.490   3.849
10280SOL     OW31738   2.363   4.655   1.413
10280SOL    HW131739   2.457   4.670   1.443
10280SOL    HW231740   2.328   4.737   1.368
10281SOL     OW31741   5.124   1.916   2.670
10281SOL    HW131742   5.024   1.924   2.667
10281SOL    HW231743   5.159   1.963   2.751
10282SOL     OW31744   6.932   3.129   3.592
10282SOL    HW131745   6.868   3.187   3.643
10282SOL    HW231746   7.023   3.139   3.631
10283SOL     OW31747   0.995   3.010   0.773
10283SOL    HW131748   1.077   2.976   0.819
10283SOL    HW231749   1.009   3.106   0.748
10284SOL     OW31750   5.813   4.229   5.074
10284SOL    HW131751   5.724   4.203   5.037
10284SOL    HW231752   5.816   4.327   5.091
10285SOL     OW31753   4.524   0.364   1.343
10285SOL    HW131754   4.443   0.420   1.328
10285SOL    HW231755   4.572   0.395   1.425
10286SOL     OW31756   3.795   1.775   2.567
10286SOL    HW131757   3.735   1.842   2.612
10286SOL    HW231758   3.747   1.733   2.491
10287SOL     OW31759   2.058   0.039   1.876
10287SOL    HW131760   2.053   0.086   1.788
10287SOL    HW231761   2.154   0.031   1.904
10288SOL     OW31762   5.479   6.014   2.590
10288SOL    HW131763   5.508   5.973   2.503
10288SOL    HW231764   5.489   6.113   2.584
10289SOL     OW31765   3.439   1.284   1.626
10289SOL    HW131766   3.403   1.377   1.619
10289SOL    HW231767   3.445   1.245   1.534
10290SOL     OW31768   3.606   4.034   2.957
10290SOL    HW131769   3.508   4.014   2.964
10290SOL    HW231770   3.626   4.071   2.866
10291SOL     OW31771   3.956   0.661   3.883
10291SOL    HW131772   3.898   0.719   3.940
10291SOL    HW231773   3.899   0.591   3.839
10292SOL     OW31774   0.378   2.047   4.560
10292SOL    HW131775   0.290   2.011   4.591
10292SOL    HW231776   0.366   2.140   4.526
10293SOL     OW31777   1.311   6.625   3.106
10293SOL    HW131778   1.273   6.533   3.120
10293SOL    HW231779   1.242   6.693   3.129
10294SOL     OW31780   4.905   3.292   2.996
10294SOL    HW131781   4.892   3.220   3.064
10294SOL    HW231782   4.895   3.382   3.040
10295SOL     OW31783   5.827   4.750   5.448
10295SOL    HW131784   5.919   4.712   5.437
10295SOL    HW231785   5.761   4.676   5.461
10296SOL     OW31786   5.797   4.224   5.889
10296SOL    HW131787   5.869   4.196   5.953
10296SOL    HW231788   5.736   4.290   5.934
10297SOL     OW31789   2.856   0.063   4.517
10297SOL    HW131790   2.827   0.075   4.422
10297SOL    HW231791   2.902   0.146   4.549
10298SOL     OW31792   4.725   4.459   3.182
10298SOL    HW131793   4.787   4.537   3.194
10298SOL    HW231794   4.733   4.397   3.260
10299SOL     OW31795   4.451   4.612   3.550
10299SOL    HW131796   4.524   4.567   3.602
10299SOL    HW231797   4.363   4.572   3.577
10300SOL     OW31798   1.712   3.862   2.047
10300SOL    HW131799   1.810   3.871   2.030
10300SOL    HW231800   1.690   3.899   2.137
10301SOL     OW31801   5.536   1.719   3.361
10301SOL    HW131802   5.519   1.637   3.416
10301SOL    HW231803   5.478   1.793   3.393
10302SOL     OW31804   1.226   6.494   2.238
10302SOL    HW131805   1.172   6.419   2.202
10302SOL    HW231806   1.244   6.479   2.335
10303SOL     OW31807   3.886   3.679   1.356
10303SOL    HW131808   3.929   3.613   1.418
10303SOL    HW231809   3.923   3.771   1.375
10304SOL     OW31810   5.790   0.138   3.973
10304SOL    HW131811   5.830   0.212   4.027
10304SOL    HW231812   5.840   0.054   3.990
10305SOL     OW31813   1.489   6.180   0.178
10305SOL    HW131814   1.470   6.092   0.136
10305SOL    HW231815   1.458   6.253   0.118
10306SOL     OW31816   4.500   5.227   0.076
10306SOL    HW131817   4.526   5.187   7.016
10306SOL    HW231818   4.557   5.306   0.096
10307SOL     OW31819   1.879   1.035   5.344
10307SOL    HW131820   1.801   0.974   5.357
10307SOL    HW231821   1.869   1.116   5.402
10308SOL     OW31822   3.442   5.013   3.619
10308SOL    HW131823   3.467   5.105   3.590
10308SOL    HW231824   3.452   4.950   3.543
10309SOL     OW31825   6.294   6.658   3.477
10309SOL    HW131826   6.271   6.681   3.383
10309SOL    HW231827   6.380   6.607   3.479
10310SOL     OW31828   3.164   3.671   2.033
10310SOL    HW131829   3.143   3.583   1.990
10310SOL    HW231830   3.080   3.713   2.068
10311SOL     OW31831   0.720   5.708   0.677
10311SOL    HW131832   0.813   5.713   0.715
10311SOL    HW231833   0.662   5.654   0.738
10312SOL     OW31834   3.194   4.717   0.512
10312SOL    HW131835   3.153   4.642   0.564
10312SOL    HW231836   3.128   4.792   0.505
10313SOL     OW31837   4.253   0.098   2.352
10313SOL    HW131838   4.296   0.084   2.441
10313SOL    HW231839   4.217   0.191   2.346
10314SOL     OW31840   6.307   0.220   0.787
10314SOL    HW131841   6.380   0.248   0.724
10314SOL    HW231842   6.225   0.198   0.736
10315SOL     OW31843   5.989   6.060   5.289
10315SOL    HW131844   5.927   6.060   5.211
10315SOL    HW231845   5.938   6.080   5.372
10316SOL     OW31846   0.221   3.447   4.957
10316SOL    HW131847   0.294   3.510   4.983
10316SOL    HW231848   0.260   3.370   4.905
10317SOL     OW31849   3.795   5.070   6.355
10317SOL    HW131850   3.768   5.159   6.318
10317SOL    HW231851   3.879   5.040   6.311
10318SOL     OW31852   6.174   5.199   1.415
10318SOL    HW131853   6.177   5.107   1.454
10318SOL    HW231854   6.264   5.241   1.423
10319SOL     OW31855   0.174   4.890   4.312
10319SOL    HW131856   0.177   4.796   4.280
10319SOL    HW231857   0.215   4.950   4.243
10320SOL     OW31858   0.936   0.166   0.846
10320SOL    HW131859   0.921   0.072   0.875
10320SOL    HW231860   1.034   0.182   0.834
10321SOL     OW31861   3.754   6.181   5.201
10321SOL    HW131862   3.850   6.197   5.177
10321SOL    HW231863   3.747   6.097   5.255
10322SOL     OW31864   6.235   5.818   0.240
10322SOL    HW131865   6.290   5.850   0.317
10322SOL    HW231866   6.276   5.735   0.202
10323SOL     OW31867   6.683   3.325   6.298
10323SOL    HW131868   6.745   3.249   6.279
10323SOL    HW231869   6.623   3.340   6.220
10324SOL     OW31870   3.766   3.067   3.350
10324SOL    HW131871   3.753   3.126   3.270
10324SOL    HW231872   3.681   3.063   3.402
10325SOL     OW31873   6.808   4.414   3.648
10325SOL    HW131874   6.859   4.352   3.589
10325SOL    HW231875   6.741   4.361   3.701
10326SOL     OW31876   5.199   2.298   0.664
10326SOL    HW131877   5.277   2.321   0.606
10326SOL    HW231878   5.219   2.216   0.717
10327SOL     OW31879   1.713   1.214   2.968
10327SOL    HW131880   1.660   1.130   2.962
10327SOL    HW231881   1.797   1.205   2.914
10328SOL     OW31882   5.704   3.572   2.585
10328SOL    HW131883   5.629   3.551   2.649
10328SOL    HW231884   5.777   3.619   2.635
10329SOL     OW31885   3.067   0.486   3.439
10329SOL    HW131886   3.125   0.556   3.479
10329SOL    HW231887   3.003   0.528   3.374
10330SOL     OW31888   3.758   5.285   3.236
10330SOL    HW131889   3.660   5.306   3.246
10330SOL    HW231890   3.799   5.352   3.174
10331SOL     OW31891   5.421   0.757   3.526
10331SOL    HW131892   5.379   0.828   3.471
10331SOL    HW231893   5.516   0.782   3.547
10332SOL     OW31894   6.807   2.035   0.688
10332SOL    HW131895   6.748   2.102   0.643
10332SOL    HW231896   6.802   1.948   0.640
10333SOL     OW31897   5.761   5.164   3.735
10333SOL    HW131898   5.730   5.259   3.741
10333SOL    HW231899   5.861   5.161   3.737
10334SOL     OW31900   1.801   4.869   3.886
10334SOL    HW131901   1.835   4.963   3.884
10334SOL    HW231902   1.878   4.806   3.898
10335SOL     OW31903   2.363   5.138   6.381
10335SOL    HW131904   2.277   5.169   6.423
10335SOL    HW231905   2.385   5.196   6.302
10336SOL     OW31906   4.350   0.066   2.096
10336SOL    HW131907   4.328   0.088   2.191
10336SOL    HW231908   4.418   7.020   2.093
10337SOL     OW31909   0.043   4.984   4.726
10337SOL    HW131910   0.002   4.900   4.691
10337SOL    HW231911   0.120   5.010   4.668
10338SOL     OW31912   3.771   6.891   1.251
10338SOL    HW131913   3.868   6.870   1.267
10338SOL    HW231914   3.755   6.902   1.153
10339SOL     OW31915   3.338   5.628   0.749
10339SOL    HW131916   3.265   5.684   0.788
10339SOL    HW231917   3.403   5.603   0.821
10340SOL     OW31918   2.512   5.430   6.468
10340SOL    HW131919   2.498   5.377   6.552
10340SOL    HW231920   2.424   5.461   6.433
10341SOL     OW31921   2.481   2.408   2.246
10341SOL    HW131922   2.450   2.338   2.311
10341SOL    HW231923   2.563   2.376   2.199
10342SOL     OW31924   2.406   6.595   5.736
10342SOL    HW131925   2.449   6.673   5.691
10342SOL    HW231926   2.351   6.545   5.670
10343SOL     OW31927   2.373   4.049   6.114
10343SOL    HW131928   2.411   4.141   6.106
10343SOL    HW231929   2.377   4.004   6.025
10344SOL     OW31930   4.004   3.676   4.692
10344SOL    HW131931   3.932   3.744   4.705
10344SOL    HW231932   4.059   3.670   4.776
10345SOL     OW31933   2.886   1.443   0.332
10345SOL    HW131934   2.947   1.475   0.259
10345SOL    HW231935   2.865   1.346   0.317
10346SOL     OW31936   5.450   6.679   6.647
10346SOL    HW131937   5.508   6.758   6.664
10346SOL    HW231938   5.434   6.669   6.549
10347SOL     OW31939   5.355   1.583   1.097
10347SOL    HW131940   5.412   1.585   1.178
10347SOL    HW231941   5.409   1.610   1.017
10348SOL     OW31942   6.220   1.434   6.139
10348SOL    HW131943   6.286   1.368   6.174
10348SOL    HW231944   6.127   1.398   6.152
10349SOL     OW31945   6.034   0.855   0.932
10349SOL    HW131946   6.075   0.764   0.923
10349SOL    HW231947   5.957   0.850   0.996
10350SOL     OW31948   3.794   5.865   4.158
10350SOL    HW131949   3.791   5.891   4.061
10350SOL    HW231950   3.753   5.775   4.170
10351SOL     OW31951   6.034   5.572   5.227
10351SOL    HW131952   5.984   5.500   5.274
10351SOL    HW231953   6.131   5.547   5.223
10352SOL     OW31954   5.622   1.793   6.873
10352SOL    HW131955   5.582   1.764   6.960
10352SOL    HW231956   5.563   1.861   6.830
10353SOL     OW31957   0.213   3.144   3.448
10353SOL    HW131958   0.143   3.092   3.399
10353SOL    HW231959   0.187   3.150   3.545
10354SOL     OW31960   0.473   3.827   0.469
10354SOL    HW131961   0.486   3.771   0.551
10354SOL    HW231962   0.550   3.812   0.407
10355SOL     OW31963   0.969   1.624   1.060
10355SOL    HW131964   0.936   1.532   1.077
10355SOL    HW231965   1.069   1.627   1.070
10356SOL     OW31966   0.300   3.050   6.493
10356SOL    HW131967   0.259   3.140   6.480
10356SOL    HW231968   0.400   3.058   6.492
10357SOL     OW31969   1.550   2.173   6.751
10357SOL    HW131970   1.457   2.208   6.766
10357SOL    HW231971   1.554   2.130   6.661
10358SOL     OW31972   1.642   2.661   2.480
10358SOL    HW131973   1.563   2.653   2.420
10358SOL    HW231974   1.612   2.688   2.572
10359SOL     OW31975   5.135   2.409   2.815
10359SOL    HW131976   5.102   2.449   2.901
10359SOL    HW231977   5.066   2.347   2.778
10360SOL     OW31978   5.309   5.184   3.203
10360SOL    HW131979   5.382   5.165   3.268
10360SOL    HW231980   5.256   5.100   3.186
10361SOL     OW31981   2.108   1.440   1.594
10361SOL    HW131982   2.028   1.419   1.650
10361SOL    HW231983   2.089   1.520   1.537
10362SOL     OW31984   0.313   5.484   1.818
10362SOL    HW131985   0.289   5.392   1.848
10362SOL    HW231986   0.278   5.551   1.884
10363SOL     OW31987   4.556   3.508   0.836
10363SOL    HW131988   4.623   3.460   0.893
10363SOL    HW231989   4.467   3.505   0.880
10364SOL     OW31990   5.258   5.290   1.027
10364SOL    HW131991   5.351   5.254   1.035
10364SOL    HW231992   5.198   5.242   1.091
10365SOL     OW31993   5.882   4.929   0.153
10365SOL    HW131994   5.867   4.835   0.186
10365SOL    HW231995   5.973   4.936   0.113
10366SOL     OW31996   4.282   6.518   3.070
10366SOL    HW131997   4.293   6.428   3.028
10366SOL    HW231998   4.185   6.535   3.088
10367SOL     OW31999   6.732   1.964   1.543
10367SOL    HW132000   6.790   1.919   1.475
10367SOL    HW232001   6.788   2.018   1.605
10368SOL     OW32002   2.996   0.728   2.729
10368SOL    HW132003   2.935   0.705   2.653
10368SOL    HW232004   3.088   0.697   2.708
10369SOL     OW32005   2.957   6.198   5.476
10369SOL    HW132006   2.891   6.153   5.536
10369SOL    HW232007   2.931   6.181   5.381
10370SOL     OW32008   6.214   1.204   4.277
10370SOL    HW132009   6.241   1.236   4.186
10370SOL    HW232010   6.169   1.279   4.327
10371SOL     OW32011   3.696   6.698   3.073
10371SOL    HW132012   3.754   6.779   3.087
10371SOL    HW232013   3.601   6.727   3.060
10372SOL     OW32014   3.099   0.490   1.514
10372SOL    HW132015   3.195   0.463   1.514
10372SOL    HW232016   3.045   0.423   1.564
10373SOL     OW32017   0.497   0.268   4.964
10373SOL    HW132018   0.401   0.252   4.941
10373SOL    HW232019   0.528   0.196   5.025
10374SOL     OW32020   2.799   6.544   4.436
10374SOL    HW132021   2.828   6.472   4.499
10374SOL    HW232022   2.781   6.628   4.488
10375SOL     OW32023   2.949   2.728   6.421
10375SOL    HW132024   3.005   2.810   6.424
10375SOL    HW232025   2.883   2.730   6.495
10376SOL     OW32026   1.156   6.278   3.420
10376SOL    HW132027   1.138   6.323   3.333
10376SOL    HW232028   1.255   6.272   3.435
10377SOL     OW32029   0.204   1.748   1.708
10377SOL    HW132030   0.128   1.697   1.749
10377SOL    HW232031   0.262   1.786   1.781
10378SOL     OW32032   0.364   5.578   5.326
10378SOL    HW132033   0.432   5.505   5.333
10378SOL    HW232034   0.408   5.661   5.290
10379SOL     OW32035   2.701   6.387   4.206
10379SOL    HW132036   2.651   6.437   4.135
10379SOL    HW232037   2.699   6.438   4.291
10380SOL     OW32038   1.250   2.254   4.570
10380SOL    HW132039   1.246   2.200   4.654
10380SOL    HW232040   1.211   2.200   4.495
10381SOL     OW32041   3.924   4.211   1.599
10381SOL    HW132042   3.897   4.123   1.559
10381SOL    HW232043   4.023   4.224   1.589
10382SOL     OW32044   2.429   5.922   2.288
10382SOL    HW132045   2.450   6.014   2.255
10382SOL    HW232046   2.331   5.904   2.277
10383SOL     OW32047   1.982   4.733   0.148
10383SOL    HW132048   2.072   4.691   0.158
10383SOL    HW232049   1.970   4.765   0.054
10384SOL     OW32050   6.480   6.338   1.250
10384SOL    HW132051   6.569   6.302   1.275
10384SOL    HW232052   6.422   6.345   1.331
10385SOL     OW32053   3.688   5.146   5.898
10385SOL    HW132054   3.678   5.225   5.958
10385SOL    HW232055   3.748   5.078   5.940
10386SOL     OW32056   6.938   1.573   6.241
10386SOL    HW132057   6.886   1.498   6.200
10386SOL    HW232058   6.874   1.639   6.281
10387SOL     OW32059   5.562   2.796   3.604
10387SOL    HW132060   5.502   2.835   3.534
10387SOL    HW232061   5.521   2.712   3.639
10388SOL     OW32062   2.770   0.328   6.568
10388SOL    HW132063   2.822   0.402   6.610
10388SOL    HW232064   2.780   0.332   6.469
10389SOL     OW32065   6.527   3.921   0.370
10389SOL    HW132066   6.580   3.902   0.288
10389SOL    HW232067   6.538   3.846   0.436
10390SOL     OW32068   1.832   2.464   0.717
10390SOL    HW132069   1.917   2.503   0.684
10390SOL    HW232070   1.824   2.477   0.816
10391SOL     OW32071   1.460   6.350   3.374
10391SOL    HW132072   1.442   6.283   3.302
10391SOL    HW232073   1.504   6.430   3.335
10392SOL     OW32074   5.929   5.344   5.387
10392SOL    HW132075   5.898   5.258   5.426
10392SOL    HW232076   5.851   5.407   5.380
10393SOL     OW32077   1.827   3.642   3.664
10393SOL    HW132078   1.925   3.628   3.648
10393SOL    HW232079   1.784   3.677   3.581
10394SOL     OW32080   2.629   5.525   4.020
10394SOL    HW132081   2.672   5.573   3.943
10394SOL    HW232082   2.615   5.429   3.995
10395SOL     OW32083   0.389   6.303   1.454
10395SOL    HW132084   0.464   6.251   1.412
10395SOL    HW232085   0.408   6.400   1.447
10396SOL     OW32086   4.101   1.786   4.170
10396SOL    HW132087   4.174   1.808   4.236
10396SOL    HW232088   4.109   1.690   4.143
10397SOL     OW32089   3.209   2.138   2.845
10397SOL    HW132090   3.170   2.105   2.931
10397SOL    HW232091   3.287   2.197   2.864
10398SOL     OW32092   6.195   2.613   0.863
10398SOL    HW132093   6.106   2.568   0.866
10398SOL    HW232094   6.226   2.620   0.768
10399SOL     OW32095   5.310   2.191   3.752
10399SOL    HW132096   5.375   2.196   3.829
10399SOL    HW232097   5.361   2.189   3.666
10400SOL     OW32098   4.241   6.693   0.423
10400SOL    HW132099   4.196   6.609   0.391
10400SOL    HW232100   4.186   6.734   0.495
10401SOL     OW32101   6.760   0.447   3.765
10401SOL    HW132102   6.692   0.483   3.702
10401SOL    HW232103   6.716   0.424   3.852
10402SOL     OW32104   6.268   3.512   5.533
10402SOL    HW132105   6.174   3.540   5.556
10402SOL    HW232106   6.317   3.589   5.493
10403SOL     OW32107   4.579   1.193   3.938
10403SOL    HW132108   4.493   1.171   3.984
10403SOL    HW232109   4.563   1.203   3.840
10404SOL     OW32110   6.271   6.859   5.143
10404SOL    HW132111   6.287   6.760   5.147
10404SOL    HW232112   6.190   6.877   5.087
10405SOL     OW32113   0.359   1.589   5.280
10405SOL    HW132114   0.294   1.655   5.243
10405SOL    HW232115   0.345   1.580   5.379
10406SOL     OW32116   2.878   5.220   3.122
10406SOL    HW132117   2.868   5.319   3.131
10406SOL    HW232118   2.796   5.182   3.080
10407SOL     OW32119   3.006   6.966   6.014
10407SOL    HW132120   2.988   6.980   6.111
10407SOL    HW232121   2.920   6.964   5.964
10408SOL     OW32122   4.446   0.117   1.226
10408SOL    HW132123   4.518   0.082   1.166
10408SOL    HW232124   4.475   0.203   1.267
10409SOL     OW32125   0.113   4.408   1.190
10409SOL    HW132126   0.177   4.336   1.161
10409SOL    HW232127   0.034   4.366   1.235
10410SOL     OW32128   5.571   1.972   0.743
10410SOL    HW132129   5.623   1.907   0.688
10410SOL    HW232130   5.474   1.965   0.720
10411SOL     OW32131   3.570   6.849   3.632
10411SOL    HW132132   3.557   6.929   3.574
10411SOL    HW232133   3.601   6.877   3.723
10412SOL     OW32134   0.449   0.838   0.258
10412SOL    HW132135   0.438   0.883   0.169
10412SOL    HW232136   0.540   0.799   0.264
10413SOL     OW32137   6.404   2.905   0.844
10413SOL    HW132138   6.352   2.897   0.760
10413SOL    HW232139   6.417   2.814   0.884
10414SOL     OW32140   4.255   4.487   5.811
10414SOL    HW132141   4.165   4.445   5.824
10414SOL    HW232142   4.324   4.416   5.797
10415SOL     OW32143   1.269   3.582   4.596
10415SOL    HW132144   1.344   3.637   4.557
10415SOL    HW232145   1.308   3.502   4.642
10416SOL     OW32146   6.198   0.350   4.888
10416SOL    HW132147   6.113   0.298   4.882
10416SOL    HW232148   6.254   0.315   4.963
10417SOL     OW32149   3.005   5.336   4.282
10417SOL    HW132150   2.971   5.422   4.322
10417SOL    HW232151   3.073   5.295   4.342
10418SOL     OW32152   7.003   4.528   6.295
10418SOL    HW132153   0.016   4.599   6.236
10418SOL    HW232154   0.029   4.519   6.378
10419SOL     OW32155   1.553   6.810   6.269
10419SOL    HW132156   1.476   6.873   6.279
10419SOL    HW232157   1.630   6.844   6.322
10420SOL     OW32158   6.561   4.058   2.702
10420SOL    HW132159   6.590   3.971   2.663
10420SOL    HW232160   6.603   4.133   2.652
10421SOL     OW32161   0.159   1.671   3.434
10421SOL    HW132162   0.229   1.602   3.450
10421SOL    HW232163   0.092   1.636   3.368
10422SOL     OW32164   6.469   3.387   5.234
10422SOL    HW132165   6.556   3.341   5.252
10422SOL    HW232166   6.412   3.328   5.176
10423SOL     OW32167   5.975   5.459   4.765
10423SOL    HW132168   5.909   5.408   4.709
10423SOL    HW232169   5.930   5.494   4.847
10424SOL     OW32170   5.486   2.635   0.574
10424SOL    HW132171   5.564   2.684   0.534
10424SOL    HW232172   5.402   2.687   0.557
10425SOL     OW32173   0.775   0.080   1.621
10425SOL    HW132174   0.760   7.013   1.592
10425SOL    HW232175   0.789   0.084   1.719
10426SOL     OW32176   6.913   4.992   0.443
10426SOL    HW132177   6.982   4.973   0.513
10426SOL    HW232178   6.822   4.974   0.481
10427SOL     OW32179   3.549   0.620   6.617
10427SOL    HW132180   3.467   0.565   6.599
10427SOL    HW232181   3.589   0.593   6.704
10428SOL     OW32182   2.937   1.243   4.391
10428SOL    HW132183   2.926   1.152   4.352
10428SOL    HW232184   2.988   1.302   4.328
10429SOL     OW32185   6.983   5.000   0.712
10429SOL    HW132186   6.998   4.907   0.747
10429SOL    HW232187   6.934   5.054   0.780
10430SOL     OW32188   4.802   6.372   3.961
10430SOL    HW132189   4.851   6.293   3.924
10430SOL    HW232190   4.847   6.404   4.044
10431SOL     OW32191   3.124   5.863   3.973
10431SOL    HW132192   3.208   5.808   3.969
10431SOL    HW232193   3.126   5.921   4.054
10432SOL     OW32194   6.244   0.001   4.764
10432SOL    HW132195   6.323   0.052   4.799
10432SOL    HW232196   6.160   0.040   4.801
10433SOL     OW32197   1.973   6.250   1.424
10433SOL    HW132198   1.915   6.169   1.412
10433SOL    HW232199   2.067   6.221   1.442
10434SOL     OW32200   4.164   0.021   3.452
10434SOL    HW132201   4.234   6.980   3.435
10434SOL    HW232202   4.202   0.096   3.507
10435SOL     OW32203   0.452   0.311   4.642
10435SOL    HW132204   0.386   0.313   4.717
10435SOL    HW232205   0.534   0.361   4.669
10436SOL     OW32206   0.820   5.405   5.927
10436SOL    HW132207   0.830   5.310   5.957
10436SOL    HW232208   0.767   5.456   5.995
10437SOL     OW32209   6.479   5.275   6.130
10437SOL    HW132210   6.526   5.336   6.194
10437SOL    HW232211   6.415   5.217   6.180
10438SOL     OW32212   5.872   6.279   0.485
10438SOL    HW132213   5.809   6.202   0.484
10438SOL    HW232214   5.875   6.318   0.577
10439SOL     OW32215   3.901   1.287   6.500
10439SOL    HW132216   3.932   1.223   6.430
10439SOL    HW232217   3.887   1.239   6.586
10440SOL     OW32218   1.254   6.322   0.352
10440SOL    HW132219   1.281   6.298   0.259
10440SOL    HW232220   1.333   6.356   0.403
10441SOL     OW32221   3.962   0.525   6.987
10441SOL    HW132222   4.042   0.509   6.930
10441SOL    HW232223   3.887   0.562   6.931
10442SOL     OW32224   3.739   6.275   6.006
10442SOL    HW132225   3.764   6.368   6.032
10442SOL    HW232226   3.655   6.248   6.053
10443SOL     OW32227   4.990   3.834   4.813
10443SOL    HW132228   4.920   3.769   4.785
10443SOL    HW232229   4.954   3.892   4.886
10444SOL     OW32230   3.801   6.749   4.606
10444SOL    HW132231   3.746   6.698   4.541
10444SOL    HW232232   3.891   6.767   4.566
10445SOL     OW32233   1.118   5.566   4.342
10445SOL    HW132234   1.064   5.526   4.416
10445SOL    HW232235   1.060   5.627   4.288
10446SOL     OW32236   0.639   2.775   5.746
10446SOL    HW132237   0.577   2.721   5.690
10446SOL    HW232238   0.680   2.847   5.691
10447SOL     OW32239   0.513   1.112   2.187
10447SOL    HW132240   0.446   1.173   2.146
10447SOL    HW232241   0.482   1.017   2.177
10448SOL     OW32242   3.772   1.773   1.439
10448SOL    HW132243   3.734   1.820   1.519
10448SOL    HW232244   3.840   1.706   1.469
10449SOL     OW32245   2.414   5.107   4.613
10449SOL    HW132246   2.415   5.124   4.711
10449SOL    HW232247   2.414   5.008   4.596
10450SOL     OW32248   0.890   2.549   0.269
10450SOL    HW132249   0.969   2.510   0.316
10450SOL    HW232250   0.842   2.477   0.219
10451SOL     OW32251   1.890   5.204   2.931
10451SOL    HW132252   1.981   5.244   2.943
10451SOL    HW232253   1.825   5.275   2.905
10452SOL     OW32254   5.984   3.723   3.196
10452SOL    HW132255   6.077   3.757   3.185
10452SOL    HW232256   5.940   3.770   3.272
10453SOL     OW32257   4.836   5.663   1.775
10453SOL    HW132258   4.884   5.750   1.767
10453SOL    HW232259   4.763   5.658   1.707
10454SOL     OW32260   4.244   2.960   1.055
10454SOL    HW132261   4.177   3.031   1.074
10454SOL    HW232262   4.230   2.883   1.118
10455SOL     OW32263   6.588   5.542   2.373
10455SOL    HW132264   6.519   5.552   2.302
10455SOL    HW232265   6.559   5.591   2.455
10456SOL     OW32266   3.311   6.190   0.979
10456SOL    HW132267   3.294   6.288   0.991
10456SOL    HW232268   3.225   6.140   0.994
10457SOL     OW32269   3.357   2.987   2.983
10457SOL    HW132270   3.437   2.950   3.030
10457SOL    HW232271   3.387   3.050   2.911
10458SOL     OW32272   0.079   0.914   6.499
10458SOL    HW132273   0.045   0.832   6.545
10458SOL    HW232274   0.120   0.889   6.412
10459SOL     OW32275   5.273   4.912   2.815
10459SOL    HW132276   5.189   4.920   2.761
10459SOL    HW232277   5.270   4.978   2.890
10460SOL     OW32278   1.631   5.467   1.380
10460SOL    HW132279   1.581   5.551   1.356
10460SOL    HW232280   1.724   5.491   1.409
10461SOL     OW32281   1.417   6.096   4.801
10461SOL    HW132282   1.343   6.044   4.757
10461SOL    HW232283   1.415   6.191   4.769
10462SOL     OW32284   5.275   2.014   2.862
10462SOL    HW132285   5.257   2.066   2.946
10462SOL    HW232286   5.364   2.041   2.825
10463SOL     OW32287   4.033   2.746   5.533
10463SOL    HW132288   3.965   2.770   5.602
10463SOL    HW232289   4.011   2.656   5.494
10464SOL     OW32290   5.520   6.720   0.743
10464SOL    HW132291   5.597   6.679   0.793
10464SOL    HW232292   5.500   6.664   0.662
10465SOL     OW32293   5.923   6.844   0.704
10465SOL    HW132294   5.922   6.939   0.736
10465SOL    HW232295   5.895   6.783   0.779
10466SOL     OW32296   4.367   4.937   5.256
10466SOL    HW132297   4.289   4.899   5.207
10466SOL    HW232298   4.349   5.032   5.279
10467SOL     OW32299   0.674   1.933   5.031
10467SOL    HW132300   0.663   2.031   5.017
10467SOL    HW232301   0.635   1.907   5.120
10468SOL     OW32302   3.793   4.927   3.076
10468SOL    HW132303   3.703   4.945   3.035
10468SOL    HW232304   3.782   4.864   3.153
10469SOL     OW32305   3.397   2.799   6.633
10469SOL    HW132306   3.476   2.767   6.580
10469SOL    HW232307   3.345   2.721   6.667
10470SOL     OW32308   2.612   1.652   3.164
10470SOL    HW132309   2.519   1.686   3.149
10470SOL    HW232310   2.666   1.720   3.212
10471SOL     OW32311   2.244   3.320   0.750
10471SOL    HW132312   2.301   3.284   0.823
10471SOL    HW232313   2.150   3.331   0.783
10472SOL     OW32314   3.401   5.955   0.710
10472SOL    HW132315   3.387   5.857   0.722
10472SOL    HW232316   3.495   5.973   0.681
10473SOL     OW32317   5.595   6.856   0.398
10473SOL    HW132318   5.601   6.936   0.340
10473SOL    HW232319   5.606   6.883   0.494
10474SOL     OW32320   4.708   1.036   4.867
10474SOL    HW132321   4.723   0.998   4.958
10474SOL    HW232322   4.797   1.057   4.825
10475SOL     OW32323   4.488   6.163   1.985
10475SOL    HW132324   4.470   6.077   1.936
10475SOL    HW232325   4.564   6.210   1.941
10476SOL     OW32326   0.102   5.193   6.416
10476SOL    HW132327   0.011   5.201   6.377
10476SOL    HW232328   0.157   5.130   6.361
10477SOL     OW32329   5.964   2.375   5.065
10477SOL    HW132330   5.999   2.380   4.972
10477SOL    HW232331   5.864   2.377   5.064
10478SOL     OW32332   0.344   0.295   0.530
10478SOL    HW132333   0.385   0.204   0.538
10478SOL    HW232334   0.244   0.287   0.536
10479SOL     OW32335   0.450   2.731   1.993
10479SOL    HW132336   0.491   2.821   2.009
10479SOL    HW232337   0.505   2.681   1.925
10480SOL     OW32338   5.775   0.631   1.164
10480SOL    HW132339   5.802   0.727   1.175
10480SOL    HW232340   5.834   0.573   1.220
10481SOL     OW32341   2.379   1.079   5.439
10481SOL    HW132342   2.313   1.131   5.493
10481SOL    HW232343   2.365   0.981   5.454
10482SOL     OW32344   0.520   5.971   4.623
10482SOL    HW132345   0.529   6.045   4.690
10482SOL    HW232346   0.460   6.002   4.549
10483SOL     OW32347   6.964   5.232   0.295
10483SOL    HW132348   7.002   5.196   0.210
10483SOL    HW232349   6.947   5.157   0.359
10484SOL     OW32350   6.805   0.586   1.029
10484SOL    HW132351   6.722   0.623   1.071
10484SOL    HW232352   6.870   0.660   1.013
10485SOL     OW32353   3.658   2.930   2.782
10485SOL    HW132354   3.658   2.947   2.684
10485SOL    HW232355   3.654   2.832   2.800
10486SOL     OW32356   6.003   0.990   5.987
10486SOL    HW132357   6.098   1.024   5.984
10486SOL    HW232358   5.967   1.001   6.079
10487SOL     OW32359   4.560   2.236   1.367
10487SOL    HW132360   4.548   2.234   1.268
10487SOL    HW232361   4.644   2.189   1.391
10488SOL     OW32362   1.738   2.288   5.917
10488SOL    HW132363   1.688   2.292   5.831
10488SOL    HW232364   1.770   2.379   5.941
10489SOL     OW32365   5.590   6.129   4.051
10489SOL    HW132366   5.583   6.094   3.957
10489SOL    HW232367   5.591   6.229   4.049
10490SOL     OW32368   5.804   0.982   0.760
10490SOL    HW132369   5.842   1.066   0.800
10490SOL    HW232370   5.872   0.909   0.764
10491SOL     OW32371   2.147   2.941   6.234
10491SOL    HW132372   2.065   2.912   6.186
10491SOL    HW232373   2.205   2.861   6.253
10492SOL     OW32374   3.822   5.790   0.498
10492SOL    HW132375   3.759   5.774   0.422
10492SOL    HW232376   3.888   5.715   0.503
10493SOL     OW32377   3.096   5.541   1.287
10493SOL    HW132378   3.137   5.618   1.337
10493SOL    HW232379   3.040   5.487   1.349
10494SOL     OW32380   6.939   4.166   5.554
10494SOL    HW132381   6.947   4.264   5.534
10494SOL    HW232382   6.986   4.146   5.640
10495SOL     OW32383   6.373   6.279   0.352
10495SOL    HW132384   6.362   6.376   0.329
10495SOL    HW232385   6.392   6.227   0.269
10496SOL     OW32386   6.135   4.445   4.848
10496SOL    HW132387   6.111   4.514   4.915
10496SOL    HW232388   6.052   4.414   4.801
10497SOL     OW32389   1.062   0.057   1.609
10497SOL    HW132390   1.102   0.010   1.530
10497SOL    HW232391   0.963   0.044   1.610
10498SOL     OW32392   5.394   5.996   1.164
10498SOL    HW132393   5.475   6.045   1.195
10498SOL    HW232394   5.401   5.900   1.192
10499SOL     OW32395   4.803   6.344   1.060
10499SOL    HW132396   4.832   6.266   1.115
10499SOL    HW232397   4.866   6.420   1.074
10500SOL     OW32398   5.347   2.767   5.521
10500SOL    HW132399   5.440   2.735   5.505
10500SOL    HW232400   5.344   2.867   5.512
10501SOL     OW32401   2.393   6.204   2.553
10501SOL    HW132402   2.460   6.231   2.484
10501SOL    HW232403   2.399   6.105   2.569
10502SOL     OW32404   2.380   3.269   0.999
10502SOL    HW132405   2.479   3.260   1.011
10502SOL    HW232406   2.341   3.314   1.080
10503SOL     OW32407   6.283   4.121   0.035
10503SOL    HW132408   6.345   4.189   0.073
10503SOL    HW232409   6.204   4.167   7.021
10504SOL     OW32410   0.849   2.367   5.706
10504SOL    HW132411   0.782   2.375   5.632
10504SOL    HW232412   0.833   2.281   5.756
10505SOL     OW32413   5.775   6.242   1.842
10505SOL    HW132414   5.730   6.226   1.930
10505SOL    HW232415   5.826   6.328   1.846
10506SOL     OW32416   0.594   3.527   0.107
10506SOL    HW132417   0.686   3.529   0.067
10506SOL    HW232418   0.600   3.500   0.203
10507SOL     OW32419   1.928   5.449   6.960
10507SOL    HW132420   1.854   5.384   6.975
10507SOL    HW232421   1.926   5.519   0.004
10508SOL     OW32422   1.324   6.113   3.611
10508SOL    HW132423   1.407   6.117   3.666
10508SOL    HW232424   1.339   6.052   3.533
10509SOL     OW32425   5.626   4.167   4.604
10509SOL    HW132426   5.595   4.190   4.511
10509SOL    HW232427   5.718   4.127   4.599
10510SOL     OW32428   4.743   6.677   6.616
10510SOL    HW132429   4.647   6.698   6.597
10510SOL    HW232430   4.798   6.759   6.601
10511SOL     OW32431   2.766   1.739   2.302
10511SOL    HW132432   2.669   1.752   2.319
10511SOL    HW232433   2.791   1.784   2.216
10512SOL     OW32434   4.063   0.030   5.572
10512SOL    HW132435   3.999   0.062   5.642
10512SOL    HW232436   4.149   0.004   5.616
10513SOL     OW32437   6.605   2.677   2.862
10513SOL    HW132438   6.576   2.769   2.837
10513SOL    HW232439   6.704   2.677   2.880
10514SOL     OW32440   1.614   1.646   1.575
10514SOL    HW132441   1.549   1.694   1.517
10514SOL    HW232442   1.705   1.651   1.534
10515SOL     OW32443   2.646   2.197   3.736
10515SOL    HW132444   2.566   2.140   3.754
10515SOL    HW232445   2.706   2.151   3.670
10516SOL     OW32446   2.821   1.865   0.157
10516SOL    HW132447   2.812   1.860   0.058
10516SOL    HW232448   2.918   1.867   0.182
10517SOL     OW32449   1.571   4.371   1.411
10517SOL    HW132450   1.561   4.408   1.319
10517SOL    HW232451   1.483   4.334   1.441
10518SOL     OW32452   0.216   5.499   2.131
10518SOL    HW132453   0.263   5.555   2.198
10518SOL    HW232454   0.267   5.414   2.117
10519SOL     OW32455   2.968   4.644   1.121
10519SOL    HW132456   2.981   4.586   1.202
10519SOL    HW232457   2.881   4.692   1.129
10520SOL     OW32458   0.048   1.946   6.158
10520SOL    HW132459   0.040   1.939   6.258
10520SOL    HW232460   0.046   2.043   6.132
10521SOL     OW32461   6.392   4.906   1.369
10521SOL    HW132462   6.417   4.881   1.275
10521SOL    HW232463   6.475   4.921   1.423
10522SOL     OW32464   0.283   2.224   3.195
10522SOL    HW132465   0.347   2.163   3.147
10522SOL    HW232466   0.333   2.305   3.228
10523SOL     OW32467   0.183   4.408   3.249
10523SOL    HW132468   0.211   4.353   3.328
10523SOL    HW232469   0.163   4.501   3.278
10524SOL     OW32470   0.198   5.798   4.323
10524SOL    HW132471   0.174   5.741   4.244
10524SOL    HW232472   0.184   5.895   4.299
10525SOL     OW32473   3.865   6.974   5.180
10525SOL    HW132474   3.805   0.007   5.128
10525SOL    HW232475   3.918   7.027   5.246
10526SOL     OW32476   0.565   6.403   1.179
10526SOL    HW132477   0.559   6.307   1.207
10526SOL    HW232478   0.646   6.444   1.221
10527SOL     OW32479   0.700   0.377   5.854
10527SOL    HW132480   0.762   0.352   5.780
10527SOL    HW232481   0.741   0.451   5.908
10528SOL     OW32482   0.592   3.964   6.788
10528SOL    HW132483   0.584   3.970   6.688
10528SOL    HW232484   0.588   4.056   6.827
10529SOL     OW32485   1.648   6.023   4.644
10529SOL    HW132486   1.612   5.975   4.564
10529SOL    HW232487   1.573   6.069   4.691
10530SOL     OW32488   0.849   6.509   5.752
10530SOL    HW132489   0.854   6.464   5.663
10530SOL    HW232490   0.931   6.488   5.805
10531SOL     OW32491   2.754   2.416   4.190
10531SOL    HW132492   2.751   2.404   4.091
10531SOL    HW232493   2.696   2.493   4.217
10532SOL     OW32494   5.834   6.869   6.883
10532SOL    HW132495   5.785   6.870   6.796
10532SOL    HW232496   5.831   6.776   6.922
10533SOL     OW32497   3.412   5.803   4.221
10533SOL    HW132498   3.505   5.792   4.255
10533SOL    HW232499   3.401   5.752   4.136
10534SOL     OW32500   0.048   5.930   2.109
10534SOL    HW132501   0.074   5.864   2.040
10534SOL    HW232502   7.012   5.888   2.174
10535SOL     OW32503   2.227   1.404   1.866
10535SOL    HW132504   2.248   1.502   1.867
10535SOL    HW232505   2.200   1.377   1.774
10536SOL     OW32506   4.164   7.008   3.906
10536SOL    HW132507   4.127   6.975   3.819
10536SOL    HW232508   4.263   7.020   3.898
10537SOL     OW32509   5.007   6.684   3.548
10537SOL    HW132510   4.920   6.732   3.532
10537SOL    HW232511   5.002   6.634   3.634
10538SOL     OW32512   5.648   4.027   2.311
10538SOL    HW132513   5.593   4.063   2.387
10538SOL    HW232514   5.652   3.928   2.317
10539SOL     OW32515   5.911   5.199   1.301
10539SOL    HW132516   5.885   5.294   1.315
10539SOL    HW232517   6.000   5.182   1.342
10540SOL     OW32518   2.526   4.233   6.364
10540SOL    HW132519   2.567   4.160   6.419
10540SOL    HW232520   2.428   4.239   6.383
10541SOL     OW32521   3.251   2.926   3.893
10541SOL    HW132522   3.238   2.841   3.842
10541SOL    HW232523   3.348   2.941   3.909
10542SOL     OW32524   6.997   0.171   4.536
10542SOL    HW132525   6.931   0.246   4.541
10542SOL    HW232526   6.960   0.098   4.478
10543SOL     OW32527   0.527   2.484   5.242
10543SOL    HW132528   0.466   2.406   5.226
10543SOL    HW232529   0.477   2.557   5.289
10544SOL     OW32530   2.009   6.587   3.491
10544SOL    HW132531   2.024   6.631   3.580
10544SOL    HW232532   1.913   6.564   3.480
10545SOL     OW32533   0.942   2.868   2.211
10545SOL    HW132534   0.956   2.952   2.158
10545SOL    HW232535   0.915   2.794   2.149
10546SOL     OW32536   3.382   6.047   1.225
10546SOL    HW132537   3.389   5.950   1.200
10546SOL    HW232538   3.371   6.101   1.141
10547SOL     OW32539   5.046   0.775   4.227
10547SOL    HW132540   5.087   0.785   4.317
10547SOL    HW232541   5.019   0.865   4.193
10548SOL     OW32542   0.678   4.283   4.496
10548SOL    HW132543   0.776   4.290   4.480
10548SOL    HW232544   0.628   4.333   4.425
10549SOL     OW32545   0.641   1.365   0.547
10549SOL    HW132546   0.714   1.430   0.523
10549SOL    HW232547   0.619   1.310   0.467
10550SOL     OW32548   3.954   6.512   3.335
10550SOL    HW132549   3.867   6.548   3.370
10550SOL    HW232550   3.967   6.543   3.241
10551SOL     OW32551   2.460   1.799   6.117
10551SOL    HW132552   2.559   1.806   6.100
10551SOL    HW232553   2.444   1.744   6.198
10552SOL     OW32554   2.507   0.467   5.255
10552SOL    HW132555   2.496   0.531   5.179
10552SOL    HW232556   2.427   0.406   5.259
10553SOL     OW32557   7.018   4.325   0.884
10553SOL    HW132558   7.003   4.303   0.787
10553SOL    HW232559   0.066   4.391   0.891
10554SOL     OW32560   5.900   5.376   2.436
10554SOL    HW132561   5.926   5.437   2.511
10554SOL    HW232562   5.848   5.299   2.473
10555SOL     OW32563   3.237   2.329   0.744
10555SOL    HW132564   3.243   2.426   0.765
10555SOL    HW232565   3.151   2.310   0.698
10556SOL     OW32566   2.846   1.597   3.685
10556SOL    HW132567   2.755   1.586   3.644
10556SOL    HW232568   2.915   1.558   3.624
10557SOL     OW32569   1.869   3.333   4.350
10557SOL    HW132570   1.788   3.384   4.321
10557SOL    HW232571   1.882   3.343   4.448
10558SOL     OW32572   3.077   5.247   5.945
10558SOL    HW132573   3.061   5.187   6.023
10558SOL    HW232574   3.010   5.228   5.874
10559SOL     OW32575   3.592   1.040   0.655
10559SOL    HW132576   3.676   0.987   0.643
10559SOL    HW232577   3.605   1.106   0.729
10560SOL     OW32578   4.379   6.308   1.629
10560SOL    HW132579   4.305   6.241   1.629
10560SOL    HW232580   4.344   6.396   1.663
10561SOL     OW32581   3.617   4.675   1.512
10561SOL    HW132582   3.665   4.587   1.520
10561SOL    HW232583   3.549   4.669   1.439
10562SOL     OW32584   3.347   5.821   0.317
10562SOL    HW132585   3.373   5.834   0.221
10562SOL    HW232586   3.254   5.785   0.321
10563SOL     OW32587   1.178   0.652   1.099
10563SOL    HW132588   1.195   0.750   1.095
10563SOL    HW232589   1.152   0.619   1.008
10564SOL     OW32590   6.213   5.848   3.806
10564SOL    HW132591   6.253   5.826   3.895
10564SOL    HW232592   6.272   5.914   3.759
10565SOL     OW32593   6.504   6.843   5.450
10565SOL    HW132594   6.590   6.793   5.440
10565SOL    HW232595   6.509   6.930   5.402
10566SOL     OW32596   2.961   2.466   0.293
10566SOL    HW132597   2.886   2.532   0.292
10566SOL    HW232598   2.930   2.380   0.251
10567SOL     OW32599   2.089   2.438   5.673
10567SOL    HW132600   2.101   2.496   5.753
10567SOL    HW232601   1.991   2.430   5.651
10568SOL     OW32602   6.014   2.539   6.913
10568SOL    HW132603   5.929   2.503   6.950
10568SOL    HW232604   6.004   2.553   6.814
10569SOL     OW32605   5.415   0.861   1.556
10569SOL    HW132606   5.500   0.810   1.538
10569SOL    HW232607   5.407   0.937   1.492
10570SOL     OW32608   1.700   4.701   3.674
10570SOL    HW132609   1.779   4.697   3.614
10570SOL    HW232610   1.718   4.762   3.751
10571SOL     OW32611   0.358   3.913   5.947
10571SOL    HW132612   0.348   3.948   5.853
10571SOL    HW232613   0.405   3.982   6.003
10572SOL     OW32614   6.921   5.357   2.257
10572SOL    HW132615   6.935   5.400   2.168
10572SOL    HW232616   6.990   5.287   2.271
10573SOL     OW32617   4.781   0.711   5.200
10573SOL    HW132618   4.819   0.753   5.282
10573SOL    HW232619   4.855   0.673   5.145
10574SOL     OW32620   6.736   1.207   3.880
10574SOL    HW132621   6.691   1.230   3.966
10574SOL    HW232622   6.831   1.182   3.898
10575SOL     OW32623   6.086   0.467   3.878
10575SOL    HW132624   6.078   0.499   3.783
10575SOL    HW232625   6.083   0.546   3.940
10576SOL     OW32626   1.388   5.392   2.726
10576SOL    HW132627   1.393   5.293   2.709
10576SOL    HW232628   1.372   5.439   2.639
10577SOL     OW32629   2.328   5.459   0.417
10577SOL    HW132630   2.355   5.512   0.337
10577SOL    HW232631   2.250   5.503   0.461
10578SOL     OW32632   5.046   1.200   2.935
10578SOL    HW132633   5.108   1.235   2.865
10578SOL    HW232634   5.009   1.112   2.906
10579SOL     OW32635   2.991   3.357   1.467
10579SOL    HW132636   3.017   3.368   1.563
10579SOL    HW232637   2.977   3.260   1.447
10580SOL     OW32638   6.394   6.509   6.323
10580SOL    HW132639   6.342   6.587   6.359
10580SOL    HW232640   6.429   6.455   6.399
10581SOL     OW32641   4.878   6.897   2.886
10581SOL    HW132642   4.876   6.982   2.834
10581SOL    HW232643   4.971   6.860   2.885
10582SOL     OW32644   5.714   4.803   6.831
10582SOL    HW132645   5.690   4.891   6.873
10582SOL    HW232646   5.647   4.734   6.859
10583SOL     OW32647   3.760   0.257   4.061
10583SOL    HW132648   3.702   0.197   4.116
10583SOL    HW232649   3.802   0.325   4.121
10584SOL     OW32650   6.499   0.298   6.595
10584SOL    HW132651   6.441   0.340   6.525
10584SOL    HW232652   6.475   0.201   6.604
10585SOL     OW32653   1.742   1.916   5.790
10585SOL    HW132654   1.674   1.988   5.778
10585SOL    HW232655   1.776   1.887   5.700
10586SOL     OW32656   4.925   4.409   5.427
10586SOL    HW132657   4.977   4.494   5.425
10586SOL    HW232658   4.858   4.412   5.501
10587SOL     OW32659   0.172   5.633   6.440
10587SOL    HW132660   0.131   5.724   6.428
10587SOL    HW232661   0.272   5.641   6.438
10588SOL     OW32662   2.399   2.161   5.329
10588SOL    HW132663   2.484   2.158   5.382
10588SOL    HW232664   2.340   2.086   5.358
10589SOL     OW32665   4.943   6.459   4.194
10589SOL    HW132666   4.936   6.459   4.294
10589SOL    HW232667   5.008   6.530   4.166
10590SOL     OW32668   0.358   5.948   1.505
10590SOL    HW132669   0.377   5.874   1.440
10590SOL    HW232670   0.425   5.945   1.580
10591SOL     OW32671   2.335   1.841   1.609
10591SOL    HW132672   2.406   1.836   1.539
10591SOL    HW232673   2.253   1.883   1.571
10592SOL     OW32674   5.865   2.730   4.226
10592SOL    HW132675   5.771   2.712   4.198
10592SOL    HW232676   5.871   2.729   4.326
10593SOL     OW32677   1.438   6.333   0.719
10593SOL    HW132678   1.362   6.389   0.752
10593SOL    HW232679   1.445   6.340   0.620
10594SOL     OW32680   4.260   1.417   3.267
10594SOL    HW132681   4.241   1.403   3.364
10594SOL    HW232682   4.311   1.501   3.254
10595SOL     OW32683   6.250   0.453   0.186
10595SOL    HW132684   6.282   0.519   0.253
10595SOL    HW232685   6.155   0.472   0.161
10596SOL     OW32686   4.973   1.547   6.976
10596SOL    HW132687   4.923   1.519   0.030
10596SOL    HW232688   4.934   1.501   6.896
10597SOL     OW32689   2.157   0.877   5.795
10597SOL    HW132690   2.156   0.955   5.733
10597SOL    HW232691   2.118   0.797   5.748
10598SOL     OW32692   2.862   2.448   6.768
10598SOL    HW132693   2.803   2.399   6.831
10598SOL    HW232694   2.943   2.481   6.817
10599SOL     OW32695   6.548   4.279   6.523
10599SOL    HW132696   6.494   4.257   6.604
10599SOL    HW232697   6.552   4.199   6.463
10600SOL     OW32698   3.951   1.569   1.498
10600SOL    HW132699   3.980   1.574   1.594
10600SOL    HW232700   4.032   1.570   1.439
10601SOL     OW32701   0.892   5.650   5.462
10601SOL    HW132702   0.932   5.623   5.549
10601SOL    HW232703   0.934   5.597   5.388
10602SOL     OW32704   0.917   1.367   0.889
10602SOL    HW132705   0.818   1.367   0.878
10602SOL    HW232706   0.941   1.328   0.978
10603SOL     OW32707   4.756   6.644   2.882
10603SOL    HW132708   4.819   6.615   2.954
10603SOL    HW232709   4.790   6.726   2.837
10604SOL     OW32710   0.233   6.090   4.600
10604SOL    HW132711   0.241   6.012   4.661
10604SOL    HW232712   0.146   6.085   4.550
10605SOL     OW32713   1.793   6.873   6.370
10605SOL    HW132714   1.878   6.836   6.333
10605SOL    HW232715   1.801   6.883   6.469
10606SOL     OW32716   6.898   0.753   2.161
10606SOL    HW132717   6.835   0.830   2.152
10606SOL    HW232718   6.856   0.670   2.125
10607SOL     OW32719   4.350   4.477   0.439
10607SOL    HW132720   4.445   4.449   0.422
10607SOL    HW232721   4.346   4.531   0.523
10608SOL     OW32722   6.711   3.516   3.200
10608SOL    HW132723   6.696   3.435   3.144
10608SOL    HW232724   6.638   3.583   3.183
10609SOL     OW32725   2.574   6.678   0.113
10609SOL    HW132726   2.634   6.755   0.092
10609SOL    HW232727   2.602   6.599   0.060
10610SOL     OW32728   6.779   2.292   4.647
10610SOL    HW132729   6.740   2.370   4.697
10610SOL    HW232730   6.849   2.248   4.704
10611SOL     OW32731   2.522   5.290   5.782
10611SOL    HW132732   2.560   5.382   5.795
10611SOL    HW232733   2.596   5.223   5.789
10612SOL     OW32734   5.298   1.541   4.485
10612SOL    HW132735   5.295   1.457   4.432
10612SOL    HW232736   5.290   1.519   4.583
10613SOL     OW32737   5.624   6.031   4.694
10613SOL    HW132738   5.574   5.946   4.712
10613SOL    HW232739   5.624   6.049   4.596
10614SOL     OW32740   5.208   1.176   4.871
10614SOL    HW132741   5.287   1.126   4.905
10614SOL    HW232742   5.197   1.260   4.923
10615SOL     OW32743   3.853   1.102   5.551
10615SOL    HW132744   3.765   1.055   5.553
10615SOL    HW232745   3.879   1.119   5.456
10616SOL     OW32746   2.916   6.227   6.376
10616SOL    HW132747   2.836   6.280   6.348
10616SOL    HW232748   2.978   6.218   6.299
10617SOL     OW32749   2.113   4.323   1.625
10617SOL    HW132750   2.177   4.334   1.702
10617SOL    HW232751   2.143   4.379   1.548
10618SOL     OW32752   0.602   5.296   4.867
10618SOL    HW132753   0.693   5.286   4.907
10618SOL    HW232754   0.575   5.211   4.823
10619SOL     OW32755   0.399   2.440   3.286
10619SOL    HW132756   0.497   2.436   3.302
10619SOL    HW232757   0.357   2.506   3.349
10620SOL     OW32758   1.148   0.210   4.910
10620SOL    HW132759   1.053   0.239   4.920
10620SOL    HW232760   1.154   0.138   4.840
10621SOL     OW32761   0.326   4.686   2.039
10621SOL    HW132762   0.257   4.739   2.088
10621SOL    HW232763   0.397   4.747   2.004
10622SOL     OW32764   4.633   2.564   1.210
10622SOL    HW132765   4.584   2.551   1.296
10622SOL    HW232766   4.610   2.654   1.172
10623SOL     OW32767   5.824   6.177   5.084
10623SOL    HW132768   5.894   6.233   5.128
10623SOL    HW232769   5.736   6.226   5.088
10624SOL     OW32770   0.184   2.978   4.722
10624SOL    HW132771   0.252   2.923   4.673
10624SOL    HW232772   0.227   3.063   4.753
10625SOL     OW32773   0.686   3.954   1.440
10625SOL    HW132774   0.677   3.920   1.533
10625SOL    HW232775   0.774   3.928   1.403
10626SOL     OW32776   3.334   2.852   1.538
10626SOL    HW132777   3.268   2.922   1.565
10626SOL    HW232778   3.292   2.792   1.470
10627SOL     OW32779   5.992   1.220   6.725
10627SOL    HW132780   5.934   1.146   6.691
10627SOL    HW232781   5.939   1.304   6.732
10628SOL     OW32782   4.723   0.035   0.816
10628SOL    HW132783   4.802   7.005   0.792
10628SOL    HW232784   4.678   0.065   0.732
10629SOL     OW32785   3.195   4.982   4.765
10629SOL    HW132786   3.293   5.000   4.777
10629SOL    HW232787   3.148   5.067   4.742
10630SOL     OW32788   5.754   1.183   2.300
10630SOL    HW132789   5.686   1.120   2.261
10630SOL    HW232790   5.709   1.268   2.327
10631SOL     OW32791   4.094   4.338   5.570
10631SOL    HW132792   4.022   4.272   5.551
10631SOL    HW232793   4.161   4.339   5.495
10632SOL     OW32794   4.948   6.019   2.988
10632SOL    HW132795   4.865   6.023   2.933
10632SOL    HW232796   4.924   6.020   3.085
10633SOL     OW32797   2.699   2.406   1.742
10633SOL    HW132798   2.760   2.432   1.816
10633SOL    HW232799   2.613   2.456   1.750
10634SOL     OW32800   1.646   5.355   0.428
10634SOL    HW132801   1.571   5.293   0.451
10634SOL    HW232802   1.679   5.401   0.510
10635SOL     OW32803   2.359   3.157   0.143
10635SOL    HW132804   2.445   3.198   0.175
10635SOL    HW232805   2.351   3.167   0.044
10636SOL     OW32806   0.031   1.827   0.885
10636SOL    HW132807   6.981   1.764   0.876
10636SOL    HW232808   0.068   1.821   0.977
10637SOL     OW32809   1.579   5.740   6.213
10637SOL    HW132810   1.487   5.752   6.175
10637SOL    HW232811   1.599   5.815   6.276
10638SOL     OW32812   5.435   6.361   2.830
10638SOL    HW132813   5.412   6.271   2.866
10638SOL    HW232814   5.519   6.394   2.874
10639SOL     OW32815   1.834   3.509   2.257
10639SOL    HW132816   1.836   3.549   2.165
10639SOL    HW232817   1.913   3.449   2.269
10640SOL     OW32818   4.804   0.706   3.013
10640SOL    HW132819   4.742   0.629   3.027
10640SOL    HW232820   4.799   0.767   3.092
10641SOL     OW32821   2.342   1.492   3.761
10641SOL    HW132822   2.266   1.443   3.717
10641SOL    HW232823   2.429   1.451   3.733
10642SOL     OW32824   6.066   2.024   0.421
10642SOL    HW132825   6.054   1.942   0.365
10642SOL    HW232826   6.160   2.057   0.413
10643SOL     OW32827   2.390   6.339   4.812
10643SOL    HW132828   2.369   6.433   4.784
10643SOL    HW232829   2.305   6.287   4.822
10644SOL     OW32830   5.720   3.301   1.485
10644SOL    HW132831   5.771   3.384   1.511
10644SOL    HW232832   5.773   3.249   1.418
10645SOL     OW32833   2.082   2.504   3.508
10645SOL    HW132834   2.156   2.568   3.488
10645SOL    HW232835   1.995   2.553   3.510
10646SOL     OW32836   6.090   0.895   5.577
10646SOL    HW132837   5.999   0.890   5.618
10646SOL    HW232838   6.159   0.875   5.647
10647SOL     OW32839   3.318   5.318   4.875
10647SOL    HW132840   3.351   5.412   4.870
10647SOL    HW232841   3.245   5.306   4.808
10648SOL     OW32842   5.738   5.398   6.899
10648SOL    HW132843   5.647   5.427   6.929
10648SOL    HW232844   5.801   5.402   6.976
10649SOL     OW32845   0.860   3.803   3.260
10649SOL    HW132846   0.952   3.811   3.222
10649SOL    HW232847   0.826   3.893   3.285
10650SOL     OW32848   0.730   0.191   4.104
10650SOL    HW132849   0.782   0.183   4.189
10650SOL    HW232850   0.634   0.210   4.124
10651SOL     OW32851   6.160   5.919   6.073
10651SOL    HW132852   6.072   5.963   6.055
10651SOL    HW232853   6.148   5.847   6.142
10652SOL     OW32854   2.246   6.933   5.757
10652SOL    HW132855   2.164   6.928   5.700
10652SOL    HW232856   2.260   6.845   5.803
10653SOL     OW32857   3.700   5.998   5.538
10653SOL    HW132858   3.706   5.930   5.611
10653SOL    HW232859   3.788   6.045   5.529
10654SOL     OW32860   4.828   0.862   5.798
10654SOL    HW132861   4.919   0.897   5.778
10654SOL    HW232862   4.766   0.887   5.723
10655SOL     OW32863   1.746   4.567   0.197
10655SOL    HW132864   1.790   4.478   0.207
10655SOL    HW232865   1.815   4.636   0.171
10656SOL     OW32866   6.655   1.437   2.597
10656SOL    HW132867   6.684   1.344   2.617
10656SOL    HW232868   6.644   1.449   2.498
10657SOL     OW32869   6.050   0.717   4.892
10657SOL    HW132870   6.066   0.792   4.957
10657SOL    HW232871   6.132   0.660   4.887
10658SOL     OW32872   6.039   4.463   4.416
10658SOL    HW132873   6.064   4.386   4.474
10658SOL    HW232874   6.067   4.549   4.459
10659SOL     OW32875   1.035   4.592   0.546
10659SOL    HW132876   0.949   4.632   0.516
10659SOL    HW232877   1.076   4.540   0.471
10660SOL     OW32878   5.835   3.947   5.520
10660SOL    HW132879   5.896   3.976   5.593
10660SOL    HW232880   5.757   4.009   5.514
10661SOL     OW32881   1.765   5.863   0.747
10661SOL    HW132882   1.851   5.908   0.723
10661SOL    HW232883   1.714   5.842   0.664
10662SOL     OW32884   4.443   0.683   2.376
10662SOL    HW132885   4.508   0.759   2.368
10662SOL    HW232886   4.417   0.652   2.284
10663SOL     OW32887   0.707   1.080   2.669
10663SOL    HW132888   0.624   1.028   2.686
10663SOL    HW232889   0.701   1.125   2.580
10664SOL     OW32890   6.711   4.633   5.518
10664SOL    HW132891   6.646   4.570   5.475
10664SOL    HW232892   6.676   4.727   5.510
10665SOL     OW32893   2.000   2.686   6.937
10665SOL    HW132894   2.013   2.785   6.927
10665SOL    HW232895   1.960   2.648   6.854
10666SOL     OW32896   3.150   3.808   2.745
10666SOL    HW132897   3.146   3.874   2.671
10666SOL    HW232898   3.097   3.726   2.720
10667SOL     OW32899   4.844   2.011   3.673
10667SOL    HW132900   4.818   2.102   3.641
10667SOL    HW232901   4.793   1.942   3.623
10668SOL     OW32902   3.151   0.990   4.841
10668SOL    HW132903   3.186   0.911   4.791
10668SOL    HW232904   3.089   0.960   4.913
10669SOL     OW32905   6.538   0.403   1.121
10669SOL    HW132906   6.459   0.418   1.062
10669SOL    HW232907   6.510   0.415   1.217
10670SOL     OW32908   5.554   4.874   4.695
10670SOL    HW132909   5.510   4.934   4.629
10670SOL    HW232910   5.496   4.865   4.776
10671SOL     OW32911   1.662   1.770   4.259
10671SOL    HW132912   1.670   1.759   4.358
10671SOL    HW232913   1.566   1.780   4.234
10672SOL     OW32914   6.493   4.332   2.120
10672SOL    HW132915   6.465   4.348   2.025
10672SOL    HW232916   6.429   4.375   2.182
10673SOL     OW32917   0.820   0.373   0.361
10673SOL    HW132918   0.723   0.395   0.366
10673SOL    HW232919   0.869   0.449   0.317
10674SOL     OW32920   4.076   3.573   4.244
10674SOL    HW132921   3.995   3.527   4.206
10674SOL    HW232922   4.122   3.512   4.309
10675SOL     OW32923   2.436   0.364   6.609
10675SOL    HW132924   2.492   0.392   6.531
10675SOL    HW232925   2.405   0.446   6.658
10676SOL     OW32926   0.548   6.327   5.004
10676SOL    HW132927   0.476   6.395   4.991
10676SOL    HW232928   0.507   6.238   5.025
10677SOL     OW32929   1.652   0.775   1.575
10677SOL    HW132930   1.581   0.736   1.517
10677SOL    HW232931   1.619   0.779   1.670
10678SOL     OW32932   4.339   5.289   4.476
10678SOL    HW132933   4.405   5.252   4.541
10678SOL    HW232934   4.266   5.221   4.460
10679SOL     OW32935   4.086   5.595   6.148
10679SOL    HW132936   4.126   5.614   6.059
10679SOL    HW232937   4.087   5.497   6.165
10680SOL     OW32938   3.338   2.140   3.892
10680SOL    HW132939   3.340   2.052   3.939
10680SOL    HW232940   3.417   2.147   3.831
10681SOL     OW32941   6.847   3.600   0.426
10681SOL    HW132942   6.931   3.633   0.382
10681SOL    HW232943   6.868   3.523   0.485
10682SOL     OW32944   0.067   2.761   5.320
10682SOL    HW132945   7.015   2.763   5.381
10682SOL    HW232946   0.041   2.722   5.232
10683SOL     OW32947   4.876   0.703   3.863
10683SOL    HW132948   4.956   0.758   3.843
10683SOL    HW232949   4.796   0.762   3.873
10684SOL     OW32950   4.091   4.720   2.468
10684SOL    HW132951   4.189   4.712   2.450
10684SOL    HW232952   4.042   4.646   2.423
10685SOL     OW32953   0.472   5.751   1.195
10685SOL    HW132954   0.438   5.812   1.124
10685SOL    HW232955   0.555   5.789   1.235
10686SOL     OW32956   1.264   3.921   5.889
10686SOL    HW132957   1.335   3.969   5.838
10686SOL    HW232958   1.185   3.904   5.830
10687SOL     OW32959   6.329   5.271   4.254
10687SOL    HW132960   6.424   5.299   4.239
10687SOL    HW232961   6.271   5.352   4.261
10688SOL     OW32962   5.657   3.350   3.010
10688SOL    HW132963   5.756   3.338   2.998
10688SOL    HW232964   5.624   3.418   2.945
10689SOL     OW32965   6.356   0.445   2.617
10689SOL    HW132966   6.275   0.445   2.675
10689SOL    HW232967   6.414   0.523   2.639
10690SOL     OW32968   0.165   5.666   3.710
10690SOL    HW132969   0.114   5.675   3.625
10690SOL    HW232970   0.142   5.743   3.771
10691SOL     OW32971   1.701   1.826   2.224
10691SOL    HW132972   1.686   1.830   2.323
10691SOL    HW232973   1.642   1.756   2.183
10692SOL     OW32974   2.471   0.424   3.940
10692SOL    HW132975   2.517   0.424   3.851
10692SOL    HW232976   2.531   0.467   4.008
10693SOL     OW32977   1.682   6.141   1.444
10693SOL    HW132978   1.590   6.129   1.483
10693SOL    HW232979   1.727   6.218   1.489
10694SOL     OW32980   5.096   5.833   6.902
10694SOL    HW132981   5.151   5.786   6.833
10694SOL    HW232982   5.005   5.793   6.905
10695SOL     OW32983   1.387   2.379   2.640
10695SOL    HW132984   1.401   2.375   2.738
10695SOL    HW232985   1.296   2.416   2.620
10696SOL     OW32986   6.330   4.328   3.660
10696SOL    HW132987   6.243   4.312   3.708
10696SOL    HW232988   6.396   4.257   3.687
10697SOL     OW32989   0.615   0.277   5.446
10697SOL    HW132990   0.524   0.309   5.473
10697SOL    HW232991   0.672   0.265   5.528
10698SOL     OW32992   5.164   4.605   6.943
10698SOL    HW132993   5.258   4.613   6.976
10698SOL    HW232994   5.102   4.649   7.007
10699SOL     OW32995   3.860   4.472   1.569
10699SOL    HW132996   3.916   4.397   1.602
10699SOL    HW232997   3.919   4.543   1.529
10700SOL     OW32998   5.400   6.224   0.503
10700SOL    HW132999   5.432   6.173   0.582
10700SOL    HW233000   5.311   6.266   0.523
10701SOL     OW33001   2.318   6.749   5.946
10701SOL    HW133002   2.261   6.700   6.013
10701SOL    HW233003   2.351   6.685   5.877
10702SOL     OW33004   5.835   3.165   2.329
10702SOL    HW133005   5.909   3.195   2.269
10702SOL    HW233006   5.807   3.242   2.386
10703SOL     OW33007   2.630   3.077   5.353
10703SOL    HW133008   2.547   3.074   5.297
10703SOL    HW233009   2.679   2.990   5.345
10704SOL     OW33010   6.022   5.381   1.968
10704SOL    HW133011   5.995   5.291   2.002
10704SOL    HW233012   6.121   5.386   1.961
10705SOL     OW33013   6.380   5.100   1.688
10705SOL    HW133014   6.317   5.026   1.665
10705SOL    HW233015   6.452   5.065   1.748
10706SOL     OW33016   4.648   0.471   3.044
10706SOL    HW133017   4.556   0.506   3.024
10706SOL    HW233018   4.648   0.371   3.037
10707SOL     OW33019   0.207   6.875   4.651
10707SOL    HW133020   0.302   6.847   4.656
10707SOL    HW233021   0.200   6.962   4.602
10708SOL     OW33022   3.904   1.351   1.202
10708SOL    HW133023   3.868   1.316   1.288
10708SOL    HW233024   3.868   1.442   1.184
10709SOL     OW33025   5.655   5.745   5.677
10709SOL    HW133026   5.700   5.787   5.598
10709SOL    HW233027   5.723   5.722   5.746
10710SOL     OW33028   6.424   0.740   4.345
10710SOL    HW133029   6.364   0.806   4.299
10710SOL    HW233030   6.375   0.653   4.357
10711SOL     OW33031   2.186   6.447   4.058
10711SOL    HW133032   2.096   6.410   4.038
10711SOL    HW233033   2.253   6.373   4.060
10712SOL     OW33034   3.051   0.495   1.854
10712SOL    HW133035   3.094   0.574   1.811
10712SOL    HW233036   3.100   0.412   1.829
10713SOL     OW33037   0.791   3.239   1.554
10713SOL    HW133038   0.797   3.335   1.526
10713SOL    HW233039   0.701   3.203   1.527
10714SOL     OW33040   5.618   3.603   5.116
10714SOL    HW133041   5.604   3.596   5.215
10714SOL    HW233042   5.537   3.570   5.069
10715SOL     OW33043   4.564   0.303   2.195
10715SOL    HW133044   4.631   0.235   2.163
10715SOL    HW233045   4.474   0.280   2.159
10716SOL     OW33046   5.837   1.701   3.655
10716SOL    HW133047   5.889   1.640   3.715
10716SOL    HW233048   5.757   1.736   3.704
10717SOL     OW33049   0.841   2.482   1.170
10717SOL    HW133050   0.749   2.518   1.183
10717SOL    HW233051   0.908   2.553   1.191
10718SOL     OW33052   0.900   3.231   6.874
10718SOL    HW133053   0.980   3.292   6.874
10718SOL    HW233054   0.862   3.228   6.967
10719SOL     OW33055   6.960   5.609   2.609
10719SOL    HW133056   6.915   5.609   2.519
10719SOL    HW233057   0.032   5.603   2.596
10720SOL     OW33058   0.356   4.761   5.246
10720SOL    HW133059   0.329   4.806   5.332
10720SOL    HW233060   0.287   4.694   5.220
10721SOL     OW33061   5.596   4.174   4.920
10721SOL    HW133062   5.650   4.126   4.851
10721SOL    HW233063   5.540   4.107   4.969
10722SOL     OW33064   1.041   4.781   6.581
10722SOL    HW133065   0.942   4.795   6.568
10722SOL    HW233066   1.063   4.685   6.564
10723SOL     OW33067   0.558   2.810   6.008
10723SOL    HW133068   0.477   2.863   6.032
10723SOL    HW233069   0.565   2.803   5.909
10724SOL     OW33070   6.660   1.571   6.806
10724SOL    HW133071   6.686   1.582   6.710
10724SOL    HW233072   6.672   1.657   6.855
10725SOL     OW33073   1.434   5.291   4.095
10725SOL    HW133074   1.417   5.238   4.178
10725SOL    HW233075   1.484   5.234   4.030
10726SOL     OW33076   5.451   0.163   5.273
10726SOL    HW133077   5.362   0.118   5.271
10726SOL    HW233078   5.445   0.248   5.324
10727SOL     OW33079   0.423   4.972   5.521
10727SOL    HW133080   0.329   4.939   5.515
10727SOL    HW233081   0.430   5.059   5.473
10728SOL     OW33082   0.431   5.747   6.450
10728SOL    HW133083   0.466   5.838   6.429
10728SOL    HW233084   0.455   5.684   6.376
10729SOL     OW33085   5.501   2.024   2.097
10729SOL    HW133086   5.473   1.940   2.051
10729SOL    HW233087   5.421   2.072   2.132
10730SOL     OW33088   2.053   1.150   1.157
10730SOL    HW133089   2.010   1.068   1.193
10730SOL    HW233090   2.056   1.220   1.229
10731SOL     OW33091   3.310   6.489   0.618
10731SOL    HW133092   3.385   6.555   0.616
10731SOL    HW233093   3.344   6.401   0.653
10732SOL     OW33094   6.006   5.139   4.746
10732SOL    HW133095   6.031   5.042   4.752
10732SOL    HW233096   6.047   5.179   4.664
10733SOL     OW33097   6.502   1.835   1.107
10733SOL    HW133098   6.417   1.802   1.147
10733SOL    HW233099   6.499   1.825   1.007
10734SOL     OW33100   0.852   0.652   0.273
10734SOL    HW133101   0.874   0.630   0.178
10734SOL    HW233102   0.825   0.748   0.280
10735SOL     OW33103   0.519   2.922   3.389
10735SOL    HW133104   0.611   2.938   3.354
10735SOL    HW233105   0.503   2.978   3.470
10736SOL     OW33106   1.473   0.178   3.494
10736SOL    HW133107   1.415   0.250   3.533
10736SOL    HW233108   1.547   0.157   3.558
10737SOL     OW33109   1.645   1.722   1.117
10737SOL    HW133110   1.552   1.730   1.152
10737SOL    HW233111   1.643   1.703   1.019
10738SOL     OW33112   2.533   0.596   3.110
10738SOL    HW133113   2.500   0.646   3.191
10738SOL    HW233114   2.633   0.596   3.109
10739SOL     OW33115   1.223   1.658   1.033
10739SOL    HW133116   1.283   1.732   1.064
10739SOL    HW233117   1.277   1.589   0.984
10740SOL     OW33118   6.820   4.612   5.034
10740SOL    HW133119   6.872   4.691   5.068
10740SOL    HW233120   6.798   4.627   4.937
10741SOL     OW33121   5.643   0.419   1.054
10741SOL    HW133122   5.704   0.489   1.091
10741SOL    HW233123   5.548   0.450   1.059
10742SOL     OW33124   5.619   0.572   0.736
10742SOL    HW133125   5.520   0.582   0.746
10742SOL    HW233126   5.653   0.634   0.666
10743SOL     OW33127   2.604   1.194   5.661
10743SOL    HW133128   2.673   1.124   5.644
10743SOL    HW233129   2.517   1.167   5.620
10744SOL     OW33130   3.792   1.595   1.180
10744SOL    HW133131   3.806   1.665   1.249
10744SOL    HW233132   3.697   1.598   1.148
10745SOL     OW33133   0.318   5.899   6.891
10745SOL    HW133134   0.310   5.994   6.860
10745SOL    HW233135   0.332   5.839   6.812
10746SOL     OW33136   1.990   4.780   1.447
10746SOL    HW133137   2.063   4.835   1.487
10746SOL    HW233138   1.964   4.819   1.359
10747SOL     OW33139   3.641   1.253   4.477
10747SOL    HW133140   3.589   1.296   4.551
10747SOL    HW233141   3.665   1.159   4.503
10748SOL     OW33142   5.102   0.720   1.007
10748SOL    HW133143   5.095   0.812   0.968
10748SOL    HW233144   5.079   0.652   0.937
10749SOL     OW33145   0.777   5.599   2.752
10749SOL    HW133146   0.765   5.525   2.819
10749SOL    HW233147   0.874   5.610   2.731
10750SOL     OW33148   3.917   6.340   4.937
10750SOL    HW133149   3.840   6.390   4.978
10750SOL    HW233150   3.884   6.289   4.857
10751SOL     OW33151   1.857   4.020   4.780
10751SOL    HW133152   1.854   4.108   4.829
10751SOL    HW233153   1.814   3.949   4.837
10752SOL     OW33154   6.123   4.097   6.598
10752SOL    HW133155   6.083   4.156   6.528
10752SOL    HW233156   6.069   4.013   6.606
10753SOL     OW33157   4.600   5.997   4.398
10753SOL    HW133158   4.504   5.970   4.393
10753SOL    HW233159   4.658   5.915   4.405
10754SOL     OW33160   0.699   1.293   2.859
10754SOL    HW133161   0.788   1.337   2.847
10754SOL    HW233162   0.697   1.208   2.807
10755SOL     OW33163   6.374   1.091   6.231
10755SOL    HW133164   6.406   1.136   6.314
10755SOL    HW233165   6.449   1.085   6.165
10756SOL     OW33166   6.841   4.787   0.144
10756SOL    HW133167   6.746   4.781   0.174
10756SOL    HW233168   6.869   4.699   0.105
10757SOL     OW33169   2.300   2.901   0.465
10757SOL    HW133170   2.298   2.998   0.488
10757SOL    HW233171   2.395   2.870   0.457
10758SOL     OW33172   0.257   6.367   4.152
10758SOL    HW133173   0.326   6.298   4.176
10758SOL    HW233174   0.223   6.411   4.235
10759SOL     OW33175   1.760   3.282   1.463
10759SOL    HW133176   1.735   3.315   1.372
10759SOL    HW233177   1.854   3.309   1.483
10760SOL     OW33178   6.106   1.462   2.114
10760SOL    HW133179   6.045   1.384   2.098
10760SOL    HW233180   6.069   1.517   2.189
10761SOL     OW33181   0.944   6.794   6.439
10761SOL    HW133182   0.866   6.853   6.421
10761SOL    HW233183   0.918   6.698   6.426
10762SOL     OW33184   3.718   1.950   4.295
10762SOL    HW133185   3.755   1.980   4.207
10762SOL    HW233186   3.620   1.969   4.298
10763SOL     OW33187   5.162   6.376   2.465
10763SOL    HW133188   5.093   6.398   2.535
10763SOL    HW233189   5.248   6.420   2.488
10764SOL     OW33190   4.790   2.530   6.016
10764SOL    HW133191   4.802   2.535   5.917
10764SOL    HW233192   4.879   2.531   6.060
10765SOL     OW33193   5.225   2.266   0.345
10765SOL    HW133194   5.217   2.167   0.330
10765SOL    HW233195   5.301   2.283   0.407
10766SOL     OW33196   4.938   3.797   0.331
10766SOL    HW133197   4.986   3.847   0.404
10766SOL    HW233198   4.956   3.699   0.340
10767SOL     OW33199   1.301   0.924   0.276
10767SOL    HW133200   1.253   0.928   0.189
10767SOL    HW233201   1.341   0.832   0.287
10768SOL     OW33202   4.680   4.304   1.742
10768SOL    HW133203   4.749   4.305   1.815
10768SOL    HW233204   4.589   4.316   1.783
10769SOL     OW33205   2.676   3.953   5.282
10769SOL    HW133206   2.590   3.947   5.232
10769SOL    HW233207   2.712   4.045   5.276
10770SOL     OW33208   5.629   0.735   5.037
10770SOL    HW133209   5.695   0.810   5.039
10770SOL    HW233210   5.625   0.692   5.127
10771SOL     OW33211   5.928   0.127   3.702
10771SOL    HW133212   5.916   0.225   3.688
10771SOL    HW233213   5.905   0.103   3.797
10772SOL     OW33214   5.761   6.836   4.298
10772SOL    HW133215   5.734   6.755   4.247
10772SOL    HW233216   5.851   6.821   4.340
10773SOL     OW33217   6.409   5.720   6.811
10773SOL    HW133218   6.477   5.757   6.748
10773SOL    HW233219   6.444   5.634   6.851
10774SOL     OW33220   2.773   1.505   6.973
10774SOL    HW133221   2.729   1.448   6.904
10774SOL    HW233222   2.791   1.596   6.935
10775SOL     OW33223   0.208   4.493   1.440
10775SOL    HW133224   0.165   4.455   1.359
10775SOL    HW233225   0.159   4.462   1.522
10776SOL     OW33226   7.023   0.678   6.626
10776SOL    HW133227   7.006   0.704   6.721
10776SOL    HW233228   6.938   0.648   6.583
10777SOL     OW33229   3.754   5.509   2.890
10777SOL    HW133230   3.688   5.579   2.919
10777SOL    HW233231   3.826   5.501   2.959
10778SOL     OW33232   5.884   6.945   4.065
10778SOL    HW133233   5.845   6.907   4.149
10778SOL    HW233234   5.978   6.911   4.053
10779SOL     OW33235   6.584   3.451   3.656
10779SOL    HW133236   6.582   3.466   3.557
10779SOL    HW233237   6.494   3.419   3.686
10780SOL     OW33238   2.296   0.955   3.659
10780SOL    HW133239   2.350   1.010   3.594
10780SOL    HW233240   2.355   0.927   3.735
10781SOL     OW33241   4.596   0.867   4.465
10781SOL    HW133242   4.625   0.953   4.506
10781SOL    HW233243   4.498   0.856   4.477
10782SOL     OW33244   6.387   2.046   1.603
10782SOL    HW133245   6.410   1.956   1.566
10782SOL    HW233246   6.464   2.081   1.656
10783SOL     OW33247   0.436   2.943   2.919
10783SOL    HW133248   0.452   3.036   2.884
10783SOL    HW233249   0.338   2.924   2.919
10784SOL     OW33250   3.470   6.492   4.068
10784SOL    HW133251   3.529   6.437   4.010
10784SOL    HW233252   3.431   6.568   4.015
10785SOL     OW33253   0.056   4.673   1.100
10785SOL    HW133254   0.114   4.733   1.154
10785SOL    HW233255   0.100   4.583   1.093
10786SOL     OW33256   5.878   4.378   3.313
10786SOL    HW133257   5.940   4.322   3.369
10786SOL    HW233258   5.792   4.392   3.363
10787SOL     OW33259   2.226   1.321   5.232
10787SOL    HW133260   2.311   1.269   5.236
10787SOL    HW233261   2.176   1.296   5.149
10788SOL     OW33262   1.936   4.404   5.914
10788SOL    HW133263   2.015   4.440   5.963
10788SOL    HW233264   1.883   4.345   5.975
10789SOL     OW33265   6.897   3.049   6.349
10789SOL    HW133266   6.877   3.021   6.443
10789SOL    HW233267   6.897   2.969   6.289
10790SOL     OW33268   1.311   0.396   1.895
10790SOL    HW133269   1.316   0.390   1.995
10790SOL    HW233270   1.269   0.482   1.868
10791SOL     OW33271   6.518   0.099   1.675
10791SOL    HW133272   6.591   0.087   1.742
10791SOL    HW233273   6.429   0.087   1.719
10792SOL     OW33274   2.964   3.768   4.703
10792SOL    HW133275   2.990   3.686   4.753
10792SOL    HW233276   2.943   3.841   4.767
10793SOL     OW33277   5.395   3.344   4.452
10793SOL    HW133278   5.326   3.286   4.495
10793SOL    HW233279   5.451   3.388   4.522
10794SOL     OW33280   2.914   3.341   4.029
10794SOL    HW133281   2.970   3.260   4.051
10794SOL    HW233282   2.941   3.375   3.938
10795SOL     OW33283   6.695   5.071   1.753
10795SOL    HW133284   6.660   5.136   1.821
10795SOL    HW233285   6.790   5.047   1.775
10796SOL     OW33286   5.575   0.460   6.209
10796SOL    HW133287   5.613   0.496   6.294
10796SOL    HW233288   5.584   0.361   6.208
10797SOL     OW33289   3.382   2.340   1.504
10797SOL    HW133290   3.476   2.340   1.538
10797SOL    HW233291   3.382   2.312   1.408
10798SOL     OW33292   2.630   0.273   0.093
10798SOL    HW133293   2.629   0.369   0.064
10798SOL    HW233294   2.702   0.224   0.044
10799SOL     OW33295   3.807   1.171   1.917
10799SOL    HW133296   3.833   1.268   1.917
10799SOL    HW233297   3.733   1.156   1.851
10800SOL     OW33298   6.867   6.472   6.175
10800SOL    HW133299   6.922   6.517   6.245
10800SOL    HW233300   6.871   6.373   6.189
10801SOL     OW33301   0.728   6.305   5.909
10801SOL    HW133302   0.751   6.357   5.990
10801SOL    HW233303   0.739   6.362   5.828
10802SOL     OW33304   1.021   0.433   2.609
10802SOL    HW133305   0.975   0.521   2.599
10802SOL    HW233306   0.953   0.363   2.632
10803SOL     OW33307   2.185   4.904   6.264
10803SOL    HW133308   2.227   4.826   6.219
10803SOL    HW233309   2.235   4.987   6.241
10804SOL     OW33310   5.829   3.416   2.392
10804SOL    HW133311   5.802   3.496   2.447
10804SOL    HW233312   5.821   3.438   2.295
10805SOL     OW33313   4.600   6.188   6.270
10805SOL    HW133314   4.596   6.213   6.173
10805SOL    HW233315   4.574   6.267   6.325
10806SOL     OW33316   4.460   4.012   6.727
10806SOL    HW133317   4.434   4.071   6.650
10806SOL    HW233318   4.388   3.944   6.742
10807SOL     OW33319   1.533   0.043   2.397
10807SOL    HW133320   1.555   0.105   2.321
10807SOL    HW233321   1.617   7.026   2.429
10808SOL     OW33322   6.963   3.113   5.664
10808SOL    HW133323   6.941   3.046   5.593
10808SOL    HW233324   0.007   3.076   5.723
10809SOL     OW33325   3.134   5.094   3.564
10809SOL    HW133326   3.055   5.152   3.586
10809SOL    HW233327   3.166   5.048   3.647
10810SOL     OW33328   1.179   0.207   4.097
10810SOL    HW133329   1.149   0.131   4.039
10810SOL    HW233330   1.264   0.245   4.060
10811SOL     OW33331   4.616   4.418   5.997
10811SOL    HW133332   4.554   4.421   6.075
10811SOL    HW233333   4.711   4.424   6.030
10812SOL     OW33334   0.808   3.798   0.596
10812SOL    HW133335   0.804   3.888   0.640
10812SOL    HW233336   0.778   3.806   0.501
10813SOL     OW33337   1.649   4.050   6.594
10813SOL    HW133338   1.658   4.119   6.522
10813SOL    HW233339   1.670   3.960   6.557
10814SOL     OW33340   1.474   6.551   6.377
10814SOL    HW133341   1.392   6.537   6.320
10814SOL    HW233342   1.524   6.631   6.344
10815SOL     OW33343   5.126   3.951   3.129
10815SOL    HW133344   5.130   3.859   3.088
10815SOL    HW233345   5.212   3.970   3.175
10816SOL     OW33346   3.431   3.754   3.115
10816SOL    HW133347   3.428   3.718   3.208
10816SOL    HW233348   3.501   3.705   3.063
10817SOL     OW33349   4.380   0.320   3.381
10817SOL    HW133350   4.349   0.271   3.463
10817SOL    HW233351   4.468   0.364   3.399
10818SOL     OW33352   4.754   4.598   5.013
10818SOL    HW133353   4.765   4.697   5.000
10818SOL    HW233354   4.844   4.557   5.027
10819SOL     OW33355   6.851   5.241   6.395
10819SOL    HW133356   6.814   5.229   6.303
10819SOL    HW233357   6.820   5.166   6.454
10820SOL     OW33358   0.258   5.094   4.530
10820SOL    HW133359   0.236   5.023   4.462
10820SOL    HW233360   0.344   5.138   4.504
10821SOL     OW33361   4.776   0.472   3.708
10821SOL    HW133362   4.836   0.393   3.700
10821SOL    HW233363   4.820   0.541   3.767
10822SOL     OW33364   6.298   2.322   3.101
10822SOL    HW133365   6.304   2.268   3.016
10822SOL    HW233366   6.209   2.366   3.106
10823SOL     OW33367   1.067   0.692   2.138
10823SOL    HW133368   1.007   0.673   2.216
10823SOL    HW233369   1.066   0.614   2.075
10824SOL     OW33370   6.899   1.361   2.996
10824SOL    HW133371   6.862   1.448   2.961
10824SOL    HW233372   6.957   1.320   2.926
10825SOL     OW33373   2.089   1.951   6.406
10825SOL    HW133374   2.015   2.017   6.395
10825SOL    HW233375   2.144   1.948   6.322
10826SOL     OW33376   0.655   2.456   3.440
10826SOL    HW133377   0.678   2.545   3.479
10826SOL    HW233378   0.729   2.425   3.380
10827SOL     OW33379   0.135   3.323   4.641
10827SOL    HW133380   0.227   3.286   4.624
10827SOL    HW233381   0.068   3.248   4.639
10828SOL     OW33382   1.492   4.605   0.896
10828SOL    HW133383   1.467   4.701   0.908
10828SOL    HW233384   1.438   4.565   0.823
10829SOL     OW33385   4.397   3.076   0.143
10829SOL    HW133386   4.322   3.114   0.197
10829SOL    HW233387   4.424   2.987   0.182
10830SOL     OW33388   4.643   1.865   3.252
10830SOL    HW133389   4.625   1.778   3.206
10830SOL    HW233390   4.561   1.922   3.247
10831SOL     OW33391   3.104   6.633   2.941
10831SOL    HW133392   3.175   6.680   2.993
10831SOL    HW233393   3.143   6.592   2.859
10832SOL     OW33394   0.500   3.320   5.928
10832SOL    HW133395   0.484   3.247   5.861
10832SOL    HW233396   0.595   3.350   5.923
10833SOL     OW33397   0.725   1.261   2.101
10833SOL    HW133398   0.648   1.233   2.158
10833SOL    HW233399   0.692   1.323   2.029
10834SOL     OW33400   6.993   1.610   0.555
10834SOL    HW133401   6.966   1.579   0.464
10834SOL    HW233402   0.061   1.583   0.571
10835SOL     OW33403   6.001   2.617   0.598
10835SOL    HW133404   6.000   2.522   0.629
10835SOL    HW233405   5.972   2.620   0.502
10836SOL     OW33406   6.511   1.466   4.824
10836SOL    HW133407   6.431   1.522   4.805
10836SOL    HW233408   6.567   1.510   4.894
10837SOL     OW33409   6.475   5.424   1.071
10837SOL    HW133410   6.385   5.400   1.108
10837SOL    HW233411   6.510   5.347   1.017
10838SOL     OW33412   6.831   5.884   3.504
10838SOL    HW133413   6.746   5.870   3.454
10838SOL    HW233414   6.838   5.817   3.578
10839SOL     OW33415   4.471   3.089   1.571
10839SOL    HW133416   4.435   2.996   1.576
10839SOL    HW233417   4.537   3.103   1.644
10840SOL     OW33418   3.338   6.229   2.658
10840SOL    HW133419   3.281   6.195   2.583
10840SOL    HW233420   3.407   6.292   2.622
10841SOL     OW33421   6.421   4.908   5.675
10841SOL    HW133422   6.460   4.852   5.748
10841SOL    HW233423   6.494   4.937   5.613
10842SOL     OW33424   5.218   2.272   1.378
10842SOL    HW133425   5.216   2.331   1.298
10842SOL    HW233426   5.175   2.318   1.456
10843SOL     OW33427   0.970   1.560   1.389
10843SOL    HW133428   1.005   1.643   1.431
10843SOL    HW233429   0.873   1.572   1.369
10844SOL     OW33430   0.601   6.007   2.986
10844SOL    HW133431   0.528   6.069   3.012
10844SOL    HW233432   0.582   5.968   2.896
10845SOL     OW33433   3.576   6.564   5.341
10845SOL    HW133434   3.612   6.510   5.417
10845SOL    HW233435   3.629   6.647   5.330
10846SOL     OW33436   5.876   0.993   0.413
10846SOL    HW133437   5.899   0.962   0.505
10846SOL    HW233438   5.918   0.933   0.346
10847SOL     OW33439   3.450   2.957   0.297
10847SOL    HW133440   3.442   2.969   0.396
10847SOL    HW233441   3.541   2.923   0.276
10848SOL     OW33442   2.556   3.931   0.877
10848SOL    HW133443   2.649   3.943   0.841
10848SOL    HW233444   2.540   3.835   0.899
10849SOL     OW33445   2.533   4.489   3.785
10849SOL    HW133446   2.491   4.466   3.697
10849SOL    HW233447   2.616   4.542   3.768
10850SOL     OW33448   2.685   6.266   6.110
10850SOL    HW133449   2.674   6.274   6.011
10850SOL    HW233450   2.714   6.353   6.148
10851SOL     OW33451   2.363   3.569   0.674
10851SOL    HW133452   2.352   3.659   0.717
10851SOL    HW233453   2.294   3.506   0.710
10852SOL     OW33454   1.263   0.227   0.035
10852SOL    HW133455   1.170   0.245   0.068
10852SOL    HW233456   1.263   0.229   6.962
10853SOL     OW33457   1.739   2.655   5.045
10853SOL    HW133458   1.787   2.743   5.041
10853SOL    HW233459   1.767   2.598   4.969
10854SOL     OW33460   4.699   4.899   5.538
10854SOL    HW133461   4.603   4.928   5.534
10854SOL    HW233462   4.719   4.839   5.461
10855SOL     OW33463   3.897   1.041   0.740
10855SOL    HW133464   3.899   0.983   0.658
10855SOL    HW233465   3.987   1.083   0.753
10856SOL     OW33466   5.240   1.079   0.398
10856SOL    HW133467   5.223   1.144   0.472
10856SOL    HW233468   5.178   1.098   0.322
10857SOL     OW33469   0.446   1.931   2.870
10857SOL    HW133470   0.439   1.840   2.911
10857SOL    HW233471   0.447   2.000   2.943
10858SOL     OW33472   1.047   1.466   6.877
10858SOL    HW133473   0.990   1.524   6.819
10858SOL    HW233474   1.112   1.523   6.928
10859SOL     OW33475   1.120   4.236   4.707
10859SOL    HW133476   1.199   4.178   4.686
10859SOL    HW233477   1.085   4.275   4.622
10860SOL     OW33478   0.230   2.966   5.007
10860SOL    HW133479   0.209   2.893   4.942
10860SOL    HW233480   0.268   3.045   4.958
10861SOL     OW33481   3.285   4.140   4.039
10861SOL    HW133482   3.211   4.169   4.100
10861SOL    HW233483   3.247   4.093   3.960
10862SOL     OW33484   2.092   1.441   6.520
10862SOL    HW133485   2.105   1.536   6.550
10862SOL    HW233486   2.062   1.385   6.597
10863SOL     OW33487   3.457   0.925   3.814
10863SOL    HW133488   3.452   1.025   3.819
10863SOL    HW233489   3.389   0.885   3.875
10864SOL     OW33490   2.272   6.480   0.497
10864SOL    HW133491   2.234   6.421   0.425
10864SOL    HW233492   2.369   6.494   0.480
10865SOL     OW33493   0.243   1.454   1.428
10865SOL    HW133494   0.212   1.359   1.433
10865SOL    HW233495   0.193   1.502   1.355
10866SOL     OW33496   5.530   4.028   0.740
10866SOL    HW133497   5.556   4.067   0.651
10866SOL    HW233498   5.566   4.086   0.813
10867SOL     OW33499   3.791   3.627   6.767
10867SOL    HW133500   3.748   3.717   6.774
10867SOL    HW233501   3.737   3.560   6.818
10868SOL     OW33502   4.873   1.263   4.006
10868SOL    HW133503   4.797   1.224   4.057
10868SOL    HW233504   4.915   1.337   4.059
10869NA      NA33505   6.441   2.848   5.354
10870NA      NA33506   4.532   4.595   5.101
10871NA      NA33507   1.806   2.967   2.085
10872NA      NA33508   5.204   3.762   4.882
10873NA      NA33509   4.237   2.292   5.248
10874NA      NA33510   3.466   4.785   1.688
10875NA      NA33511   0.003   4.820   0.303
10876NA      NA33512   3.414   3.579   4.541
10877NA      NA33513   4.832   6.108   0.252
10878NA      NA33514   3.382   6.468   5.235
10879NA      NA33515   5.866   5.412   1.773
10880NA      NA33516   1.958   0.262   4.268
10881NA      NA33517   3.712   5.301   2.573
10882NA      NA33518   3.904   3.799   2.201
   7.02747   7.02747   7.02747
