Generated by trjconv : CNT in water t=   8.00000
33518
    1C        C    1   2.841   2.768   4.750
    1C        C    2   2.897   2.720   4.870
    1C        C    3   2.837   2.770   4.986
    1C        C    4   2.848   2.770   4.261
    1C        C    5   2.902   2.726   4.384
    1C        C    6   2.847   2.771   4.506
    1C        C    7   3.012   2.641   4.627
    1C        C    8   2.895   2.720   4.628
    1C        C    9   3.074   2.601   4.748
    1C        C   10   3.007   2.631   4.868
    1C        C   11   3.182   2.492   4.976
    1C        C   12   3.063   2.565   4.978
    1C        C   13   2.852   2.769   3.771
    1C        C   14   2.899   2.718   3.895
    1C        C   15   2.845   2.767   4.016
    1C        C   16   3.016   2.643   4.137
    1C        C   17   2.897   2.719   4.138
    1C        C   18   3.078   2.612   4.260
    1C        C   19   3.017   2.644   4.383
    1C        C   20   3.207   2.555   4.502
    1C        C   21   3.076   2.607   4.506
    1C        C   22   3.277   2.532   4.623
    1C        C   23   3.206   2.548   4.744
    1C        C   24   3.411   2.484   4.864
    1C        C   25   3.270   2.506   4.864
    1C        C   26   3.486   2.482   4.983
    1C        C   27   2.854   2.775   3.281
    1C        C   28   2.904   2.725   3.403
    1C        C   29   2.848   2.766   3.526
    1C        C   30   3.017   2.638   3.650
    1C        C   31   2.903   2.721   3.648
    1C        C   32   3.077   2.602   3.773
    1C        C   33   3.016   2.638   3.896
    1C        C   34   3.211   2.552   4.016
    1C        C   35   3.079   2.604   4.017
    1C        C   36   3.277   2.533   4.140
    1C        C   37   3.208   2.554   4.261
    1C        C   38   3.415   2.501   4.383
    1C        C   39   3.277   2.530   4.382
    1C        C   40   3.487   2.489   4.504
    1C        C   41   3.414   2.500   4.625
    1C        C   42   3.630   2.487   4.742
    1C        C   43   3.488   2.487   4.745
    1C        C   44   3.703   2.482   4.862
    1C        C   45   3.625   2.475   4.978
    1C        C   46   2.838   2.754   2.791
    1C        C   47   2.893   2.710   2.914
    1C        C   48   2.844   2.761   3.037
    1C        C   49   3.018   2.641   3.158
    1C        C   50   2.900   2.719   3.160
    1C        C   51   3.078   2.604   3.281
    1C        C   52   3.014   2.636   3.402
    1C        C   53   3.205   2.549   3.527
    1C        C   54   3.074   2.603   3.526
    1C        C   55   3.275   2.525   3.647
    1C        C   56   3.206   2.544   3.769
    1C        C   57   3.412   2.504   3.896
    1C        C   58   3.272   2.525   3.892
    1C        C   59   3.488   2.500   4.015
    1C        C   60   3.415   2.506   4.136
    1C        C   61   3.625   2.499   4.259
    1C        C   62   3.484   2.498   4.259
    1C        C   63   3.699   2.508   4.378
    1C        C   64   3.628   2.499   4.500
    1C        C   65   3.838   2.536   4.618
    1C        C   66   3.701   2.500   4.620
    1C        C   67   3.906   2.561   4.739
    1C        C   68   3.838   2.524   4.857
    1C        C   69   4.045   2.591   4.979
    1C        C   70   3.920   2.527   4.971
    1C        C   71   2.819   2.728   2.308
    1C        C   72   2.880   2.687   2.429
    1C        C   73   2.830   2.745   2.548
    1C        C   74   3.007   2.626   2.672
    1C        C   75   2.889   2.704   2.669
    1C        C   76   3.072   2.594   2.793
    1C        C   77   3.009   2.630   2.915
    1C        C   78   3.203   2.540   3.037
    1C        C   79   3.074   2.597   3.036
    1C        C   80   3.274   2.524   3.158
    1C        C   81   3.206   2.544   3.281
    1C        C   82   3.410   2.501   3.401
    1C        C   83   3.271   2.526   3.405
    1C        C   84   3.481   2.498   3.524
    1C        C   85   3.415   2.504   3.649
    1C        C   86   3.623   2.498   3.766
    1C        C   87   3.482   2.500   3.773
    1C        C   88   3.692   2.505   3.889
    1C        C   89   3.629   2.505   4.015
    1C        C   90   3.834   2.550   4.133
    1C        C   91   3.697   2.516   4.139
    1C        C   92   3.903   2.573   4.254
    1C        C   93   3.836   2.546   4.376
    1C        C   94   4.028   2.636   4.495
    1C        C   95   3.904   2.567   4.497
    1C        C   96   4.089   2.671   4.617
    1C        C   97   4.030   2.630   4.739
    1C        C   98   4.190   2.765   4.861
    1C        C   99   4.092   2.660   4.863
    1C        C  100   4.214   2.842   4.975
    1C        C  101   2.818   2.723   2.070
    1C        C  102   2.988   2.588   2.187
    1C        C  103   2.873   2.674   2.189
    1C        C  104   3.058   2.565   2.308
    1C        C  105   2.997   2.609   2.428
    1C        C  106   3.196   2.534   2.548
    1C        C  107   3.064   2.585   2.550
    1C        C  108   3.269   2.522   2.668
    1C        C  109   3.202   2.539   2.791
    1C        C  110   3.408   2.498   2.913
    1C        C  111   3.268   2.517   2.914
    1C        C  112   3.480   2.488   3.034
    1C        C  113   3.413   2.499   3.158
    1C        C  114   3.624   2.499   3.278
    1C        C  115   3.483   2.495   3.280
    1C        C  116   3.692   2.509   3.402
    1C        C  117   3.622   2.503   3.524
    1C        C  118   3.830   2.550   3.646
    1C        C  119   3.695   2.509   3.645
    1C        C  120   3.896   2.569   3.770
    1C        C  121   3.829   2.542   3.891
    1C        C  122   4.024   2.639   4.012
    1C        C  123   3.900   2.570   4.010
    1C        C  124   4.091   2.671   4.132
    1C        C  125   4.032   2.631   4.253
    1C        C  126   4.196   2.768   4.378
    1C        C  127   4.091   2.673   4.374
    1C        C  128   4.248   2.817   4.499
    1C        C  129   4.193   2.768   4.620
    1C        C  130   4.329   2.933   4.740
    1C        C  131   4.244   2.819   4.741
    1C        C  132   4.358   2.998   4.862
    1C        C  133   4.288   2.959   4.977
    1C        C  134   3.173   2.466   2.078
    1C        C  135   3.038   2.504   2.083
    1C        C  136   3.256   2.480   2.190
    1C        C  137   3.193   2.519   2.310
    1C        C  138   3.405   2.479   2.425
    1C        C  139   3.266   2.502   2.429
    1C        C  140   3.478   2.482   2.547
    1C        C  141   3.408   2.494   2.669
    1C        C  142   3.620   2.497   2.790
    1C        C  143   3.479   2.493   2.791
    1C        C  144   3.689   2.509   2.913
    1C        C  145   3.621   2.492   3.036
    1C        C  146   3.833   2.534   3.155
    1C        C  147   3.696   2.499   3.156
    1C        C  148   3.900   2.561   3.276
    1C        C  149   3.829   2.543   3.397
    1C        C  150   4.022   2.625   3.522
    1C        C  151   3.892   2.570   3.520
    1C        C  152   4.081   2.668   3.643
    1C        C  153   4.019   2.638   3.766
    1C        C  154   4.191   2.764   3.884
    1C        C  155   4.078   2.679   3.888
    1C        C  156   4.242   2.814   4.006
    1C        C  157   4.198   2.764   4.130
    1C        C  158   4.339   2.920   4.252
    1C        C  159   4.245   2.814   4.254
    1C        C  160   4.380   2.981   4.372
    1C        C  161   4.336   2.927   4.495
    1C        C  162   4.441   3.111   4.613
    1C        C  163   4.372   2.988   4.617
    1C        C  164   4.465   3.179   4.734
    1C        C  165   4.432   3.118   4.857
    1C        C  166   4.513   3.317   4.968
    1C        C  167   4.479   3.182   4.972
    1C        C  168   3.474   2.433   2.072
    1C        C  169   3.396   2.458   2.186
    1C        C  170   3.617   2.469   2.303
    1C        C  171   3.474   2.470   2.303
    1C        C  172   3.690   2.487   2.422
    1C        C  173   3.619   2.486   2.544
    1C        C  174   3.823   2.538   2.666
    1C        C  175   3.688   2.497   2.666
    1C        C  176   3.890   2.567   2.787
    1C        C  177   3.826   2.542   2.910
    1C        C  178   4.022   2.624   3.032
    1C        C  179   3.896   2.560   3.031
    1C        C  180   4.082   2.663   3.154
    1C        C  181   4.026   2.625   3.278
    1C        C  182   4.194   2.751   3.397
    1C        C  183   4.087   2.659   3.401
    1C        C  184   4.245   2.803   3.519
    1C        C  185   4.191   2.757   3.641
    1C        C  186   4.335   2.917   3.760
    1C        C  187   4.242   2.811   3.761
    1C        C  188   4.379   2.973   3.882
    1C        C  189   4.335   2.921   4.006
    1C        C  190   4.445   3.102   4.127
    1C        C  191   4.373   2.980   4.128
    1C        C  192   4.468   3.173   4.246
    1C        C  193   4.439   3.109   4.369
    1C        C  194   4.501   3.314   4.488
    1C        C  195   4.463   3.177   4.490
    1C        C  196   4.516   3.385   4.609
    1C        C  197   4.508   3.315   4.731
    1C        C  198   4.549   3.531   4.850
    1C        C  199   4.535   3.388   4.850
    1C        C  200   4.586   3.617   4.958
    1C        C  201   3.613   2.417   2.069
    1C        C  202   3.828   2.499   2.185
    1C        C  203   3.691   2.457   2.182
    1C        C  204   3.902   2.529   2.302
    1C        C  205   3.828   2.517   2.422
    1C        C  206   4.018   2.616   2.542
    1C        C  207   3.892   2.551   2.543
    1C        C  208   4.079   2.655   2.663
    1C        C  209   4.017   2.629   2.787
    1C        C  210   4.195   2.746   2.908
    1C        C  211   4.080   2.663   2.909
    1C        C  212   4.249   2.796   3.028
    1C        C  213   4.194   2.749   3.150
    1C        C  214   4.335   2.905   3.271
    1C        C  215   4.243   2.799   3.273
    1C        C  216   4.372   2.970   3.392
    1C        C  217   4.336   2.911   3.515
    1C        C  218   4.437   3.099   3.638
    1C        C  219   4.377   2.971   3.636
    1C        C  220   4.457   3.167   3.760
    1C        C  221   4.435   3.103   3.884
    1C        C  222   4.501   3.306   4.001
    1C        C  223   4.470   3.168   4.005
    1C        C  224   4.515   3.378   4.121
    1C        C  225   4.503   3.310   4.245
    1C        C  226   4.518   3.524   4.362
    1C        C  227   4.512   3.383   4.366
    1C        C  228   4.519   3.594   4.485
    1C        C  229   4.525   3.526   4.609
    1C        C  230   4.502   3.740   4.723
    1C        C  231   4.534   3.602   4.728
    1C        C  232   4.499   3.817   4.841
    1C        C  233   4.543   3.750   4.956
    1C        C  234   4.017   2.605   2.063
    1C        C  235   3.897   2.534   2.068
    1C        C  236   4.084   2.645   2.179
    1C        C  237   4.024   2.603   2.300
    1C        C  238   4.197   2.732   2.419
    1C        C  239   4.080   2.651   2.420
    1C        C  240   4.251   2.781   2.540
    1C        C  241   4.191   2.742   2.662
    1C        C  242   4.337   2.896   2.781
    1C        C  243   4.245   2.789   2.783
    1C        C  244   4.373   2.959   2.903
    1C        C  245   4.339   2.905   3.028
    1C        C  246   4.442   3.090   3.147
    1C        C  247   4.381   2.962   3.150
    1C        C  248   4.457   3.159   3.269
    1C        C  249   4.430   3.098   3.394
    1C        C  250   4.495   3.302   3.512
    1C        C  251   4.457   3.165   3.515
    1C        C  252   4.506   3.372   3.634
    1C        C  253   4.491   3.304   3.757
    1C        C  254   4.517   3.516   3.877
    1C        C  255   4.509   3.375   3.878
    1C        C  256   4.515   3.590   3.998
    1C        C  257   4.523   3.519   4.120
    1C        C  258   4.487   3.732   4.242
    1C        C  259   4.520   3.594   4.239
    1C        C  260   4.464   3.802   4.362
    1C        C  261   4.488   3.731   4.482
    1C        C  262   4.424   3.939   4.602
    1C        C  263   4.472   3.806   4.601
    1C        C  264   4.402   4.012   4.721
    1C        C  265   4.437   3.944   4.840
    1C        C  266   4.323   4.131   4.956
    1C        C  267   4.397   4.013   4.955
    1C        C  268   4.266   2.770   2.064
    1C        C  269   4.193   2.735   2.178
    1C        C  270   4.345   2.888   2.299
    1C        C  271   4.250   2.782   2.298
    1C        C  272   4.384   2.950   2.420
    1C        C  273   4.343   2.889   2.541
    1C        C  274   4.444   3.080   2.661
    1C        C  275   4.382   2.954   2.660
    1C        C  276   4.466   3.150   2.782
    1C        C  277   4.440   3.083   2.904
    1C        C  278   4.503   3.289   3.024
    1C        C  279   4.472   3.152   3.024
    1C        C  280   4.507   3.364   3.144
    1C        C  281   4.495   3.295   3.267
    1C        C  282   4.518   3.509   3.386
    1C        C  283   4.510   3.368   3.388
    1C        C  284   4.512   3.581   3.507
    1C        C  285   4.515   3.513   3.631
    1C        C  286   4.487   3.722   3.750
    1C        C  287   4.512   3.583   3.753
    1C        C  288   4.468   3.793   3.871
    1C        C  289   4.488   3.728   3.995
    1C        C  290   4.427   3.931   4.113
    1C        C  291   4.470   3.796   4.117
    1C        C  292   4.395   3.998   4.233
    1C        C  293   4.424   3.937   4.357
    1C        C  294   4.327   4.125   4.477
    1C        C  295   4.390   3.999   4.479
    1C        C  296   4.285   4.189   4.596
    1C        C  297   4.327   4.133   4.719
    1C        C  298   4.198   4.311   4.838
    1C        C  299   4.286   4.197   4.839
    1C        C  300   4.171   4.403   4.943
    1C        C  301   4.345   2.884   2.062
    1C        C  302   4.473   3.064   2.176
    1C        C  303   4.393   2.945   2.178
    1C        C  304   4.478   3.142   2.295
    1C        C  305   4.445   3.076   2.416
    1C        C  306   4.506   3.280   2.536
    1C        C  307   4.472   3.143   2.537
    1C        C  308   4.517   3.354   2.656
    1C        C  309   4.502   3.286   2.779
    1C        C  310   4.525   3.497   2.897
    1C        C  311   4.520   3.356   2.901
    1C        C  312   4.516   3.571   3.017
    1C        C  313   4.511   3.505   3.142
    1C        C  314   4.482   3.716   3.259
    1C        C  315   4.509   3.578   3.263
    1C        C  316   4.468   3.783   3.383
    1C        C  317   4.487   3.720   3.508
    1C        C  318   4.419   3.924   3.624
    1C        C  319   4.470   3.792   3.628
    1C        C  320   4.391   3.984   3.749
    1C        C  321   4.421   3.926   3.874
    1C        C  322   4.315   4.114   3.987
    1C        C  323   4.396   3.999   3.993
    1C        C  324   4.274   4.166   4.112
    1C        C  325   4.318   4.116   4.237
    1C        C  326   4.183   4.283   4.351
    1C        C  327   4.283   4.184   4.356
    1C        C  328   4.134   4.335   4.473
    1C        C  329   4.190   4.293   4.596
    1C        C  330   4.022   4.433   4.713
    1C        C  331   4.134   4.345   4.715
    1C        C  332   3.965   4.484   4.832
    1C        C  333   4.050   4.474   4.942
    1C        C  334   4.549   3.267   2.060
    1C        C  335   4.540   3.127   2.066
    1C        C  336   4.539   3.348   2.174
    1C        C  337   4.511   3.280   2.294
    1C        C  338   4.517   3.493   2.411
    1C        C  339   4.518   3.352   2.415
    1C        C  340   4.514   3.564   2.533
    1C        C  341   4.519   3.495   2.656
    1C        C  342   4.495   3.710   2.771
    1C        C  343   4.518   3.570   2.776
    1C        C  344   4.469   3.776   2.892
    1C        C  345   4.490   3.710   3.015
    1C        C  346   4.416   3.913   3.135
    1C        C  347   4.464   3.780   3.135
    1C        C  348   4.391   3.980   3.257
    1C        C  349   4.422   3.917   3.379
    1C        C  350   4.321   4.107   3.500
    1C        C  351   4.393   3.985   3.499
    1C        C  352   4.274   4.163   3.621
    1C        C  353   4.317   4.104   3.741
    1C        C  354   4.173   4.264   3.864
    1C        C  355   4.271   4.162   3.862
    1C        C  356   4.122   4.315   3.986
    1C        C  357   4.180   4.271   4.107
    1C        C  358   4.016   4.408   4.229
    1C        C  359   4.131   4.326   4.227
    1C        C  360   3.953   4.448   4.349
    1C        C  361   4.017   4.414   4.471
    1C        C  362   3.828   4.516   4.591
    1C        C  363   3.958   4.460   4.590
    1C        C  364   3.761   4.551   4.711
    1C        C  365   3.835   4.541   4.831
    1C        C  366   3.625   4.587   4.951
    1C        C  367   3.763   4.567   4.948
    1C        C  368   4.504   3.564   2.053
    1C        C  369   4.527   3.489   2.170
    1C        C  370   4.502   3.704   2.286
    1C        C  371   4.517   3.564   2.289
    1C        C  372   4.490   3.777   2.407
    1C        C  373   4.501   3.705   2.528
    1C        C  374   4.426   3.907   2.647
    1C        C  375   4.480   3.777   2.647
    1C        C  376   4.392   3.974   2.767
    1C        C  377   4.419   3.909   2.890
    1C        C  378   4.309   4.092   3.009
    1C        C  379   4.386   3.973   3.011
    1C        C  380   4.269   4.150   3.131
    1C        C  381   4.312   4.097   3.255
    1C        C  382   4.172   4.256   3.375
    1C        C  383   4.273   4.157   3.377
    1C        C  384   4.117   4.302   3.496
    1C        C  385   4.171   4.261   3.620
    1C        C  386   4.005   4.391   3.740
    1C        C  387   4.122   4.312   3.742
    1C        C  388   3.940   4.424   3.861
    1C        C  389   4.001   4.389   3.984
    1C        C  390   3.819   4.489   4.107
    1C        C  391   3.948   4.431   4.107
    1C        C  392   3.751   4.517   4.228
    1C        C  393   3.823   4.502   4.349
    1C        C  394   3.618   4.554   4.472
    1C        C  395   3.757   4.530   4.470
    1C        C  396   3.546   4.560   4.594
    1C        C  397   3.620   4.558   4.715
    1C        C  398   3.408   4.545   4.841
    1C        C  399   3.549   4.561   4.836
    1C        C  400   3.341   4.511   4.959
    1C        C  401   4.506   3.703   2.046
    1C        C  402   4.456   3.912   2.165
    1C        C  403   4.495   3.777   2.165
    1C        C  404   4.416   3.978   2.284
    1C        C  405   4.437   3.908   2.405
    1C        C  406   4.320   4.089   2.526
    1C        C  407   4.399   3.972   2.524
    1C        C  408   4.275   4.151   2.644
    1C        C  409   4.320   4.095   2.766
    1C        C  410   4.171   4.250   2.889
    1C        C  411   4.273   4.152   2.886
    1C        C  412   4.114   4.297   3.009
    1C        C  413   4.175   4.255   3.130
    1C        C  414   4.002   4.377   3.251
    1C        C  415   4.122   4.302   3.252
    1C        C  416   3.940   4.418   3.372
    1C        C  417   4.003   4.386   3.494
    1C        C  418   3.813   4.479   3.615
    1C        C  419   3.943   4.424   3.617
    1C        C  420   3.746   4.505   3.737
    1C        C  421   3.812   4.485   3.860
    1C        C  422   3.612   4.532   3.986
    1C        C  423   3.751   4.506   3.985
    1C        C  424   3.539   4.541   4.107
    1C        C  425   3.611   4.538   4.228
    1C        C  426   3.403   4.547   4.355
    1C        C  427   3.544   4.553   4.352
    1C        C  428   3.333   4.542   4.478
    1C        C  429   3.405   4.556   4.599
    1C        C  430   3.195   4.520   4.722
    1C        C  431   3.335   4.545   4.720
    1C        C  432   3.124   4.493   4.842
    1C        C  433   3.203   4.494   4.958
    1C        C  434   4.379   4.116   2.051
    1C        C  435   4.444   3.992   2.051
    1C        C  436   4.302   4.161   2.163
    1C        C  437   4.334   4.094   2.285
    1C        C  438   4.181   4.248   2.400
    1C        C  439   4.278   4.146   2.403
    1C        C  440   4.124   4.294   2.521
    1C        C  441   4.175   4.252   2.646
    1C        C  442   4.000   4.375   2.761
    1C        C  443   4.117   4.295   2.767
    1C        C  444   3.940   4.411   2.883
    1C        C  445   3.999   4.379   3.008
    1C        C  446   3.808   4.466   3.125
    1C        C  447   3.939   4.415   3.131
    1C        C  448   3.743   4.483   3.250
    1C        C  449   3.808   4.470   3.374
    1C        C  450   3.603   4.527   3.493
    1C        C  451   3.741   4.498   3.495
    1C        C  452   3.539   4.539   3.619
    1C        C  453   3.608   4.532   3.743
    1C        C  454   3.397   4.538   3.862
    1C        C  455   3.538   4.539   3.866
    1C        C  456   3.332   4.530   3.987
    1C        C  457   3.398   4.538   4.112
    1C        C  458   3.193   4.499   4.234
    1C        C  459   3.329   4.536   4.235
    1C        C  460   3.130   4.485   4.359
    1C        C  461   3.195   4.512   4.482
    1C        C  462   2.995   4.438   4.599
    1C        C  463   3.124   4.494   4.602
    1C        C  464   2.929   4.405   4.720
    1C        C  465   2.989   4.444   4.843
    1C        C  466   2.798   4.338   4.954
    1C        C  467   2.903   4.431   4.956
    1C        C  468   4.118   4.279   2.040
    1C        C  469   4.187   4.246   2.157
    1C        C  470   4.008   4.370   2.278
    1C        C  471   4.128   4.294   2.277
    1C        C  472   3.942   4.403   2.399
    1C        C  473   4.007   4.373   2.521
    1C        C  474   3.810   4.468   2.642
    1C        C  475   3.940   4.412   2.639
    1C        C  476   3.744   4.497   2.763
    1C        C  477   3.810   4.468   2.885
    1C        C  478   3.602   4.521   3.009
    1C        C  479   3.740   4.495   3.004
    1C        C  480   3.532   4.529   3.131
    1C        C  481   3.605   4.514   3.251
    1C        C  482   3.391   4.527   3.378
    1C        C  483   3.532   4.528   3.371
    1C        C  484   3.322   4.531   3.501
    1C        C  485   3.398   4.544   3.620
    1C        C  486   3.187   4.500   3.744
    1C        C  487   3.325   4.531   3.740
    1C        C  488   3.124   4.479   3.869
    1C        C  489   3.195   4.496   3.990
    1C        C  490   3.001   4.409   4.114
    1C        C  491   3.127   4.473   4.112
    1C        C  492   2.945   4.375   4.239
    1C        C  493   3.004   4.421   4.359
    1C        C  494   2.829   4.300   4.483
    1C        C  495   2.934   4.394   4.479
    1C        C  496   2.772   4.254   4.604
    1C        C  497   2.817   4.318   4.721
    1C        C  498   2.664   4.164   4.843
    1C        C  499   2.750   4.276   4.838
    1C        C  500   2.596   4.115   4.955
    1C        C  501   3.998   4.349   2.040
    1C        C  502   3.813   4.459   2.155
    1C        C  503   3.941   4.400   2.157
    1C        C  504   3.740   4.472   2.275
    1C        C  505   3.809   4.449   2.396
    1C        C  506   3.603   4.496   2.521
    1C        C  507   3.742   4.474   2.518
    1C        C  508   3.529   4.510   2.641
    1C        C  509   3.604   4.515   2.761
    1C        C  510   3.393   4.520   2.884
    1C        C  511   3.535   4.519   2.884
    1C        C  512   3.321   4.519   3.006
    1C        C  513   3.391   4.525   3.129
    1C        C  514   3.187   4.488   3.255
    1C        C  515   3.324   4.521   3.253
    1C        C  516   3.118   4.461   3.375
    1C        C  517   3.186   4.494   3.495
    1C        C  518   3.000   4.406   3.625
    1C        C  519   3.123   4.475   3.620
    1C        C  520   2.937   4.370   3.746
    1C        C  521   3.000   4.412   3.866
    1C        C  522   2.837   4.282   3.996
    1C        C  523   2.943   4.374   3.990
    1C        C  524   2.790   4.229   4.118
    1C        C  525   2.840   4.281   4.240
    1C        C  526   2.694   4.133   4.363
    1C        C  527   2.780   4.245   4.362
    1C        C  528   2.650   4.076   4.484
    1C        C  529   2.685   4.143   4.604
    1C        C  530   2.583   3.959   4.728
    1C        C  531   2.636   4.091   4.725
    1C        C  532   2.539   3.899   4.850
    1C        C  533   2.523   3.995   4.955
    1C        C  534   3.620   4.557   2.041
    1C        C  535   3.751   4.509   2.039
    1C        C  536   3.535   4.530   2.153
    1C        C  537   3.602   4.507   2.276
    1C        C  538   3.392   4.518   2.399
    1C        C  539   3.533   4.509   2.399
    1C        C  540   3.319   4.506   2.519
    1C        C  541   3.388   4.515   2.642
    1C        C  542   3.180   4.485   2.766
    1C        C  543   3.318   4.512   2.765
    1C        C  544   3.114   4.459   2.888
    1C        C  545   3.184   4.483   3.008
    1C        C  546   2.994   4.399   3.136
    1C        C  547   3.121   4.462   3.133
    1C        C  548   2.930   4.360   3.255
    1C        C  549   2.993   4.396   3.377
    1C        C  550   2.831   4.275   3.507
    1C        C  551   2.942   4.363   3.504
    1C        C  552   2.775   4.229   3.627
    1C        C  553   2.827   4.281   3.747
    1C        C  554   2.704   4.118   3.877
    1C        C  555   2.789   4.231   3.873
    1C        C  556   2.659   4.061   3.998
    1C        C  557   2.699   4.121   4.119
    1C        C  558   2.594   3.941   4.245
    1C        C  559   2.657   4.067   4.243
    1C        C  560   2.566   3.877   4.368
    1C        C  561   2.589   3.949   4.488
    1C        C  562   2.530   3.746   4.612
    1C        C  563   2.564   3.884   4.610
    1C        C  564   2.509   3.679   4.734
    1C        C  565   2.514   3.758   4.852
    1C        C  566   2.526   3.548   4.976
    1C        C  567   2.521   3.687   4.972
    1C        C  568   3.324   4.478   2.039
    1C        C  569   3.394   4.511   2.155
    1C        C  570   3.183   4.474   2.278
    1C        C  571   3.321   4.510   2.277
    1C        C  572   3.111   4.459   2.399
    1C        C  573   3.180   4.478   2.520
    1C        C  574   2.989   4.395   2.643
    1C        C  575   3.112   4.465   2.643
    1C        C  576   2.932   4.354   2.765
    1C        C  577   2.991   4.390   2.889
    1C        C  578   2.820   4.276   3.012
    1C        C  579   2.933   4.361   3.014
    1C        C  580   2.772   4.225   3.134
    1C        C  581   2.822   4.270   3.259
    1C        C  582   2.695   4.111   3.381
    1C        C  583   2.780   4.224   3.385
    1C        C  584   2.659   4.054   3.505
    1C        C  585   2.694   4.113   3.629
    1C        C  586   2.595   3.934   3.754
    1C        C  587   2.663   4.058   3.755
    1C        C  588   2.562   3.870   3.876
    1C        C  589   2.592   3.936   3.997
    1C        C  590   2.537   3.738   4.125
    1C        C  591   2.571   3.875   4.122
    1C        C  592   2.526   3.666   4.247
    1C        C  593   2.533   3.740   4.367
    1C        C  594   2.513   3.533   4.494
    1C        C  595   2.517   3.674   4.491
    1C        C  596   2.521   3.463   4.616
    1C        C  597   2.517   3.537   4.736
    1C        C  598   2.532   3.329   4.858
    1C        C  599   2.523   3.469   4.860
    1C        C  600   2.529   3.250   4.974
    1C        C  601   3.192   4.437   2.044
    1C        C  602   2.978   4.391   2.155
    1C        C  603   3.115   4.432   2.161
    1C        C  604   2.922   4.356   2.282
    1C        C  605   2.985   4.396   2.402
    1C        C  606   2.817   4.264   2.527
    1C        C  607   2.924   4.357   2.523
    1C        C  608   2.768   4.219   2.651
    1C        C  609   2.821   4.267   2.772
    1C        C  610   2.683   4.106   2.893
    1C        C  611   2.768   4.218   2.894
    1C        C  612   2.650   4.051   3.020
    1C        C  613   2.687   4.112   3.142
    1C        C  614   2.589   3.921   3.263
    1C        C  615   2.649   4.049   3.262
    1C        C  616   2.566   3.865   3.391
    1C        C  617   2.595   3.928   3.514
    1C        C  618   2.528   3.727   3.632
    1C        C  619   2.567   3.863   3.636
    1C        C  620   2.517   3.665   3.759
    1C        C  621   2.529   3.733   3.882
    1C        C  622   2.512   3.523   4.003
    1C        C  623   2.525   3.664   4.006
    1C        C  624   2.515   3.457   4.128
    1C        C  625   2.519   3.525   4.252
    1C        C  626   2.536   3.317   4.374
    1C        C  627   2.516   3.457   4.375
    1C        C  628   2.550   3.248   4.497
    1C        C  629   2.535   3.322   4.616
    1C        C  630   2.597   3.121   4.740
    1C        C  631   2.548   3.254   4.739
    1C        C  632   2.617   3.052   4.862
    1C        C  633   2.560   3.113   4.978
    1C        C  634   2.781   4.302   2.051
    1C        C  635   2.887   4.392   2.044
    1C        C  636   2.746   4.228   2.165
    1C        C  637   2.808   4.272   2.284
    1C        C  638   2.670   4.109   2.407
    1C        C  639   2.761   4.218   2.406
    1C        C  640   2.638   4.046   2.529
    1C        C  641   2.681   4.107   2.648
    1C        C  642   2.583   3.920   2.774
    1C        C  643   2.644   4.047   2.771
    1C        C  644   2.562   3.855   2.898
    1C        C  645   2.587   3.925   3.018
    1C        C  646   2.524   3.721   3.148
    1C        C  647   2.564   3.857   3.140
    1C        C  648   2.510   3.655   3.272
    1C        C  649   2.524   3.730   3.392
    1C        C  650   2.508   3.514   3.516
    1C        C  651   2.516   3.655   3.511
    1C        C  652   2.514   3.450   3.642
    1C        C  653   2.515   3.524   3.763
    1C        C  654   2.531   3.309   3.888
    1C        C  655   2.515   3.449   3.883
    1C        C  656   2.549   3.245   4.012
    1C        C  657   2.537   3.317   4.133
    1C        C  658   2.610   3.116   4.255
    1C        C  659   2.555   3.246   4.253
    1C        C  660   2.641   3.055   4.378
    1C        C  661   2.600   3.116   4.499
    1C        C  662   2.706   2.932   4.625
    1C        C  663   2.632   3.053   4.621
    1C        C  664   2.748   2.876   4.748
    1C        C  665   2.694   2.931   4.867
    1C        C  666   2.739   2.870   4.984
    1C        C  667   2.677   4.021   2.048
    1C        C  668   2.686   4.100   2.163
    1C        C  669   2.592   3.911   2.286
    1C        C  670   2.644   4.043   2.285
    1C        C  671   2.563   3.846   2.409
    1C        C  672   2.583   3.916   2.530
    1C        C  673   2.518   3.716   2.655
    1C        C  674   2.554   3.852   2.653
    1C        C  675   2.511   3.648   2.779
    1C        C  676   2.532   3.717   2.900
    1C        C  677   2.503   3.512   3.027
    1C        C  678   2.516   3.653   3.025
    1C        C  679   2.504   3.443   3.150
    1C        C  680   2.500   3.514   3.271
    1C        C  681   2.530   3.304   3.398
    1C        C  682   2.507   3.444   3.394
    1C        C  683   2.551   3.239   3.522
    1C        C  684   2.535   3.310   3.643
    1C        C  685   2.599   3.109   3.768
    1C        C  686   2.548   3.241   3.765
    1C        C  687   2.635   3.047   3.890
    1C        C  688   2.600   3.113   4.011
    1C        C  689   2.709   2.930   4.136
    1C        C  690   2.635   3.050   4.132
    1C        C  691   2.755   2.876   4.258
    1C        C  692   2.714   2.934   4.381
    1C        C  693   2.754   2.878   4.504
    1C        C  694   2.630   3.889   2.053
    1C        C  695   2.530   3.700   2.173
    1C        C  696   2.575   3.834   2.169
    1C        C  697   2.512   3.633   2.297
    1C        C  698   2.523   3.711   2.414
    1C        C  699   2.490   3.501   2.539
    1C        C  700   2.503   3.642   2.536
    1C        C  701   2.505   3.431   2.661
    1C        C  702   2.501   3.507   2.781
    1C        C  703   2.524   3.301   2.910
    1C        C  704   2.504   3.440   2.905
    1C        C  705   2.543   3.229   3.030
    1C        C  706   2.535   3.305   3.149
    1C        C  707   2.599   3.107   3.278
    1C        C  708   2.550   3.240   3.274
    1C        C  709   2.635   3.045   3.400
    1C        C  710   2.603   3.108   3.522
    1C        C  711   2.711   2.930   3.647
    1C        C  712   2.631   3.046   3.646
    1C        C  713   2.758   2.874   3.768
    1C        C  714   2.714   2.930   3.890
    1C        C  715   2.753   2.874   4.014
    1C        C  716   2.449   3.499   2.061
    1C        C  717   2.490   3.633   2.057
    1C        C  718   2.468   3.420   2.179
    1C        C  719   2.486   3.493   2.299
    1C        C  720   2.513   3.284   2.419
    1C        C  721   2.488   3.423   2.421
    1C        C  722   2.531   3.220   2.543
    1C        C  723   2.521   3.291   2.665
    1C        C  724   2.587   3.095   2.787
    1C        C  725   2.535   3.227   2.790
    1C        C  726   2.623   3.036   2.910
    1C        C  727   2.593   3.097   3.034
    1C        C  728   2.703   2.921   3.155
    1C        C  729   2.621   3.037   3.158
    1C        C  730   2.750   2.871   3.278
    1C        C  731   2.708   2.924   3.403
    1C        C  732   2.754   2.871   3.526
    1C        C  733   2.488   3.194   2.068
    1C        C  734   2.489   3.278   2.180
    1C        C  735   2.587   3.082   2.301
    1C        C  736   2.530   3.212   2.298
    1C        C  737   2.614   3.019   2.425
    1C        C  738   2.587   3.090   2.544
    1C        C  739   2.697   2.909   2.670
    1C        C  740   2.621   3.028   2.667
    1C        C  741   2.737   2.852   2.793
    1C        C  742   2.698   2.917   2.912
    1C        C  743   2.751   2.867   3.034
    1C        C  744   2.547   3.068   2.067
    1C        C  745   2.681   2.891   2.183
    1C        C  746   2.607   3.011   2.181
    1C        C  747   2.725   2.834   2.305
    1C        C  748   2.680   2.895   2.425
    1C        C  749   2.733   2.849   2.548
    1C        C  750   2.734   2.834   2.067
    1C        C  751   3.659   2.323   1.964
    1C        O  752   3.631   2.201   1.979
    1C        O  753   3.682   2.354   1.829
    1C        C  754   4.635   3.053   1.980
    1C        O  755   4.633   3.069   1.855
    1C        O  756   4.763   3.039   2.035
    1C        C  757   4.450   4.207   1.959
    1C        O  758   4.526   4.300   1.998
    1C        O  759   4.429   4.196   1.821
    1C        C  760   3.606   4.684   1.967
    1C        O  761   3.503   4.755   1.977
    1C        O  762   3.649   4.701   1.835
    1C        C  763   2.871   4.510   1.956
    1C        O  764   2.812   4.495   1.846
    1C        O  765   2.833   4.636   2.004
    1C        C  766   2.352   3.456   1.958
    1C        O  767   2.391   3.438   1.839
    1C        O  768   2.221   3.424   1.993
    1C        C  769   4.715   3.589   5.026
    1C        O  770   4.711   3.537   5.141
    1C        O  771   4.839   3.651   5.007
    1C        C  772   4.276   4.472   5.022
    1C        O  773   4.256   4.482   5.146
    1C        O  774   4.337   4.586   4.967
    1C        C  775   4.141   2.537   5.077
    1C        O  776   4.195   2.428   5.045
    1C        O  777   4.100   2.521   5.210
    1C        C  778   2.877   4.548   5.044
    1C        O  779   2.797   4.641   5.014
    1C        O  780   2.893   4.527   5.181
    1C        C  781   2.483   3.037   5.079
    1C        O  782   2.371   2.983   5.052
    1C        O  783   2.506   3.059   5.214
    1C        C  784   2.406   3.983   5.045
    1C        O  785   2.292   4.036   5.040
    1C        O  786   2.432   3.958   5.180
    1C        C  787   2.946   2.428   1.995
    1C        O  788   2.978   2.384   1.882
    1C        O  789   2.890   2.318   2.059
    1C        C  790   3.153   2.357   5.030
    1C        O  791   3.152   2.253   4.959
    1C        O  792   3.189   2.307   5.156
    1C        H  793   4.286   3.019   5.066
    1C        H  794   4.169   2.819   5.069
    1C        H  795   4.534   3.122   5.041
    1C        H  796   4.536   3.359   5.064
    1C        H  797   4.509   3.787   5.050
    1C        H  798   4.403   3.963   5.049
    1C        H  799   4.315   4.188   5.047
    1C        H  800   4.022   4.520   5.035
    1C        H  801   3.806   4.555   5.045
    1C        H  802   3.579   4.641   5.031
    1C        H  803   3.395   4.447   5.026
    1C        H  804   3.148   4.516   5.046
    1C        H  805   3.879   2.477   5.056
    1C        H  806   3.672   2.466   5.074
    1C        H  807   3.027   2.596   5.074
    1C        H  808   3.440   2.463   5.077
    1C        H  809   2.872   2.751   5.085
    1C        H  810   2.682   2.876   5.074
    1C        H  811   2.509   3.296   5.069
    1C        H  812   2.558   3.504   5.067
    1C        H  813   2.495   3.743   5.060
    1C        H  814   2.566   4.187   5.028
    1C        H  815   2.743   4.326   5.045
    1C        H  816   2.741   2.894   1.979
    1C        H  817   2.794   2.651   1.995
    1C        H  818   3.219   2.466   1.982
    1C        H  819   3.439   2.476   1.981
    1C        H  820   3.872   2.481   1.978
    1C        H  821   4.066   2.618   1.969
    1C        H  822   4.280   2.695   1.988
    1C        H  823   4.327   2.947   1.977
    1C        H  824   4.515   3.310   1.968
    1C        H  825   4.491   3.513   1.960
    1C        H  826   4.569   3.742   1.969
    1C        H  827   3.820   4.541   1.964
    1C        H  828   3.946   4.356   1.947
    1C        H  829   4.170   4.277   1.946
    1C        H  830   4.532   3.985   1.991
    1C        H  831   2.651   3.835   1.963
    1C        H  832   2.673   4.069   1.952
    1C        H  833   2.704   4.309   1.977
    1C        H  834   3.368   4.464   1.942
    1C        H  835   3.145   4.426   1.949
    1C        H  836   2.494   3.001   2.003
    1C        H  837   2.408   3.205   1.997
    1C        H  838   2.460   3.693   1.974
    2V3OU   H29  839   2.808   3.548   0.654
    2V3OU   C27  840   2.780   3.504   0.754
    2V3OU   H27  841   2.719   3.570   0.821
    2V3OU   H28  842   2.729   3.405   0.739
    2V3OU   O11  843   2.907   3.486   0.816
    2V3OU   C15  844   2.918   3.395   0.919
    2V3OU   C13  845   3.049   3.378   0.968
    2V3OU   C14  846   3.073   3.263   1.045
    2V3OU   C16  847   2.966   3.184   1.086
    2V3OU    H6  848   2.989   3.092   1.143
    2V3OU   C12  849   3.211   3.229   1.085
    2V3OU    O2  850   3.242   3.124   1.145
    2V3OU   C10  851   3.325   3.311   1.041
    2V3OU    C8  852   3.457   3.273   1.062
    2V3OU   O10  853   3.488   3.160   1.131
    2V3OU   H26  854   3.404   3.119   1.160
    2V3OU    C6  855   3.565   3.353   1.013
    2V3OU    C5  856   3.532   3.467   0.940
    2V3OU    C4  857   3.702   3.295   1.001
    2V3OU    H4  858   3.723   3.228   1.090
    2V3OU    H5  859   3.716   3.230   0.910
    2V3OU    C2  860   3.816   3.397   1.010
    2V3OU    O6  861   3.806   3.477   1.128
    2V3OU   H21  862   3.755   3.556   1.105
    2V3OU    C3  863   3.780   3.494   0.897
    2V3OU    H2  864   3.855   3.577   0.890
    2V3OU    H3  865   3.783   3.440   0.800
    2V3OU   C25  866   3.950   3.325   0.990
    2V3OU    O7  867   3.994   3.297   0.879
    2V3OU   C26  868   4.028   3.283   1.113
    2V3OU   H22  869   4.065   3.375   1.165
    2V3OU   H23  870   4.121   3.228   1.082
    2V3OU    O8  871   3.957   3.205   1.207
    2V3OU   H24  872   3.925   3.268   1.274
    2V3OU    C1  873   3.644   3.561   0.908
    2V3OU    H1  874   3.623   3.618   0.813
    2V3OU    O3  875   3.660   3.652   1.018
    2V3OU   C19  876   3.616   3.788   1.009
    2V3OU    H9  877   3.517   3.806   0.958
    2V3OU    O4  878   3.710   3.850   0.924
    2V3OU   C20  879   3.844   3.869   0.971
    2V3OU   H10  880   3.898   3.770   0.979
    2V3OU   C24  881   3.610   3.849   1.149
    2V3OU   H16  882   3.542   3.787   1.214
    2V3OU   H17  883   3.561   3.950   1.146
    2V3OU   C23  884   3.750   3.872   1.205
    2V3OU   H15  885   3.793   3.769   1.230
    2V3OU    N1  886   3.734   3.948   1.327
    2V3OU   H19  887   3.807   3.924   1.391
    2V3OU   H20  888   3.645   3.927   1.368
    2V3OU   C21  889   3.844   3.944   1.104
    2V3OU   H11  890   3.950   3.926   1.140
    2V3OU    O5  891   3.824   4.085   1.103
    2V3OU   H18  892   3.782   4.098   1.190
    2V3OU   C22  893   3.911   3.949   0.861
    2V3OU   H12  894   3.861   4.047   0.847
    2V3OU   H13  895   3.906   3.892   0.765
    2V3OU   H14  896   4.021   3.955   0.881
    2V3OU   C11  897   3.157   3.474   0.942
    2V3OU    O1  898   3.141   3.589   0.896
    2V3OU    C9  899   3.296   3.428   0.966
    2V3OU    C7  900   3.398   3.508   0.915
    2V3OU    O9  901   3.382   3.613   0.826
    2V3OU   H25  902   3.287   3.632   0.835
    2V3OU   C17  903   2.809   3.314   0.960
    2V3OU    H7  904   2.706   3.343   0.938
    2V3OU   C18  905   2.835   3.211   1.048
    2V3OU    H8  906   2.756   3.142   1.082
    3SOL     OW  907   0.695   4.882   1.262
    3SOL    HW1  908   0.673   4.793   1.221
    3SOL    HW2  909   0.794   4.890   1.272
    4SOL     OW  910   6.142   1.782   2.329
    4SOL    HW1  911   6.238   1.794   2.353
    4SOL    HW2  912   6.130   1.795   2.231
    5SOL     OW  913   3.733   2.960   0.727
    5SOL    HW1  914   3.706   2.891   0.794
    5SOL    HW2  915   3.657   2.977   0.664
    6SOL     OW  916   3.387   2.161   0.427
    6SOL    HW1  917   3.483   2.186   0.424
    6SOL    HW2  918   3.335   2.233   0.473
    7SOL     OW  919   5.519   0.905   1.960
    7SOL    HW1  920   5.575   0.858   1.891
    7SOL    HW2  921   5.547   0.875   2.051
    8SOL     OW  922   3.227   2.180   3.198
    8SOL    HW1  923   3.136   2.221   3.207
    8SOL    HW2  924   3.294   2.251   3.177
    9SOL     OW  925   6.348   4.206   6.686
    9SOL    HW1  926   6.320   4.288   6.737
    9SOL    HW2  927   6.338   4.126   6.745
   10SOL     OW  928   6.982   4.231   1.848
   10SOL    HW1  929   0.046   4.278   1.877
   10SOL    HW2  930   6.942   4.279   1.770
   11SOL     OW  931   3.912   0.082   7.005
   11SOL    HW1  932   3.967   0.164   0.003
   11SOL    HW2  933   3.973   0.004   6.990
   12SOL     OW  934   5.429   6.917   2.277
   12SOL    HW1  935   5.435   6.847   2.206
   12SOL    HW2  936   5.355   6.894   2.340
   13SOL     OW  937   2.110   6.763   2.349
   13SOL    HW1  938   2.178   6.769   2.423
   13SOL    HW2  939   2.034   6.824   2.369
   14SOL     OW  940   2.741   0.385   3.098
   14SOL    HW1  941   2.810   0.451   3.068
   14SOL    HW2  942   2.651   0.413   3.066
   15SOL     OW  943   2.677   0.026   6.412
   15SOL    HW1  944   2.582   0.000   6.399
   15SOL    HW2  945   2.736   6.992   6.352
   16SOL     OW  946   6.100   1.647   0.602
   16SOL    HW1  947   6.045   1.714   0.652
   16SOL    HW2  948   6.197   1.670   0.611
   17SOL     OW  949   4.247   5.605   4.017
   17SOL    HW1  950   4.185   5.531   3.992
   17SOL    HW2  951   4.296   5.637   3.936
   18SOL     OW  952   1.528   0.358   6.961
   18SOL    HW1  953   1.574   0.270   6.971
   18SOL    HW2  954   1.442   0.357   7.013
   19SOL     OW  955   0.318   6.836   0.896
   19SOL    HW1  956   0.235   6.866   0.942
   19SOL    HW2  957   0.293   6.785   0.814
   20SOL     OW  958   3.376   0.259   4.527
   20SOL    HW1  959   3.391   0.288   4.433
   20SOL    HW2  960   3.278   0.261   4.547
   21SOL     OW  961   2.826   2.895   1.260
   21SOL    HW1  962   2.790   2.965   1.323
   21SOL    HW2  963   2.923   2.881   1.278
   22SOL     OW  964   1.757   0.694   5.189
   22SOL    HW1  965   1.849   0.711   5.223
   22SOL    HW2  966   1.698   0.665   5.264
   23SOL     OW  967   2.364   6.584   4.407
   23SOL    HW1  968   2.381   6.673   4.365
   23SOL    HW2  969   2.388   6.511   4.343
   24SOL     OW  970   4.792   1.531   4.966
   24SOL    HW1  971   4.869   1.593   4.982
   24SOL    HW2  972   4.746   1.557   4.881
   25SOL     OW  973   2.386   6.159   0.885
   25SOL    HW1  974   2.312   6.093   0.873
   25SOL    HW2  975   2.469   6.111   0.914
   26SOL     OW  976   6.133   1.227   2.813
   26SOL    HW1  977   6.061   1.158   2.808
   26SOL    HW2  978   6.201   1.199   2.880
   27SOL     OW  979   5.806   6.996   2.327
   27SOL    HW1  980   5.771   0.059   2.283
   27SOL    HW2  981   5.901   6.981   2.301
   28SOL     OW  982   2.563   1.406   0.308
   28SOL    HW1  983   2.525   1.441   0.393
   28SOL    HW2  984   2.626   1.331   0.327
   29SOL     OW  985   4.929   3.055   1.802
   29SOL    HW1  986   4.839   3.051   1.847
   29SOL    HW2  987   4.997   3.009   1.860
   30SOL     OW  988   4.137   1.468   6.670
   30SOL    HW1  989   4.050   1.419   6.679
   30SOL    HW2  990   4.212   1.403   6.658
   31SOL     OW  991   1.082   1.868   5.481
   31SOL    HW1  992   1.156   1.910   5.428
   31SOL    HW2  993   1.008   1.934   5.494
   32SOL     OW  994   6.499   1.641   2.360
   32SOL    HW1  995   6.498   1.563   2.298
   32SOL    HW2  996   6.567   1.626   2.432
   33SOL     OW  997   1.478   1.241   4.830
   33SOL    HW1  998   1.383   1.264   4.848
   33SOL    HW2  999   1.536   1.320   4.849
   34SOL     OW 1000   0.863   0.714   4.669
   34SOL    HW1 1001   0.776   0.733   4.714
   34SOL    HW2 1002   0.919   0.656   4.727
   35SOL     OW 1003   4.791   2.382   6.432
   35SOL    HW1 1004   4.852   2.429   6.496
   35SOL    HW2 1005   4.828   2.391   6.339
   36SOL     OW 1006   0.882   2.659   6.150
   36SOL    HW1 1007   0.847   2.752   6.155
   36SOL    HW2 1008   0.967   2.658   6.097
   37SOL     OW 1009   3.275   6.701   1.863
   37SOL    HW1 1010   3.309   6.780   1.915
   37SOL    HW2 1011   3.208   6.651   1.919
   38SOL     OW 1012   6.762   5.659   1.680
   38SOL    HW1 1013   6.692   5.691   1.744
   38SOL    HW2 1014   6.833   5.729   1.671
   39SOL     OW 1015   0.010   2.713   6.428
   39SOL    HW1 1016   6.958   2.663   6.380
   39SOL    HW2 1017   0.099   2.689   6.389
   40SOL     OW 1018   0.117   1.584   1.842
   40SOL    HW1 1019   0.042   1.519   1.850
   40SOL    HW2 1020   0.197   1.537   1.804
   41SOL     OW 1021   0.718   1.476   6.257
   41SOL    HW1 1022   0.674   1.387   6.263
   41SOL    HW2 1023   0.817   1.465   6.267
   42SOL     OW 1024   3.968   6.603   0.553
   42SOL    HW1 1025   3.991   6.543   0.630
   42SOL    HW2 1026   4.031   6.681   0.552
   43SOL     OW 1027   4.671   5.597   5.746
   43SOL    HW1 1028   4.669   5.523   5.813
   43SOL    HW2 1029   4.648   5.683   5.791
   44SOL     OW 1030   0.960   4.554   6.916
   44SOL    HW1 1031   1.019   4.534   6.838
   44SOL    HW2 1032   0.869   4.516   6.899
   45SOL     OW 1033   2.590   0.044   1.007
   45SOL    HW1 1034   2.627   6.982   1.050
   45SOL    HW2 1035   2.544   0.019   0.922
   46SOL     OW 1036   0.522   5.536   3.745
   46SOL    HW1 1037   0.595   5.520   3.811
   46SOL    HW2 1038   0.530   5.629   3.708
   47SOL     OW 1039   6.702   4.318   2.537
   47SOL    HW1 1040   6.704   4.286   2.442
   47SOL    HW2 1041   6.617   4.368   2.554
   48SOL     OW 1042   0.688   1.756   5.347
   48SOL    HW1 1043   0.723   1.730   5.257
   48SOL    HW2 1044   0.655   1.674   5.394
   49SOL     OW 1045   5.836   3.325   7.008
   49SOL    HW1 1046   5.855   3.346   0.084
   49SOL    HW2 1047   5.915   3.349   6.952
   50SOL     OW 1048   0.683   3.960   4.803
   50SOL    HW1 1049   0.775   3.985   4.832
   50SOL    HW2 1050   0.653   4.022   4.730
   51SOL     OW 1051   2.875   6.285   1.814
   51SOL    HW1 1052   2.934   6.227   1.870
   51SOL    HW2 1053   2.786   6.241   1.802
   52SOL     OW 1054   0.662   2.172   2.323
   52SOL    HW1 1055   0.760   2.183   2.311
   52SOL    HW2 1056   0.614   2.201   2.240
   53SOL     OW 1057   4.552   6.704   3.746
   53SOL    HW1 1058   4.531   6.768   3.672
   53SOL    HW2 1059   4.587   6.754   3.825
   54SOL     OW 1060   4.516   4.755   5.448
   54SOL    HW1 1061   4.609   4.792   5.440
   54SOL    HW2 1062   4.506   4.678   5.386
   55SOL     OW 1063   4.111   2.234   1.208
   55SOL    HW1 1064   4.105   2.287   1.293
   55SOL    HW2 1065   4.124   2.137   1.230
   56SOL     OW 1066   0.153   0.733   1.849
   56SOL    HW1 1067   0.112   0.727   1.940
   56SOL    HW2 1068   0.240   0.782   1.854
   57SOL     OW 1069   5.166   0.565   6.933
   57SOL    HW1 1070   5.071   0.589   6.914
   57SOL    HW2 1071   5.185   0.473   6.899
   58SOL     OW 1072   0.030   0.885   6.957
   58SOL    HW1 1073   0.067   0.977   6.973
   58SOL    HW2 1074   6.962   0.893   6.908
   59SOL     OW 1075   0.132   6.951   5.896
   59SOL    HW1 1076   0.120   6.852   5.901
   59SOL    HW2 1077   0.115   6.982   5.803
   60SOL     OW 1078   4.608   6.856   5.117
   60SOL    HW1 1079   4.704   6.884   5.113
   60SOL    HW2 1080   4.592   6.780   5.054
   61SOL     OW 1081   3.526   6.998   5.483
   61SOL    HW1 1082   3.444   7.001   5.426
   61SOL    HW2 1083   3.511   0.033   5.565
   62SOL     OW 1084   2.939   0.061   4.600
   62SOL    HW1 1085   2.881   0.084   4.677
   62SOL    HW2 1086   2.883   0.024   4.525
   63SOL     OW 1087   6.893   3.412   4.444
   63SOL    HW1 1088   6.909   3.508   4.466
   63SOL    HW2 1089   6.980   3.363   4.445
   64SOL     OW 1090   6.881   2.210   5.656
   64SOL    HW1 1091   6.931   2.291   5.686
   64SOL    HW2 1092   6.899   2.134   5.719
   65SOL     OW 1093   1.501   4.609   5.232
   65SOL    HW1 1094   1.418   4.561   5.204
   65SOL    HW2 1095   1.482   4.707   5.237
   66SOL     OW 1096   2.798   0.791   1.453
   66SOL    HW1 1097   2.701   0.800   1.474
   66SOL    HW2 1098   2.813   0.806   1.355
   67SOL     OW 1099   4.569   5.386   4.315
   67SOL    HW1 1100   4.492   5.410   4.256
   67SOL    HW2 1101   4.563   5.289   4.339
   68SOL     OW 1102   5.231   2.793   6.969
   68SOL    HW1 1103   5.289   2.769   0.028
   68SOL    HW2 1104   5.169   2.716   6.949
   69SOL     OW 1105   2.489   3.216   5.624
   69SOL    HW1 1106   2.526   3.228   5.532
   69SOL    HW2 1107   2.535   3.139   5.669
   70SOL     OW 1108   5.981   0.820   3.002
   70SOL    HW1 1109   5.987   0.837   3.101
   70SOL    HW2 1110   5.911   0.751   2.984
   71SOL     OW 1111   1.628   4.462   1.853
   71SOL    HW1 1112   1.558   4.410   1.803
   71SOL    HW2 1113   1.699   4.400   1.885
   72SOL     OW 1114   4.146   5.855   3.800
   72SOL    HW1 1115   4.226   5.812   3.757
   72SOL    HW2 1116   4.176   5.936   3.850
   73SOL     OW 1117   3.642   2.961   6.694
   73SOL    HW1 1118   3.702   2.968   6.615
   73SOL    HW2 1119   3.693   2.925   6.772
   74SOL     OW 1120   4.995   0.261   5.407
   74SOL    HW1 1121   4.948   0.214   5.482
   74SOL    HW2 1122   4.931   0.275   5.332
   75SOL     OW 1123   3.504   5.731   5.624
   75SOL    HW1 1124   3.463   5.703   5.538
   75SOL    HW2 1125   3.585   5.788   5.606
   76SOL     OW 1126   2.755   2.564   0.862
   76SOL    HW1 1127   2.739   2.638   0.798
   76SOL    HW2 1128   2.807   2.598   0.941
   77SOL     OW 1129   5.883   3.859   6.707
   77SOL    HW1 1130   5.914   3.882   6.615
   77SOL    HW2 1131   5.888   3.941   6.765
   78SOL     OW 1132   6.065   0.169   5.500
   78SOL    HW1 1133   6.145   0.223   5.474
   78SOL    HW2 1134   6.089   0.109   5.576
   79SOL     OW 1135   3.235   6.026   0.694
   79SOL    HW1 1136   3.151   5.971   0.691
   79SOL    HW2 1137   3.287   6.001   0.776
   80SOL     OW 1138   6.982   1.209   4.349
   80SOL    HW1 1139   7.020   1.129   4.302
   80SOL    HW2 1140   0.028   1.243   4.416
   81SOL     OW 1141   1.322   5.809   2.968
   81SOL    HW1 1142   1.276   5.884   2.920
   81SOL    HW2 1143   1.385   5.847   3.035
   82SOL     OW 1144   6.435   4.228   5.903
   82SOL    HW1 1145   6.512   4.165   5.894
   82SOL    HW2 1146   6.368   4.209   5.832
   83SOL     OW 1147   5.411   0.249   5.223
   83SOL    HW1 1148   5.332   0.188   5.217
   83SOL    HW2 1149   5.399   0.326   5.161
   84SOL     OW 1150   6.755   3.183   2.149
   84SOL    HW1 1151   6.763   3.146   2.057
   84SOL    HW2 1152   6.794   3.118   2.215
   85SOL     OW 1153   0.899   1.118   5.051
   85SOL    HW1 1154   0.970   1.080   4.991
   85SOL    HW2 1155   0.930   1.113   5.146
   86SOL     OW 1156   1.878   0.869   4.217
   86SOL    HW1 1157   1.945   0.805   4.181
   86SOL    HW2 1158   1.915   0.915   4.297
   87SOL     OW 1159   4.475   6.710   2.028
   87SOL    HW1 1160   4.476   6.803   1.992
   87SOL    HW2 1161   4.566   6.671   2.022
   88SOL     OW 1162   5.892   0.731   1.650
   88SOL    HW1 1163   5.923   0.692   1.564
   88SOL    HW2 1164   5.971   0.753   1.707
   89SOL     OW 1165   1.879   1.889   5.670
   89SOL    HW1 1166   1.795   1.844   5.700
   89SOL    HW2 1167   1.918   1.838   5.593
   90SOL     OW 1168   5.911   5.984   3.538
   90SOL    HW1 1169   5.895   6.002   3.635
   90SOL    HW2 1170   5.835   6.018   3.484
   91SOL     OW 1171   5.259   5.079   4.356
   91SOL    HW1 1172   5.340   5.128   4.388
   91SOL    HW2 1173   5.177   5.120   4.395
   92SOL     OW 1174   3.423   5.780   1.209
   92SOL    HW1 1175   3.345   5.717   1.199
   92SOL    HW2 1176   3.452   5.782   1.304
   93SOL     OW 1177   2.876   5.103   5.882
   93SOL    HW1 1178   2.949   5.035   5.874
   93SOL    HW2 1179   2.880   5.145   5.973
   94SOL     OW 1180   1.767   6.634   2.373
   94SOL    HW1 1181   1.724   6.549   2.342
   94SOL    HW2 1182   1.854   6.647   2.324
   95SOL     OW 1183   6.865   0.144   4.028
   95SOL    HW1 1184   6.844   0.217   3.963
   95SOL    HW2 1185   6.803   0.067   4.013
   96SOL     OW 1186   1.751   6.533   4.437
   96SOL    HW1 1187   1.768   6.437   4.461
   96SOL    HW2 1188   1.825   6.590   4.473
   97SOL     OW 1189   6.720   2.475   4.138
   97SOL    HW1 1190   6.760   2.384   4.145
   97SOL    HW2 1191   6.790   2.540   4.109
   98SOL     OW 1192   4.777   0.934   5.461
   98SOL    HW1 1193   4.760   0.859   5.525
   98SOL    HW2 1194   4.719   1.012   5.485
   99SOL     OW 1195   4.468   1.004   0.795
   99SOL    HW1 1196   4.474   0.910   0.761
   99SOL    HW2 1197   4.491   1.005   0.892
  100SOL     OW 1198   6.654   6.006   0.490
  100SOL    HW1 1199   6.609   5.918   0.476
  100SOL    HW2 1200   6.715   6.000   0.569
  101SOL     OW 1201   1.633   6.596   3.697
  101SOL    HW1 1202   1.596   6.683   3.666
  101SOL    HW2 1203   1.698   6.611   3.771
  102SOL     OW 1204   4.568   0.551   2.729
  102SOL    HW1 1205   4.619   0.600   2.658
  102SOL    HW2 1206   4.618   0.556   2.815
  103SOL     OW 1207   4.505   1.283   3.065
  103SOL    HW1 1208   4.569   1.213   3.095
  103SOL    HW2 1209   4.530   1.371   3.106
  104SOL     OW 1210   6.181   6.243   2.283
  104SOL    HW1 1211   6.191   6.143   2.289
  104SOL    HW2 1212   6.250   6.287   2.340
  105SOL     OW 1213   5.467   1.672   5.903
  105SOL    HW1 1214   5.535   1.667   5.976
  105SOL    HW2 1215   5.408   1.591   5.907
  106SOL     OW 1216   3.748   6.915   1.126
  106SOL    HW1 1217   3.782   6.866   1.206
  106SOL    HW2 1218   3.690   6.991   1.155
  107SOL     OW 1219   2.707   3.728   6.831
  107SOL    HW1 1220   2.759   3.722   6.916
  107SOL    HW2 1221   2.758   3.684   6.757
  108SOL     OW 1222   4.508   4.380   5.482
  108SOL    HW1 1223   4.563   4.296   5.488
  108SOL    HW2 1224   4.412   4.357   5.497
  109SOL     OW 1225   5.749   1.070   2.277
  109SOL    HW1 1226   5.665   1.020   2.302
  109SOL    HW2 1227   5.726   1.165   2.256
  110SOL     OW 1228   3.536   6.568   4.266
  110SOL    HW1 1229   3.518   6.630   4.342
  110SOL    HW2 1230   3.506   6.476   4.291
  111SOL     OW 1231   3.339   1.321   3.350
  111SOL    HW1 1232   3.281   1.297   3.273
  111SOL    HW2 1233   3.329   1.253   3.423
  112SOL     OW 1234   0.158   1.630   6.585
  112SOL    HW1 1235   0.095   1.601   6.513
  112SOL    HW2 1236   0.110   1.688   6.650
  113SOL     OW 1237   6.525   6.626   3.794
  113SOL    HW1 1238   6.449   6.602   3.733
  113SOL    HW2 1239   6.610   6.587   3.758
  114SOL     OW 1240   1.391   6.095   0.535
  114SOL    HW1 1241   1.451   6.023   0.499
  114SOL    HW2 1242   1.299   6.059   0.547
  115SOL     OW 1243   5.532   1.122   5.932
  115SOL    HW1 1244   5.484   1.123   5.844
  115SOL    HW2 1245   5.621   1.168   5.922
  116SOL     OW 1246   6.096   3.895   2.962
  116SOL    HW1 1247   6.185   3.861   2.931
  116SOL    HW2 1248   6.106   3.986   3.001
  117SOL     OW 1249   0.687   6.504   6.410
  117SOL    HW1 1250   0.653   6.418   6.373
  117SOL    HW2 1251   0.765   6.536   6.355
  118SOL     OW 1252   2.472   1.419   3.691
  118SOL    HW1 1253   2.427   1.508   3.702
  118SOL    HW2 1254   2.423   1.351   3.746
  119SOL     OW 1255   6.879   2.411   6.679
  119SOL    HW1 1256   6.821   2.381   6.755
  119SOL    HW2 1257   6.823   2.444   6.604
  120SOL     OW 1258   4.543   5.678   1.497
  120SOL    HW1 1259   4.463   5.722   1.537
  120SOL    HW2 1260   4.522   5.648   1.404
  121SOL     OW 1261   2.832   2.825   6.276
  121SOL    HW1 1262   2.794   2.861   6.190
  121SOL    HW2 1263   2.921   2.783   6.258
  122SOL     OW 1264   1.361   3.323   4.372
  122SOL    HW1 1265   1.434   3.390   4.355
  122SOL    HW2 1266   1.302   3.356   4.446
  123SOL     OW 1267   6.314   1.473   2.007
  123SOL    HW1 1268   6.385   1.447   2.073
  123SOL    HW2 1269   6.319   1.412   1.928
  124SOL     OW 1270   5.161   3.630   1.368
  124SOL    HW1 1271   5.096   3.573   1.318
  124SOL    HW2 1272   5.204   3.577   1.441
  125SOL     OW 1273   2.421   3.306   1.426
  125SOL    HW1 1274   2.359   3.240   1.383
  125SOL    HW2 1275   2.418   3.294   1.525
  126SOL     OW 1276   3.834   4.566   0.430
  126SOL    HW1 1277   3.804   4.608   0.515
  126SOL    HW2 1278   3.933   4.554   0.430
  127SOL     OW 1279   0.601   5.838   5.896
  127SOL    HW1 1280   0.619   5.840   5.797
  127SOL    HW2 1281   0.688   5.833   5.945
  128SOL     OW 1282   4.669   2.224   0.242
  128SOL    HW1 1283   4.722   2.145   0.210
  128SOL    HW2 1284   4.608   2.255   0.168
  129SOL     OW 1285   2.357   3.810   6.742
  129SOL    HW1 1286   2.350   3.909   6.736
  129SOL    HW2 1287   2.266   3.769   6.737
  130SOL     OW 1288   1.700   1.838   4.986
  130SOL    HW1 1289   1.737   1.788   4.907
  130SOL    HW2 1290   1.635   1.779   5.035
  131SOL     OW 1291   6.214   1.255   2.348
  131SOL    HW1 1292   6.198   1.353   2.338
  131SOL    HW2 1293   6.128   1.210   2.370
  132SOL     OW 1294   0.933   1.833   2.240
  132SOL    HW1 1295   1.014   1.872   2.286
  132SOL    HW2 1296   0.931   1.735   2.255
  133SOL     OW 1297   0.112   5.659   2.853
  133SOL    HW1 1298   0.099   5.636   2.950
  133SOL    HW2 1299   0.097   5.758   2.841
  134SOL     OW 1300   1.374   3.848   3.177
  134SOL    HW1 1301   1.381   3.756   3.137
  134SOL    HW2 1302   1.363   3.840   3.276
  135SOL     OW 1303   4.876   0.697   4.340
  135SOL    HW1 1304   4.800   0.704   4.275
  135SOL    HW2 1305   4.840   0.675   4.431
  136SOL     OW 1306   4.932   4.883   6.048
  136SOL    HW1 1307   4.981   4.805   6.009
  136SOL    HW2 1308   4.967   4.968   6.009
  137SOL     OW 1309   4.176   1.111   5.485
  137SOL    HW1 1310   4.137   1.042   5.546
  137SOL    HW2 1311   4.132   1.200   5.502
  138SOL     OW 1312   5.663   4.696   5.493
  138SOL    HW1 1313   5.700   4.775   5.540
  138SOL    HW2 1314   5.732   4.659   5.430
  139SOL     OW 1315   3.422   5.735   5.333
  139SOL    HW1 1316   3.370   5.796   5.272
  139SOL    HW2 1317   3.453   5.655   5.282
  140SOL     OW 1318   6.447   4.121   4.564
  140SOL    HW1 1319   6.368   4.133   4.505
  140SOL    HW2 1320   6.434   4.173   4.649
  141SOL     OW 1321   1.559   2.005   2.790
  141SOL    HW1 1322   1.490   2.072   2.763
  141SOL    HW2 1323   1.559   1.996   2.889
  142SOL     OW 1324   1.267   4.905   1.363
  142SOL    HW1 1325   1.357   4.916   1.322
  142SOL    HW2 1326   1.210   4.984   1.338
  143SOL     OW 1327   5.070   4.603   1.901
  143SOL    HW1 1328   5.104   4.697   1.902
  143SOL    HW2 1329   4.981   4.599   1.948
  144SOL     OW 1330   3.304   6.552   0.619
  144SOL    HW1 1331   3.312   6.453   0.608
  144SOL    HW2 1332   3.305   6.575   0.716
  145SOL     OW 1333   6.148   5.766   0.619
  145SOL    HW1 1334   6.095   5.850   0.633
  145SOL    HW2 1335   6.127   5.727   0.529
  146SOL     OW 1336   0.323   4.433   0.669
  146SOL    HW1 1337   0.417   4.401   0.656
  146SOL    HW2 1338   0.271   4.363   0.718
  147SOL     OW 1339   6.042   2.512   0.721
  147SOL    HW1 1340   5.947   2.483   0.733
  147SOL    HW2 1341   6.063   2.518   0.623
  148SOL     OW 1342   0.678   5.672   5.304
  148SOL    HW1 1343   0.636   5.587   5.338
  148SOL    HW2 1344   0.765   5.687   5.350
  149SOL     OW 1345   2.951   0.884   6.698
  149SOL    HW1 1346   2.974   0.981   6.691
  149SOL    HW2 1347   3.034   0.829   6.698
  150SOL     OW 1348   6.745   5.936   5.184
  150SOL    HW1 1349   6.698   5.925   5.097
  150SOL    HW2 1350   6.768   5.846   5.221
  151SOL     OW 1351   4.896   0.300   2.103
  151SOL    HW1 1352   4.801   0.271   2.117
  151SOL    HW2 1353   4.957   0.228   2.136
  152SOL     OW 1354   2.872   0.707   4.174
  152SOL    HW1 1355   2.906   0.625   4.129
  152SOL    HW2 1356   2.901   0.788   4.122
  153SOL     OW 1357   0.787   0.319   2.627
  153SOL    HW1 1358   0.801   0.220   2.631
  153SOL    HW2 1359   0.875   0.364   2.609
  154SOL     OW 1360   0.688   1.472   3.051
  154SOL    HW1 1361   0.761   1.410   3.079
  154SOL    HW2 1362   0.680   1.547   3.117
  155SOL     OW 1363   0.978   1.314   3.486
  155SOL    HW1 1364   0.893   1.263   3.502
  155SOL    HW2 1365   1.010   1.351   3.573
  156SOL     OW 1366   6.888   2.190   1.414
  156SOL    HW1 1367   6.982   2.191   1.382
  156SOL    HW2 1368   6.869   2.104   1.460
  157SOL     OW 1369   0.589   2.446   2.500
  157SOL    HW1 1370   0.679   2.405   2.497
  157SOL    HW2 1371   0.525   2.392   2.445
  158SOL     OW 1372   1.931   0.920   3.312
  158SOL    HW1 1373   1.948   0.952   3.219
  158SOL    HW2 1374   1.983   0.836   3.329
  159SOL     OW 1375   5.107   3.831   1.551
  159SOL    HW1 1376   5.031   3.894   1.531
  159SOL    HW2 1377   5.090   3.743   1.505
  160SOL     OW 1378   6.551   4.622   6.316
  160SOL    HW1 1379   6.639   4.591   6.353
  160SOL    HW2 1380   6.477   4.589   6.374
  161SOL     OW 1381   2.829   4.406   5.420
  161SOL    HW1 1382   2.865   4.445   5.335
  161SOL    HW2 1383   2.788   4.317   5.401
  162SOL     OW 1384   4.496   5.543   2.597
  162SOL    HW1 1385   4.545   5.598   2.666
  162SOL    HW2 1386   4.442   5.604   2.539
  163SOL     OW 1387   5.925   0.352   1.301
  163SOL    HW1 1388   5.989   0.359   1.225
  163SOL    HW2 1389   5.831   0.355   1.266
  164SOL     OW 1390   6.178   3.252   1.868
  164SOL    HW1 1391   6.241   3.180   1.896
  164SOL    HW2 1392   6.086   3.230   1.898
  165SOL     OW 1393   6.597   3.458   6.977
  165SOL    HW1 1394   6.540   3.489   0.034
  165SOL    HW2 1395   6.656   3.533   6.947
  166SOL     OW 1396   1.425   6.752   0.628
  166SOL    HW1 1397   1.426   6.652   0.623
  166SOL    HW2 1398   1.385   6.789   0.544
  167SOL     OW 1399   6.775   2.475   1.813
  167SOL    HW1 1400   6.759   2.452   1.909
  167SOL    HW2 1401   6.809   2.569   1.807
  168SOL     OW 1402   2.273   5.103   1.277
  168SOL    HW1 1403   2.370   5.123   1.261
  168SOL    HW2 1404   2.242   5.156   1.357
  169SOL     OW 1405   1.075   0.315   1.128
  169SOL    HW1 1406   1.114   0.269   1.207
  169SOL    HW2 1407   1.106   0.268   1.044
  170SOL     OW 1408   0.353   1.689   4.185
  170SOL    HW1 1409   0.403   1.725   4.106
  170SOL    HW2 1410   0.268   1.646   4.154
  171SOL     OW 1411   3.337   3.896   0.690
  171SOL    HW1 1412   3.328   3.907   0.789
  171SOL    HW2 1413   3.434   3.896   0.665
  172SOL     OW 1414   0.093   3.027   1.987
  172SOL    HW1 1415   0.166   2.964   1.960
  172SOL    HW2 1416   0.036   3.048   1.907
  173SOL     OW 1417   6.927   6.738   5.261
  173SOL    HW1 1418   6.991   6.806   5.226
  173SOL    HW2 1419   6.975   6.651   5.276
  174SOL     OW 1420   2.421   6.076   3.372
  174SOL    HW1 1421   2.329   6.062   3.336
  174SOL    HW2 1422   2.435   6.019   3.453
  175SOL     OW 1423   0.361   5.148   3.569
  175SOL    HW1 1424   0.283   5.087   3.550
  175SOL    HW2 1425   0.354   5.229   3.512
  176SOL     OW 1426   2.682   6.060   6.929
  176SOL    HW1 1427   2.676   6.008   6.844
  176SOL    HW2 1428   2.599   6.116   6.939
  177SOL     OW 1429   4.941   1.359   2.701
  177SOL    HW1 1430   4.898   1.269   2.711
  177SOL    HW2 1431   4.898   1.424   2.763
  178SOL     OW 1432   5.489   3.947   6.317
  178SOL    HW1 1433   5.572   3.892   6.331
  178SOL    HW2 1434   5.412   3.902   6.362
  179SOL     OW 1435   3.370   6.876   0.264
  179SOL    HW1 1436   3.308   6.839   0.333
  179SOL    HW2 1437   3.458   6.829   0.269
  180SOL     OW 1438   0.866   2.317   0.009
  180SOL    HW1 1439   0.959   2.353   0.018
  180SOL    HW2 1440   0.808   2.388   6.989
  181SOL     OW 1441   3.048   3.394   4.047
  181SOL    HW1 1442   3.105   3.475   4.035
  181SOL    HW2 1443   3.021   3.358   3.957
  182SOL     OW 1444   5.462   2.511   5.118
  182SOL    HW1 1445   5.385   2.575   5.122
  182SOL    HW2 1446   5.429   2.419   5.140
  183SOL     OW 1447   6.683   1.383   3.122
  183SOL    HW1 1448   6.594   1.396   3.166
  183SOL    HW2 1449   6.700   1.458   3.058
  184SOL     OW 1450   0.215   4.587   2.398
  184SOL    HW1 1451   0.261   4.498   2.394
  184SOL    HW2 1452   0.253   4.641   2.474
  185SOL     OW 1453   3.123   3.668   6.058
  185SOL    HW1 1454   3.163   3.594   6.003
  185SOL    HW2 1455   3.135   3.755   6.011
  186SOL     OW 1456   5.966   6.976   3.341
  186SOL    HW1 1457   5.961   6.877   3.328
  186SOL    HW2 1458   6.048   6.998   3.394
  187SOL     OW 1459   5.661   0.009   3.982
  187SOL    HW1 1460   5.720   0.086   4.005
  187SOL    HW2 1461   5.580   0.041   3.934
  188SOL     OW 1462   5.965   2.535   4.835
  188SOL    HW1 1463   5.986   2.532   4.932
  188SOL    HW2 1464   5.946   2.630   4.808
  189SOL     OW 1465   1.897   4.464   3.561
  189SOL    HW1 1466   1.904   4.502   3.653
  189SOL    HW2 1467   1.841   4.525   3.504
  190SOL     OW 1468   3.316   1.207   0.033
  190SOL    HW1 1469   3.267   1.187   6.968
  190SOL    HW2 1470   3.370   1.127   0.060
  191SOL     OW 1471   5.061   5.657   6.558
  191SOL    HW1 1472   5.053   5.679   6.655
  191SOL    HW2 1473   5.155   5.675   6.527
  192SOL     OW 1474   6.651   1.034   6.645
  192SOL    HW1 1475   6.597   1.075   6.572
  192SOL    HW2 1476   6.618   0.941   6.663
  193SOL     OW 1477   6.196   4.144   0.058
  193SOL    HW1 1478   6.119   4.088   0.088
  193SOL    HW2 1479   6.242   4.100   7.001
  194SOL     OW 1480   4.070   0.128   4.482
  194SOL    HW1 1481   3.972   0.131   4.502
  194SOL    HW2 1482   4.120   0.096   4.563
  195SOL     OW 1483   0.012   5.761   3.310
  195SOL    HW1 1484   0.025   5.740   3.407
  195SOL    HW2 1485   6.934   5.770   3.290
  196SOL     OW 1486   0.481   0.759   1.401
  196SOL    HW1 1487   0.437   0.815   1.471
  196SOL    HW2 1488   0.543   0.815   1.346
  197SOL     OW 1489   1.946   0.864   0.922
  197SOL    HW1 1490   1.982   0.806   0.849
  197SOL    HW2 1491   1.851   0.840   0.941
  198SOL     OW 1492   3.042   1.476   5.168
  198SOL    HW1 1493   3.038   1.553   5.104
  198SOL    HW2 1494   3.075   1.508   5.257
  199SOL     OW 1495   1.994   0.985   4.443
  199SOL    HW1 1496   2.056   1.056   4.409
  199SOL    HW2 1497   2.034   0.942   4.524
  200SOL     OW 1498   6.024   1.956   0.454
  200SOL    HW1 1499   6.040   2.026   0.523
  200SOL    HW2 1500   6.112   1.927   0.415
  201SOL     OW 1501   0.575   1.747   5.793
  201SOL    HW1 1502   0.671   1.768   5.812
  201SOL    HW2 1503   0.549   1.662   5.838
  202SOL     OW 1504   5.488   6.823   0.067
  202SOL    HW1 1505   5.435   6.908   0.061
  202SOL    HW2 1506   5.552   6.829   0.143
  203SOL     OW 1507   6.572   4.058   0.099
  203SOL    HW1 1508   6.558   4.017   0.189
  203SOL    HW2 1509   6.568   4.158   0.107
  204SOL     OW 1510   6.512   0.612   5.118
  204SOL    HW1 1511   6.518   0.512   5.124
  204SOL    HW2 1512   6.433   0.637   5.062
  205SOL     OW 1513   2.143   4.907   3.370
  205SOL    HW1 1514   2.133   5.004   3.348
  205SOL    HW2 1515   2.239   4.887   3.387
  206SOL     OW 1516   0.944   3.989   1.291
  206SOL    HW1 1517   1.007   3.960   1.219
  206SOL    HW2 1518   0.858   4.020   1.250
  207SOL     OW 1519   0.267   2.768   4.340
  207SOL    HW1 1520   0.278   2.678   4.298
  207SOL    HW2 1521   0.239   2.834   4.271
  208SOL     OW 1522   1.289   3.042   5.000
  208SOL    HW1 1523   1.318   2.990   4.920
  208SOL    HW2 1524   1.367   3.060   5.059
  209SOL     OW 1525   6.163   3.927   2.346
  209SOL    HW1 1526   6.218   3.959   2.269
  209SOL    HW2 1527   6.134   3.832   2.329
  210SOL     OW 1528   4.872   4.059   1.225
  210SOL    HW1 1529   4.904   3.965   1.220
  210SOL    HW2 1530   4.899   4.108   1.142
  211SOL     OW 1531   1.543   1.228   1.778
  211SOL    HW1 1532   1.485   1.196   1.853
  211SOL    HW2 1533   1.572   1.150   1.723
  212SOL     OW 1534   2.203   4.629   1.747
  212SOL    HW1 1535   2.108   4.599   1.757
  212SOL    HW2 1536   2.263   4.563   1.793
  213SOL     OW 1537   0.964   5.419   1.253
  213SOL    HW1 1538   1.014   5.454   1.332
  213SOL    HW2 1539   0.931   5.496   1.197
  214SOL     OW 1540   5.753   6.262   2.350
  214SOL    HW1 1541   5.824   6.305   2.294
  214SOL    HW2 1542   5.769   6.284   2.446
  215SOL     OW 1543   2.437   4.821   2.738
  215SOL    HW1 1544   2.444   4.899   2.801
  215SOL    HW2 1545   2.394   4.851   2.653
  216SOL     OW 1546   1.610   6.122   2.901
  216SOL    HW1 1547   1.708   6.106   2.912
  216SOL    HW2 1548   1.564   6.110   2.989
  217SOL     OW 1549   0.182   4.704   4.870
  217SOL    HW1 1550   0.181   4.657   4.958
  217SOL    HW2 1551   0.275   4.731   4.848
  218SOL     OW 1552   3.217   2.473   5.843
  218SOL    HW1 1553   3.188   2.560   5.804
  218SOL    HW2 1554   3.312   2.455   5.820
  219SOL     OW 1555   5.286   1.978   1.285
  219SOL    HW1 1556   5.256   2.011   1.196
  219SOL    HW2 1557   5.310   1.881   1.278
  220SOL     OW 1558   2.016   6.953   0.562
  220SOL    HW1 1559   2.090   6.902   0.519
  220SOL    HW2 1560   1.948   6.977   0.493
  221SOL     OW 1561   4.842   4.573   2.031
  221SOL    HW1 1562   4.769   4.642   2.034
  221SOL    HW2 1563   4.829   4.508   2.106
  222SOL     OW 1564   0.959   4.392   6.197
  222SOL    HW1 1565   1.058   4.384   6.183
  222SOL    HW2 1566   0.928   4.315   6.254
  223SOL     OW 1567   6.248   2.106   5.471
  223SOL    HW1 1568   6.268   2.081   5.566
  223SOL    HW2 1569   6.304   2.185   5.446
  224SOL     OW 1570   3.642   3.096   5.574
  224SOL    HW1 1571   3.599   3.008   5.595
  224SOL    HW2 1572   3.622   3.120   5.479
  225SOL     OW 1573   4.358   5.926   6.223
  225SOL    HW1 1574   4.408   5.980   6.291
  225SOL    HW2 1575   4.260   5.934   6.241
  226SOL     OW 1576   1.910   2.368   0.333
  226SOL    HW1 1577   1.871   2.389   0.423
  226SOL    HW2 1578   1.842   2.321   0.277
  227SOL     OW 1579   1.456   3.747   1.539
  227SOL    HW1 1580   1.501   3.752   1.450
  227SOL    HW2 1581   1.493   3.670   1.591
  228SOL     OW 1582   0.701   0.343   2.355
  228SOL    HW1 1583   0.736   0.349   2.449
  228SOL    HW2 1584   0.764   0.391   2.293
  229SOL     OW 1585   4.176   0.843   6.009
  229SOL    HW1 1586   4.214   0.882   6.093
  229SOL    HW2 1587   4.236   0.864   5.933
  230SOL     OW 1588   5.920   3.680   5.765
  230SOL    HW1 1589   5.974   3.729   5.833
  230SOL    HW2 1590   5.971   3.602   5.730
  231SOL     OW 1591   4.812   1.506   0.536
  231SOL    HW1 1592   4.835   1.574   0.466
  231SOL    HW2 1593   4.896   1.473   0.579
  232SOL     OW 1594   1.299   2.811   5.142
  232SOL    HW1 1595   1.261   2.888   5.090
  232SOL    HW2 1596   1.291   2.829   5.240
  233SOL     OW 1597   3.346   1.743   3.585
  233SOL    HW1 1598   3.250   1.747   3.615
  233SOL    HW2 1599   3.377   1.835   3.559
  234SOL     OW 1600   5.350   6.461   0.325
  234SOL    HW1 1601   5.420   6.497   0.264
  234SOL    HW2 1602   5.268   6.439   0.273
  235SOL     OW 1603   5.155   3.518   2.579
  235SOL    HW1 1604   5.088   3.528   2.653
  235SOL    HW2 1605   5.155   3.601   2.523
  236SOL     OW 1606   3.698   3.539   5.843
  236SOL    HW1 1607   3.639   3.555   5.764
  236SOL    HW2 1608   3.785   3.586   5.831
  237SOL     OW 1609   5.909   3.265   3.197
  237SOL    HW1 1610   5.973   3.317   3.140
  237SOL    HW2 1611   5.866   3.326   3.263
  238SOL     OW 1612   6.237   1.864   0.070
  238SOL    HW1 1613   6.176   1.805   0.124
  238SOL    HW2 1614   6.224   1.959   0.097
  239SOL     OW 1615   1.817   3.194   0.419
  239SOL    HW1 1616   1.886   3.255   0.379
  239SOL    HW2 1617   1.730   3.209   0.374
  240SOL     OW 1618   5.087   3.570   4.432
  240SOL    HW1 1619   5.061   3.483   4.473
  240SOL    HW2 1620   5.091   3.560   4.332
  241SOL     OW 1621   2.135   2.618   3.935
  241SOL    HW1 1622   2.232   2.623   3.959
  241SOL    HW2 1623   2.084   2.684   3.990
  242SOL     OW 1624   3.842   3.403   1.955
  242SOL    HW1 1625   3.854   3.489   2.005
  242SOL    HW2 1626   3.754   3.363   1.979
  243SOL     OW 1627   4.640   3.343   6.677
  243SOL    HW1 1628   4.653   3.379   6.769
  243SOL    HW2 1629   4.543   3.338   6.657
  244SOL     OW 1630   4.965   3.481   4.866
  244SOL    HW1 1631   4.956   3.390   4.907
  244SOL    HW2 1632   4.909   3.546   4.917
  245SOL     OW 1633   3.175   0.718   3.259
  245SOL    HW1 1634   3.216   0.756   3.342
  245SOL    HW2 1635   3.222   0.755   3.179
  246SOL     OW 1636   0.187   1.400   2.271
  246SOL    HW1 1637   0.111   1.457   2.241
  246SOL    HW2 1638   0.245   1.453   2.333
  247SOL     OW 1639   2.233   0.483   1.908
  247SOL    HW1 1640   2.199   0.508   1.817
  247SOL    HW2 1641   2.160   0.496   1.975
  248SOL     OW 1642   3.470   3.547   1.423
  248SOL    HW1 1643   3.538   3.473   1.426
  248SOL    HW2 1644   3.379   3.507   1.417
  249SOL     OW 1645   5.117   6.305   5.937
  249SOL    HW1 1646   5.165   6.339   5.856
  249SOL    HW2 1647   5.025   6.274   5.911
  250SOL     OW 1648   4.426   2.555   0.074
  250SOL    HW1 1649   4.418   2.571   6.996
  250SOL    HW2 1650   4.353   2.604   0.122
  251SOL     OW 1651   4.564   5.214   4.737
  251SOL    HW1 1652   4.469   5.209   4.767
  251SOL    HW2 1653   4.598   5.122   4.719
  252SOL     OW 1654   6.320   6.102   5.275
  252SOL    HW1 1655   6.260   6.034   5.316
  252SOL    HW2 1656   6.287   6.194   5.299
  253SOL     OW 1657   4.592   5.840   5.843
  253SOL    HW1 1658   4.584   5.845   5.942
  253SOL    HW2 1659   4.659   5.908   5.811
  254SOL     OW 1660   6.453   2.664   5.484
  254SOL    HW1 1661   6.374   2.654   5.546
  254SOL    HW2 1662   6.536   2.677   5.538
  255SOL     OW 1663   1.603   5.165   6.578
  255SOL    HW1 1664   1.678   5.186   6.515
  255SOL    HW2 1665   1.603   5.067   6.599
  256SOL     OW 1666   4.914   2.301   5.444
  256SOL    HW1 1667   4.968   2.267   5.521
  256SOL    HW2 1668   4.825   2.332   5.476
  257SOL     OW 1669   5.108   6.424   2.606
  257SOL    HW1 1670   5.049   6.383   2.537
  257SOL    HW2 1671   5.118   6.360   2.683
  258SOL     OW 1672   2.028   3.198   6.182
  258SOL    HW1 1673   2.088   3.127   6.144
  258SOL    HW2 1674   1.989   3.167   6.268
  259SOL     OW 1675   3.158   0.730   4.088
  259SOL    HW1 1676   3.217   0.806   4.116
  259SOL    HW2 1677   3.113   0.753   4.002
  260SOL     OW 1678   3.602   5.716   3.153
  260SOL    HW1 1679   3.697   5.743   3.135
  260SOL    HW2 1680   3.600   5.618   3.174
  261SOL     OW 1681   3.726   4.663   6.770
  261SOL    HW1 1682   3.814   4.645   6.727
  261SOL    HW2 1683   3.740   4.683   6.867
  262SOL     OW 1684   1.107   3.444   6.283
  262SOL    HW1 1685   1.014   3.481   6.290
  262SOL    HW2 1686   1.125   3.417   6.188
  263SOL     OW 1687   2.165   0.478   3.407
  263SOL    HW1 1688   2.153   0.467   3.506
  263SOL    HW2 1689   2.250   0.433   3.379
  264SOL     OW 1690   6.338   3.083   6.196
  264SOL    HW1 1691   6.355   3.060   6.292
  264SOL    HW2 1692   6.350   3.001   6.140
  265SOL     OW 1693   6.959   0.317   2.966
  265SOL    HW1 1694   6.978   0.282   3.058
  265SOL    HW2 1695   6.894   0.256   2.920
  266SOL     OW 1696   3.389   0.379   5.994
  266SOL    HW1 1697   3.362   0.355   5.901
  266SOL    HW2 1698   3.319   0.438   6.035
  267SOL     OW 1699   2.409   0.000   2.461
  267SOL    HW1 1700   2.314   0.020   2.439
  267SOL    HW2 1701   2.440   6.941   2.408
  268SOL     OW 1702   4.230   2.660   0.468
  268SOL    HW1 1703   4.314   2.606   0.475
  268SOL    HW2 1704   4.191   2.674   0.559
  269SOL     OW 1705   5.355   1.874   0.127
  269SOL    HW1 1706   5.360   1.785   0.083
  269SOL    HW2 1707   5.368   1.946   0.059
  270SOL     OW 1708   5.265   1.304   0.475
  270SOL    HW1 1709   5.298   1.369   0.544
  270SOL    HW2 1710   5.312   1.320   0.389
  271SOL     OW 1711   6.917   5.072   6.097
  271SOL    HW1 1712   6.973   5.009   6.151
  271SOL    HW2 1713   6.835   5.097   6.149
  272SOL     OW 1714   3.166   6.007   3.081
  272SOL    HW1 1715   3.102   5.981   3.008
  272SOL    HW2 1716   3.188   5.928   3.137
  273SOL     OW 1717   1.358   5.842   6.168
  273SOL    HW1 1718   1.453   5.856   6.195
  273SOL    HW2 1719   1.302   5.917   6.202
  274SOL     OW 1720   4.583   1.833   3.903
  274SOL    HW1 1721   4.656   1.836   3.834
  274SOL    HW2 1722   4.545   1.924   3.915
  275SOL     OW 1723   5.625   0.711   1.268
  275SOL    HW1 1724   5.526   0.709   1.279
  275SOL    HW2 1725   5.650   0.677   1.177
  276SOL     OW 1726   0.425   6.694   4.042
  276SOL    HW1 1727   0.421   6.667   4.138
  276SOL    HW2 1728   0.520   6.692   4.011
  277SOL     OW 1729   2.281   4.798   1.234
  277SOL    HW1 1730   2.235   4.886   1.220
  277SOL    HW2 1731   2.284   4.776   1.331
  278SOL     OW 1732   0.944   3.141   3.955
  278SOL    HW1 1733   0.958   3.060   4.012
  278SOL    HW2 1734   0.973   3.223   4.005
  279SOL     OW 1735   6.368   1.904   3.614
  279SOL    HW1 1736   6.435   1.969   3.579
  279SOL    HW2 1737   6.411   1.814   3.624
  280SOL     OW 1738   1.772   5.319   2.544
  280SOL    HW1 1739   1.684   5.352   2.510
  280SOL    HW2 1740   1.821   5.395   2.587
  281SOL     OW 1741   2.467   4.598   1.207
  281SOL    HW1 1742   2.398   4.670   1.198
  281SOL    HW2 1743   2.439   4.519   1.153
  282SOL     OW 1744   1.637   1.456   5.015
  282SOL    HW1 1745   1.631   1.502   5.104
  282SOL    HW2 1746   1.621   1.358   5.028
  283SOL     OW 1747   2.735   2.886   6.773
  283SOL    HW1 1748   2.712   2.908   6.678
  283SOL    HW2 1749   2.695   2.798   6.797
  284SOL     OW 1750   0.721   4.156   3.964
  284SOL    HW1 1751   0.793   4.092   3.991
  284SOL    HW2 1752   0.657   4.111   3.902
  285SOL     OW 1753   5.161   3.839   4.034
  285SOL    HW1 1754   5.220   3.918   4.046
  285SOL    HW2 1755   5.207   3.771   3.977
  286SOL     OW 1756   2.620   4.020   1.186
  286SOL    HW1 1757   2.657   4.108   1.216
  286SOL    HW2 1758   2.564   3.980   1.259
  287SOL     OW 1759   0.622   3.303   0.041
  287SOL    HW1 1760   0.569   3.249   6.995
  287SOL    HW2 1761   0.564   3.324   0.121
  288SOL     OW 1762   5.251   3.062   2.091
  288SOL    HW1 1763   5.194   3.143   2.103
  288SOL    HW2 1764   5.339   3.088   2.052
  289SOL     OW 1765   3.899   5.888   0.171
  289SOL    HW1 1766   3.819   5.861   0.119
  289SOL    HW2 1767   3.927   5.981   0.146
  290SOL     OW 1768   1.587   0.739   4.760
  290SOL    HW1 1769   1.602   0.688   4.845
  290SOL    HW2 1770   1.509   0.700   4.711
  291SOL     OW 1771   6.670   1.115   2.759
  291SOL    HW1 1772   6.719   1.054   2.695
  291SOL    HW2 1773   6.575   1.086   2.766
  292SOL     OW 1774   3.498   6.760   3.549
  292SOL    HW1 1775   3.456   6.707   3.622
  292SOL    HW2 1776   3.546   6.839   3.588
  293SOL     OW 1777   3.376   4.997   2.937
  293SOL    HW1 1778   3.419   4.965   3.021
  293SOL    HW2 1779   3.322   4.923   2.897
  294SOL     OW 1780   4.673   0.473   0.562
  294SOL    HW1 1781   4.612   0.520   0.497
  294SOL    HW2 1782   4.766   0.506   0.551
  295SOL     OW 1783   6.181   0.621   4.529
  295SOL    HW1 1784   6.099   0.667   4.495
  295SOL    HW2 1785   6.250   0.620   4.456
  296SOL     OW 1786   2.811   2.338   3.429
  296SOL    HW1 1787   2.818   2.369   3.524
  296SOL    HW2 1788   2.715   2.340   3.401
  297SOL     OW 1789   1.530   5.020   1.918
  297SOL    HW1 1790   1.507   5.117   1.913
  297SOL    HW2 1791   1.598   4.998   1.847
  298SOL     OW 1792   6.641   5.052   0.777
  298SOL    HW1 1793   6.608   5.116   0.708
  298SOL    HW2 1794   6.660   5.100   0.862
  299SOL     OW 1795   5.571   2.920   3.658
  299SOL    HW1 1796   5.586   2.957   3.749
  299SOL    HW2 1797   5.573   2.994   3.591
  300SOL     OW 1798   5.942   0.198   1.568
  300SOL    HW1 1799   5.874   0.259   1.608
  300SOL    HW2 1800   5.946   0.211   1.469
  301SOL     OW 1801   5.282   3.000   5.688
  301SOL    HW1 1802   5.328   2.990   5.600
  301SOL    HW2 1803   5.195   2.950   5.687
  302SOL     OW 1804   1.139   5.472   4.999
  302SOL    HW1 1805   1.226   5.457   5.046
  302SOL    HW2 1806   1.105   5.386   4.962
  303SOL     OW 1807   6.394   0.259   3.175
  303SOL    HW1 1808   6.399   0.171   3.130
  303SOL    HW2 1809   6.349   0.325   3.115
  304SOL     OW 1810   3.870   0.733   4.485
  304SOL    HW1 1811   3.827   0.690   4.565
  304SOL    HW2 1812   3.921   0.814   4.513
  305SOL     OW 1813   1.878   3.975   0.744
  305SOL    HW1 1814   1.961   3.920   0.735
  305SOL    HW2 1815   1.813   3.950   0.671
  306SOL     OW 1816   1.750   0.705   3.134
  306SOL    HW1 1817   1.740   0.660   3.223
  306SOL    HW2 1818   1.672   0.682   3.076
  307SOL     OW 1819   2.980   0.279   1.063
  307SOL    HW1 1820   2.962   0.264   1.160
  307SOL    HW2 1821   3.078   0.287   1.048
  308SOL     OW 1822   0.671   5.005   4.352
  308SOL    HW1 1823   0.663   4.921   4.406
  308SOL    HW2 1824   0.723   4.986   4.269
  309SOL     OW 1825   3.734   4.824   5.243
  309SOL    HW1 1826   3.739   4.870   5.331
  309SOL    HW2 1827   3.704   4.729   5.257
  310SOL     OW 1828   1.130   6.034   6.803
  310SOL    HW1 1829   1.229   6.041   6.815
  310SOL    HW2 1830   1.097   5.950   6.845
  311SOL     OW 1831   6.661   0.614   1.240
  311SOL    HW1 1832   6.678   0.667   1.157
  311SOL    HW2 1833   6.715   0.530   1.238
  312SOL     OW 1834   3.763   1.350   6.462
  312SOL    HW1 1835   3.748   1.386   6.554
  312SOL    HW2 1836   3.824   1.271   6.466
  313SOL     OW 1837   6.685   4.814   1.558
  313SOL    HW1 1838   6.740   4.755   1.617
  313SOL    HW2 1839   6.680   4.773   1.466
  314SOL     OW 1840   3.616   5.925   2.307
  314SOL    HW1 1841   3.701   5.891   2.268
  314SOL    HW2 1842   3.582   6.001   2.252
  315SOL     OW 1843   0.490   4.300   3.155
  315SOL    HW1 1844   0.522   4.358   3.230
  315SOL    HW2 1845   0.513   4.204   3.175
  316SOL     OW 1846   2.216   2.982   4.075
  316SOL    HW1 1847   2.287   2.918   4.103
  316SOL    HW2 1848   2.129   2.956   4.116
  317SOL     OW 1849   6.788   1.853   0.981
  317SOL    HW1 1850   6.696   1.815   0.987
  317SOL    HW2 1851   6.783   1.953   0.987
  318SOL     OW 1852   2.525   4.438   0.855
  318SOL    HW1 1853   2.469   4.426   0.772
  318SOL    HW2 1854   2.510   4.361   0.917
  319SOL     OW 1855   0.513   1.641   6.170
  319SOL    HW1 1856   0.595   1.598   6.208
  319SOL    HW2 1857   0.499   1.609   6.077
  320SOL     OW 1858   5.824   3.176   2.543
  320SOL    HW1 1859   5.859   3.263   2.507
  320SOL    HW2 1860   5.803   3.186   2.640
  321SOL     OW 1861   1.855   1.218   2.042
  321SOL    HW1 1862   1.856   1.118   2.042
  321SOL    HW2 1863   1.864   1.252   1.948
  322SOL     OW 1864   3.860   3.300   5.540
  322SOL    HW1 1865   3.795   3.230   5.570
  322SOL    HW2 1866   3.953   3.261   5.543
  323SOL     OW 1867   1.631   4.069   2.366
  323SOL    HW1 1868   1.549   4.071   2.422
  323SOL    HW2 1869   1.620   4.130   2.287
  324SOL     OW 1870   0.338   2.530   4.147
  324SOL    HW1 1871   0.353   2.432   4.131
  324SOL    HW2 1872   0.311   2.574   4.062
  325SOL     OW 1873   2.049   1.781   2.644
  325SOL    HW1 1874   1.950   1.791   2.646
  325SOL    HW2 1875   2.087   1.843   2.576
  326SOL     OW 1876   2.105   4.302   4.607
  326SOL    HW1 1877   2.146   4.224   4.656
  326SOL    HW2 1878   2.177   4.367   4.582
  327SOL     OW 1879   5.973   3.968   6.241
  327SOL    HW1 1880   6.003   3.931   6.329
  327SOL    HW2 1881   5.914   4.047   6.256
  328SOL     OW 1882   3.331   5.764   3.144
  328SOL    HW1 1883   3.325   5.669   3.174
  328SOL    HW2 1884   3.419   5.780   3.099
  329SOL     OW 1885   3.509   4.256   1.721
  329SOL    HW1 1886   3.441   4.204   1.669
  329SOL    HW2 1887   3.511   4.224   1.815
  330SOL     OW 1888   2.775   2.424   1.339
  330SOL    HW1 1889   2.804   2.396   1.431
  330SOL    HW2 1890   2.677   2.411   1.330
  331SOL     OW 1891   6.794   3.920   5.666
  331SOL    HW1 1892   6.801   3.912   5.567
  331SOL    HW2 1893   6.813   3.831   5.708
  332SOL     OW 1894   4.079   2.027   3.267
  332SOL    HW1 1895   3.997   2.005   3.213
  332SOL    HW2 1896   4.060   2.105   3.326
  333SOL     OW 1897   4.349   6.317   0.757
  333SOL    HW1 1898   4.407   6.293   0.679
  333SOL    HW2 1899   4.323   6.234   0.806
  334SOL     OW 1900   5.045   0.032   2.854
  334SOL    HW1 1901   5.130   0.018   2.803
  334SOL    HW2 1902   5.039   6.984   2.927
  335SOL     OW 1903   3.386   0.524   2.207
  335SOL    HW1 1904   3.370   0.437   2.255
  335SOL    HW2 1905   3.478   0.524   2.168
  336SOL     OW 1906   3.420   1.157   4.762
  336SOL    HW1 1907   3.472   1.159   4.847
  336SOL    HW2 1908   3.448   1.077   4.708
  337SOL     OW 1909   1.329   4.131   2.402
  337SOL    HW1 1910   1.242   4.142   2.354
  337SOL    HW2 1911   1.314   4.144   2.500
  338SOL     OW 1912   2.315   2.726   0.924
  338SOL    HW1 1913   2.341   2.807   0.871
  338SOL    HW2 1914   2.364   2.728   1.012
  339SOL     OW 1915   4.627   0.538   3.002
  339SOL    HW1 1916   4.679   0.576   3.079
  339SOL    HW2 1917   4.543   0.590   2.991
  340SOL     OW 1918   5.376   4.026   4.400
  340SOL    HW1 1919   5.326   3.945   4.368
  340SOL    HW2 1920   5.449   3.997   4.463
  341SOL     OW 1921   4.372   4.685   5.712
  341SOL    HW1 1922   4.419   4.658   5.629
  341SOL    HW2 1923   4.280   4.647   5.712
  342SOL     OW 1924   5.708   3.058   0.875
  342SOL    HW1 1925   5.774   3.079   0.947
  342SOL    HW2 1926   5.680   3.142   0.828
  343SOL     OW 1927   2.478   0.463   2.513
  343SOL    HW1 1928   2.567   0.496   2.544
  343SOL    HW2 1929   2.455   0.378   2.561
  344SOL     OW 1930   4.134   6.830   0.529
  344SOL    HW1 1931   4.097   6.861   0.442
  344SOL    HW2 1932   4.231   6.807   0.517
  345SOL     OW 1933   1.175   0.813   5.194
  345SOL    HW1 1934   1.087   0.775   5.167
  345SOL    HW2 1935   1.240   0.806   5.118
  346SOL     OW 1936   2.245   0.597   4.856
  346SOL    HW1 1937   2.225   0.694   4.847
  346SOL    HW2 1938   2.161   0.544   4.848
  347SOL     OW 1939   5.255   5.753   5.652
  347SOL    HW1 1940   5.297   5.833   5.610
  347SOL    HW2 1941   5.323   5.704   5.707
  348SOL     OW 1942   2.741   0.007   3.745
  348SOL    HW1 1943   2.765   0.101   3.771
  348SOL    HW2 1944   2.648   0.006   3.709
  349SOL     OW 1945   2.433   5.318   1.976
  349SOL    HW1 1946   2.390   5.401   1.940
  349SOL    HW2 1947   2.517   5.300   1.926
  350SOL     OW 1948   4.989   3.273   1.554
  350SOL    HW1 1949   5.017   3.265   1.650
  350SOL    HW2 1950   4.951   3.364   1.538
  351SOL     OW 1951   3.027   1.638   0.576
  351SOL    HW1 1952   3.088   1.633   0.656
  351SOL    HW2 1953   3.039   1.727   0.531
  352SOL     OW 1954   2.823   1.616   6.713
  352SOL    HW1 1955   2.897   1.627   6.647
  352SOL    HW2 1956   2.760   1.544   6.682
  353SOL     OW 1957   2.343   6.730   1.404
  353SOL    HW1 1958   2.378   6.701   1.493
  353SOL    HW2 1959   2.250   6.766   1.415
  354SOL     OW 1960   5.628   0.308   2.407
  354SOL    HW1 1961   5.593   0.218   2.433
  354SOL    HW2 1962   5.703   0.333   2.467
  355SOL     OW 1963   1.097   0.923   2.430
  355SOL    HW1 1964   1.000   0.947   2.432
  355SOL    HW2 1965   1.107   0.824   2.421
  356SOL     OW 1966   3.023   0.245   2.897
  356SOL    HW1 1967   3.023   0.180   2.973
  356SOL    HW2 1968   3.114   0.283   2.885
  357SOL     OW 1969   1.129   4.616   4.380
  357SOL    HW1 1970   1.058   4.675   4.342
  357SOL    HW2 1971   1.219   4.658   4.364
  358SOL     OW 1972   4.975   1.078   3.371
  358SOL    HW1 1973   4.914   1.063   3.449
  358SOL    HW2 1974   5.065   1.107   3.403
  359SOL     OW 1975   0.724   1.654   0.485
  359SOL    HW1 1976   0.768   1.662   0.396
  359SOL    HW2 1977   0.689   1.743   0.513
  360SOL     OW 1978   5.319   0.006   6.457
  360SOL    HW1 1979   5.372   6.943   6.473
  360SOL    HW2 1980   5.266   7.016   6.373
  361SOL     OW 1981   3.000   0.449   2.081
  361SOL    HW1 1982   3.048   0.531   2.114
  361SOL    HW2 1983   2.914   0.439   2.130
  362SOL     OW 1984   2.816   3.580   0.238
  362SOL    HW1 1985   2.803   3.638   0.319
  362SOL    HW2 1986   2.883   3.508   0.259
  363SOL     OW 1987   4.730   4.702   4.250
  363SOL    HW1 1988   4.649   4.759   4.266
  363SOL    HW2 1989   4.701   4.608   4.232
  364SOL     OW 1990   2.696   5.982   6.248
  364SOL    HW1 1991   2.786   6.006   6.212
  364SOL    HW2 1992   2.707   5.918   6.325
  365SOL     OW 1993   4.798   6.154   3.181
  365SOL    HW1 1994   4.879   6.095   3.181
  365SOL    HW2 1995   4.819   6.240   3.228
  366SOL     OW 1996   5.009   1.418   0.722
  366SOL    HW1 1997   4.946   1.427   0.799
  366SOL    HW2 1998   5.086   1.480   0.734
  367SOL     OW 1999   6.764   2.514   2.326
  367SOL    HW1 2000   6.766   2.613   2.341
  367SOL    HW2 2001   6.751   2.468   2.414
  368SOL     OW 2002   6.670   5.207   4.751
  368SOL    HW1 2003   6.660   5.197   4.652
  368SOL    HW2 2004   6.590   5.255   4.788
  369SOL     OW 2005   1.122   3.918   2.226
  369SOL    HW1 2006   1.028   3.941   2.201
  369SOL    HW2 2007   1.177   3.907   2.143
  370SOL     OW 2008   3.928   1.997   6.571
  370SOL    HW1 2009   3.992   2.067   6.604
  370SOL    HW2 2010   3.835   2.023   6.596
  371SOL     OW 2011   3.267   2.375   6.450
  371SOL    HW1 2012   3.365   2.362   6.442
  371SOL    HW2 2013   3.227   2.301   6.505
  372SOL     OW 2014   2.209   5.507   0.120
  372SOL    HW1 2015   2.112   5.531   0.118
  372SOL    HW2 2016   2.234   5.465   0.033
  373SOL     OW 2017   6.297   0.055   6.549
  373SOL    HW1 2018   6.373   7.011   6.547
  373SOL    HW2 2019   6.210   0.005   6.547
  374SOL     OW 2020   4.858   0.844   0.982
  374SOL    HW1 2021   4.955   0.861   1.000
  374SOL    HW2 2022   4.844   0.831   0.884
  375SOL     OW 2023   6.609   3.693   1.949
  375SOL    HW1 2024   6.668   3.697   1.869
  375SOL    HW2 2025   6.612   3.602   1.989
  376SOL     OW 2026   2.291   4.149   5.314
  376SOL    HW1 2027   2.333   4.235   5.285
  376SOL    HW2 2028   2.329   4.074   5.261
  377SOL     OW 2029   4.809   0.912   3.593
  377SOL    HW1 2030   4.813   0.825   3.544
  377SOL    HW2 2031   4.728   0.963   3.564
  378SOL     OW 2032   6.031   2.197   5.871
  378SOL    HW1 2033   6.004   2.215   5.966
  378SOL    HW2 2034   5.956   2.150   5.823
  379SOL     OW 2035   6.539   2.519   0.920
  379SOL    HW1 2036   6.485   2.438   0.941
  379SOL    HW2 2037   6.538   2.581   0.999
  380SOL     OW 2038   6.954   2.095   0.325
  380SOL    HW1 2039   0.003   2.092   0.252
  380SOL    HW2 2040   6.991   2.147   0.403
  381SOL     OW 2041   4.760   4.758   6.960
  381SOL    HW1 2042   4.733   4.755   0.037
  381SOL    HW2 2043   4.776   4.853   6.933
  382SOL     OW 2044   2.010   5.387   6.783
  382SOL    HW1 2045   1.995   5.418   6.690
  382SOL    HW2 2046   1.925   5.396   6.835
  383SOL     OW 2047   5.672   1.809   0.161
  383SOL    HW1 2048   5.634   1.827   0.070
  383SOL    HW2 2049   5.606   1.837   0.230
  384SOL     OW 2050   1.228   5.273   4.226
  384SOL    HW1 2051   1.300   5.205   4.209
  384SOL    HW2 2052   1.230   5.341   4.154
  385SOL     OW 2053   4.804   4.499   0.870
  385SOL    HW1 2054   4.882   4.495   0.932
  385SOL    HW2 2055   4.821   4.441   0.791
  386SOL     OW 2056   2.935   5.900   4.285
  386SOL    HW1 2057   3.031   5.873   4.273
  386SOL    HW2 2058   2.895   5.849   4.361
  387SOL     OW 2059   0.529   0.358   5.598
  387SOL    HW1 2060   0.523   0.410   5.513
  387SOL    HW2 2061   0.546   0.262   5.577
  388SOL     OW 2062   0.550   2.333   4.605
  388SOL    HW1 2063   0.589   2.262   4.547
  388SOL    HW2 2064   0.480   2.383   4.554
  389SOL     OW 2065   5.107   4.158   2.617
  389SOL    HW1 2066   5.124   4.253   2.646
  389SOL    HW2 2067   5.012   4.150   2.586
  390SOL     OW 2068   3.301   2.708   6.866
  390SOL    HW1 2069   3.272   2.767   6.791
  390SOL    HW2 2070   3.225   2.650   6.894
  391SOL     OW 2071   3.827   4.025   3.465
  391SOL    HW1 2072   3.767   4.036   3.544
  391SOL    HW2 2073   3.805   4.093   3.395
  392SOL     OW 2074   1.898   3.025   2.030
  392SOL    HW1 2075   1.918   2.928   2.045
  392SOL    HW2 2076   1.982   3.078   2.040
  393SOL     OW 2077   1.228   6.329   0.946
  393SOL    HW1 2078   1.136   6.315   0.907
  393SOL    HW2 2079   1.296   6.294   0.883
  394SOL     OW 2080   5.951   2.260   6.129
  394SOL    HW1 2081   6.028   2.307   6.171
  394SOL    HW2 2082   5.882   2.327   6.102
  395SOL     OW 2083   6.949   5.112   6.566
  395SOL    HW1 2084   7.014   5.036   6.561
  395SOL    HW2 2085   6.939   5.154   6.476
  396SOL     OW 2086   0.391   0.943   1.568
  396SOL    HW1 2087   0.345   0.944   1.657
  396SOL    HW2 2088   0.328   0.978   1.498
  397SOL     OW 2089   4.608   1.975   4.906
  397SOL    HW1 2090   4.655   1.963   4.819
  397SOL    HW2 2091   4.635   2.062   4.947
  398SOL     OW 2092   0.020   1.714   3.582
  398SOL    HW1 2093   6.946   1.683   3.562
  398SOL    HW2 2094   0.050   1.674   3.668
  399SOL     OW 2095   5.874   5.191   4.986
  399SOL    HW1 2096   5.796   5.247   4.957
  399SOL    HW2 2097   5.898   5.127   4.912
  400SOL     OW 2098   6.705   6.255   3.346
  400SOL    HW1 2099   6.657   6.265   3.258
  400SOL    HW2 2100   6.689   6.164   3.382
  401SOL     OW 2101   1.100   5.791   4.163
  401SOL    HW1 2102   1.047   5.706   4.164
  401SOL    HW2 2103   1.078   5.846   4.243
  402SOL     OW 2104   6.283   1.046   4.582
  402SOL    HW1 2105   6.272   1.024   4.485
  402SOL    HW2 2106   6.277   0.962   4.636
  403SOL     OW 2107   2.532   1.557   5.142
  403SOL    HW1 2108   2.438   1.592   5.149
  403SOL    HW2 2109   2.552   1.501   5.223
  404SOL     OW 2110   3.543   5.770   3.468
  404SOL    HW1 2111   3.606   5.773   3.390
  404SOL    HW2 2112   3.553   5.854   3.522
  405SOL     OW 2113   3.441   4.913   3.811
  405SOL    HW1 2114   3.526   4.860   3.802
  405SOL    HW2 2115   3.456   5.006   3.775
  406SOL     OW 2116   1.142   0.617   0.638
  406SOL    HW1 2117   1.219   0.663   0.682
  406SOL    HW2 2118   1.113   0.540   0.693
  407SOL     OW 2119   2.262   4.059   3.829
  407SOL    HW1 2120   2.182   4.120   3.827
  407SOL    HW2 2121   2.231   3.965   3.814
  408SOL     OW 2122   2.969   1.971   1.648
  408SOL    HW1 2123   3.021   2.007   1.571
  408SOL    HW2 2124   3.012   1.998   1.734
  409SOL     OW 2125   0.301   1.967   2.257
  409SOL    HW1 2126   0.351   2.053   2.255
  409SOL    HW2 2127   0.257   1.956   2.346
  410SOL     OW 2128   1.624   3.342   2.073
  410SOL    HW1 2129   1.598   3.295   1.988
  410SOL    HW2 2130   1.644   3.274   2.143
  411SOL     OW 2131   0.225   1.286   2.009
  411SOL    HW1 2132   0.163   1.209   1.996
  411SOL    HW2 2133   0.208   1.327   2.099
  412SOL     OW 2134   2.712   4.756   3.182
  412SOL    HW1 2135   2.762   4.738   3.097
  412SOL    HW2 2136   2.614   4.752   3.164
  413SOL     OW 2137   6.615   4.639   2.935
  413SOL    HW1 2138   6.648   4.720   2.887
  413SOL    HW2 2139   6.518   4.624   2.915
  414SOL     OW 2140   2.158   0.036   2.380
  414SOL    HW1 2141   2.147   0.076   2.289
  414SOL    HW2 2142   2.069   0.003   2.413
  415SOL     OW 2143   6.204   2.978   1.684
  415SOL    HW1 2144   6.210   3.073   1.716
  415SOL    HW2 2145   6.166   2.921   1.757
  416SOL     OW 2146   6.266   3.517   6.719
  416SOL    HW1 2147   6.365   3.529   6.728
  416SOL    HW2 2148   6.218   3.595   6.759
  417SOL     OW 2149   2.700   1.820   6.162
  417SOL    HW1 2150   2.646   1.851   6.084
  417SOL    HW2 2151   2.775   1.762   6.131
  418SOL     OW 2152   4.160   5.336   6.357
  418SOL    HW1 2153   4.207   5.349   6.270
  418SOL    HW2 2154   4.212   5.272   6.413
  419SOL     OW 2155   5.411   0.107   0.258
  419SOL    HW1 2156   5.370   0.164   0.329
  419SOL    HW2 2157   5.372   0.130   0.169
  420SOL     OW 2158   3.231   6.283   0.550
  420SOL    HW1 2159   3.271   6.205   0.598
  420SOL    HW2 2160   3.139   6.300   0.585
  421SOL     OW 2161   5.421   4.740   3.439
  421SOL    HW1 2162   5.479   4.810   3.397
  421SOL    HW2 2163   5.389   4.676   3.369
  422SOL     OW 2164   4.012   1.536   2.234
  422SOL    HW1 2165   4.086   1.483   2.192
  422SOL    HW2 2166   4.028   1.634   2.218
  423SOL     OW 2167   2.766   0.785   6.249
  423SOL    HW1 2168   2.840   0.831   6.297
  423SOL    HW2 2169   2.684   0.785   6.306
  424SOL     OW 2170   1.948   4.819   3.923
  424SOL    HW1 2171   2.006   4.823   3.842
  424SOL    HW2 2172   1.997   4.857   4.001
  425SOL     OW 2173   3.214   1.260   6.764
  425SOL    HW1 2174   3.272   1.191   6.721
  425SOL    HW2 2175   3.229   1.348   6.719
  426SOL     OW 2176   2.334   2.673   3.340
  426SOL    HW1 2177   2.285   2.587   3.323
  426SOL    HW2 2178   2.269   2.748   3.345
  427SOL     OW 2179   5.037   0.956   4.585
  427SOL    HW1 2180   5.053   0.858   4.591
  427SOL    HW2 2181   4.955   0.973   4.530
  428SOL     OW 2182   2.371   1.490   6.134
  428SOL    HW1 2183   2.375   1.419   6.064
  428SOL    HW2 2184   2.309   1.462   6.207
  429SOL     OW 2185   6.940   0.249   3.655
  429SOL    HW1 2186   0.011   0.259   3.615
  429SOL    HW2 2187   6.925   0.322   3.723
  430SOL     OW 2188   1.639   0.769   3.741
  430SOL    HW1 2189   1.651   0.848   3.681
  430SOL    HW2 2190   1.577   0.794   3.816
  431SOL     OW 2191   2.611   0.585   1.718
  431SOL    HW1 2192   2.605   0.561   1.621
  431SOL    HW2 2193   2.570   0.676   1.732
  432SOL     OW 2194   6.123   1.668   2.015
  432SOL    HW1 2195   6.184   1.593   2.039
  432SOL    HW2 2196   6.054   1.636   1.949
  433SOL     OW 2197   1.452   3.248   7.002
  433SOL    HW1 2198   1.361   3.206   6.993
  433SOL    HW2 2199   1.484   3.277   6.912
  434SOL     OW 2200   3.799   6.035   2.650
  434SOL    HW1 2201   3.880   6.030   2.708
  434SOL    HW2 2202   3.793   5.952   2.594
  435SOL     OW 2203   2.499   2.269   6.689
  435SOL    HW1 2204   2.596   2.293   6.692
  435SOL    HW2 2205   2.489   2.170   6.695
  436SOL     OW 2206   5.626   6.082   2.521
  436SOL    HW1 2207   5.526   6.081   2.528
  436SOL    HW2 2208   5.653   6.129   2.437
  437SOL     OW 2209   6.765   1.555   5.981
  437SOL    HW1 2210   6.825   1.476   5.998
  437SOL    HW2 2211   6.670   1.526   5.989
  438SOL     OW 2212   1.084   3.322   1.602
  438SOL    HW1 2213   1.142   3.293   1.525
  438SOL    HW2 2214   1.000   3.267   1.603
  439SOL     OW 2215   0.913   1.210   6.378
  439SOL    HW1 2216   0.951   1.282   6.320
  439SOL    HW2 2217   0.922   1.236   6.474
  440SOL     OW 2218   3.362   1.852   1.723
  440SOL    HW1 2219   3.420   1.923   1.763
  440SOL    HW2 2220   3.306   1.892   1.651
  441SOL     OW 2221   1.438   4.437   2.712
  441SOL    HW1 2222   1.421   4.342   2.739
  441SOL    HW2 2223   1.476   4.439   2.620
  442SOL     OW 2224   3.249   3.086   4.544
  442SOL    HW1 2225   3.260   3.185   4.550
  442SOL    HW2 2226   3.275   3.056   4.452
  443SOL     OW 2227   5.186   2.874   2.292
  443SOL    HW1 2228   5.216   2.783   2.262
  443SOL    HW2 2229   5.165   2.930   2.212
  444SOL     OW 2230   4.088   2.146   1.563
  444SOL    HW1 2231   4.079   2.239   1.527
  444SOL    HW2 2232   4.025   2.134   1.640
  445SOL     OW 2233   2.352   6.092   3.990
  445SOL    HW1 2234   2.309   6.079   3.901
  445SOL    HW2 2235   2.283   6.126   4.055
  446SOL     OW 2236   6.644   0.207   0.004
  446SOL    HW1 2237   6.629   0.224   6.926
  446SOL    HW2 2238   6.607   0.283   0.057
  447SOL     OW 2239   6.322   3.424   0.350
  447SOL    HW1 2240   6.297   3.429   0.447
  447SOL    HW2 2241   6.281   3.342   0.309
  448SOL     OW 2242   3.601   0.034   4.682
  448SOL    HW1 2243   3.645   6.972   4.644
  448SOL    HW2 2244   3.530   0.064   4.619
  449SOL     OW 2245   0.941   4.597   4.890
  449SOL    HW1 2246   0.866   4.564   4.948
  449SOL    HW2 2247   1.025   4.601   4.943
  450SOL     OW 2248   6.741   3.792   4.021
  450SOL    HW1 2249   6.818   3.762   4.077
  450SOL    HW2 2250   6.658   3.792   4.077
  451SOL     OW 2251   2.851   1.179   6.500
  451SOL    HW1 2252   2.776   1.161   6.564
  451SOL    HW2 2253   2.815   1.218   6.416
  452SOL     OW 2254   4.527   4.885   0.659
  452SOL    HW1 2255   4.513   4.980   0.686
  452SOL    HW2 2256   4.457   4.858   0.594
  453SOL     OW 2257   4.564   1.094   0.219
  453SOL    HW1 2258   4.637   1.041   0.176
  453SOL    HW2 2259   4.605   1.162   0.280
  454SOL     OW 2260   0.285   2.614   3.597
  454SOL    HW1 2261   0.374   2.575   3.575
  454SOL    HW2 2262   0.297   2.706   3.634
  455SOL     OW 2263   5.957   5.726   0.053
  455SOL    HW1 2264   5.956   5.826   0.049
  455SOL    HW2 2265   5.876   5.690   0.008
  456SOL     OW 2266   1.072   1.155   2.782
  456SOL    HW1 2267   0.993   1.111   2.742
  456SOL    HW2 2268   1.050   1.185   2.875
  457SOL     OW 2269   2.998   5.625   0.587
  457SOL    HW1 2270   3.090   5.661   0.571
  457SOL    HW2 2271   2.987   5.538   0.540
  458SOL     OW 2272   3.460   1.197   4.418
  458SOL    HW1 2273   3.463   1.258   4.497
  458SOL    HW2 2274   3.428   1.248   4.338
  459SOL     OW 2275   3.637   1.350   3.877
  459SOL    HW1 2276   3.627   1.251   3.863
  459SOL    HW2 2277   3.634   1.396   3.788
  460SOL     OW 2278   1.003   1.451   6.239
  460SOL    HW1 2279   0.988   1.529   6.179
  460SOL    HW2 2280   1.031   1.483   6.329
  461SOL     OW 2281   0.642   0.163   4.633
  461SOL    HW1 2282   0.555   0.192   4.672
  461SOL    HW2 2283   0.717   0.191   4.692
  462SOL     OW 2284   3.659   4.259   5.273
  462SOL    HW1 2285   3.714   4.234   5.193
  462SOL    HW2 2286   3.579   4.199   5.278
  463SOL     OW 2287   5.490   6.099   3.204
  463SOL    HW1 2288   5.522   6.192   3.185
  463SOL    HW2 2289   5.429   6.100   3.283
  464SOL     OW 2290   4.725   5.973   4.824
  464SOL    HW1 2291   4.768   6.063   4.823
  464SOL    HW2 2292   4.752   5.922   4.742
  465SOL     OW 2293   0.366   5.452   0.726
  465SOL    HW1 2294   0.355   5.397   0.644
  465SOL    HW2 2295   0.456   5.433   0.768
  466SOL     OW 2296   4.065   4.785   3.772
  466SOL    HW1 2297   3.970   4.773   3.742
  466SOL    HW2 2298   4.066   4.801   3.871
  467SOL     OW 2299   6.466   0.025   0.584
  467SOL    HW1 2300   6.378   6.998   0.590
  467SOL    HW2 2301   6.540   6.978   0.595
  468SOL     OW 2302   2.331   6.931   6.426
  468SOL    HW1 2303   2.351   0.007   6.443
  468SOL    HW2 2304   2.278   6.894   6.503
  469SOL     OW 2305   4.200   5.105   5.124
  469SOL    HW1 2306   4.110   5.061   5.121
  469SOL    HW2 2307   4.267   5.045   5.081
  470SOL     OW 2308   2.754   4.983   2.244
  470SOL    HW1 2309   2.846   4.994   2.280
  470SOL    HW2 2310   2.738   4.887   2.222
  471SOL     OW 2311   1.821   2.614   4.226
  471SOL    HW1 2312   1.831   2.597   4.324
  471SOL    HW2 2313   1.818   2.527   4.178
  472SOL     OW 2314   4.367   3.870   6.267
  472SOL    HW1 2315   4.333   3.948   6.215
  472SOL    HW2 2316   4.342   3.881   6.364
  473SOL     OW 2317   5.719   3.874   2.234
  473SOL    HW1 2318   5.775   3.956   2.230
  473SOL    HW2 2319   5.634   3.890   2.184
  474SOL     OW 2320   4.704   5.319   3.854
  474SOL    HW1 2321   4.751   5.231   3.855
  474SOL    HW2 2322   4.769   5.392   3.835
  475SOL     OW 2323   4.855   1.464   0.960
  475SOL    HW1 2324   4.848   1.563   0.971
  475SOL    HW2 2325   4.911   1.427   1.035
  476SOL     OW 2326   0.983   2.891   0.099
  476SOL    HW1 2327   0.945   2.847   0.181
  476SOL    HW2 2328   1.063   2.839   0.068
  477SOL     OW 2329   5.705   6.053   4.448
  477SOL    HW1 2330   5.638   5.986   4.481
  477SOL    HW2 2331   5.741   6.105   4.526
  478SOL     OW 2332   6.308   5.323   1.621
  478SOL    HW1 2333   6.278   5.239   1.665
  478SOL    HW2 2334   6.402   5.314   1.591
  479SOL     OW 2335   3.687   3.603   2.802
  479SOL    HW1 2336   3.656   3.517   2.760
  479SOL    HW2 2337   3.721   3.585   2.894
  480SOL     OW 2338   6.501   0.256   1.155
  480SOL    HW1 2339   6.596   0.281   1.173
  480SOL    HW2 2340   6.442   0.296   1.225
  481SOL     OW 2341   5.574   6.544   0.207
  481SOL    HW1 2342   5.608   6.637   0.224
  481SOL    HW2 2343   5.641   6.493   0.154
  482SOL     OW 2344   4.192   5.274   2.546
  482SOL    HW1 2345   4.173   5.245   2.640
  482SOL    HW2 2346   4.133   5.224   2.483
  483SOL     OW 2347   6.129   2.714   5.085
  483SOL    HW1 2348   6.102   2.628   5.129
  483SOL    HW2 2349   6.164   2.777   5.154
  484SOL     OW 2350   2.886   5.517   4.304
  484SOL    HW1 2351   2.902   5.444   4.237
  484SOL    HW2 2352   2.795   5.556   4.289
  485SOL     OW 2353   5.325   2.696   0.881
  485SOL    HW1 2354   5.357   2.698   0.976
  485SOL    HW2 2355   5.384   2.636   0.827
  486SOL     OW 2356   6.258   6.426   5.666
  486SOL    HW1 2357   6.287   6.470   5.581
  486SOL    HW2 2358   6.178   6.368   5.647
  487SOL     OW 2359   5.961   1.260   0.114
  487SOL    HW1 2360   5.978   1.259   0.016
  487SOL    HW2 2361   5.954   1.355   0.146
  488SOL     OW 2362   1.498   6.479   3.902
  488SOL    HW1 2363   1.531   6.520   3.818
  488SOL    HW2 2364   1.548   6.395   3.921
  489SOL     OW 2365   2.506   4.346   5.297
  489SOL    HW1 2366   2.578   4.290   5.257
  489SOL    HW2 2367   2.522   4.442   5.273
  490SOL     OW 2368   0.666   3.692   4.799
  490SOL    HW1 2369   0.755   3.668   4.837
  490SOL    HW2 2370   0.661   3.791   4.785
  491SOL     OW 2371   6.433   3.377   1.806
  491SOL    HW1 2372   6.491   3.387   1.887
  491SOL    HW2 2373   6.342   3.348   1.834
  492SOL     OW 2374   1.546   1.776   6.329
  492SOL    HW1 2375   1.483   1.794   6.254
  492SOL    HW2 2376   1.553   1.857   6.387
  493SOL     OW 2377   1.699   5.834   3.927
  493SOL    HW1 2378   1.679   5.755   3.984
  493SOL    HW2 2379   1.786   5.874   3.955
  494SOL     OW 2380   2.755   6.741   2.403
  494SOL    HW1 2381   2.836   6.744   2.344
  494SOL    HW2 2382   2.764   6.809   2.475
  495SOL     OW 2383   3.533   4.503   6.171
  495SOL    HW1 2384   3.482   4.432   6.121
  495SOL    HW2 2385   3.502   4.593   6.140
  496SOL     OW 2386   4.904   0.226   2.728
  496SOL    HW1 2387   4.965   0.157   2.768
  496SOL    HW2 2388   4.811   0.210   2.760
  497SOL     OW 2389   4.476   2.844   0.964
  497SOL    HW1 2390   4.509   2.751   0.948
  497SOL    HW2 2391   4.430   2.849   1.052
  498SOL     OW 2392   0.668   6.974   0.762
  498SOL    HW1 2393   0.642   6.883   0.729
  498SOL    HW2 2394   0.728   7.017   0.695
  499SOL     OW 2395   2.742   6.807   6.230
  499SOL    HW1 2396   2.648   6.802   6.196
  499SOL    HW2 2397   2.744   6.783   6.327
  500SOL     OW 2398   6.454   1.461   5.992
  500SOL    HW1 2399   6.414   1.516   5.918
  500SOL    HW2 2400   6.395   1.466   6.072
  501SOL     OW 2401   2.260   1.944   4.974
  501SOL    HW1 2402   2.214   1.915   4.891
  501SOL    HW2 2403   2.201   2.007   5.025
  502SOL     OW 2404   3.707   2.815   6.953
  502SOL    HW1 2405   3.623   2.765   6.928
  502SOL    HW2 2406   3.753   2.767   0.008
  503SOL     OW 2407   3.708   5.446   1.441
  503SOL    HW1 2408   3.624   5.402   1.408
  503SOL    HW2 2409   3.733   5.408   1.529
  504SOL     OW 2410   6.202   0.380   6.564
  504SOL    HW1 2411   6.272   0.405   6.631
  504SOL    HW2 2412   6.246   0.344   6.481
  505SOL     OW 2413   0.415   3.906   5.693
  505SOL    HW1 2414   0.332   3.868   5.653
  505SOL    HW2 2415   0.435   3.994   5.650
  506SOL     OW 2416   3.186   6.230   2.252
  506SOL    HW1 2417   3.203   6.255   2.347
  506SOL    HW2 2418   3.259   6.171   2.219
  507SOL     OW 2419   1.907   0.178   3.857
  507SOL    HW1 2420   1.854   0.222   3.784
  507SOL    HW2 2421   1.996   0.150   3.821
  508SOL     OW 2422   0.349   5.075   2.873
  508SOL    HW1 2423   0.385   5.028   2.954
  508SOL    HW2 2424   0.418   5.075   2.801
  509SOL     OW 2425   4.561   0.650   5.977
  509SOL    HW1 2426   4.656   0.673   5.956
  509SOL    HW2 2427   4.526   0.714   6.045
  510SOL     OW 2428   6.375   4.813   0.214
  510SOL    HW1 2429   6.401   4.791   0.120
  510SOL    HW2 2430   6.319   4.738   0.251
  511SOL     OW 2431   6.712   2.148   0.948
  511SOL    HW1 2432   6.802   2.187   0.926
  511SOL    HW2 2433   6.640   2.203   0.906
  512SOL     OW 2434   1.906   1.505   4.995
  512SOL    HW1 2435   1.912   1.577   4.925
  512SOL    HW2 2436   1.810   1.480   5.007
  513SOL     OW 2437   5.796   5.533   2.327
  513SOL    HW1 2438   5.741   5.551   2.246
  513SOL    HW2 2439   5.735   5.518   2.405
  514SOL     OW 2440   4.758   1.277   5.057
  514SOL    HW1 2441   4.746   1.364   5.010
  514SOL    HW2 2442   4.734   1.288   5.154
  515SOL     OW 2443   2.865   0.156   6.565
  515SOL    HW1 2444   2.781   0.111   6.536
  515SOL    HW2 2445   2.887   0.129   6.659
  516SOL     OW 2446   0.781   5.788   2.750
  516SOL    HW1 2447   0.696   5.795   2.699
  516SOL    HW2 2448   0.770   5.724   2.826
  517SOL     OW 2449   3.530   4.886   0.273
  517SOL    HW1 2450   3.467   4.952   0.314
  517SOL    HW2 2451   3.617   4.888   0.322
  518SOL     OW 2452   2.132   0.121   3.709
  518SOL    HW1 2453   2.222   0.162   3.713
  518SOL    HW2 2454   2.087   0.146   3.624
  519SOL     OW 2455   0.173   6.493   2.926
  519SOL    HW1 2456   0.207   6.451   3.010
  519SOL    HW2 2457   0.153   6.422   2.858
  520SOL     OW 2458   3.573   5.174   0.436
  520SOL    HW1 2459   3.666   5.203   0.461
  520SOL    HW2 2460   3.547   5.217   0.349
  521SOL     OW 2461   0.151   6.830   5.032
  521SOL    HW1 2462   0.162   6.929   5.040
  521SOL    HW2 2463   0.111   6.808   4.943
  522SOL     OW 2464   3.061   5.506   6.014
  522SOL    HW1 2465   3.000   5.507   6.093
  522SOL    HW2 2466   3.146   5.460   6.039
  523SOL     OW 2467   1.751   6.790   6.188
  523SOL    HW1 2468   1.712   6.729   6.119
  523SOL    HW2 2469   1.679   6.850   6.224
  524SOL     OW 2470   6.742   1.594   1.558
  524SOL    HW1 2471   6.671   1.664   1.569
  524SOL    HW2 2472   6.792   1.612   1.473
  525SOL     OW 2473   6.841   3.181   3.852
  525SOL    HW1 2474   6.750   3.162   3.815
  525SOL    HW2 2475   6.907   3.191   3.777
  526SOL     OW 2476   4.348   6.082   4.993
  526SOL    HW1 2477   4.282   6.153   4.967
  526SOL    HW2 2478   4.305   6.020   5.058
  527SOL     OW 2479   6.827   1.873   0.379
  527SOL    HW1 2480   6.868   1.862   0.470
  527SOL    HW2 2481   6.859   1.958   0.338
  528SOL     OW 2482   6.715   1.802   3.482
  528SOL    HW1 2483   6.737   1.740   3.407
  528SOL    HW2 2484   6.721   1.754   3.569
  529SOL     OW 2485   0.953   1.474   5.763
  529SOL    HW1 2486   0.868   1.423   5.759
  529SOL    HW2 2487   0.982   1.498   5.670
  530SOL     OW 2488   3.659   4.500   1.676
  530SOL    HW1 2489   3.583   4.437   1.697
  530SOL    HW2 2490   3.663   4.571   1.746
  531SOL     OW 2491   0.032   1.344   5.798
  531SOL    HW1 2492   6.997   1.328   5.880
  531SOL    HW2 2493   6.993   1.343   5.718
  532SOL     OW 2494   3.307   1.064   6.557
  532SOL    HW1 2495   3.284   0.970   6.533
  532SOL    HW2 2496   3.366   1.064   6.637
  533SOL     OW 2497   3.209   6.902   4.813
  533SOL    HW1 2498   3.305   6.877   4.817
  533SOL    HW2 2499   3.166   6.881   4.901
  534SOL     OW 2500   1.900   4.233   0.842
  534SOL    HW1 2501   1.941   4.221   0.932
  534SOL    HW2 2502   1.875   4.143   0.804
  535SOL     OW 2503   5.079   4.090   3.677
  535SOL    HW1 2504   5.014   4.071   3.750
  535SOL    HW2 2505   5.093   4.189   3.670
  536SOL     OW 2506   6.539   0.439   0.849
  536SOL    HW1 2507   6.472   0.512   0.863
  536SOL    HW2 2508   6.522   0.366   0.916
  537SOL     OW 2509   3.618   2.094   2.503
  537SOL    HW1 2510   3.640   2.000   2.532
  537SOL    HW2 2511   3.536   2.093   2.446
  538SOL     OW 2512   4.163   5.483   6.718
  538SOL    HW1 2513   4.103   5.470   6.796
  538SOL    HW2 2514   4.118   5.539   6.649
  539SOL     OW 2515   3.162   6.797   6.742
  539SOL    HW1 2516   3.219   6.832   6.667
  539SOL    HW2 2517   3.200   6.827   6.829
  540SOL     OW 2518   1.637   1.799   5.758
  540SOL    HW1 2519   1.586   1.776   5.841
  540SOL    HW2 2520   1.578   1.786   5.678
  541SOL     OW 2521   5.988   5.697   1.747
  541SOL    HW1 2522   5.890   5.704   1.765
  541SOL    HW2 2523   6.005   5.705   1.649
  542SOL     OW 2524   4.161   5.785   5.826
  542SOL    HW1 2525   4.200   5.778   5.734
  542SOL    HW2 2526   4.143   5.694   5.862
  543SOL     OW 2527   0.066   2.233   4.929
  543SOL    HW1 2528   0.051   2.257   5.025
  543SOL    HW2 2529   0.020   2.301   4.870
  544SOL     OW 2530   0.648   2.096   1.078
  544SOL    HW1 2531   0.682   2.023   1.138
  544SOL    HW2 2532   0.717   2.116   1.009
  545SOL     OW 2533   6.920   4.749   0.585
  545SOL    HW1 2534   6.956   4.824   0.641
  545SOL    HW2 2535   6.988   4.676   0.578
  546SOL     OW 2536   6.615   5.980   2.381
  546SOL    HW1 2537   6.614   6.078   2.365
  546SOL    HW2 2538   6.586   5.961   2.476
  547SOL     OW 2539   3.407   6.225   0.112
  547SOL    HW1 2540   3.354   6.307   0.091
  547SOL    HW2 2541   3.388   6.155   0.043
  548SOL     OW 2542   4.026   3.498   6.097
  548SOL    HW1 2543   3.952   3.449   6.143
  548SOL    HW2 2544   4.078   3.551   6.163
  549SOL     OW 2545   4.865   2.903   4.162
  549SOL    HW1 2546   4.800   2.830   4.144
  549SOL    HW2 2547   4.890   2.947   4.075
  550SOL     OW 2548   6.807   5.856   4.322
  550SOL    HW1 2549   6.783   5.910   4.241
  550SOL    HW2 2550   6.890   5.804   4.304
  551SOL     OW 2551   5.317   0.848   6.773
  551SOL    HW1 2552   5.325   0.757   6.732
  551SOL    HW2 2553   5.379   0.911   6.728
  552SOL     OW 2554   1.230   0.453   3.856
  552SOL    HW1 2555   1.222   0.368   3.805
  552SOL    HW2 2556   1.281   0.520   3.801
  553SOL     OW 2557   4.464   2.701   5.917
  553SOL    HW1 2558   4.466   2.727   5.820
  553SOL    HW2 2559   4.404   2.622   5.929
  554SOL     OW 2560   6.692   4.681   0.450
  554SOL    HW1 2561   6.691   4.583   0.431
  554SOL    HW2 2562   6.782   4.708   0.484
  555SOL     OW 2563   4.212   5.193   5.892
  555SOL    HW1 2564   4.202   5.097   5.919
  555SOL    HW2 2565   4.123   5.228   5.863
  556SOL     OW 2566   5.424   5.822   3.230
  556SOL    HW1 2567   5.452   5.907   3.185
  556SOL    HW2 2568   5.484   5.804   3.308
  557SOL     OW 2569   0.148   3.602   0.652
  557SOL    HW1 2570   0.185   3.660   0.725
  557SOL    HW2 2571   0.219   3.589   0.582
  558SOL     OW 2572   3.699   3.775   1.676
  558SOL    HW1 2573   3.675   3.680   1.695
  558SOL    HW2 2574   3.633   3.813   1.611
  559SOL     OW 2575   5.868   1.490   6.140
  559SOL    HW1 2576   5.924   1.561   6.098
  559SOL    HW2 2577   5.883   1.403   6.093
  560SOL     OW 2578   1.988   2.080   2.828
  560SOL    HW1 2579   2.087   2.072   2.841
  560SOL    HW2 2580   1.947   2.122   2.909
  561SOL     OW 2581   6.330   3.850   0.612
  561SOL    HW1 2582   6.424   3.842   0.645
  561SOL    HW2 2583   6.321   3.800   0.526
  562SOL     OW 2584   2.951   6.138   2.699
  562SOL    HW1 2585   2.943   6.235   2.675
  562SOL    HW2 2586   2.861   6.101   2.720
  563SOL     OW 2587   0.719   0.912   4.097
  563SOL    HW1 2588   0.648   0.982   4.111
  563SOL    HW2 2589   0.691   0.827   4.142
  564SOL     OW 2590   5.945   2.792   5.810
  564SOL    HW1 2591   6.003   2.850   5.752
  564SOL    HW2 2592   5.849   2.811   5.789
  565SOL     OW 2593   3.507   3.198   3.463
  565SOL    HW1 2594   3.606   3.189   3.450
  565SOL    HW2 2595   3.464   3.108   3.460
  566SOL     OW 2596   0.946   2.566   3.390
  566SOL    HW1 2597   0.952   2.620   3.306
  566SOL    HW2 2598   1.035   2.525   3.409
  567SOL     OW 2599   1.775   2.674   5.306
  567SOL    HW1 2600   1.835   2.748   5.277
  567SOL    HW2 2601   1.817   2.586   5.282
  568SOL     OW 2602   0.921   0.201   7.002
  568SOL    HW1 2603   0.858   0.141   6.953
  568SOL    HW2 2604   0.876   0.239   0.063
  569SOL     OW 2605   5.377   3.619   5.113
  569SOL    HW1 2606   5.290   3.606   5.065
  569SOL    HW2 2607   5.371   3.702   5.170
  570SOL     OW 2608   2.691   0.337   5.393
  570SOL    HW1 2609   2.787   0.330   5.365
  570SOL    HW2 2610   2.640   0.258   5.359
  571SOL     OW 2611   2.443   4.438   2.442
  571SOL    HW1 2612   2.433   4.369   2.370
  571SOL    HW2 2613   2.373   4.423   2.512
  572SOL     OW 2614   2.489   1.347   4.800
  572SOL    HW1 2615   2.430   1.420   4.836
  572SOL    HW2 2616   2.565   1.331   4.862
  573SOL     OW 2617   0.638   6.929   6.209
  573SOL    HW1 2618   0.546   6.936   6.245
  573SOL    HW2 2619   0.645   6.848   6.150
  574SOL     OW 2620   2.790   0.979   5.918
  574SOL    HW1 2621   2.852   0.902   5.902
  574SOL    HW2 2622   2.821   1.031   5.997
  575SOL     OW 2623   3.758   3.891   6.894
  575SOL    HW1 2624   3.772   3.928   6.985
  575SOL    HW2 2625   3.801   3.951   6.826
  576SOL     OW 2626   6.667   0.839   4.051
  576SOL    HW1 2627   6.616   0.821   4.135
  576SOL    HW2 2628   6.604   0.849   3.975
  577SOL     OW 2629   6.455   0.542   1.689
  577SOL    HW1 2630   6.505   0.554   1.604
  577SOL    HW2 2631   6.491   0.605   1.758
  578SOL     OW 2632   4.039   7.017   0.731
  578SOL    HW1 2633   4.085   6.956   0.667
  578SOL    HW2 2634   3.966   6.968   0.778
  579SOL     OW 2635   0.764   3.843   2.262
  579SOL    HW1 2636   0.668   3.815   2.263
  579SOL    HW2 2637   0.782   3.900   2.182
  580SOL     OW 2638   4.931   4.752   4.735
  580SOL    HW1 2639   4.978   4.821   4.790
  580SOL    HW2 2640   4.847   4.724   4.781
  581SOL     OW 2641   2.643   2.059   4.147
  581SOL    HW1 2642   2.664   2.035   4.242
  581SOL    HW2 2643   2.719   2.033   4.088
  582SOL     OW 2644   6.479   4.876   5.268
  582SOL    HW1 2645   6.455   4.836   5.180
  582SOL    HW2 2646   6.503   4.804   5.333
  583SOL     OW 2647   2.984   5.995   5.197
  583SOL    HW1 2648   2.996   5.922   5.264
  583SOL    HW2 2649   3.011   6.082   5.237
  584SOL     OW 2650   3.772   0.612   5.078
  584SOL    HW1 2651   3.756   0.628   5.176
  584SOL    HW2 2652   3.867   0.636   5.055
  585SOL     OW 2653   3.747   6.573   1.374
  585SOL    HW1 2654   3.747   6.483   1.417
  585SOL    HW2 2655   3.661   6.620   1.394
  586SOL     OW 2656   3.294   6.331   0.972
  586SOL    HW1 2657   3.235   6.308   1.049
  586SOL    HW2 2658   3.285   6.428   0.952
  587SOL     OW 2659   5.642   0.773   3.250
  587SOL    HW1 2660   5.698   0.779   3.167
  587SOL    HW2 2661   5.686   0.710   3.314
  588SOL     OW 2662   2.222   4.119   2.803
  588SOL    HW1 2663   2.308   4.164   2.829
  588SOL    HW2 2664   2.154   4.134   2.875
  589SOL     OW 2665   3.722   4.780   5.639
  589SOL    HW1 2666   3.723   4.876   5.610
  589SOL    HW2 2667   3.779   4.726   5.577
  590SOL     OW 2668   2.218   0.742   6.464
  590SOL    HW1 2669   2.226   0.837   6.495
  590SOL    HW2 2670   2.123   0.712   6.474
  591SOL     OW 2671   2.830   0.158   4.023
  591SOL    HW1 2672   2.929   0.176   4.027
  591SOL    HW2 2673   2.794   0.186   3.934
  592SOL     OW 2674   5.002   1.547   4.310
  592SOL    HW1 2675   4.967   1.548   4.404
  592SOL    HW2 2676   5.092   1.504   4.309
  593SOL     OW 2677   1.406   6.326   0.276
  593SOL    HW1 2678   1.458   6.241   0.279
  593SOL    HW2 2679   1.337   6.326   0.348
  594SOL     OW 2680   2.573   1.054   4.869
  594SOL    HW1 2681   2.515   1.063   4.950
  594SOL    HW2 2682   2.577   0.959   4.840
  595SOL     OW 2683   5.984   4.106   2.457
  595SOL    HW1 2684   5.945   4.042   2.523
  595SOL    HW2 2685   6.067   4.067   2.417
  596SOL     OW 2686   6.699   5.032   5.321
  596SOL    HW1 2687   6.613   4.992   5.288
  596SOL    HW2 2688   6.744   4.969   5.383
  597SOL     OW 2689   3.841   1.043   6.913
  597SOL    HW1 2690   3.767   1.056   6.847
  597SOL    HW2 2691   3.899   0.967   6.883
  598SOL     OW 2692   3.256   3.062   2.138
  598SOL    HW1 2693   3.198   3.082   2.059
  598SOL    HW2 2694   3.310   2.980   2.120
  599SOL     OW 2695   1.743   5.515   1.712
  599SOL    HW1 2696   1.681   5.584   1.750
  599SOL    HW2 2697   1.716   5.494   1.619
  600SOL     OW 2698   0.659   3.707   5.408
  600SOL    HW1 2699   0.707   3.720   5.495
  600SOL    HW2 2700   0.702   3.633   5.357
  601SOL     OW 2701   6.819   7.018   5.525
  601SOL    HW1 2702   6.721   0.018   5.530
  601SOL    HW2 2703   6.866   0.040   5.604
  602SOL     OW 2704   0.315   0.800   3.312
  602SOL    HW1 2705   0.283   0.893   3.292
  602SOL    HW2 2706   0.279   0.738   3.242
  603SOL     OW 2707   1.306   1.046   3.669
  603SOL    HW1 2708   1.336   1.131   3.712
  603SOL    HW2 2709   1.226   1.063   3.612
  604SOL     OW 2710   5.468   2.428   1.264
  604SOL    HW1 2711   5.562   2.426   1.297
  604SOL    HW2 2712   5.419   2.347   1.297
  605SOL     OW 2713   5.755   6.398   1.893
  605SOL    HW1 2714   5.707   6.476   1.853
  605SOL    HW2 2715   5.835   6.431   1.943
  606SOL     OW 2716   2.382   6.739   5.575
  606SOL    HW1 2717   2.304   6.761   5.516
  606SOL    HW2 2718   2.443   6.676   5.527
  607SOL     OW 2719   1.675   3.537   6.043
  607SOL    HW1 2720   1.774   3.536   6.026
  607SOL    HW2 2721   1.631   3.466   5.988
  608SOL     OW 2722   2.623   1.310   6.881
  608SOL    HW1 2723   2.554   1.244   6.852
  608SOL    HW2 2724   2.712   1.264   6.887
  609SOL     OW 2725   4.052   3.153   2.570
  609SOL    HW1 2726   3.975   3.125   2.628
  609SOL    HW2 2727   4.112   3.075   2.555
  610SOL     OW 2728   5.447   2.950   2.344
  610SOL    HW1 2729   5.496   2.923   2.427
  610SOL    HW2 2730   5.351   2.920   2.351
  611SOL     OW 2731   4.215   1.349   2.121
  611SOL    HW1 2732   4.276   1.278   2.085
  611SOL    HW2 2733   4.153   1.380   2.049
  612SOL     OW 2734   4.240   5.824   4.389
  612SOL    HW1 2735   4.223   5.865   4.479
  612SOL    HW2 2736   4.153   5.810   4.342
  613SOL     OW 2737   3.755   6.089   6.732
  613SOL    HW1 2738   3.828   6.039   6.778
  613SOL    HW2 2739   3.776   6.187   6.732
  614SOL     OW 2740   3.517   6.543   5.829
  614SOL    HW1 2741   3.501   6.458   5.880
  614SOL    HW2 2742   3.532   6.521   5.733
  615SOL     OW 2743   0.010   5.305   4.115
  615SOL    HW1 2744   0.034   5.219   4.159
  615SOL    HW2 2745   6.974   5.360   4.177
  616SOL     OW 2746   6.583   3.093   3.765
  616SOL    HW1 2747   6.583   3.025   3.692
  616SOL    HW2 2748   6.525   3.062   3.840
  617SOL     OW 2749   2.653   0.406   6.111
  617SOL    HW1 2750   2.706   0.491   6.103
  617SOL    HW2 2751   2.670   0.364   6.200
  618SOL     OW 2752   2.474   0.287   2.808
  618SOL    HW1 2753   2.571   0.309   2.795
  618SOL    HW2 2754   2.448   0.308   2.902
  619SOL     OW 2755   1.500   2.754   6.995
  619SOL    HW1 2756   1.538   2.686   0.038
  619SOL    HW2 2757   1.537   2.844   7.017
  620SOL     OW 2758   5.237   3.521   1.097
  620SOL    HW1 2759   5.173   3.573   1.041
  620SOL    HW2 2760   5.187   3.460   1.158
  621SOL     OW 2761   0.014   5.905   0.971
  621SOL    HW1 2762   0.028   5.925   0.874
  621SOL    HW2 2763   0.097   5.865   1.009
  622SOL     OW 2764   1.240   1.330   6.681
  622SOL    HW1 2765   1.269   1.337   6.586
  622SOL    HW2 2766   1.155   1.277   6.686
  623SOL     OW 2767   5.907   5.841   5.474
  623SOL    HW1 2768   5.949   5.833   5.565
  623SOL    HW2 2769   5.920   5.755   5.424
  624SOL     OW 2770   6.742   1.517   1.280
  624SOL    HW1 2771   6.805   1.439   1.289
  624SOL    HW2 2772   6.648   1.483   1.280
  625SOL     OW 2773   1.489   1.007   1.618
  625SOL    HW1 2774   1.578   0.963   1.602
  625SOL    HW2 2775   1.454   1.043   1.531
  626SOL     OW 2776   4.258   5.670   5.605
  626SOL    HW1 2777   4.298   5.722   5.530
  626SOL    HW2 2778   4.267   5.572   5.586
  627SOL     OW 2779   4.244   5.291   6.963
  627SOL    HW1 2780   4.182   5.230   7.013
  627SOL    HW2 2781   4.191   5.356   6.909
  628SOL     OW 2782   4.926   3.526   3.974
  628SOL    HW1 2783   4.904   3.444   4.027
  628SOL    HW2 2784   4.901   3.511   3.879
  629SOL     OW 2785   0.929   0.080   1.391
  629SOL    HW1 2786   0.915   7.002   1.379
  629SOL    HW2 2787   0.841   0.127   1.387
  630SOL     OW 2788   2.830   1.700   2.236
  630SOL    HW1 2789   2.842   1.636   2.311
  630SOL    HW2 2790   2.831   1.794   2.272
  631SOL     OW 2791   2.584   1.423   4.291
  631SOL    HW1 2792   2.573   1.511   4.245
  631SOL    HW2 2793   2.609   1.438   4.386
  632SOL     OW 2794   3.144   0.934   0.655
  632SOL    HW1 2795   3.106   0.958   0.745
  632SOL    HW2 2796   3.130   0.837   0.638
  633SOL     OW 2797   2.200   0.369   4.427
  633SOL    HW1 2798   2.270   0.360   4.356
  633SOL    HW2 2799   2.110   0.357   4.386
  634SOL     OW 2800   2.805   5.540   1.943
  634SOL    HW1 2801   2.881   5.605   1.932
  634SOL    HW2 2802   2.748   5.569   2.020
  635SOL     OW 2803   3.058   0.426   1.802
  635SOL    HW1 2804   2.972   0.453   1.758
  635SOL    HW2 2805   3.049   0.433   1.901
  636SOL     OW 2806   4.930   5.121   6.282
  636SOL    HW1 2807   4.993   5.085   6.213
  636SOL    HW2 2808   4.838   5.087   6.264
  637SOL     OW 2809   6.027   4.281   6.452
  637SOL    HW1 2810   6.058   4.299   6.358
  637SOL    HW2 2811   5.929   4.299   6.459
  638SOL     OW 2812   5.672   1.667   3.599
  638SOL    HW1 2813   5.771   1.675   3.595
  638SOL    HW2 2814   5.643   1.648   3.693
  639SOL     OW 2815   3.914   3.413   1.415
  639SOL    HW1 2816   4.014   3.418   1.419
  639SOL    HW2 2817   3.877   3.504   1.402
  640SOL     OW 2818   3.369   2.675   5.483
  640SOL    HW1 2819   3.367   2.576   5.494
  640SOL    HW2 2820   3.276   2.710   5.480
  641SOL     OW 2821   0.666   0.380   4.942
  641SOL    HW1 2822   0.618   0.435   4.874
  641SOL    HW2 2823   0.619   0.386   5.030
  642SOL     OW 2824   0.697   5.233   6.322
  642SOL    HW1 2825   0.693   5.153   6.382
  642SOL    HW2 2826   0.610   5.241   6.273
  643SOL     OW 2827   5.348   0.117   4.293
  643SOL    HW1 2828   5.273   0.097   4.229
  643SOL    HW2 2829   5.328   0.203   4.341
  644SOL     OW 2830   3.267   5.889   1.941
  644SOL    HW1 2831   3.246   5.937   1.856
  644SOL    HW2 2832   3.193   5.826   1.963
  645SOL     OW 2833   0.852   3.150   3.223
  645SOL    HW1 2834   0.915   3.225   3.243
  645SOL    HW2 2835   0.879   3.105   3.138
  646SOL     OW 2836   1.776   3.404   4.308
  646SOL    HW1 2837   1.816   3.324   4.263
  646SOL    HW2 2838   1.810   3.410   4.402
  647SOL     OW 2839   5.562   5.423   1.045
  647SOL    HW1 2840   5.593   5.509   1.085
  647SOL    HW2 2841   5.568   5.350   1.114
  648SOL     OW 2842   4.238   2.343   4.006
  648SOL    HW1 2843   4.147   2.353   3.965
  648SOL    HW2 2844   4.307   2.372   3.940
  649SOL     OW 2845   4.216   4.287   1.175
  649SOL    HW1 2846   4.137   4.311   1.119
  649SOL    HW2 2847   4.186   4.272   1.269
  650SOL     OW 2848   5.792   5.688   0.436
  650SOL    HW1 2849   5.888   5.658   0.431
  650SOL    HW2 2850   5.782   5.775   0.388
  651SOL     OW 2851   1.074   5.417   6.733
  651SOL    HW1 2852   1.090   5.423   6.634
  651SOL    HW2 2853   0.989   5.465   6.756
  652SOL     OW 2854   4.852   2.761   1.433
  652SOL    HW1 2855   4.914   2.802   1.366
  652SOL    HW2 2856   4.806   2.833   1.485
  653SOL     OW 2857   3.585   5.543   2.500
  653SOL    HW1 2858   3.600   5.640   2.521
  653SOL    HW2 2859   3.666   5.491   2.528
  654SOL     OW 2860   6.940   4.521   6.993
  654SOL    HW1 2861   0.020   4.519   6.995
  654SOL    HW2 2862   6.907   4.452   6.929
  655SOL     OW 2863   1.990   1.185   0.633
  655SOL    HW1 2864   1.998   1.245   0.554
  655SOL    HW2 2865   2.076   1.137   0.648
  656SOL     OW 2866   2.137   6.337   1.113
  656SOL    HW1 2867   2.056   6.330   1.053
  656SOL    HW2 2868   2.184   6.249   1.115
  657SOL     OW 2869   3.915   0.493   6.117
  657SOL    HW1 2870   3.835   0.500   6.057
  657SOL    HW2 2871   3.993   0.538   6.073
  658SOL     OW 2872   4.043   5.339   0.343
  658SOL    HW1 2873   4.087   5.411   0.290
  658SOL    HW2 2874   4.100   5.316   0.422
  659SOL     OW 2875   3.348   0.886   6.090
  659SOL    HW1 2876   3.343   0.870   5.991
  659SOL    HW2 2877   3.255   0.890   6.127
  660SOL     OW 2878   2.926   6.231   3.653
  660SOL    HW1 2879   2.992   6.269   3.588
  660SOL    HW2 2880   2.881   6.152   3.612
  661SOL     OW 2881   0.417   4.953   3.104
  661SOL    HW1 2882   0.457   4.861   3.100
  661SOL    HW2 2883   0.463   5.007   3.175
  662SOL     OW 2884   3.649   2.109   6.966
  662SOL    HW1 2885   3.716   2.129   6.895
  662SOL    HW2 2886   3.658   2.175   0.020
  663SOL     OW 2887   1.474   3.652   4.861
  663SOL    HW1 2888   1.564   3.673   4.821
  663SOL    HW2 2889   1.486   3.596   4.942
  664SOL     OW 2890   5.416   0.275   5.902
  664SOL    HW1 2891   5.500   0.257   5.955
  664SOL    HW2 2892   5.401   0.200   5.838
  665SOL     OW 2893   1.915   4.034   1.874
  665SOL    HW1 2894   1.955   3.996   1.791
  665SOL    HW2 2895   1.963   3.998   1.954
  666SOL     OW 2896   4.019   0.802   2.993
  666SOL    HW1 2897   3.919   0.792   2.995
  666SOL    HW2 2898   4.057   0.739   2.925
  667SOL     OW 2899   6.147   7.003   1.050
  667SOL    HW1 2900   6.088   0.003   1.129
  667SOL    HW2 2901   6.243   7.000   1.080
  668SOL     OW 2902   5.056   3.573   6.748
  668SOL    HW1 2903   5.077   3.514   6.825
  668SOL    HW2 2904   5.048   3.668   6.779
  669SOL     OW 2905   5.826   0.607   3.387
  669SOL    HW1 2906   5.827   0.535   3.457
  669SOL    HW2 2907   5.853   0.569   3.299
  670SOL     OW 2908   4.100   1.857   2.165
  670SOL    HW1 2909   4.154   1.774   2.178
  670SOL    HW2 2910   4.018   1.854   2.222
  671SOL     OW 2911   1.135   5.411   2.031
  671SOL    HW1 2912   1.106   5.318   2.056
  671SOL    HW2 2913   1.178   5.454   2.111
  672SOL     OW 2914   0.214   0.102   1.218
  672SOL    HW1 2915   0.227   0.031   1.149
  672SOL    HW2 2916   0.205   0.191   1.172
  673SOL     OW 2917   6.397   6.642   6.256
  673SOL    HW1 2918   6.486   6.675   6.286
  673SOL    HW2 2919   6.365   6.571   6.319
  674SOL     OW 2920   4.415   6.937   4.279
  674SOL    HW1 2921   4.385   6.860   4.334
  674SOL    HW2 2922   4.337   6.999   4.262
  675SOL     OW 2923   0.606   5.145   2.271
  675SOL    HW1 2924   0.555   5.200   2.338
  675SOL    HW2 2925   0.554   5.140   2.186
  676SOL     OW 2926   2.299   5.915   6.734
  676SOL    HW1 2927   2.218   5.865   6.703
  676SOL    HW2 2928   2.362   5.853   6.780
  677SOL     OW 2929   5.155   0.944   1.049
  677SOL    HW1 2930   5.181   0.857   1.008
  677SOL    HW2 2931   5.223   1.013   1.026
  678SOL     OW 2932   0.492   5.353   4.111
  678SOL    HW1 2933   0.437   5.425   4.154
  678SOL    HW2 2934   0.476   5.353   4.012
  679SOL     OW 2935   5.521   0.562   6.262
  679SOL    HW1 2936   5.451   0.524   6.323
  679SOL    HW2 2937   5.493   0.550   6.167
  680SOL     OW 2938   6.316   0.476   3.870
  680SOL    HW1 2939   6.339   0.391   3.823
  680SOL    HW2 2940   6.389   0.543   3.857
  681SOL     OW 2941   4.671   4.680   3.062
  681SOL    HW1 2942   4.664   4.726   3.150
  681SOL    HW2 2943   4.727   4.598   3.071
  682SOL     OW 2944   6.318   2.296   3.448
  682SOL    HW1 2945   6.353   2.321   3.538
  682SOL    HW2 2946   6.229   2.339   3.435
  683SOL     OW 2947   3.284   5.490   6.974
  683SOL    HW1 2948   3.333   5.505   0.041
  683SOL    HW2 2949   3.324   5.411   6.927
  684SOL     OW 2950   5.399   2.483   6.240
  684SOL    HW1 2951   5.473   2.467   6.174
  684SOL    HW2 2952   5.328   2.540   6.197
  685SOL     OW 2953   3.253   6.614   3.155
  685SOL    HW1 2954   3.176   6.576   3.105
  685SOL    HW2 2955   3.276   6.555   3.232
  686SOL     OW 2956   2.386   0.539   5.284
  686SOL    HW1 2957   2.452   0.544   5.360
  686SOL    HW2 2958   2.424   0.483   5.211
  687SOL     OW 2959   0.239   1.187   4.780
  687SOL    HW1 2960   0.288   1.106   4.811
  687SOL    HW2 2961   0.218   1.245   4.858
  688SOL     OW 2962   4.826   3.678   6.593
  688SOL    HW1 2963   4.873   3.682   6.505
  688SOL    HW2 2964   4.874   3.614   6.653
  689SOL     OW 2965   2.391   6.070   0.216
  689SOL    HW1 2966   2.328   6.132   0.261
  689SOL    HW2 2967   2.417   5.997   0.279
  690SOL     OW 2968   5.660   3.601   4.039
  690SOL    HW1 2969   5.685   3.591   3.943
  690SOL    HW2 2970   5.681   3.517   4.088
  691SOL     OW 2971   5.570   0.430   2.965
  691SOL    HW1 2972   5.530   0.411   2.875
  691SOL    HW2 2973   5.499   0.426   3.035
  692SOL     OW 2974   1.477   6.804   3.607
  692SOL    HW1 2975   1.385   6.824   3.641
  692SOL    HW2 2976   1.515   6.886   3.564
  693SOL     OW 2977   6.184   4.224   1.808
  693SOL    HW1 2978   6.167   4.288   1.733
  693SOL    HW2 2979   6.187   4.131   1.771
  694SOL     OW 2980   4.039   4.915   4.292
  694SOL    HW1 2981   4.072   4.857   4.367
  694SOL    HW2 2982   3.952   4.956   4.318
  695SOL     OW 2983   4.658   0.266   4.077
  695SOL    HW1 2984   4.706   0.352   4.089
  695SOL    HW2 2985   4.598   0.250   4.156
  696SOL     OW 2986   6.621   4.443   2.078
  696SOL    HW1 2987   6.592   4.528   2.122
  696SOL    HW2 2988   6.721   4.440   2.075
  697SOL     OW 2989   0.417   6.477   3.102
  697SOL    HW1 2990   0.485   6.417   3.060
  697SOL    HW2 2991   0.447   6.572   3.096
  698SOL     OW 2992   6.134   6.867   5.915
  698SOL    HW1 2993   6.180   6.889   5.829
  698SOL    HW2 2994   6.113   6.769   5.918
  699SOL     OW 2995   4.272   3.013   0.851
  699SOL    HW1 2996   4.351   2.974   0.898
  699SOL    HW2 2997   4.188   2.992   0.901
  700SOL     OW 2998   3.524   6.744   5.247
  700SOL    HW1 2999   3.556   6.665   5.195
  700SOL    HW2 3000   3.437   6.775   5.209
  701SOL     OW 3001   4.329   4.338   1.617
  701SOL    HW1 3002   4.252   4.322   1.555
  701SOL    HW2 3003   4.349   4.254   1.668
  702SOL     OW 3004   3.104   0.863   5.241
  702SOL    HW1 3005   3.107   0.958   5.208
  702SOL    HW2 3006   3.150   0.857   5.330
  703SOL     OW 3007   3.939   2.783   0.677
  703SOL    HW1 3008   3.908   2.727   0.600
  703SOL    HW2 3009   3.865   2.842   0.708
  704SOL     OW 3010   3.580   1.317   0.390
  704SOL    HW1 3011   3.506   1.342   0.452
  704SOL    HW2 3012   3.590   1.218   0.388
  705SOL     OW 3013   6.681   6.726   5.882
  705SOL    HW1 3014   6.584   6.738   5.902
  705SOL    HW2 3015   6.703   6.628   5.886
  706SOL     OW 3016   3.534   0.513   4.988
  706SOL    HW1 3017   3.529   0.496   4.890
  706SOL    HW2 3018   3.625   0.546   5.012
  707SOL     OW 3019   3.810   5.039   4.396
  707SOL    HW1 3020   3.818   5.133   4.362
  707SOL    HW2 3021   3.718   5.004   4.377
  708SOL     OW 3022   2.828   5.781   4.042
  708SOL    HW1 3023   2.772   5.702   4.067
  708SOL    HW2 3024   2.886   5.807   4.119
  709SOL     OW 3025   1.820   6.742   1.894
  709SOL    HW1 3026   1.772   6.680   1.831
  709SOL    HW2 3027   1.804   6.836   1.866
  710SOL     OW 3028   4.818   2.999   3.060
  710SOL    HW1 3029   4.898   2.947   3.090
  710SOL    HW2 3030   4.748   2.935   3.027
  711SOL     OW 3031   6.661   1.077   0.488
  711SOL    HW1 3032   6.727   1.151   0.499
  711SOL    HW2 3033   6.665   1.043   0.394
  712SOL     OW 3034   4.987   4.588   6.694
  712SOL    HW1 3035   5.045   4.603   6.774
  712SOL    HW2 3036   5.028   4.518   6.635
  713SOL     OW 3037   2.532   2.888   5.423
  713SOL    HW1 3038   2.494   2.938   5.502
  713SOL    HW2 3039   2.527   2.946   5.342
  714SOL     OW 3040   4.009   6.710   2.740
  714SOL    HW1 3041   3.981   6.692   2.646
  714SOL    HW2 3042   4.057   6.798   2.744
  715SOL     OW 3043   6.138   4.119   6.105
  715SOL    HW1 3044   6.228   4.077   6.106
  715SOL    HW2 3045   6.070   4.054   6.138
  716SOL     OW 3046   3.288   0.834   3.525
  716SOL    HW1 3047   3.379   0.859   3.492
  716SOL    HW2 3048   3.250   0.909   3.580
  717SOL     OW 3049   5.460   4.418   3.610
  717SOL    HW1 3050   5.454   4.332   3.560
  717SOL    HW2 3051   5.440   4.494   3.549
  718SOL     OW 3052   6.779   2.290   5.410
  718SOL    HW1 3053   6.813   2.244   5.492
  718SOL    HW2 3054   6.802   2.388   5.415
  719SOL     OW 3055   4.470   5.573   2.281
  719SOL    HW1 3056   4.570   5.567   2.286
  719SOL    HW2 3057   4.430   5.486   2.310
  720SOL     OW 3058   3.038   1.492   1.002
  720SOL    HW1 3059   3.054   1.591   0.996
  720SOL    HW2 3060   3.069   1.459   1.091
  721SOL     OW 3061   0.059   2.493   2.656
  721SOL    HW1 3062   0.156   2.516   2.647
  721SOL    HW2 3063   0.005   2.577   2.659
  722SOL     OW 3064   5.499   5.885   2.355
  722SOL    HW1 3065   5.575   5.922   2.300
  722SOL    HW2 3066   5.417   5.882   2.298
  723SOL     OW 3067   2.087   0.245   4.655
  723SOL    HW1 3068   2.114   0.300   4.734
  723SOL    HW2 3069   2.143   0.270   4.576
  724SOL     OW 3070   1.581   2.391   4.778
  724SOL    HW1 3071   1.509   2.366   4.714
  724SOL    HW2 3072   1.668   2.353   4.746
  725SOL     OW 3073   1.850   3.677   3.661
  725SOL    HW1 3074   1.752   3.683   3.644
  725SOL    HW2 3075   1.877   3.582   3.674
  726SOL     OW 3076   2.045   3.103   0.222
  726SOL    HW1 3077   1.969   3.154   0.261
  726SOL    HW2 3078   2.011   3.026   0.168
  727SOL     OW 3079   3.625   5.204   5.344
  727SOL    HW1 3080   3.614   5.136   5.271
  727SOL    HW2 3081   3.580   5.171   5.428
  728SOL     OW 3082   6.269   3.393   3.403
  728SOL    HW1 3083   6.308   3.312   3.446
  728SOL    HW2 3084   6.277   3.387   3.304
  729SOL     OW 3085   0.139   4.614   0.567
  729SOL    HW1 3086   0.194   4.552   0.623
  729SOL    HW2 3087   0.152   4.593   0.471
  730SOL     OW 3088   3.429   0.957   3.904
  730SOL    HW1 3089   3.419   1.048   3.864
  730SOL    HW2 3090   3.341   0.926   3.940
  731SOL     OW 3091   5.015   4.461   4.707
  731SOL    HW1 3092   5.015   4.361   4.711
  731SOL    HW2 3093   4.958   4.491   4.630
  732SOL     OW 3094   5.043   0.408   4.516
  732SOL    HW1 3095   5.079   0.440   4.429
  732SOL    HW2 3096   4.956   0.361   4.502
  733SOL     OW 3097   0.383   5.264   4.608
  733SOL    HW1 3098   0.393   5.212   4.523
  733SOL    HW2 3099   0.393   5.203   4.686
  734SOL     OW 3100   6.753   5.740   3.254
  734SOL    HW1 3101   6.723   5.687   3.175
  734SOL    HW2 3102   6.747   5.683   3.336
  735SOL     OW 3103   4.890   0.493   2.620
  735SOL    HW1 3104   4.882   0.396   2.642
  735SOL    HW2 3105   4.972   0.508   2.565
  736SOL     OW 3106   1.874   1.160   3.107
  736SOL    HW1 3107   1.878   1.094   3.032
  736SOL    HW2 3108   1.785   1.205   3.107
  737SOL     OW 3109   3.553   1.682   6.607
  737SOL    HW1 3110   3.484   1.750   6.633
  737SOL    HW2 3111   3.551   1.606   6.672
  738SOL     OW 3112   1.467   5.332   0.489
  738SOL    HW1 3113   1.408   5.253   0.473
  738SOL    HW2 3114   1.423   5.393   0.555
  739SOL     OW 3115   1.911   1.057   2.470
  739SOL    HW1 3116   1.979   1.063   2.544
  739SOL    HW2 3117   1.851   0.979   2.485
  740SOL     OW 3118   4.644   2.492   2.640
  740SOL    HW1 3119   4.649   2.585   2.676
  740SOL    HW2 3120   4.726   2.472   2.587
  741SOL     OW 3121   3.515   1.039   2.520
  741SOL    HW1 3122   3.460   1.110   2.475
  741SOL    HW2 3123   3.511   1.051   2.619
  742SOL     OW 3124   2.286   0.497   2.324
  742SOL    HW1 3125   2.372   0.494   2.375
  742SOL    HW2 3126   2.281   0.582   2.271
  743SOL     OW 3127   6.891   6.669   2.792
  743SOL    HW1 3128   6.919   6.717   2.875
  743SOL    HW2 3129   6.952   6.694   2.716
  744SOL     OW 3130   5.891   1.046   0.761
  744SOL    HW1 3131   5.973   1.012   0.808
  744SOL    HW2 3132   5.894   1.145   0.756
  745SOL     OW 3133   0.744   6.264   5.586
  745SOL    HW1 3134   0.711   6.195   5.651
  745SOL    HW2 3135   0.741   6.226   5.494
  746SOL     OW 3136   6.329   5.420   5.964
  746SOL    HW1 3137   6.389   5.341   5.949
  746SOL    HW2 3138   6.378   5.504   5.941
  747SOL     OW 3139   3.296   4.934   2.262
  747SOL    HW1 3140   3.281   4.859   2.198
  747SOL    HW2 3141   3.217   4.995   2.262
  748SOL     OW 3142   6.466   5.227   3.194
  748SOL    HW1 3143   6.403   5.253   3.121
  748SOL    HW2 3144   6.490   5.307   3.248
  749SOL     OW 3145   4.655   4.286   4.860
  749SOL    HW1 3146   4.616   4.362   4.809
  749SOL    HW2 3147   4.659   4.309   4.957
  750SOL     OW 3148   2.799   1.945   2.804
  750SOL    HW1 3149   2.783   1.910   2.712
  750SOL    HW2 3150   2.897   1.960   2.817
  751SOL     OW 3151   4.420   0.264   0.260
  751SOL    HW1 3152   4.362   0.344   0.245
  751SOL    HW2 3153   4.397   0.223   0.349
  752SOL     OW 3154   2.948   3.291   3.792
  752SOL    HW1 3155   2.917   3.208   3.839
  752SOL    HW2 3156   3.025   3.269   3.732
  753SOL     OW 3157   3.076   4.003   3.812
  753SOL    HW1 3158   3.143   3.992   3.738
  753SOL    HW2 3159   3.113   4.065   3.881
  754SOL     OW 3160   4.353   0.634   5.818
  754SOL    HW1 3161   4.434   0.640   5.876
  754SOL    HW2 3162   4.358   0.703   5.745
  755SOL     OW 3163   5.074   4.519   5.010
  755SOL    HW1 3164   5.044   4.492   4.918
  755SOL    HW2 3165   4.996   4.557   5.061
  756SOL     OW 3166   2.967   5.976   6.147
  756SOL    HW1 3167   2.973   6.063   6.097
  756SOL    HW2 3168   2.997   5.901   6.089
  757SOL     OW 3169   0.559   0.058   1.607
  757SOL    HW1 3170   0.583   0.108   1.524
  757SOL    HW2 3171   0.466   0.082   1.634
  758SOL     OW 3172   3.794   1.169   5.683
  758SOL    HW1 3173   3.749   1.209   5.763
  758SOL    HW2 3174   3.761   1.214   5.600
  759SOL     OW 3175   0.075   2.450   3.608
  759SOL    HW1 3176   0.008   2.494   3.548
  759SOL    HW2 3177   0.148   2.515   3.628
  760SOL     OW 3178   6.737   6.031   4.606
  760SOL    HW1 3179   6.718   6.125   4.633
  760SOL    HW2 3180   6.728   6.021   4.507
  761SOL     OW 3181   4.800   4.420   5.979
  761SOL    HW1 3182   4.820   4.510   6.018
  761SOL    HW2 3183   4.803   4.426   5.880
  762SOL     OW 3184   3.874   5.987   3.598
  762SOL    HW1 3185   3.908   5.907   3.648
  762SOL    HW2 3186   3.827   5.956   3.514
  763SOL     OW 3187   5.577   1.003   0.381
  763SOL    HW1 3188   5.638   1.069   0.337
  763SOL    HW2 3189   5.616   0.911   0.374
  764SOL     OW 3190   4.837   6.432   4.317
  764SOL    HW1 3191   4.864   6.483   4.236
  764SOL    HW2 3192   4.825   6.335   4.294
  765SOL     OW 3193   5.432   6.304   7.010
  765SOL    HW1 3194   5.424   6.265   6.918
  765SOL    HW2 3195   5.408   6.401   7.007
  766SOL     OW 3196   3.198   1.424   3.899
  766SOL    HW1 3197   3.241   1.514   3.906
  766SOL    HW2 3198   3.109   1.433   3.854
  767SOL     OW 3199   6.419   6.664   3.425
  767SOL    HW1 3200   6.392   6.572   3.396
  767SOL    HW2 3201   6.519   6.671   3.423
  768SOL     OW 3202   2.959   5.593   1.005
  768SOL    HW1 3203   2.974   5.519   1.071
  768SOL    HW2 3204   3.041   5.606   0.950
  769SOL     OW 3205   3.642   2.194   5.672
  769SOL    HW1 3206   3.732   2.188   5.713
  769SOL    HW2 3207   3.595   2.277   5.705
  770SOL     OW 3208   0.419   4.550   5.956
  770SOL    HW1 3209   0.436   4.638   5.911
  770SOL    HW2 3210   0.320   4.534   5.960
  771SOL     OW 3211   1.715   5.031   2.472
  771SOL    HW1 3212   1.686   5.030   2.377
  771SOL    HW2 3213   1.704   5.123   2.510
  772SOL     OW 3214   6.060   4.810   0.329
  772SOL    HW1 3215   6.031   4.855   0.244
  772SOL    HW2 3216   6.126   4.868   0.377
  773SOL     OW 3217   1.281   4.794   3.671
  773SOL    HW1 3218   1.210   4.817   3.605
  773SOL    HW2 3219   1.369   4.825   3.638
  774SOL     OW 3220   2.066   2.744   3.380
  774SOL    HW1 3221   1.975   2.714   3.349
  774SOL    HW2 3222   2.077   2.722   3.477
  775SOL     OW 3223   0.789   5.097   2.568
  775SOL    HW1 3224   0.790   5.155   2.486
  775SOL    HW2 3225   0.881   5.061   2.584
  776SOL     OW 3226   2.145   4.445   0.476
  776SOL    HW1 3227   2.089   4.367   0.448
  776SOL    HW2 3228   2.097   4.530   0.455
  777SOL     OW 3229   1.468   3.217   6.611
  777SOL    HW1 3230   1.485   3.118   6.615
  777SOL    HW2 3231   1.455   3.245   6.516
  778SOL     OW 3232   3.438   5.832   0.300
  778SOL    HW1 3233   3.526   5.816   0.256
  778SOL    HW2 3234   3.444   5.912   0.359
  779SOL     OW 3235   5.918   2.339   3.743
  779SOL    HW1 3236   5.987   2.406   3.772
  779SOL    HW2 3237   5.933   2.315   3.648
  780SOL     OW 3238   6.282   2.052   5.039
  780SOL    HW1 3239   6.198   2.001   5.057
  780SOL    HW2 3240   6.333   2.064   5.124
  781SOL     OW 3241   6.736   5.025   6.729
  781SOL    HW1 3242   6.821   5.078   6.728
  781SOL    HW2 3243   6.752   4.938   6.776
  782SOL     OW 3244   2.029   4.111   5.414
  782SOL    HW1 3245   2.126   4.131   5.409
  782SOL    HW2 3246   1.981   4.185   5.461
  783SOL     OW 3247   0.288   5.067   5.556
  783SOL    HW1 3248   0.327   5.112   5.636
  783SOL    HW2 3249   0.192   5.046   5.572
  784SOL     OW 3250   0.961   6.043   5.802
  784SOL    HW1 3251   1.033   6.013   5.864
  784SOL    HW2 3252   0.988   6.023   5.708
  785SOL     OW 3253   0.568   0.145   3.869
  785SOL    HW1 3254   0.568   0.243   3.886
  785SOL    HW2 3255   0.474   0.111   3.867
  786SOL     OW 3256   6.481   2.056   4.850
  786SOL    HW1 3257   6.419   2.044   4.927
  786SOL    HW2 3258   6.473   2.149   4.815
  787SOL     OW 3259   2.371   6.527   0.553
  787SOL    HW1 3260   2.403   6.616   0.520
  787SOL    HW2 3261   2.449   6.471   0.579
  788SOL     OW 3262   2.067   2.936   2.407
  788SOL    HW1 3263   2.129   2.945   2.485
  788SOL    HW2 3264   1.976   2.970   2.433
  789SOL     OW 3265   3.061   5.621   1.933
  789SOL    HW1 3266   3.042   5.644   1.838
  789SOL    HW2 3267   3.076   5.522   1.941
  790SOL     OW 3268   6.698   3.381   2.890
  790SOL    HW1 3269   6.639   3.429   2.955
  790SOL    HW2 3270   6.789   3.369   2.931
  791SOL     OW 3271   3.709   0.309   4.002
  791SOL    HW1 3272   3.688   0.407   4.000
  791SOL    HW2 3273   3.625   0.258   4.015
  792SOL     OW 3274   3.205   0.654   0.690
  792SOL    HW1 3275   3.153   0.640   0.774
  792SOL    HW2 3276   3.289   0.705   0.711
  793SOL     OW 3277   2.215   5.675   4.629
  793SOL    HW1 3278   2.251   5.744   4.566
  793SOL    HW2 3279   2.136   5.629   4.588
  794SOL     OW 3280   3.604   3.059   1.939
  794SOL    HW1 3281   3.650   3.079   2.025
  794SOL    HW2 3282   3.559   3.142   1.906
  795SOL     OW 3283   3.724   6.356   6.167
  795SOL    HW1 3284   3.808   6.370   6.114
  795SOL    HW2 3285   3.645   6.359   6.107
  796SOL     OW 3286   1.069   2.316   6.584
  796SOL    HW1 3287   1.101   2.229   6.622
  796SOL    HW2 3288   1.140   2.355   6.525
  797SOL     OW 3289   2.997   6.788   0.113
  797SOL    HW1 3290   2.974   6.691   0.115
  797SOL    HW2 3291   2.915   6.841   0.092
  798SOL     OW 3292   5.484   4.249   1.965
  798SOL    HW1 3293   5.388   4.278   1.967
  798SOL    HW2 3294   5.526   4.282   1.881
  799SOL     OW 3295   3.288   3.354   4.528
  799SOL    HW1 3296   3.383   3.386   4.532
  799SOL    HW2 3297   3.240   3.404   4.456
  800SOL     OW 3298   5.121   3.050   3.237
  800SOL    HW1 3299   5.059   3.128   3.229
  800SOL    HW2 3300   5.071   2.966   3.217
  801SOL     OW 3301   1.969   4.539   0.123
  801SOL    HW1 3302   1.988   4.566   0.218
  801SOL    HW2 3303   1.924   4.450   0.122
  802SOL     OW 3304   3.931   2.644   5.826
  802SOL    HW1 3305   4.010   2.624   5.768
  802SOL    HW2 3306   3.917   2.743   5.831
  803SOL     OW 3307   3.602   2.080   3.381
  803SOL    HW1 3308   3.636   2.147   3.316
  803SOL    HW2 3309   3.629   1.988   3.352
  804SOL     OW 3310   4.427   0.057   2.759
  804SOL    HW1 3311   4.446   0.010   2.673
  804SOL    HW2 3312   4.342   0.110   2.749
  805SOL     OW 3313   3.783   1.664   3.836
  805SOL    HW1 3314   3.708   1.639   3.897
  805SOL    HW2 3315   3.749   1.674   3.742
  806SOL     OW 3316   4.680   6.435   5.762
  806SOL    HW1 3317   4.582   6.416   5.752
  806SOL    HW2 3318   4.728   6.352   5.788
  807SOL     OW 3319   1.285   6.437   6.073
  807SOL    HW1 3320   1.234   6.445   6.158
  807SOL    HW2 3321   1.228   6.393   6.003
  808SOL     OW 3322   5.157   1.986   5.345
  808SOL    HW1 3323   5.216   1.933   5.284
  808SOL    HW2 3324   5.210   2.020   5.422
  809SOL     OW 3325   2.515   6.295   4.665
  809SOL    HW1 3326   2.456   6.376   4.669
  809SOL    HW2 3327   2.507   6.244   4.751
  810SOL     OW 3328   3.068   3.622   6.310
  810SOL    HW1 3329   3.088   3.634   6.213
  810SOL    HW2 3330   3.154   3.615   6.361
  811SOL     OW 3331   5.992   5.175   5.794
  811SOL    HW1 3332   6.022   5.082   5.777
  811SOL    HW2 3333   6.064   5.239   5.768
  812SOL     OW 3334   1.647   2.172   0.442
  812SOL    HW1 3335   1.651   2.259   0.491
  812SOL    HW2 3336   1.737   2.130   0.439
  813SOL     OW 3337   2.762   1.423   4.992
  813SOL    HW1 3338   2.689   1.484   5.024
  813SOL    HW2 3339   2.847   1.474   4.981
  814SOL     OW 3340   0.921   4.614   1.535
  814SOL    HW1 3341   0.977   4.570   1.466
  814SOL    HW2 3342   0.979   4.662   1.601
  815SOL     OW 3343   4.049   0.504   4.132
  815SOL    HW1 3344   4.141   0.506   4.092
  815SOL    HW2 3345   3.993   0.437   4.083
  816SOL     OW 3346   4.541   3.652   6.600
  816SOL    HW1 3347   4.637   3.628   6.611
  816SOL    HW2 3348   4.517   3.725   6.664
  817SOL     OW 3349   6.605   5.510   0.611
  817SOL    HW1 3350   6.606   5.449   0.689
  817SOL    HW2 3351   6.554   5.467   0.536
  818SOL     OW 3352   6.592   1.157   5.269
  818SOL    HW1 3353   6.492   1.165   5.274
  818SOL    HW2 3354   6.633   1.241   5.306
  819SOL     OW 3355   5.477   3.691   1.722
  819SOL    HW1 3356   5.464   3.687   1.821
  819SOL    HW2 3357   5.564   3.737   1.702
  820SOL     OW 3358   1.965   1.744   5.457
  820SOL    HW1 3359   1.949   1.744   5.359
  820SOL    HW2 3360   2.061   1.721   5.476
  821SOL     OW 3361   4.617   3.951   6.506
  821SOL    HW1 3362   4.638   3.867   6.456
  821SOL    HW2 3363   4.542   3.934   6.570
  822SOL     OW 3364   0.156   3.989   3.002
  822SOL    HW1 3365   0.177   4.051   2.926
  822SOL    HW2 3366   0.058   3.972   3.006
  823SOL     OW 3367   1.685   2.942   4.371
  823SOL    HW1 3368   1.658   2.857   4.328
  823SOL    HW2 3369   1.604   2.997   4.392
  824SOL     OW 3370   5.116   0.765   6.100
  824SOL    HW1 3371   5.097   0.863   6.111
  824SOL    HW2 3372   5.169   0.750   6.017
  825SOL     OW 3373   6.384   6.481   1.480
  825SOL    HW1 3374   6.483   6.477   1.474
  825SOL    HW2 3375   6.358   6.548   1.550
  826SOL     OW 3376   3.284   1.925   0.356
  826SOL    HW1 3377   3.311   2.020   0.371
  826SOL    HW2 3378   3.332   1.887   0.278
  827SOL     OW 3379   3.663   3.121   4.971
  827SOL    HW1 3380   3.679   3.022   4.973
  827SOL    HW2 3381   3.608   3.144   4.890
  828SOL     OW 3382   0.357   6.385   6.142
  828SOL    HW1 3383   0.329   6.367   6.237
  828SOL    HW2 3384   0.310   6.321   6.081
  829SOL     OW 3385   3.656   3.009   1.445
  829SOL    HW1 3386   3.685   2.935   1.505
  829SOL    HW2 3387   3.723   3.021   1.372
  830SOL     OW 3388   0.625   3.904   5.850
  830SOL    HW1 3389   0.707   3.908   5.794
  830SOL    HW2 3390   0.544   3.900   5.791
  831SOL     OW 3391   5.661   1.867   3.310
  831SOL    HW1 3392   5.744   1.814   3.326
  831SOL    HW2 3393   5.613   1.882   3.396
  832SOL     OW 3394   3.007   2.064   4.833
  832SOL    HW1 3395   3.067   2.128   4.881
  832SOL    HW2 3396   2.922   2.052   4.884
  833SOL     OW 3397   3.355   3.011   6.176
  833SOL    HW1 3398   3.298   3.053   6.105
  833SOL    HW2 3399   3.439   3.064   6.188
  834SOL     OW 3400   6.312   3.368   1.409
  834SOL    HW1 3401   6.332   3.338   1.316
  834SOL    HW2 3402   6.264   3.456   1.407
  835SOL     OW 3403   6.432   6.334   5.042
  835SOL    HW1 3404   6.472   6.250   5.006
  835SOL    HW2 3405   6.387   6.315   5.129
  836SOL     OW 3406   6.558   0.360   3.599
  836SOL    HW1 3407   6.620   0.282   3.586
  836SOL    HW2 3408   6.549   0.379   3.696
  837SOL     OW 3409   0.494   6.870   6.579
  837SOL    HW1 3410   0.593   6.855   6.568
  837SOL    HW2 3411   0.465   6.834   6.668
  838SOL     OW 3412   0.933   6.033   3.107
  838SOL    HW1 3413   0.853   6.033   3.047
  838SOL    HW2 3414   0.980   5.945   3.099
  839SOL     OW 3415   1.763   1.835   0.011
  839SOL    HW1 3416   1.762   1.829   6.931
  839SOL    HW2 3417   1.835   1.897   0.040
  840SOL     OW 3418   4.947   5.213   0.452
  840SOL    HW1 3419   5.030   5.164   0.425
  840SOL    HW2 3420   4.877   5.203   0.382
  841SOL     OW 3421   2.893   4.400   6.710
  841SOL    HW1 3422   2.892   4.392   6.610
  841SOL    HW2 3423   2.960   4.336   6.748
  842SOL     OW 3424   3.740   5.698   1.098
  842SOL    HW1 3425   3.756   5.741   1.187
  842SOL    HW2 3426   3.825   5.661   1.062
  843SOL     OW 3427   2.011   6.675   2.092
  843SOL    HW1 3428   1.950   6.753   2.075
  843SOL    HW2 3429   2.055   6.686   2.181
  844SOL     OW 3430   0.031   6.735   1.291
  844SOL    HW1 3431   6.987   6.748   1.215
  844SOL    HW2 3432   0.001   6.791   1.368
  845SOL     OW 3433   4.147   1.633   1.711
  845SOL    HW1 3434   4.232   1.589   1.741
  845SOL    HW2 3435   4.152   1.731   1.730
  846SOL     OW 3436   1.335   0.398   1.325
  846SOL    HW1 3437   1.431   0.370   1.326
  846SOL    HW2 3438   1.276   0.319   1.345
  847SOL     OW 3439   2.740   2.805   1.511
  847SOL    HW1 3440   2.717   2.757   1.596
  847SOL    HW2 3441   2.778   2.739   1.446
  848SOL     OW 3442   6.468   6.229   0.882
  848SOL    HW1 3443   6.426   6.262   0.797
  848SOL    HW2 3444   6.490   6.132   0.872
  849SOL     OW 3445   5.446   3.411   6.249
  849SOL    HW1 3446   5.525   3.354   6.225
  849SOL    HW2 3447   5.390   3.425   6.167
  850SOL     OW 3448   2.276   0.887   3.961
  850SOL    HW1 3449   2.239   0.979   3.952
  850SOL    HW2 3450   2.308   0.873   4.055
  851SOL     OW 3451   4.689   2.734   6.343
  851SOL    HW1 3452   4.786   2.711   6.355
  851SOL    HW2 3453   4.682   2.823   6.298
  852SOL     OW 3454   0.603   4.614   1.227
  852SOL    HW1 3455   0.647   4.525   1.237
  852SOL    HW2 3456   0.534   4.626   1.298
  853SOL     OW 3457   3.726   2.703   0.468
  853SOL    HW1 3458   3.647   2.732   0.521
  853SOL    HW2 3459   3.732   2.757   0.384
  854SOL     OW 3460   6.488   0.866   6.254
  854SOL    HW1 3461   6.514   0.858   6.157
  854SOL    HW2 3462   6.527   0.789   6.305
  855SOL     OW 3463   4.276   2.053   6.636
  855SOL    HW1 3464   4.199   2.108   6.669
  855SOL    HW2 3465   4.352   2.114   6.612
  856SOL     OW 3466   1.138   5.795   1.449
  856SOL    HW1 3467   1.218   5.779   1.391
  856SOL    HW2 3468   1.075   5.857   1.401
  857SOL     OW 3469   6.871   6.413   5.483
  857SOL    HW1 3470   6.781   6.373   5.495
  857SOL    HW2 3471   6.903   6.451   5.570
  858SOL     OW 3472   2.831   4.491   0.598
  858SOL    HW1 3473   2.766   4.438   0.544
  858SOL    HW2 3474   2.819   4.588   0.578
  859SOL     OW 3475   4.865   6.208   5.855
  859SOL    HW1 3476   4.838   6.203   5.951
  859SOL    HW2 3477   4.860   6.117   5.814
  860SOL     OW 3478   4.341   2.997   0.132
  860SOL    HW1 3479   4.358   3.074   0.194
  860SOL    HW2 3480   4.400   3.005   0.052
  861SOL     OW 3481   0.841   5.437   2.586
  861SOL    HW1 3482   0.890   5.524   2.586
  861SOL    HW2 3483   0.886   5.374   2.521
  862SOL     OW 3484   0.865   4.718   4.436
  862SOL    HW1 3485   0.876   4.740   4.534
  862SOL    HW2 3486   0.850   4.620   4.426
  863SOL     OW 3487   4.916   0.500   1.294
  863SOL    HW1 3488   4.885   0.436   1.223
  863SOL    HW2 3489   4.918   0.454   1.383
  864SOL     OW 3490   5.693   3.518   3.624
  864SOL    HW1 3491   5.616   3.580   3.612
  864SOL    HW2 3492   5.728   3.492   3.534
  865SOL     OW 3493   2.020   4.622   4.810
  865SOL    HW1 3494   1.995   4.528   4.784
  865SOL    HW2 3495   2.075   4.619   4.893
  866SOL     OW 3496   3.674   6.522   0.853
  866SOL    HW1 3497   3.599   6.583   0.879
  866SOL    HW2 3498   3.732   6.505   0.933
  867SOL     OW 3499   5.837   3.367   4.550
  867SOL    HW1 3500   5.926   3.327   4.529
  867SOL    HW2 3501   5.785   3.305   4.609
  868SOL     OW 3502   0.431   1.686   1.863
  868SOL    HW1 3503   0.491   1.719   1.791
  868SOL    HW2 3504   0.426   1.586   1.859
  869SOL     OW 3505   0.985   2.551   2.127
  869SOL    HW1 3506   1.074   2.591   2.105
  869SOL    HW2 3507   0.946   2.509   2.045
  870SOL     OW 3508   3.801   4.807   1.661
  870SOL    HW1 3509   3.736   4.768   1.727
  870SOL    HW2 3510   3.855   4.733   1.620
  871SOL     OW 3511   4.811   1.806   3.682
  871SOL    HW1 3512   4.886   1.865   3.714
  871SOL    HW2 3513   4.832   1.711   3.703
  872SOL     OW 3514   2.091   2.529   5.837
  872SOL    HW1 3515   2.022   2.463   5.867
  872SOL    HW2 3516   2.054   2.621   5.841
  873SOL     OW 3517   4.035   1.126   5.842
  873SOL    HW1 3518   3.974   1.149   5.766
  873SOL    HW2 3519   3.988   1.063   5.904
  874SOL     OW 3520   5.601   3.817   2.928
  874SOL    HW1 3521   5.693   3.778   2.925
  874SOL    HW2 3522   5.578   3.856   2.838
  875SOL     OW 3523   5.231   5.262   2.427
  875SOL    HW1 3524   5.185   5.350   2.434
  875SOL    HW2 3525   5.162   5.190   2.414
  876SOL     OW 3526   6.280   1.575   6.206
  876SOL    HW1 3527   6.355   1.641   6.208
  876SOL    HW2 3528   6.213   1.599   6.276
  877SOL     OW 3529   1.184   3.416   6.019
  877SOL    HW1 3530   1.177   3.444   5.924
  877SOL    HW2 3531   1.225   3.326   6.025
  878SOL     OW 3532   4.457   6.551   4.749
  878SOL    HW1 3533   4.418   6.461   4.764
  878SOL    HW2 3534   4.499   6.554   4.658
  879SOL     OW 3535   5.879   7.015   5.967
  879SOL    HW1 3536   5.930   0.075   5.999
  879SOL    HW2 3537   5.943   6.947   5.932
  880SOL     OW 3538   3.474   2.862   3.108
  880SOL    HW1 3539   3.507   2.775   3.071
  880SOL    HW2 3540   3.459   2.926   3.033
  881SOL     OW 3541   5.062   2.131   0.405
  881SOL    HW1 3542   4.996   2.056   0.399
  881SOL    HW2 3543   5.082   2.164   0.313
  882SOL     OW 3544   1.845   2.395   4.081
  882SOL    HW1 3545   1.792   2.315   4.110
  882SOL    HW2 3546   1.921   2.366   4.024
  883SOL     OW 3547   2.548   6.477   3.175
  883SOL    HW1 3548   2.552   6.558   3.233
  883SOL    HW2 3549   2.582   6.500   3.084
  884SOL     OW 3550   2.680   3.368   5.748
  884SOL    HW1 3551   2.600   3.313   5.726
  884SOL    HW2 3552   2.684   3.447   5.686
  885SOL     OW 3553   4.312   3.416   6.776
  885SOL    HW1 3554   4.231   3.388   6.827
  885SOL    HW2 3555   4.360   3.489   6.825
  886SOL     OW 3556   3.806   1.629   6.145
  886SOL    HW1 3557   3.811   1.537   6.106
  886SOL    HW2 3558   3.773   1.624   6.239
  887SOL     OW 3559   3.588   0.846   5.674
  887SOL    HW1 3560   3.553   0.798   5.593
  887SOL    HW2 3561   3.673   0.892   5.652
  888SOL     OW 3562   0.160   6.571   2.073
  888SOL    HW1 3563   0.183   6.620   1.989
  888SOL    HW2 3564   0.105   6.631   2.131
  889SOL     OW 3565   0.591   4.160   1.439
  889SOL    HW1 3566   0.595   4.069   1.399
  889SOL    HW2 3567   0.518   4.164   1.508
  890SOL     OW 3568   2.711   6.369   4.413
  890SOL    HW1 3569   2.631   6.346   4.469
  890SOL    HW2 3570   2.756   6.449   4.451
  891SOL     OW 3571   4.413   4.702   2.109
  891SOL    HW1 3572   4.448   4.789   2.144
  891SOL    HW2 3573   4.453   4.626   2.161
  892SOL     OW 3574   2.451   4.200   1.016
  892SOL    HW1 3575   2.510   4.120   1.030
  892SOL    HW2 3576   2.370   4.192   1.074
  893SOL     OW 3577   1.410   5.250   2.225
  893SOL    HW1 3578   1.398   5.151   2.231
  893SOL    HW2 3579   1.325   5.296   2.254
  894SOL     OW 3580   1.404   4.305   1.072
  894SOL    HW1 3581   1.441   4.218   1.105
  894SOL    HW2 3582   1.304   4.300   1.072
  895SOL     OW 3583   6.553   5.942   5.673
  895SOL    HW1 3584   6.578   5.996   5.593
  895SOL    HW2 3585   6.629   5.881   5.697
  896SOL     OW 3586   6.753   0.598   5.934
  896SOL    HW1 3587   6.730   0.507   5.901
  896SOL    HW2 3588   6.841   0.595   5.982
  897SOL     OW 3589   5.855   0.950   0.506
  897SOL    HW1 3590   5.867   0.986   0.598
  897SOL    HW2 3591   5.790   0.874   0.508
  898SOL     OW 3592   4.009   1.920   3.737
  898SOL    HW1 3593   3.920   1.876   3.736
  898SOL    HW2 3594   3.999   2.017   3.760
  899SOL     OW 3595   6.537   6.944   6.455
  899SOL    HW1 3596   6.563   6.896   6.372
  899SOL    HW2 3597   6.576   6.898   6.534
  900SOL     OW 3598   5.034   4.664   5.918
  900SOL    HW1 3599   5.125   4.697   5.894
  900SOL    HW2 3600   5.042   4.584   5.977
  901SOL     OW 3601   1.089   0.664   2.405
  901SOL    HW1 3602   1.166   0.666   2.341
  901SOL    HW2 3603   1.004   0.670   2.354
  902SOL     OW 3604   0.071   2.818   2.743
  902SOL    HW1 3605   0.046   2.887   2.675
  902SOL    HW2 3606   0.128   2.748   2.699
  903SOL     OW 3607   5.798   1.152   0.291
  903SOL    HW1 3608   5.873   1.175   0.230
  903SOL    HW2 3609   5.831   1.092   0.364
  904SOL     OW 3610   3.181   1.080   3.659
  904SOL    HW1 3611   3.268   1.117   3.691
  904SOL    HW2 3612   3.144   1.139   3.588
  905SOL     OW 3613   5.066   2.435   6.270
  905SOL    HW1 3614   5.062   2.380   6.353
  905SOL    HW2 3615   5.089   2.376   6.192
  906SOL     OW 3616   6.080   2.980   1.422
  906SOL    HW1 3617   6.117   2.945   1.508
  906SOL    HW2 3618   6.034   2.906   1.373
  907SOL     OW 3619   5.800   4.804   0.442
  907SOL    HW1 3620   5.734   4.734   0.413
  907SOL    HW2 3621   5.885   4.792   0.392
  908SOL     OW 3622   1.040   4.036   3.513
  908SOL    HW1 3623   1.119   4.062   3.568
  908SOL    HW2 3624   1.026   3.937   3.519
  909SOL     OW 3625   5.093   4.260   5.459
  909SOL    HW1 3626   5.126   4.303   5.543
  909SOL    HW2 3627   5.022   4.193   5.482
  910SOL     OW 3628   3.473   4.658   0.129
  910SOL    HW1 3629   3.482   4.588   0.200
  910SOL    HW2 3630   3.495   4.747   0.168
  911SOL     OW 3631   1.042   4.474   5.807
  911SOL    HW1 3632   1.056   4.563   5.850
  911SOL    HW2 3633   1.121   4.452   5.750
  912SOL     OW 3634   5.560   1.572   5.042
  912SOL    HW1 3635   5.617   1.497   5.009
  912SOL    HW2 3636   5.559   1.645   4.975
  913SOL     OW 3637   5.888   5.669   3.768
  913SOL    HW1 3638   5.962   5.671   3.701
  913SOL    HW2 3639   5.923   5.695   3.858
  914SOL     OW 3640   2.450   6.237   4.929
  914SOL    HW1 3641   2.487   6.187   5.008
  914SOL    HW2 3642   2.476   6.333   4.936
  915SOL     OW 3643   5.414   4.972   2.364
  915SOL    HW1 3644   5.331   4.920   2.386
  915SOL    HW2 3645   5.389   5.066   2.343
  916SOL     OW 3646   1.301   4.326   3.031
  916SOL    HW1 3647   1.309   4.257   3.102
  916SOL    HW2 3648   1.383   4.324   2.973
  917SOL     OW 3649   0.271   6.784   6.982
  917SOL    HW1 3650   0.365   6.772   6.949
  917SOL    HW2 3651   0.256   6.880   7.005
  918SOL     OW 3652   3.383   5.694   6.112
  918SOL    HW1 3653   3.391   5.765   6.182
  918SOL    HW2 3654   3.413   5.730   6.024
  919SOL     OW 3655   4.346   0.205   5.929
  919SOL    HW1 3656   4.310   0.140   5.862
  919SOL    HW2 3657   4.327   0.173   6.021
  920SOL     OW 3658   3.169   4.482   1.204
  920SOL    HW1 3659   3.265   4.470   1.179
  920SOL    HW2 3660   3.163   4.517   1.297
  921SOL     OW 3661   5.164   5.953   5.225
  921SOL    HW1 3662   5.258   5.932   5.200
  921SOL    HW2 3663   5.118   6.000   5.150
  922SOL     OW 3664   3.358   3.914   2.959
  922SOL    HW1 3665   3.388   3.864   2.878
  922SOL    HW2 3666   3.401   3.875   3.040
  923SOL     OW 3667   2.689   3.943   5.556
  923SOL    HW1 3668   2.605   3.998   5.561
  923SOL    HW2 3669   2.691   3.895   5.468
  924SOL     OW 3670   0.526   2.388   1.092
  924SOL    HW1 3671   0.521   2.289   1.107
  924SOL    HW2 3672   0.581   2.430   1.164
  925SOL     OW 3673   1.017   1.366   0.012
  925SOL    HW1 3674   1.011   1.459   6.995
  925SOL    HW2 3675   0.931   1.318   7.016
  926SOL     OW 3676   1.871   2.005   1.317
  926SOL    HW1 3677   1.820   2.088   1.293
  926SOL    HW2 3678   1.822   1.925   1.283
  927SOL     OW 3679   0.481   3.826   5.219
  927SOL    HW1 3680   0.388   3.833   5.254
  927SOL    HW2 3681   0.542   3.791   5.290
  928SOL     OW 3682   2.911   5.213   6.130
  928SOL    HW1 3683   2.986   5.151   6.155
  928SOL    HW2 3684   2.924   5.300   6.177
  929SOL     OW 3685   1.949   2.424   4.740
  929SOL    HW1 3686   1.917   2.385   4.826
  929SOL    HW2 3687   1.901   2.509   4.721
  930SOL     OW 3688   6.002   5.846   5.722
  930SOL    HW1 3689   6.030   5.935   5.757
  930SOL    HW2 3690   6.051   5.774   5.772
  931SOL     OW 3691   6.026   0.356   2.893
  931SOL    HW1 3692   6.068   0.265   2.901
  931SOL    HW2 3693   6.098   0.426   2.893
  932SOL     OW 3694   4.204   6.982   3.344
  932SOL    HW1 3695   4.140   6.944   3.278
  932SOL    HW2 3696   4.189   6.939   3.434
  933SOL     OW 3697   1.027   5.708   2.086
  933SOL    HW1 3698   0.941   5.659   2.072
  933SOL    HW2 3699   1.037   5.778   2.016
  934SOL     OW 3700   1.813   2.734   0.976
  934SOL    HW1 3701   1.787   2.830   0.992
  934SOL    HW2 3702   1.765   2.675   1.041
  935SOL     OW 3703   5.542   3.201   5.644
  935SOL    HW1 3704   5.464   3.265   5.643
  935SOL    HW2 3705   5.515   3.115   5.601
  936SOL     OW 3706   1.229   1.140   6.182
  936SOL    HW1 3707   1.299   1.082   6.141
  936SOL    HW2 3708   1.185   1.195   6.111
  937SOL     OW 3709   3.499   1.942   6.200
  937SOL    HW1 3710   3.514   1.843   6.190
  937SOL    HW2 3711   3.549   1.991   6.128
  938SOL     OW 3712   4.962   6.768   4.239
  938SOL    HW1 3713   5.007   6.801   4.156
  938SOL    HW2 3714   5.001   6.680   4.266
  939SOL     OW 3715   1.547   6.988   4.729
  939SOL    HW1 3716   1.540   6.990   4.829
  939SOL    HW2 3717   1.609   0.041   4.699
  940SOL     OW 3718   1.831   4.962   0.736
  940SOL    HW1 3719   1.786   4.878   0.705
  940SOL    HW2 3720   1.920   4.971   0.692
  941SOL     OW 3721   3.867   6.947   1.417
  941SOL    HW1 3722   3.912   6.860   1.436
  941SOL    HW2 3723   3.769   6.933   1.408
  942SOL     OW 3724   0.111   4.923   0.099
  942SOL    HW1 3725   0.199   4.936   0.146
  942SOL    HW2 3726   0.066   4.841   0.136
  943SOL     OW 3727   3.226   6.880   1.161
  943SOL    HW1 3728   3.218   6.905   1.257
  943SOL    HW2 3729   3.304   6.929   1.121
  944SOL     OW 3730   6.331   5.710   3.780
  944SOL    HW1 3731   6.261   5.782   3.780
  944SOL    HW2 3732   6.311   5.645   3.707
  945SOL     OW 3733   0.371   4.993   6.436
  945SOL    HW1 3734   0.364   5.093   6.427
  945SOL    HW2 3735   0.435   4.971   6.510
  946SOL     OW 3736   6.104   1.740   4.153
  946SOL    HW1 3737   6.119   1.644   4.177
  946SOL    HW2 3738   6.137   1.798   4.228
  947SOL     OW 3739   3.306   4.131   3.103
  947SOL    HW1 3740   3.230   4.100   3.159
  947SOL    HW2 3741   3.324   4.063   3.031
  948SOL     OW 3742   4.172   2.255   3.645
  948SOL    HW1 3743   4.233   2.324   3.684
  948SOL    HW2 3744   4.209   2.164   3.662
  949SOL     OW 3745   1.714   0.551   5.482
  949SOL    HW1 3746   1.668   0.494   5.415
  949SOL    HW2 3747   1.658   0.631   5.503
  950SOL     OW 3748   6.343   0.339   1.362
  950SOL    HW1 3749   6.388   0.290   1.436
  950SOL    HW2 3750   6.289   0.414   1.399
  951SOL     OW 3751   1.152   0.242   2.352
  951SOL    HW1 3752   1.110   0.165   2.399
  951SOL    HW2 3753   1.144   0.324   2.408
  952SOL     OW 3754   3.529   1.658   2.875
  952SOL    HW1 3755   3.533   1.567   2.835
  952SOL    HW2 3756   3.442   1.702   2.850
  953SOL     OW 3757   0.305   5.955   5.276
  953SOL    HW1 3758   0.387   6.012   5.286
  953SOL    HW2 3759   0.266   5.967   5.185
  954SOL     OW 3760   4.392   6.673   2.559
  954SOL    HW1 3761   4.332   6.597   2.534
  954SOL    HW2 3762   4.486   6.651   2.534
  955SOL     OW 3763   3.329   4.145   1.157
  955SOL    HW1 3764   3.309   4.238   1.128
  955SOL    HW2 3765   3.365   4.146   1.251
  956SOL     OW 3766   3.381   7.001   0.603
  956SOL    HW1 3767   3.477   6.979   0.583
  956SOL    HW2 3768   3.323   6.925   0.575
  957SOL     OW 3769   6.353   7.014   3.075
  957SOL    HW1 3770   6.445   6.978   3.059
  957SOL    HW2 3771   6.313   6.967   3.154
  958SOL     OW 3772   5.499   5.214   2.101
  958SOL    HW1 3773   5.589   5.170   2.091
  958SOL    HW2 3774   5.437   5.178   2.031
  959SOL     OW 3775   5.001   5.867   1.940
  959SOL    HW1 3776   5.097   5.895   1.933
  959SOL    HW2 3777   4.994   5.768   1.926
  960SOL     OW 3778   0.746   6.854   6.460
  960SOL    HW1 3779   0.693   6.892   6.384
  960SOL    HW2 3780   0.805   6.925   6.498
  961SOL     OW 3781   4.534   1.043   4.016
  961SOL    HW1 3782   4.519   1.141   4.033
  961SOL    HW2 3783   4.445   0.996   4.018
  962SOL     OW 3784   0.029   0.944   4.950
  962SOL    HW1 3785   0.019   1.037   4.986
  962SOL    HW2 3786   6.974   0.887   4.984
  963SOL     OW 3787   5.859   2.397   1.642
  963SOL    HW1 3788   5.805   2.479   1.622
  963SOL    HW2 3789   5.898   2.362   1.557
  964SOL     OW 3790   3.676   6.357   4.787
  964SOL    HW1 3791   3.634   6.319   4.870
  964SOL    HW2 3792   3.776   6.347   4.793
  965SOL     OW 3793   5.228   1.202   4.537
  965SOL    HW1 3794   5.212   1.158   4.626
  965SOL    HW2 3795   5.303   1.267   4.545
  966SOL     OW 3796   5.223   1.407   2.993
  966SOL    HW1 3797   5.142   1.394   3.050
  966SOL    HW2 3798   5.235   1.504   2.973
  967SOL     OW 3799   4.746   5.583   6.178
  967SOL    HW1 3800   4.664   5.637   6.157
  967SOL    HW2 3801   4.781   5.611   6.268
  968SOL     OW 3802   4.428   0.019   1.362
  968SOL    HW1 3803   4.457   0.075   1.284
  968SOL    HW2 3804   4.373   6.962   1.329
  969SOL     OW 3805   3.350   3.562   6.910
  969SOL    HW1 3806   3.408   3.630   6.956
  969SOL    HW2 3807   3.322   3.597   6.821
  970SOL     OW 3808   4.088   6.055   5.547
  970SOL    HW1 3809   4.025   6.025   5.475
  970SOL    HW2 3810   4.181   6.053   5.512
  971SOL     OW 3811   4.920   3.765   3.716
  971SOL    HW1 3812   5.009   3.732   3.688
  971SOL    HW2 3813   4.893   3.842   3.658
  972SOL     OW 3814   0.877   1.112   0.686
  972SOL    HW1 3815   0.937   1.124   0.607
  972SOL    HW2 3816   0.848   1.202   0.719
  973SOL     OW 3817   6.744   2.971   5.126
  973SOL    HW1 3818   6.816   3.039   5.107
  973SOL    HW2 3819   6.694   2.999   5.207
  974SOL     OW 3820   1.625   3.299   1.497
  974SOL    HW1 3821   1.674   3.217   1.527
  974SOL    HW2 3822   1.580   3.342   1.575
  975SOL     OW 3823   3.295   0.724   2.600
  975SOL    HW1 3824   3.353   0.733   2.519
  975SOL    HW2 3825   3.348   0.682   2.674
  976SOL     OW 3826   0.112   3.481   3.709
  976SOL    HW1 3827   0.207   3.497   3.735
  976SOL    HW2 3828   0.056   3.558   3.741
  977SOL     OW 3829   6.932   1.575   2.228
  977SOL    HW1 3830   6.954   1.604   2.321
  977SOL    HW2 3831   7.004   1.605   2.166
  978SOL     OW 3832   5.779   1.855   0.572
  978SOL    HW1 3833   5.796   1.811   0.660
  978SOL    HW2 3834   5.865   1.869   0.524
  979SOL     OW 3835   0.261   5.248   6.607
  979SOL    HW1 3836   0.347   5.297   6.621
  979SOL    HW2 3837   0.244   5.186   6.684
  980SOL     OW 3838   5.166   1.905   4.206
  980SOL    HW1 3839   5.101   1.867   4.140
  980SOL    HW2 3840   5.116   1.949   4.280
  981SOL     OW 3841   0.456   5.789   6.140
  981SOL    HW1 3842   0.357   5.796   6.129
  981SOL    HW2 3843   0.500   5.799   6.051
  982SOL     OW 3844   6.853   0.693   6.461
  982SOL    HW1 3845   6.824   0.664   6.552
  982SOL    HW2 3846   6.835   0.619   6.395
  983SOL     OW 3847   0.032   3.978   2.039
  983SOL    HW1 3848   0.022   3.902   1.974
  983SOL    HW2 3849   6.962   4.000   2.077
  984SOL     OW 3850   0.490   4.084   4.533
  984SOL    HW1 3851   0.455   4.163   4.483
  984SOL    HW2 3852   0.416   4.018   4.548
  985SOL     OW 3853   5.283   4.800   5.931
  985SOL    HW1 3854   5.306   4.833   6.023
  985SOL    HW2 3855   5.367   4.792   5.877
  986SOL     OW 3856   3.507   5.335   1.880
  986SOL    HW1 3857   3.504   5.275   1.960
  986SOL    HW2 3858   3.455   5.294   1.805
  987SOL     OW 3859   4.443   4.926   4.185
  987SOL    HW1 3860   4.431   4.833   4.151
  987SOL    HW2 3861   4.375   4.987   4.144
  988SOL     OW 3862   3.100   4.680   1.712
  988SOL    HW1 3863   3.110   4.729   1.625
  988SOL    HW2 3864   3.033   4.607   1.702
  989SOL     OW 3865   0.651   1.891   1.294
  989SOL    HW1 3866   0.689   1.801   1.271
  989SOL    HW2 3867   0.581   1.880   1.364
  990SOL     OW 3868   3.294   0.279   4.945
  990SOL    HW1 3869   3.218   0.220   4.973
  990SOL    HW2 3870   3.299   0.359   5.005
  991SOL     OW 3871   1.365   6.369   4.118
  991SOL    HW1 3872   1.439   6.384   4.183
  991SOL    HW2 3873   1.387   6.415   4.032
  992SOL     OW 3874   6.531   3.468   1.540
  992SOL    HW1 3875   6.453   3.424   1.497
  992SOL    HW2 3876   6.534   3.444   1.637
  993SOL     OW 3877   2.136   4.542   6.935
  993SOL    HW1 3878   2.062   4.539   7.002
  993SOL    HW2 3879   2.209   4.602   6.968
  994SOL     OW 3880   2.573   6.481   1.565
  994SOL    HW1 3881   2.504   6.437   1.623
  994SOL    HW2 3882   2.572   6.439   1.474
  995SOL     OW 3883   5.578   4.172   4.893
  995SOL    HW1 3884   5.511   4.189   4.820
  995SOL    HW2 3885   5.530   4.170   4.982
  996SOL     OW 3886   4.061   6.678   5.231
  996SOL    HW1 3887   3.994   6.611   5.264
  996SOL    HW2 3888   4.014   6.748   5.178
  997SOL     OW 3889   0.995   6.549   3.392
  997SOL    HW1 3890   0.925   6.547   3.463
  997SOL    HW2 3891   0.959   6.596   3.311
  998SOL     OW 3892   4.472   6.981   6.915
  998SOL    HW1 3893   4.482   0.052   6.873
  998SOL    HW2 3894   4.437   6.991   7.008
  999SOL     OW 3895   5.990   2.971   2.450
  999SOL    HW1 3896   6.083   3.007   2.455
  999SOL    HW2 3897   5.926   3.038   2.487
 1000SOL     OW 3898   6.128   1.520   2.401
 1000SOL    HW1 3899   6.184   1.599   2.427
 1000SOL    HW2 3900   6.067   1.546   2.325
 1001SOL     OW 3901   2.796   0.134   3.202
 1001SOL    HW1 3902   2.710   0.131   3.253
 1001SOL    HW2 3903   2.801   0.217   3.148
 1002SOL     OW 3904   4.631   2.514   0.270
 1002SOL    HW1 3905   4.655   2.419   0.294
 1002SOL    HW2 3906   4.594   2.517   0.178
 1003SOL     OW 3907   1.655   1.730   4.037
 1003SOL    HW1 3908   1.579   1.777   3.992
 1003SOL    HW2 3909   1.736   1.789   4.034
 1004SOL     OW 3910   4.128   1.793   4.918
 1004SOL    HW1 3911   4.100   1.756   4.830
 1004SOL    HW2 3912   4.150   1.717   4.980
 1005SOL     OW 3913   0.521   5.806   1.901
 1005SOL    HW1 3914   0.559   5.751   1.975
 1005SOL    HW2 3915   0.472   5.747   1.837
 1006SOL     OW 3916   1.944   3.826   2.073
 1006SOL    HW1 3917   1.870   3.784   2.021
 1006SOL    HW2 3918   2.021   3.762   2.079
 1007SOL     OW 3919   4.782   0.515   6.388
 1007SOL    HW1 3920   4.815   0.543   6.298
 1007SOL    HW2 3921   4.831   0.566   6.459
 1008SOL     OW 3922   0.372   4.228   4.297
 1008SOL    HW1 3923   0.451   4.258   4.244
 1008SOL    HW2 3924   0.317   4.165   4.241
 1009SOL     OW 3925   6.531   6.121   6.525
 1009SOL    HW1 3926   6.566   6.032   6.554
 1009SOL    HW2 3927   6.588   6.157   6.451
 1010SOL     OW 3928   3.109   3.975   0.267
 1010SOL    HW1 3929   3.057   4.057   0.243
 1010SOL    HW2 3930   3.118   3.917   0.186
 1011SOL     OW 3931   6.484   5.098   2.579
 1011SOL    HW1 3932   6.402   5.124   2.528
 1011SOL    HW2 3933   6.481   5.141   2.669
 1012SOL     OW 3934   5.236   6.063   3.072
 1012SOL    HW1 3935   5.335   6.072   3.085
 1012SOL    HW2 3936   5.193   6.153   3.076
 1013SOL     OW 3937   0.593   1.207   5.957
 1013SOL    HW1 3938   0.503   1.197   5.915
 1013SOL    HW2 3939   0.584   1.203   6.057
 1014SOL     OW 3940   0.724   4.461   4.457
 1014SOL    HW1 3941   0.750   4.442   4.551
 1014SOL    HW2 3942   0.631   4.426   4.440
 1015SOL     OW 3943   2.961   6.140   6.480
 1015SOL    HW1 3944   3.013   6.059   6.454
 1015SOL    HW2 3945   3.017   6.221   6.468
 1016SOL     OW 3946   0.070   4.311   0.411
 1016SOL    HW1 3947   0.087   4.397   0.363
 1016SOL    HW2 3948   0.158   4.268   0.433
 1017SOL     OW 3949   1.284   0.404   2.041
 1017SOL    HW1 3950   1.207   0.439   1.988
 1017SOL    HW2 3951   1.359   0.380   1.978
 1018SOL     OW 3952   5.611   5.831   6.540
 1018SOL    HW1 3953   5.583   5.738   6.516
 1018SOL    HW2 3954   5.684   5.861   6.478
 1019SOL     OW 3955   6.488   3.587   2.301
 1019SOL    HW1 3956   6.534   3.658   2.353
 1019SOL    HW2 3957   6.500   3.499   2.346
 1020SOL     OW 3958   5.337   1.359   1.377
 1020SOL    HW1 3959   5.316   1.364   1.279
 1020SOL    HW2 3960   5.270   1.300   1.422
 1021SOL     OW 3961   1.174   6.881   0.800
 1021SOL    HW1 3962   1.171   6.908   0.896
 1021SOL    HW2 3963   1.176   6.782   0.793
 1022SOL     OW 3964   1.842   5.200   6.086
 1022SOL    HW1 3965   1.802   5.128   6.143
 1022SOL    HW2 3966   1.941   5.186   6.080
 1023SOL     OW 3967   0.874   2.373   2.503
 1023SOL    HW1 3968   0.961   2.414   2.528
 1023SOL    HW2 3969   0.881   2.333   2.411
 1024SOL     OW 3970   1.820   3.092   4.761
 1024SOL    HW1 3971   1.857   3.033   4.689
 1024SOL    HW2 3972   1.803   3.039   4.843
 1025SOL     OW 3973   4.252   4.311   0.881
 1025SOL    HW1 3974   4.203   4.239   0.931
 1025SOL    HW2 3975   4.209   4.399   0.900
 1026SOL     OW 3976   3.478   2.715   1.615
 1026SOL    HW1 3977   3.524   2.634   1.580
 1026SOL    HW2 3978   3.487   2.719   1.714
 1027SOL     OW 3979   6.192   0.406   0.525
 1027SOL    HW1 3980   6.256   0.368   0.592
 1027SOL    HW2 3981   6.099   0.378   0.547
 1028SOL     OW 3982   0.800   5.472   3.876
 1028SOL    HW1 3983   0.853   5.388   3.863
 1028SOL    HW2 3984   0.847   5.548   3.832
 1029SOL     OW 3985   1.007   0.430   4.742
 1029SOL    HW1 3986   1.075   0.402   4.674
 1029SOL    HW2 3987   0.945   0.354   4.759
 1030SOL     OW 3988   4.577   3.378   0.684
 1030SOL    HW1 3989   4.595   3.416   0.774
 1030SOL    HW2 3990   4.498   3.318   0.688
 1031SOL     OW 3991   4.256   2.738   0.196
 1031SOL    HW1 3992   4.272   2.836   0.182
 1031SOL    HW2 3993   4.248   2.720   0.294
 1032SOL     OW 3994   1.134   1.345   1.255
 1032SOL    HW1 3995   1.231   1.321   1.250
 1032SOL    HW2 3996   1.110   1.406   1.180
 1033SOL     OW 3997   6.204   0.197   1.764
 1033SOL    HW1 3998   6.105   0.194   1.752
 1033SOL    HW2 3999   6.229   0.150   1.849
 1034SOL     OW 4000   1.997   0.416   5.015
 1034SOL    HW1 4001   1.951   0.363   5.086
 1034SOL    HW2 4002   2.056   0.484   5.057
 1035SOL     OW 4003   1.571   6.799   7.014
 1035SOL    HW1 4004   1.550   6.776   0.089
 1035SOL    HW2 4005   1.498   6.858   6.977
 1036SOL     OW 4006   5.399   1.402   2.731
 1036SOL    HW1 4007   5.311   1.387   2.776
 1036SOL    HW2 4008   5.432   1.494   2.752
 1037SOL     OW 4009   0.641   4.119   2.709
 1037SOL    HW1 4010   0.717   4.173   2.673
 1037SOL    HW2 4011   0.667   4.077   2.795
 1038SOL     OW 4012   1.435   6.327   6.566
 1038SOL    HW1 4013   1.484   6.404   6.527
 1038SOL    HW2 4014   1.448   6.246   6.507
 1039SOL     OW 4015   3.057   3.768   2.983
 1039SOL    HW1 4016   3.145   3.731   2.953
 1039SOL    HW2 4017   3.065   3.868   2.993
 1040SOL     OW 4018   4.335   1.416   2.885
 1040SOL    HW1 4019   4.395   1.434   2.807
 1040SOL    HW2 4020   4.372   1.341   2.939
 1041SOL     OW 4021   0.076   0.427   6.503
 1041SOL    HW1 4022   0.060   0.426   6.602
 1041SOL    HW2 4023   0.175   0.425   6.485
 1042SOL     OW 4024   5.493   3.055   4.110
 1042SOL    HW1 4025   5.466   3.149   4.132
 1042SOL    HW2 4026   5.443   2.991   4.167
 1043SOL     OW 4027   2.363   2.238   3.872
 1043SOL    HW1 4028   2.328   2.322   3.831
 1043SOL    HW2 4029   2.298   2.206   3.941
 1044SOL     OW 4030   4.953   4.335   2.257
 1044SOL    HW1 4031   4.873   4.299   2.209
 1044SOL    HW2 4032   4.927   4.414   2.313
 1045SOL     OW 4033   1.893   0.157   2.681
 1045SOL    HW1 4034   1.840   0.165   2.597
 1045SOL    HW2 4035   1.915   0.248   2.716
 1046SOL     OW 4036   3.784   2.355   0.697
 1046SOL    HW1 4037   3.816   2.267   0.732
 1046SOL    HW2 4038   3.828   2.429   0.747
 1047SOL     OW 4039   4.339   0.920   4.288
 1047SOL    HW1 4040   4.262   0.961   4.338
 1047SOL    HW2 4041   4.319   0.923   4.189
 1048SOL     OW 4042   6.705   0.268   1.950
 1048SOL    HW1 4043   6.759   0.316   1.881
 1048SOL    HW2 4044   6.751   0.183   1.975
 1049SOL     OW 4045   3.527   6.539   0.443
 1049SOL    HW1 4046   3.577   6.459   0.478
 1049SOL    HW2 4047   3.458   6.567   0.510
 1050SOL     OW 4048   2.791   1.664   4.460
 1050SOL    HW1 4049   2.890   1.656   4.445
 1050SOL    HW2 4050   2.748   1.575   4.444
 1051SOL     OW 4051   1.794   2.290   6.302
 1051SOL    HW1 4052   1.756   2.251   6.219
 1051SOL    HW2 4053   1.853   2.222   6.347
 1052SOL     OW 4054   4.551   2.411   6.237
 1052SOL    HW1 4055   4.615   2.459   6.297
 1052SOL    HW2 4056   4.488   2.357   6.292
 1053SOL     OW 4057   4.579   2.610   4.909
 1053SOL    HW1 4058   4.577   2.638   5.005
 1053SOL    HW2 4059   4.539   2.518   4.901
 1054SOL     OW 4060   5.141   5.318   6.835
 1054SOL    HW1 4061   5.239   5.316   6.814
 1054SOL    HW2 4062   5.122   5.391   6.900
 1055SOL     OW 4063   5.389   5.686   6.265
 1055SOL    HW1 4064   5.328   5.681   6.186
 1055SOL    HW2 4065   5.484   5.683   6.235
 1056SOL     OW 4066   3.561   3.220   0.052
 1056SOL    HW1 4067   3.614   3.305   0.047
 1056SOL    HW2 4068   3.465   3.241   0.037
 1057SOL     OW 4069   2.891   3.698   6.594
 1057SOL    HW1 4070   2.879   3.629   6.523
 1057SOL    HW2 4071   2.987   3.700   6.623
 1058SOL     OW 4072   2.955   1.783   1.960
 1058SOL    HW1 4073   2.874   1.733   1.989
 1058SOL    HW2 4074   2.938   1.881   1.966
 1059SOL     OW 4075   1.948   6.230   2.596
 1059SOL    HW1 4076   1.960   6.227   2.497
 1059SOL    HW2 4077   2.011   6.165   2.639
 1060SOL     OW 4078   6.440   6.592   5.016
 1060SOL    HW1 4079   6.445   6.638   5.105
 1060SOL    HW2 4080   6.447   6.494   5.029
 1061SOL     OW 4081   0.225   3.930   6.361
 1061SOL    HW1 4082   0.185   3.956   6.273
 1061SOL    HW2 4083   0.291   3.856   6.347
 1062SOL     OW 4084   4.007   4.790   5.549
 1062SOL    HW1 4085   4.003   4.887   5.573
 1062SOL    HW2 4086   4.086   4.773   5.490
 1063SOL     OW 4087   3.202   5.960   3.744
 1063SOL    HW1 4088   3.120   5.910   3.773
 1063SOL    HW2 4089   3.221   5.940   3.647
 1064SOL     OW 4090   1.083   4.003   0.226
 1064SOL    HW1 4091   1.118   4.026   0.317
 1064SOL    HW2 4092   1.074   4.087   0.172
 1065SOL     OW 4093   5.761   1.225   5.828
 1065SOL    HW1 4094   5.826   1.300   5.844
 1065SOL    HW2 4095   5.724   1.233   5.735
 1066SOL     OW 4096   4.542   6.218   1.237
 1066SOL    HW1 4097   4.625   6.244   1.288
 1066SOL    HW2 4098   4.501   6.137   1.278
 1067SOL     OW 4099   4.062   1.020   0.731
 1067SOL    HW1 4100   4.139   1.083   0.743
 1067SOL    HW2 4101   3.976   1.070   0.739
 1068SOL     OW 4102   6.141   2.367   3.015
 1068SOL    HW1 4103   6.200   2.363   2.934
 1068SOL    HW2 4104   6.176   2.436   3.078
 1069SOL     OW 4105   0.484   1.348   2.938
 1069SOL    HW1 4106   0.560   1.393   2.984
 1069SOL    HW2 4107   0.478   1.253   2.967
 1070SOL     OW 4108   1.570   0.245   2.077
 1070SOL    HW1 4109   1.556   0.326   2.020
 1070SOL    HW2 4110   1.484   0.221   2.122
 1071SOL     OW 4111   1.282   3.042   5.562
 1071SOL    HW1 4112   1.276   2.978   5.639
 1071SOL    HW2 4113   1.238   3.128   5.587
 1072SOL     OW 4114   2.125   1.489   1.584
 1072SOL    HW1 4115   2.198   1.515   1.647
 1072SOL    HW2 4116   2.101   1.567   1.526
 1073SOL     OW 4117   5.202   1.987   2.686
 1073SOL    HW1 4118   5.115   1.941   2.671
 1073SOL    HW2 4119   5.271   1.951   2.623
 1074SOL     OW 4120   3.406   6.256   1.698
 1074SOL    HW1 4121   3.333   6.324   1.691
 1074SOL    HW2 4122   3.413   6.205   1.612
 1075SOL     OW 4123   6.853   4.093   4.778
 1075SOL    HW1 4124   6.921   4.034   4.821
 1075SOL    HW2 4125   6.887   4.187   4.776
 1076SOL     OW 4126   2.558   4.578   5.643
 1076SOL    HW1 4127   2.525   4.488   5.614
 1076SOL    HW2 4128   2.656   4.585   5.624
 1077SOL     OW 4129   6.631   6.825   0.606
 1077SOL    HW1 4130   6.659   6.776   0.523
 1077SOL    HW2 4131   6.560   6.772   0.653
 1078SOL     OW 4132   5.840   6.997   3.781
 1078SOL    HW1 4133   5.786   6.977   3.699
 1078SOL    HW2 4134   5.780   6.992   3.861
 1079SOL     OW 4135   0.930   5.202   1.105
 1079SOL    HW1 4136   0.846   5.168   1.061
 1079SOL    HW2 4137   0.909   5.286   1.155
 1080SOL     OW 4138   5.040   6.441   0.482
 1080SOL    HW1 4139   5.038   6.468   0.386
 1080SOL    HW2 4140   5.024   6.343   0.489
 1081SOL     OW 4141   6.814   6.956   3.355
 1081SOL    HW1 4142   6.780   6.864   3.375
 1081SOL    HW2 4143   6.909   6.964   3.385
 1082SOL     OW 4144   4.691   6.546   7.004
 1082SOL    HW1 4145   4.613   6.484   6.990
 1082SOL    HW2 4146   4.668   6.637   6.971
 1083SOL     OW 4147   6.479   3.906   2.456
 1083SOL    HW1 4148   6.499   3.816   2.495
 1083SOL    HW2 4149   6.489   3.902   2.356
 1084SOL     OW 4150   4.235   0.001   5.490
 1084SOL    HW1 4151   4.327   7.020   5.452
 1084SOL    HW2 4152   4.197   0.093   5.482
 1085SOL     OW 4153   2.122   3.279   4.359
 1085SOL    HW1 4154   2.139   3.279   4.261
 1085SOL    HW2 4155   2.124   3.372   4.394
 1086SOL     OW 4156   4.896   4.610   2.824
 1086SOL    HW1 4157   4.876   4.526   2.773
 1086SOL    HW2 4158   4.811   4.648   2.860
 1087SOL     OW 4159   3.311   0.302   5.754
 1087SOL    HW1 4160   3.355   0.345   5.675
 1087SOL    HW2 4161   3.294   0.205   5.734
 1088SOL     OW 4162   6.149   5.570   4.305
 1088SOL    HW1 4163   6.151   5.601   4.210
 1088SOL    HW2 4164   6.235   5.594   4.349
 1089SOL     OW 4165   6.061   4.768   4.733
 1089SOL    HW1 4166   6.102   4.739   4.646
 1089SOL    HW2 4167   5.987   4.706   4.758
 1090SOL     OW 4168   6.028   2.864   4.895
 1090SOL    HW1 4169   6.048   2.812   4.977
 1090SOL    HW2 4170   5.981   2.949   4.919
 1091SOL     OW 4171   2.130   3.342   3.815
 1091SOL    HW1 4172   2.065   3.366   3.744
 1091SOL    HW2 4173   2.185   3.263   3.786
 1092SOL     OW 4174   0.779   5.817   0.223
 1092SOL    HW1 4175   0.731   5.841   0.139
 1092SOL    HW2 4176   0.861   5.765   0.201
 1093SOL     OW 4177   1.867   0.301   3.042
 1093SOL    HW1 4178   1.913   0.344   2.965
 1093SOL    HW2 4179   1.769   0.317   3.035
 1094SOL     OW 4180   0.416   0.489   3.603
 1094SOL    HW1 4181   0.425   0.417   3.534
 1094SOL    HW2 4182   0.319   0.504   3.623
 1095SOL     OW 4183   6.738   4.816   1.022
 1095SOL    HW1 4184   6.751   4.911   0.993
 1095SOL    HW2 4185   6.820   4.763   1.001
 1096SOL     OW 4186   2.025   6.119   2.018
 1096SOL    HW1 4187   2.015   6.061   2.099
 1096SOL    HW2 4188   2.122   6.143   2.007
 1097SOL     OW 4189   3.182   5.343   4.586
 1097SOL    HW1 4190   3.175   5.312   4.681
 1097SOL    HW2 4191   3.164   5.266   4.524
 1098SOL     OW 4192   0.316   3.968   0.415
 1098SOL    HW1 4193   0.217   3.956   0.419
 1098SOL    HW2 4194   0.338   4.053   0.367
 1099SOL     OW 4195   5.608   6.942   6.837
 1099SOL    HW1 4196   5.547   6.911   6.909
 1099SOL    HW2 4197   5.625   0.020   6.848
 1100SOL     OW 4198   5.011   0.729   4.055
 1100SOL    HW1 4199   5.020   0.796   3.982
 1100SOL    HW2 4200   4.961   0.770   4.132
 1101SOL     OW 4201   4.932   2.501   0.250
 1101SOL    HW1 4202   4.937   2.493   0.350
 1101SOL    HW2 4203   4.844   2.540   0.224
 1102SOL     OW 4204   4.038   1.418   4.644
 1102SOL    HW1 4205   4.133   1.432   4.672
 1102SOL    HW2 4206   4.006   1.330   4.678
 1103SOL     OW 4207   2.963   6.085   0.462
 1103SOL    HW1 4208   3.010   6.025   0.527
 1103SOL    HW2 4209   3.013   6.085   0.375
 1104SOL     OW 4210   6.181   1.254   3.844
 1104SOL    HW1 4211   6.175   1.172   3.786
 1104SOL    HW2 4212   6.267   1.252   3.896
 1105SOL     OW 4213   4.629   6.990   5.601
 1105SOL    HW1 4214   4.595   0.025   5.525
 1105SOL    HW2 4215   4.599   6.895   5.590
 1106SOL     OW 4216   6.484   1.345   2.211
 1106SOL    HW1 4217   6.461   1.258   2.253
 1106SOL    HW2 4218   6.581   1.364   2.225
 1107SOL     OW 4219   1.273   2.396   6.814
 1107SOL    HW1 4220   1.212   2.406   6.736
 1107SOL    HW2 4221   1.368   2.406   6.784
 1108SOL     OW 4222   2.481   1.515   2.344
 1108SOL    HW1 4223   2.427   1.579   2.398
 1108SOL    HW2 4224   2.452   1.519   2.249
 1109SOL     OW 4225   5.125   1.553   5.326
 1109SOL    HW1 4226   5.220   1.527   5.311
 1109SOL    HW2 4227   5.067   1.471   5.323
 1110SOL     OW 4228   1.693   0.025   1.989
 1110SOL    HW1 4229   1.626   6.974   1.966
 1110SOL    HW2 4230   1.647   0.100   2.036
 1111SOL     OW 4231   4.985   3.598   6.294
 1111SOL    HW1 4232   4.964   3.530   6.224
 1111SOL    HW2 4233   5.070   3.573   6.340
 1112SOL     OW 4234   5.835   0.540   2.781
 1112SOL    HW1 4235   5.886   0.479   2.842
 1112SOL    HW2 4236   5.747   0.562   2.822
 1113SOL     OW 4237   0.564   1.240   2.689
 1113SOL    HW1 4238   0.518   1.286   2.765
 1113SOL    HW2 4239   0.496   1.213   2.621
 1114SOL     OW 4240   3.728   3.333   4.351
 1114SOL    HW1 4241   3.728   3.246   4.401
 1114SOL    HW2 4242   3.822   3.362   4.335
 1115SOL     OW 4243   1.969   5.655   6.042
 1115SOL    HW1 4244   1.888   5.603   6.014
 1115SOL    HW2 4245   2.032   5.595   6.092
 1116SOL     OW 4246   4.543   6.887   0.343
 1116SOL    HW1 4247   4.620   6.896   0.280
 1116SOL    HW2 4248   4.577   6.888   0.437
 1117SOL     OW 4249   2.192   2.563   1.750
 1117SOL    HW1 4250   2.265   2.631   1.743
 1117SOL    HW2 4251   2.184   2.514   1.664
 1118SOL     OW 4252   4.331   6.725   0.303
 1118SOL    HW1 4253   4.407   6.787   0.320
 1118SOL    HW2 4254   4.295   6.742   0.211
 1119SOL     OW 4255   3.256   6.202   3.852
 1119SOL    HW1 4256   3.220   6.112   3.828
 1119SOL    HW2 4257   3.208   6.236   3.932
 1120SOL     OW 4258   0.648   3.373   1.877
 1120SOL    HW1 4259   0.653   3.343   1.782
 1120SOL    HW2 4260   0.738   3.366   1.919
 1121SOL     OW 4261   5.658   4.479   5.864
 1121SOL    HW1 4262   5.574   4.500   5.913
 1121SOL    HW2 4263   5.704   4.565   5.837
 1122SOL     OW 4264   6.085   0.831   2.342
 1122SOL    HW1 4265   6.006   0.781   2.306
 1122SOL    HW2 4266   6.058   0.883   2.423
 1123SOL     OW 4267   3.380   2.123   4.966
 1123SOL    HW1 4268   3.393   2.096   5.061
 1123SOL    HW2 4269   3.298   2.178   4.958
 1124SOL     OW 4270   2.731   2.397   3.705
 1124SOL    HW1 4271   2.806   2.359   3.759
 1124SOL    HW2 4272   2.676   2.458   3.763
 1125SOL     OW 4273   1.213   3.168   3.545
 1125SOL    HW1 4274   1.250   3.186   3.637
 1125SOL    HW2 4275   1.288   3.150   3.482
 1126SOL     OW 4276   4.975   4.762   3.612
 1126SOL    HW1 4277   5.074   4.752   3.603
 1126SOL    HW2 4278   4.947   4.743   3.706
 1127SOL     OW 4279   5.210   0.191   0.804
 1127SOL    HW1 4280   5.236   0.166   0.711
 1127SOL    HW2 4281   5.110   0.188   0.812
 1128SOL     OW 4282   2.997   1.757   4.734
 1128SOL    HW1 4283   2.995   1.662   4.704
 1128SOL    HW2 4284   3.076   1.804   4.693
 1129SOL     OW 4285   1.252   0.537   0.210
 1129SOL    HW1 4286   1.310   0.607   0.167
 1129SOL    HW2 4287   1.156   0.561   0.198
 1130SOL     OW 4288   2.404   5.690   0.727
 1130SOL    HW1 4289   2.431   5.653   0.816
 1130SOL    HW2 4290   2.469   5.660   0.657
 1131SOL     OW 4291   1.535   5.708   3.539
 1131SOL    HW1 4292   1.550   5.620   3.494
 1131SOL    HW2 4293   1.518   5.693   3.637
 1132SOL     OW 4294   1.388   2.541   3.313
 1132SOL    HW1 4295   1.439   2.618   3.275
 1132SOL    HW2 4296   1.446   2.460   3.314
 1133SOL     OW 4297   1.251   5.880   0.178
 1133SOL    HW1 4298   1.157   5.901   0.205
 1133SOL    HW2 4299   1.289   5.957   0.126
 1134SOL     OW 4300   3.962   5.593   0.977
 1134SOL    HW1 4301   4.038   5.596   1.041
 1134SOL    HW2 4302   3.995   5.609   0.884
 1135SOL     OW 4303   2.052   6.459   2.719
 1135SOL    HW1 4304   2.044   6.414   2.808
 1135SOL    HW2 4305   1.990   6.414   2.654
 1136SOL     OW 4306   1.835   4.958   3.108
 1136SOL    HW1 4307   1.872   4.965   3.015
 1136SOL    HW2 4308   1.841   5.047   3.153
 1137SOL     OW 4309   1.181   4.913   4.236
 1137SOL    HW1 4310   1.119   4.981   4.197
 1137SOL    HW2 4311   1.188   4.928   4.335
 1138SOL     OW 4312   2.724   4.666   4.326
 1138SOL    HW1 4313   2.673   4.634   4.246
 1138SOL    HW2 4314   2.805   4.609   4.340
 1139SOL     OW 4315   3.559   5.723   4.764
 1139SOL    HW1 4316   3.621   5.798   4.740
 1139SOL    HW2 4317   3.464   5.753   4.754
 1140SOL     OW 4318   1.998   3.125   1.195
 1140SOL    HW1 4319   1.957   3.173   1.117
 1140SOL    HW2 4320   1.932   3.061   1.233
 1141SOL     OW 4321   6.109   4.936   5.706
 1141SOL    HW1 4322   6.155   4.911   5.621
 1141SOL    HW2 4323   6.068   4.854   5.747
 1142SOL     OW 4324   0.622   6.272   3.021
 1142SOL    HW1 4325   0.680   6.248   2.943
 1142SOL    HW2 4326   0.679   6.276   3.104
 1143SOL     OW 4327   6.780   3.781   1.705
 1143SOL    HW1 4328   6.801   3.862   1.760
 1143SOL    HW2 4329   6.754   3.809   1.613
 1144SOL     OW 4330   5.426   4.672   0.024
 1144SOL    HW1 4331   5.427   4.674   6.944
 1144SOL    HW2 4332   5.391   4.584   0.056
 1145SOL     OW 4333   5.667   0.373   1.178
 1145SOL    HW1 4334   5.597   0.375   1.249
 1145SOL    HW2 4335   5.656   0.452   1.117
 1146SOL     OW 4336   1.608   0.331   1.298
 1146SOL    HW1 4337   1.633   0.399   1.230
 1146SOL    HW2 4338   1.684   0.319   1.362
 1147SOL     OW 4339   1.160   5.961   0.550
 1147SOL    HW1 4340   1.136   5.884   0.609
 1147SOL    HW2 4341   1.128   5.943   0.457
 1148SOL     OW 4342   3.720   5.658   1.824
 1148SOL    HW1 4343   3.712   5.692   1.730
 1148SOL    HW2 4344   3.629   5.638   1.860
 1149SOL     OW 4345   5.974   2.338   2.279
 1149SOL    HW1 4346   5.882   2.332   2.318
 1149SOL    HW2 4347   5.974   2.405   2.205
 1150SOL     OW 4348   1.071   1.489   1.034
 1150SOL    HW1 4349   0.991   1.441   0.997
 1150SOL    HW2 4350   1.042   1.574   1.077
 1151SOL     OW 4351   5.859   5.583   4.338
 1151SOL    HW1 4352   5.875   5.603   4.434
 1151SOL    HW2 4353   5.946   5.570   4.291
 1152SOL     OW 4354   3.221   6.357   5.715
 1152SOL    HW1 4355   3.195   6.444   5.757
 1152SOL    HW2 4356   3.318   6.339   5.734
 1153SOL     OW 4357   5.334   0.369   0.959
 1153SOL    HW1 4358   5.290   0.314   0.888
 1153SOL    HW2 4359   5.341   0.315   1.043
 1154SOL     OW 4360   1.705   2.988   1.023
 1154SOL    HW1 4361   1.750   2.973   1.111
 1154SOL    HW2 4362   1.707   3.085   1.000
 1155SOL     OW 4363   4.017   5.621   3.464
 1155SOL    HW1 4364   4.006   5.585   3.557
 1155SOL    HW2 4365   3.931   5.660   3.433
 1156SOL     OW 4366   2.750   0.508   1.403
 1156SOL    HW1 4367   2.769   0.603   1.430
 1156SOL    HW2 4368   2.713   0.507   1.310
 1157SOL     OW 4369   2.240   2.072   0.692
 1157SOL    HW1 4370   2.288   2.147   0.737
 1157SOL    HW2 4371   2.241   1.991   0.750
 1158SOL     OW 4372   5.415   4.904   4.099
 1158SOL    HW1 4373   5.410   4.881   4.197
 1158SOL    HW2 4374   5.504   4.876   4.064
 1159SOL     OW 4375   5.337   4.722   0.429
 1159SOL    HW1 4376   5.240   4.749   0.427
 1159SOL    HW2 4377   5.390   4.794   0.474
 1160SOL     OW 4378   4.363   2.239   1.070
 1160SOL    HW1 4379   4.425   2.180   1.122
 1160SOL    HW2 4380   4.274   2.243   1.117
 1161SOL     OW 4381   0.581   4.251   0.981
 1161SOL    HW1 4382   0.490   4.292   0.979
 1161SOL    HW2 4383   0.585   4.176   0.915
 1162SOL     OW 4384   2.184   3.048   4.822
 1162SOL    HW1 4385   2.187   3.048   4.722
 1162SOL    HW2 4386   2.269   3.010   4.858
 1163SOL     OW 4387   4.572   1.661   2.139
 1163SOL    HW1 4388   4.586   1.698   2.047
 1163SOL    HW2 4389   4.652   1.682   2.195
 1164SOL     OW 4390   3.878   2.078   6.299
 1164SOL    HW1 4391   3.915   1.987   6.316
 1164SOL    HW2 4392   3.952   2.145   6.306
 1165SOL     OW 4393   4.123   0.225   2.755
 1165SOL    HW1 4394   4.032   0.252   2.786
 1165SOL    HW2 4395   4.189   0.295   2.783
 1166SOL     OW 4396   4.028   3.903   0.240
 1166SOL    HW1 4397   4.127   3.914   0.243
 1166SOL    HW2 4398   3.984   3.993   0.243
 1167SOL     OW 4399   5.259   3.891   3.621
 1167SOL    HW1 4400   5.185   3.952   3.649
 1167SOL    HW2 4401   5.241   3.856   3.529
 1168SOL     OW 4402   7.019   0.026   0.263
 1168SOL    HW1 4403   6.930   0.064   0.234
 1168SOL    HW2 4404   7.005   6.954   0.300
 1169SOL     OW 4405   5.070   1.674   5.599
 1169SOL    HW1 4406   5.068   1.770   5.571
 1169SOL    HW2 4407   5.082   1.616   5.518
 1170SOL     OW 4408   5.058   4.237   3.144
 1170SOL    HW1 4409   5.097   4.327   3.126
 1170SOL    HW2 4410   5.013   4.237   3.233
 1171SOL     OW 4411   0.022   6.330   0.695
 1171SOL    HW1 4412   0.113   6.290   0.702
 1171SOL    HW2 4413   7.001   6.336   0.786
 1172SOL     OW 4414   5.554   2.587   6.820
 1172SOL    HW1 4415   5.630   2.615   6.878
 1172SOL    HW2 4416   5.499   2.667   6.795
 1173SOL     OW 4417   4.757   2.953   1.610
 1173SOL    HW1 4418   4.840   2.972   1.663
 1173SOL    HW2 4419   4.677   2.980   1.663
 1174SOL     OW 4420   2.633   5.329   6.884
 1174SOL    HW1 4421   2.565   5.363   6.819
 1174SOL    HW2 4422   2.674   5.407   6.932
 1175SOL     OW 4423   3.022   3.838   4.037
 1175SOL    HW1 4424   3.020   3.899   3.958
 1175SOL    HW2 4425   3.063   3.751   4.010
 1176SOL     OW 4426   5.576   3.444   6.957
 1176SOL    HW1 4427   5.653   3.381   6.951
 1176SOL    HW2 4428   5.545   3.451   0.032
 1177SOL     OW 4429   1.228   0.624   4.400
 1177SOL    HW1 4430   1.165   0.549   4.419
 1177SOL    HW2 4431   1.177   0.705   4.374
 1178SOL     OW 4432   4.083   6.530   6.763
 1178SOL    HW1 4433   4.055   6.501   6.672
 1178SOL    HW2 4434   4.183   6.527   6.769
 1179SOL     OW 4435   0.396   6.023   1.223
 1179SOL    HW1 4436   0.496   6.030   1.225
 1179SOL    HW2 4437   0.370   5.931   1.194
 1180SOL     OW 4438   3.739   6.405   0.615
 1180SOL    HW1 4439   3.696   6.438   0.699
 1180SOL    HW2 4440   3.813   6.468   0.589
 1181SOL     OW 4441   5.926   6.522   6.129
 1181SOL    HW1 4442   5.858   6.499   6.199
 1181SOL    HW2 4443   5.972   6.607   6.154
 1182SOL     OW 4444   5.233   3.794   4.335
 1182SOL    HW1 4445   5.178   3.743   4.401
 1182SOL    HW2 4446   5.177   3.816   4.255
 1183SOL     OW 4447   1.444   4.110   0.294
 1183SOL    HW1 4448   1.494   4.172   0.234
 1183SOL    HW2 4449   1.496   4.095   0.378
 1184SOL     OW 4450   0.418   1.806   4.960
 1184SOL    HW1 4451   0.357   1.859   5.018
 1184SOL    HW2 4452   0.416   1.710   4.988
 1185SOL     OW 4453   7.004   1.860   6.588
 1185SOL    HW1 4454   6.990   1.956   6.614
 1185SOL    HW2 4455   6.969   1.845   6.496
 1186SOL     OW 4456   4.673   6.499   3.604
 1186SOL    HW1 4457   4.616   6.573   3.639
 1186SOL    HW2 4458   4.769   6.526   3.609
 1187SOL     OW 4459   5.983   1.873   6.792
 1187SOL    HW1 4460   5.974   1.935   6.714
 1187SOL    HW2 4461   6.002   1.926   6.875
 1188SOL     OW 4462   4.382   1.917   6.173
 1188SOL    HW1 4463   4.418   1.829   6.142
 1188SOL    HW2 4464   4.340   1.906   6.263
 1189SOL     OW 4465   6.058   3.774   3.577
 1189SOL    HW1 4466   5.988   3.732   3.635
 1189SOL    HW2 4467   6.114   3.836   3.631
 1190SOL     OW 4468   2.286   1.215   3.755
 1190SOL    HW1 4469   2.211   1.257   3.704
 1190SOL    HW2 4470   2.255   1.193   3.847
 1191SOL     OW 4471   3.585   0.412   2.798
 1191SOL    HW1 4472   3.503   0.355   2.789
 1191SOL    HW2 4473   3.666   0.355   2.789
 1192SOL     OW 4474   5.966   5.341   4.147
 1192SOL    HW1 4475   6.038   5.398   4.107
 1192SOL    HW2 4476   5.877   5.381   4.128
 1193SOL     OW 4477   6.556   6.064   4.373
 1193SOL    HW1 4478   6.573   6.097   4.280
 1193SOL    HW2 4479   6.458   6.073   4.393
 1194SOL     OW 4480   3.557   0.253   1.112
 1194SOL    HW1 4481   3.531   0.299   1.197
 1194SOL    HW2 4482   3.657   0.252   1.104
 1195SOL     OW 4483   5.153   3.379   2.917
 1195SOL    HW1 4484   5.109   3.340   2.837
 1195SOL    HW2 4485   5.170   3.477   2.901
 1196SOL     OW 4486   6.959   6.385   5.220
 1196SOL    HW1 4487   7.014   6.454   5.173
 1196SOL    HW2 4488   6.958   6.406   5.318
 1197SOL     OW 4489   2.828   6.597   6.455
 1197SOL    HW1 4490   2.918   6.622   6.492
 1197SOL    HW2 4491   2.792   6.518   6.504
 1198SOL     OW 4492   1.292   2.749   0.547
 1198SOL    HW1 4493   1.262   2.747   0.451
 1198SOL    HW2 4494   1.252   2.671   0.595
 1199SOL     OW 4495   5.592   4.381   2.890
 1199SOL    HW1 4496   5.593   4.452   2.961
 1199SOL    HW2 4497   5.508   4.328   2.897
 1200SOL     OW 4498   3.215   3.927   2.004
 1200SOL    HW1 4499   3.168   3.852   2.051
 1200SOL    HW2 4500   3.147   3.986   1.960
 1201SOL     OW 4501   1.468   2.421   5.275
 1201SOL    HW1 4502   1.509   2.494   5.221
 1201SOL    HW2 4503   1.426   2.354   5.214
 1202SOL     OW 4504   0.811   6.632   4.878
 1202SOL    HW1 4505   0.782   6.650   4.785
 1202SOL    HW2 4506   0.903   6.593   4.878
 1203SOL     OW 4507   4.479   5.489   5.054
 1203SOL    HW1 4508   4.541   5.411   5.047
 1203SOL    HW2 4509   4.526   5.566   5.098
 1204SOL     OW 4510   2.019   0.787   2.659
 1204SOL    HW1 4511   2.086   0.835   2.602
 1204SOL    HW2 4512   2.064   0.710   2.704
 1205SOL     OW 4513   6.078   3.397   2.337
 1205SOL    HW1 4514   6.004   3.431   2.395
 1205SOL    HW2 4515   6.039   3.350   2.257
 1206SOL     OW 4516   3.092   3.063   3.940
 1206SOL    HW1 4517   3.058   3.092   4.029
 1206SOL    HW2 4518   3.183   3.023   3.950
 1207SOL     OW 4519   1.141   6.065   3.414
 1207SOL    HW1 4520   1.140   6.111   3.503
 1207SOL    HW2 4521   1.179   6.126   3.345
 1208SOL     OW 4522   3.525   2.334   6.711
 1208SOL    HW1 4523   3.504   2.369   6.621
 1208SOL    HW2 4524   3.456   2.266   6.738
 1209SOL     OW 4525   4.308   6.737   5.157
 1209SOL    HW1 4526   4.369   6.686   5.218
 1209SOL    HW2 4527   4.215   6.736   5.194
 1210SOL     OW 4528   2.571   1.042   3.400
 1210SOL    HW1 4529   2.563   1.136   3.434
 1210SOL    HW2 4530   2.512   0.982   3.454
 1211SOL     OW 4531   0.907   3.024   0.856
 1211SOL    HW1 4532   0.952   3.059   0.773
 1211SOL    HW2 4533   0.811   3.050   0.855
 1212SOL     OW 4534   0.644   6.678   0.420
 1212SOL    HW1 4535   0.599   6.592   0.401
 1212SOL    HW2 4536   0.732   6.682   0.372
 1213SOL     OW 4537   6.249   2.689   2.700
 1213SOL    HW1 4538   6.336   2.711   2.658
 1213SOL    HW2 4539   6.240   2.738   2.787
 1214SOL     OW 4540   0.988   2.660   2.376
 1214SOL    HW1 4541   0.960   2.613   2.292
 1214SOL    HW2 4542   0.925   2.736   2.395
 1215SOL     OW 4543   2.372   5.502   2.972
 1215SOL    HW1 4544   2.340   5.562   3.045
 1215SOL    HW2 4545   2.311   5.509   2.893
 1216SOL     OW 4546   4.036   6.895   1.976
 1216SOL    HW1 4547   4.082   6.978   1.942
 1216SOL    HW2 4548   3.999   6.844   1.899
 1217SOL     OW 4549   2.653   4.236   0.145
 1217SOL    HW1 4550   2.574   4.277   0.192
 1217SOL    HW2 4551   2.681   4.297   0.071
 1218SOL     OW 4552   2.393   5.079   4.345
 1218SOL    HW1 4553   2.477   5.026   4.352
 1218SOL    HW2 4554   2.399   5.141   4.266
 1219SOL     OW 4555   3.146   5.363   1.918
 1219SOL    HW1 4556   3.082   5.312   1.861
 1219SOL    HW2 4557   3.217   5.301   1.952
 1220SOL     OW 4558   0.966   4.779   2.026
 1220SOL    HW1 4559   1.045   4.839   2.025
 1220SOL    HW2 4560   0.896   4.817   2.086
 1221SOL     OW 4561   4.609   4.231   6.712
 1221SOL    HW1 4562   4.691   4.212   6.766
 1221SOL    HW2 4563   4.612   4.177   6.628
 1222SOL     OW 4564   6.759   1.470   6.642
 1222SOL    HW1 4565   6.825   1.396   6.647
 1222SOL    HW2 4566   6.673   1.441   6.685
 1223SOL     OW 4567   4.296   5.838   1.113
 1223SOL    HW1 4568   4.241   5.758   1.136
 1223SOL    HW2 4569   4.329   5.831   1.019
 1224SOL     OW 4570   3.009   1.410   1.566
 1224SOL    HW1 4571   3.109   1.407   1.568
 1224SOL    HW2 4572   2.978   1.503   1.583
 1225SOL     OW 4573   3.752   4.402   5.827
 1225SOL    HW1 4574   3.657   4.388   5.799
 1225SOL    HW2 4575   3.803   4.444   5.752
 1226SOL     OW 4576   2.076   5.505   0.964
 1226SOL    HW1 4577   1.991   5.453   0.957
 1226SOL    HW2 4578   2.141   5.454   1.021
 1227SOL     OW 4579   1.237   4.408   5.598
 1227SOL    HW1 4580   1.249   4.315   5.632
 1227SOL    HW2 4581   1.326   4.448   5.578
 1228SOL     OW 4582   3.533   2.309   0.637
 1228SOL    HW1 4583   3.618   2.354   0.663
 1228SOL    HW2 4584   3.457   2.350   0.689
 1229SOL     OW 4585   2.753   3.981   7.009
 1229SOL    HW1 4586   2.723   4.046   0.059
 1229SOL    HW2 4587   2.806   4.029   6.939
 1230SOL     OW 4588   4.243   0.215   3.460
 1230SOL    HW1 4589   4.230   0.129   3.411
 1230SOL    HW2 4590   4.294   0.279   3.402
 1231SOL     OW 4591   0.655   3.285   3.347
 1231SOL    HW1 4592   0.600   3.349   3.292
 1231SOL    HW2 4593   0.727   3.245   3.290
 1232SOL     OW 4594   2.070   1.764   2.302
 1232SOL    HW1 4595   2.000   1.725   2.243
 1232SOL    HW2 4596   2.047   1.859   2.323
 1233SOL     OW 4597   1.048   2.438   4.384
 1233SOL    HW1 4598   1.056   2.368   4.454
 1233SOL    HW2 4599   1.067   2.528   4.424
 1234SOL     OW 4600   6.764   4.389   4.491
 1234SOL    HW1 4601   6.742   4.414   4.585
 1234SOL    HW2 4602   6.795   4.471   4.441
 1235SOL     OW 4603   0.218   4.949   3.434
 1235SOL    HW1 4604   0.227   5.027   3.372
 1235SOL    HW2 4605   0.151   4.885   3.397
 1236SOL     OW 4606   5.786   0.528   6.842
 1236SOL    HW1 4607   5.813   0.505   6.935
 1236SOL    HW2 4608   5.839   0.474   6.777
 1237SOL     OW 4609   2.274   4.061   6.774
 1237SOL    HW1 4610   2.355   4.112   6.746
 1237SOL    HW2 4611   2.270   4.058   6.874
 1238SOL     OW 4612   2.202   1.225   1.394
 1238SOL    HW1 4613   2.258   1.273   1.327
 1238SOL    HW2 4614   2.164   1.291   1.459
 1239SOL     OW 4615   1.076   0.450   5.244
 1239SOL    HW1 4616   1.140   0.469   5.318
 1239SOL    HW2 4617   1.036   0.536   5.211
 1240SOL     OW 4618   6.038   5.329   0.821
 1240SOL    HW1 4619   5.944   5.353   0.845
 1240SOL    HW2 4620   6.079   5.404   0.769
 1241SOL     OW 4621   0.821   1.845   4.490
 1241SOL    HW1 4622   0.742   1.840   4.428
 1241SOL    HW2 4623   0.793   1.890   4.575
 1242SOL     OW 4624   2.078   2.089   6.628
 1242SOL    HW1 4625   2.142   2.166   6.626
 1242SOL    HW2 4626   2.129   2.003   6.632
 1243SOL     OW 4627   3.296   5.117   5.443
 1243SOL    HW1 4628   3.204   5.111   5.404
 1243SOL    HW2 4629   3.294   5.173   5.526
 1244SOL     OW 4630   1.237   1.516   3.127
 1244SOL    HW1 4631   1.285   1.589   3.175
 1244SOL    HW2 4632   1.212   1.546   3.035
 1245SOL     OW 4633   3.625   2.849   4.875
 1245SOL    HW1 4634   3.552   2.817   4.936
 1245SOL    HW2 4635   3.596   2.842   4.780
 1246SOL     OW 4636   1.301   6.593   1.853
 1246SOL    HW1 4637   1.356   6.566   1.774
 1246SOL    HW2 4638   1.360   6.620   1.928
 1247SOL     OW 4639   0.597   6.578   6.698
 1247SOL    HW1 4640   0.506   6.537   6.691
 1247SOL    HW2 4641   0.650   6.554   6.616
 1248SOL     OW 4642   2.157   6.955   4.214
 1248SOL    HW1 4643   2.233   7.013   4.242
 1248SOL    HW2 4644   2.091   7.009   4.161
 1249SOL     OW 4645   6.369   2.921   3.355
 1249SOL    HW1 4646   6.270   2.923   3.367
 1249SOL    HW2 4647   6.392   2.936   3.259
 1250SOL     OW 4648   6.396   3.532   4.741
 1250SOL    HW1 4649   6.393   3.438   4.707
 1250SOL    HW2 4650   6.348   3.592   4.677
 1251SOL     OW 4651   2.876   0.893   0.107
 1251SOL    HW1 4652   2.914   0.801   0.116
 1251SOL    HW2 4653   2.866   0.933   0.198
 1252SOL     OW 4654   3.733   4.087   0.112
 1252SOL    HW1 4655   3.643   4.051   0.136
 1252SOL    HW2 4656   3.757   4.162   0.174
 1253SOL     OW 4657   5.116   1.798   3.249
 1253SOL    HW1 4658   5.193   1.747   3.210
 1253SOL    HW2 4659   5.075   1.855   3.178
 1254SOL     OW 4660   5.514   0.744   3.693
 1254SOL    HW1 4661   5.440   0.714   3.632
 1254SOL    HW2 4662   5.475   0.777   3.779
 1255SOL     OW 4663   5.571   0.573   1.526
 1255SOL    HW1 4664   5.613   0.644   1.470
 1255SOL    HW2 4665   5.492   0.611   1.574
 1256SOL     OW 4666   5.592   3.150   3.532
 1256SOL    HW1 4667   5.574   3.226   3.595
 1256SOL    HW2 4668   5.686   3.155   3.499
 1257SOL     OW 4669   6.023   1.557   4.485
 1257SOL    HW1 4670   6.070   1.586   4.569
 1257SOL    HW2 4671   5.932   1.524   4.508
 1258SOL     OW 4672   0.238   5.060   3.859
 1258SOL    HW1 4673   0.148   5.098   3.839
 1258SOL    HW2 4674   0.302   5.136   3.878
 1259SOL     OW 4675   5.541   2.574   4.861
 1259SOL    HW1 4676   5.618   2.637   4.868
 1259SOL    HW2 4677   5.502   2.559   4.952
 1260SOL     OW 4678   0.660   1.495   4.758
 1260SOL    HW1 4679   0.751   1.537   4.754
 1260SOL    HW2 4680   0.591   1.566   4.742
 1261SOL     OW 4681   6.799   2.898   1.598
 1261SOL    HW1 4682   6.782   2.996   1.593
 1261SOL    HW2 4683   6.712   2.849   1.600
 1262SOL     OW 4684   5.112   5.699   1.599
 1262SOL    HW1 4685   5.081   5.794   1.594
 1262SOL    HW2 4686   5.210   5.696   1.615
 1263SOL     OW 4687   1.138   2.221   2.956
 1263SOL    HW1 4688   1.079   2.290   2.914
 1263SOL    HW2 4689   1.114   2.130   2.920
 1264SOL     OW 4690   1.493   3.003   5.382
 1264SOL    HW1 4691   1.420   3.040   5.438
 1264SOL    HW2 4692   1.516   2.911   5.414
 1265SOL     OW 4693   6.518   1.106   6.426
 1265SOL    HW1 4694   6.533   1.029   6.364
 1265SOL    HW2 4695   6.453   1.170   6.384
 1266SOL     OW 4696   3.834   2.054   6.039
 1266SOL    HW1 4697   3.842   2.083   6.135
 1266SOL    HW2 4698   3.881   1.967   6.027
 1267SOL     OW 4699   3.242   1.059   2.067
 1267SOL    HW1 4700   3.312   1.024   2.130
 1267SOL    HW2 4701   3.154   1.063   2.114
 1268SOL     OW 4702   4.283   2.144   5.189
 1268SOL    HW1 4703   4.303   2.081   5.265
 1268SOL    HW2 4704   4.260   2.091   5.108
 1269SOL     OW 4705   5.642   2.237   3.474
 1269SOL    HW1 4706   5.742   2.233   3.480
 1269SOL    HW2 4707   5.610   2.174   3.403
 1270SOL     OW 4708   6.092   5.598   3.504
 1270SOL    HW1 4709   6.169   5.535   3.502
 1270SOL    HW2 4710   6.118   5.685   3.463
 1271SOL     OW 4711   1.232   6.905   2.123
 1271SOL    HW1 4712   1.173   6.885   2.202
 1271SOL    HW2 4713   1.184   6.884   2.039
 1272SOL     OW 4714   6.023   1.975   1.284
 1272SOL    HW1 4715   6.015   1.907   1.211
 1272SOL    HW2 4716   6.078   2.052   1.252
 1273SOL     OW 4717   2.024   4.350   5.276
 1273SOL    HW1 4718   2.072   4.405   5.344
 1273SOL    HW2 4719   2.021   4.255   5.306
 1274SOL     OW 4720   0.108   4.550   4.494
 1274SOL    HW1 4721   0.052   4.578   4.572
 1274SOL    HW2 4722   0.102   4.451   4.483
 1275SOL     OW 4723   2.023   1.517   2.734
 1275SOL    HW1 4724   2.109   1.472   2.757
 1275SOL    HW2 4725   2.040   1.612   2.711
 1276SOL     OW 4726   5.789   3.832   3.732
 1276SOL    HW1 4727   5.772   3.743   3.773
 1276SOL    HW2 4728   5.776   3.903   3.802
 1277SOL     OW 4729   1.421   6.182   6.195
 1277SOL    HW1 4730   1.390   6.277   6.203
 1277SOL    HW2 4731   1.436   6.160   6.099
 1278SOL     OW 4732   6.939   6.337   2.539
 1278SOL    HW1 4733   6.978   6.253   2.500
 1278SOL    HW2 4734   6.939   6.331   2.639
 1279SOL     OW 4735   3.104   2.579   0.702
 1279SOL    HW1 4736   3.032   2.562   0.635
 1279SOL    HW2 4737   3.104   2.676   0.727
 1280SOL     OW 4738   2.975   2.265   3.172
 1280SOL    HW1 4739   2.923   2.265   3.087
 1280SOL    HW2 4740   2.913   2.286   3.248
 1281SOL     OW 4741   5.704   5.743   5.733
 1281SOL    HW1 4742   5.784   5.705   5.687
 1281SOL    HW2 4743   5.701   5.711   5.827
 1282SOL     OW 4744   0.727   2.400   1.273
 1282SOL    HW1 4745   0.716   2.317   1.327
 1282SOL    HW2 4746   0.823   2.413   1.250
 1283SOL     OW 4747   1.402   0.442   4.789
 1283SOL    HW1 4748   1.412   0.369   4.722
 1283SOL    HW2 4749   1.449   0.416   4.873
 1284SOL     OW 4750   4.072   2.498   1.686
 1284SOL    HW1 4751   4.020   2.437   1.746
 1284SOL    HW2 4752   4.170   2.488   1.705
 1285SOL     OW 4753   3.812   1.623   4.382
 1285SOL    HW1 4754   3.790   1.699   4.443
 1285SOL    HW2 4755   3.881   1.652   4.316
 1286SOL     OW 4756   5.170   0.770   2.200
 1286SOL    HW1 4757   5.193   0.825   2.280
 1286SOL    HW2 4758   5.105   0.820   2.143
 1287SOL     OW 4759   5.843   4.961   6.719
 1287SOL    HW1 4760   5.821   5.045   6.670
 1287SOL    HW2 4761   5.765   4.935   6.776
 1288SOL     OW 4762   4.812   4.715   5.728
 1288SOL    HW1 4763   4.748   4.638   5.730
 1288SOL    HW2 4764   4.880   4.704   5.801
 1289SOL     OW 4765   1.417   6.674   1.004
 1289SOL    HW1 4766   1.461   6.689   1.092
 1289SOL    HW2 4767   1.434   6.753   0.944
 1290SOL     OW 4768   1.313   6.759   4.252
 1290SOL    HW1 4769   1.382   6.825   4.281
 1290SOL    HW2 4770   1.352   6.698   4.182
 1291SOL     OW 4771   5.089   6.143   3.875
 1291SOL    HW1 4772   5.154   6.074   3.844
 1291SOL    HW2 4773   5.041   6.182   3.796
 1292SOL     OW 4774   0.048   6.756   2.593
 1292SOL    HW1 4775   7.017   6.810   2.525
 1292SOL    HW2 4776   0.136   6.801   2.610
 1293SOL     OW 4777   4.729   6.947   1.334
 1293SOL    HW1 4778   4.744   6.918   1.428
 1293SOL    HW2 4779   4.631   6.950   1.314
 1294SOL     OW 4780   2.298   4.615   5.206
 1294SOL    HW1 4781   2.259   4.562   5.281
 1294SOL    HW2 4782   2.380   4.568   5.172
 1295SOL     OW 4783   0.195   4.513   0.311
 1295SOL    HW1 4784   0.136   4.559   0.246
 1295SOL    HW2 4785   0.291   4.528   0.287
 1296SOL     OW 4786   3.929   0.935   6.013
 1296SOL    HW1 4787   3.858   0.865   5.999
 1296SOL    HW2 4788   4.018   0.898   5.988
 1297SOL     OW 4789   5.951   6.581   0.119
 1297SOL    HW1 4790   5.886   6.531   0.063
 1297SOL    HW2 4791   5.927   6.571   0.216
 1298SOL     OW 4792   4.695   6.725   2.743
 1298SOL    HW1 4793   4.784   6.689   2.715
 1298SOL    HW2 4794   4.672   6.805   2.689
 1299SOL     OW 4795   1.193   4.876   5.091
 1299SOL    HW1 4796   1.218   4.803   5.027
 1299SOL    HW2 4797   1.270   4.893   5.153
 1300SOL     OW 4798   1.364   5.684   0.589
 1300SOL    HW1 4799   1.346   5.602   0.644
 1300SOL    HW2 4800   1.280   5.712   0.544
 1301SOL     OW 4801   6.236   1.797   6.701
 1301SOL    HW1 4802   6.284   1.745   6.771
 1301SOL    HW2 4803   6.143   1.816   6.731
 1302SOL     OW 4804   6.822   6.891   5.007
 1302SOL    HW1 4805   6.771   6.941   5.076
 1302SOL    HW2 4806   6.895   6.838   5.051
 1303SOL     OW 4807   2.598   6.362   1.311
 1303SOL    HW1 4808   2.579   6.265   1.325
 1303SOL    HW2 4809   2.530   6.400   1.248
 1304SOL     OW 4810   6.869   1.111   0.114
 1304SOL    HW1 4811   6.953   1.078   0.157
 1304SOL    HW2 4812   6.804   1.036   0.105
 1305SOL     OW 4813   3.379   4.189   6.244
 1305SOL    HW1 4814   3.442   4.119   6.210
 1305SOL    HW2 4815   3.341   4.239   6.167
 1306SOL     OW 4816   2.469   6.552   4.086
 1306SOL    HW1 4817   2.454   6.648   4.063
 1306SOL    HW2 4818   2.446   6.494   4.007
 1307SOL     OW 4819   2.136   3.549   2.994
 1307SOL    HW1 4820   2.148   3.639   2.951
 1307SOL    HW2 4821   2.116   3.561   3.091
 1308SOL     OW 4822   0.879   3.724   5.577
 1308SOL    HW1 4823   0.946   3.756   5.510
 1308SOL    HW2 4824   0.914   3.741   5.669
 1309SOL     OW 4825   5.989   3.972   0.091
 1309SOL    HW1 4826   5.891   3.982   0.074
 1309SOL    HW2 4827   6.028   3.908   0.024
 1310SOL     OW 4828   2.518   2.326   3.539
 1310SOL    HW1 4829   2.442   2.378   3.577
 1310SOL    HW2 4830   2.602   2.350   3.586
 1311SOL     OW 4831   6.287   5.320   6.918
 1311SOL    HW1 4832   6.313   5.360   7.006
 1311SOL    HW2 4833   6.274   5.393   6.850
 1312SOL     OW 4834   2.375   1.622   6.724
 1312SOL    HW1 4835   2.332   1.689   6.664
 1312SOL    HW2 4836   2.469   1.649   6.742
 1313SOL     OW 4837   4.715   5.038   3.186
 1313SOL    HW1 4838   4.627   5.014   3.227
 1313SOL    HW2 4839   4.781   5.059   3.259
 1314SOL     OW 4840   3.114   1.733   3.714
 1314SOL    HW1 4841   3.084   1.647   3.756
 1314SOL    HW2 4842   3.108   1.806   3.781
 1315SOL     OW 4843   5.355   0.446   3.372
 1315SOL    HW1 4844   5.273   0.389   3.376
 1315SOL    HW2 4845   5.333   0.539   3.401
 1316SOL     OW 4846   4.994   0.346   6.122
 1316SOL    HW1 4847   5.059   0.356   6.047
 1316SOL    HW2 4848   4.919   0.286   6.093
 1317SOL     OW 4849   3.996   3.046   3.983
 1317SOL    HW1 4850   3.944   3.124   4.016
 1317SOL    HW2 4851   3.986   2.969   4.046
 1318SOL     OW 4852   1.670   1.168   0.041
 1318SOL    HW1 4853   1.676   1.074   0.008
 1318SOL    HW2 4854   1.756   1.216   0.024
 1319SOL     OW 4855   6.724   1.618   0.315
 1319SOL    HW1 4856   6.697   1.572   0.400
 1319SOL    HW2 4857   6.745   1.714   0.335
 1320SOL     OW 4858   2.918   2.782   5.563
 1320SOL    HW1 4859   2.891   2.872   5.531
 1320SOL    HW2 4860   2.837   2.724   5.574
 1321SOL     OW 4861   0.093   2.302   1.702
 1321SOL    HW1 4862   0.094   2.402   1.697
 1321SOL    HW2 4863   0.172   2.265   1.652
 1322SOL     OW 4864   1.996   2.717   0.393
 1322SOL    HW1 4865   2.060   2.794   0.392
 1322SOL    HW2 4866   1.975   2.690   0.299
 1323SOL     OW 4867   4.506   0.823   1.341
 1323SOL    HW1 4868   4.505   0.920   1.318
 1323SOL    HW2 4869   4.558   0.772   1.272
 1324SOL     OW 4870   2.472   3.798   5.866
 1324SOL    HW1 4871   2.519   3.750   5.792
 1324SOL    HW2 4872   2.424   3.877   5.830
 1325SOL     OW 4873   4.497   5.123   4.384
 1325SOL    HW1 4874   4.487   5.052   4.315
 1325SOL    HW2 4875   4.419   5.119   4.448
 1326SOL     OW 4876   3.768   1.556   5.356
 1326SOL    HW1 4877   3.817   1.628   5.308
 1326SOL    HW2 4878   3.708   1.597   5.425
 1327SOL     OW 4879   4.504   5.576   1.943
 1327SOL    HW1 4880   4.494   5.646   2.013
 1327SOL    HW2 4881   4.563   5.610   1.870
 1328SOL     OW 4882   1.039   2.385   5.503
 1328SOL    HW1 4883   0.979   2.398   5.424
 1328SOL    HW2 4884   1.017   2.454   5.573
 1329SOL     OW 4885   1.467   2.520   4.444
 1329SOL    HW1 4886   1.447   2.479   4.354
 1329SOL    HW2 4887   1.564   2.508   4.465
 1330SOL     OW 4888   6.278   2.982   2.387
 1330SOL    HW1 4889   6.342   3.009   2.315
 1330SOL    HW2 4890   6.316   2.904   2.438
 1331SOL     OW 4891   4.233   1.611   3.070
 1331SOL    HW1 4892   4.309   1.548   3.055
 1331SOL    HW2 4893   4.174   1.575   3.142
 1332SOL     OW 4894   2.346   6.495   6.769
 1332SOL    HW1 4895   2.314   6.499   6.674
 1332SOL    HW2 4896   2.271   6.463   6.827
 1333SOL     OW 4897   3.469   3.473   2.540
 1333SOL    HW1 4898   3.489   3.565   2.507
 1333SOL    HW2 4899   3.373   3.468   2.569
 1334SOL     OW 4900   0.489   4.206   1.742
 1334SOL    HW1 4901   0.581   4.170   1.730
 1334SOL    HW2 4902   0.465   4.207   1.840
 1335SOL     OW 4903   7.017   3.563   3.271
 1335SOL    HW1 4904   7.001   3.477   3.223
 1335SOL    HW2 4905   0.061   3.547   3.347
 1336SOL     OW 4906   2.072   6.279   5.669
 1336SOL    HW1 4907   2.056   6.260   5.765
 1336SOL    HW2 4908   2.031   6.207   5.613
 1337SOL     OW 4909   6.684   7.018   1.273
 1337SOL    HW1 4910   6.740   0.037   1.347
 1337SOL    HW2 4911   6.670   6.921   1.290
 1338SOL     OW 4912   0.699   4.244   4.946
 1338SOL    HW1 4913   0.755   4.287   5.017
 1338SOL    HW2 4914   0.629   4.187   4.989
 1339SOL     OW 4915   5.207   1.283   6.694
 1339SOL    HW1 4916   5.293   1.321   6.661
 1339SOL    HW2 4917   5.225   1.200   6.747
 1340SOL     OW 4918   2.585   2.886   0.815
 1340SOL    HW1 4919   2.488   2.909   0.803
 1340SOL    HW2 4920   2.606   2.877   0.912
 1341SOL     OW 4921   6.175   6.067   6.919
 1341SOL    HW1 4922   6.165   6.164   6.895
 1341SOL    HW2 4923   6.101   6.039   6.979
 1342SOL     OW 4924   1.716   5.813   1.072
 1342SOL    HW1 4925   1.756   5.832   1.162
 1342SOL    HW2 4926   1.701   5.899   1.024
 1343SOL     OW 4927   5.193   5.901   2.856
 1343SOL    HW1 4928   5.226   5.947   2.939
 1343SOL    HW2 4929   5.115   5.951   2.819
 1344SOL     OW 4930   1.520   0.543   3.294
 1344SOL    HW1 4931   1.496   0.563   3.199
 1344SOL    HW2 4932   1.493   0.620   3.352
 1345SOL     OW 4933   0.857   6.650   5.279
 1345SOL    HW1 4934   0.802   6.598   5.344
 1345SOL    HW2 4935   0.946   6.606   5.269
 1346SOL     OW 4936   3.551   5.990   3.640
 1346SOL    HW1 4937   3.594   6.081   3.642
 1346SOL    HW2 4938   3.533   5.960   3.734
 1347SOL     OW 4939   6.949   0.967   6.124
 1347SOL    HW1 4940   6.997   1.050   6.095
 1347SOL    HW2 4941   6.990   0.931   6.207
 1348SOL     OW 4942   1.510   6.754   4.609
 1348SOL    HW1 4943   1.560   6.751   4.523
 1348SOL    HW2 4944   1.517   6.845   4.649
 1349SOL     OW 4945   4.927   3.775   4.130
 1349SOL    HW1 4946   5.010   3.815   4.090
 1349SOL    HW2 4947   4.906   3.689   4.082
 1350SOL     OW 4948   5.540   4.437   6.911
 1350SOL    HW1 4949   5.607   4.508   6.934
 1350SOL    HW2 4950   5.472   4.429   6.984
 1351SOL     OW 4951   6.688   3.832   7.011
 1351SOL    HW1 4952   6.647   3.894   0.059
 1351SOL    HW2 4953   6.738   3.759   0.039
 1352SOL     OW 4954   6.852   0.987   3.947
 1352SOL    HW1 4955   6.783   0.947   4.007
 1352SOL    HW2 4956   6.812   1.061   3.894
 1353SOL     OW 4957   6.573   3.341   6.263
 1353SOL    HW1 4958   6.553   3.319   6.168
 1353SOL    HW2 4959   6.639   3.276   6.300
 1354SOL     OW 4960   4.975   4.922   3.111
 1354SOL    HW1 4961   4.969   4.934   3.012
 1354SOL    HW2 4962   4.884   4.926   3.152
 1355SOL     OW 4963   3.640   3.566   4.049
 1355SOL    HW1 4964   3.642   3.477   4.004
 1355SOL    HW2 4965   3.664   3.638   3.983
 1356SOL     OW 4966   3.090   3.077   6.848
 1356SOL    HW1 4967   3.144   2.997   6.817
 1356SOL    HW2 4968   3.139   3.160   6.823
 1357SOL     OW 4969   0.249   3.418   4.915
 1357SOL    HW1 4970   0.302   3.368   4.846
 1357SOL    HW2 4971   0.293   3.409   5.004
 1358SOL     OW 4972   2.552   6.504   6.063
 1358SOL    HW1 4973   2.483   6.449   6.109
 1358SOL    HW2 4974   2.634   6.512   6.120
 1359SOL     OW 4975   5.912   5.127   0.294
 1359SOL    HW1 4976   5.902   5.222   0.263
 1359SOL    HW2 4977   5.930   5.068   0.216
 1360SOL     OW 4978   2.439   2.087   6.247
 1360SOL    HW1 4979   2.505   2.046   6.309
 1360SOL    HW2 4980   2.451   2.187   6.247
 1361SOL     OW 4981   5.965   5.052   4.754
 1361SOL    HW1 4982   5.882   5.062   4.698
 1361SOL    HW2 4983   5.993   4.956   4.754
 1362SOL     OW 4984   2.981   3.855   4.498
 1362SOL    HW1 4985   2.903   3.851   4.560
 1362SOL    HW2 4986   2.957   3.813   4.411
 1363SOL     OW 4987   6.967   6.553   3.510
 1363SOL    HW1 4988   0.023   6.618   3.515
 1363SOL    HW2 4989   7.003   6.460   3.512
 1364SOL     OW 4990   3.290   4.400   0.052
 1364SOL    HW1 4991   3.209   4.347   0.027
 1364SOL    HW2 4992   3.291   4.418   0.150
 1365SOL     OW 4993   5.609   2.484   5.942
 1365SOL    HW1 4994   5.662   2.567   5.930
 1365SOL    HW2 4995   5.663   2.405   5.911
 1366SOL     OW 4996   1.548   1.118   4.589
 1366SOL    HW1 4997   1.472   1.081   4.536
 1366SOL    HW2 4998   1.518   1.138   4.682
 1367SOL     OW 4999   2.406   1.345   1.953
 1367SOL    HW1 5000   2.497   1.357   1.915
 1367SOL    HW2 5001   2.367   1.435   1.974
 1368SOL     OW 5002   7.020   0.923   3.083
 1368SOL    HW1 5003   0.054   0.841   3.104
 1368SOL    HW2 5004   0.039   1.002   3.131
 1369SOL     OW 5005   0.331   6.885   2.626
 1369SOL    HW1 5006   0.395   6.943   2.676
 1369SOL    HW2 5007   0.379   6.838   2.552
 1370SOL     OW 5008   0.799   1.091   2.698
 1370SOL    HW1 5009   0.767   1.020   2.760
 1370SOL    HW2 5010   0.735   1.168   2.698
 1371SOL     OW 5011   1.605   6.966   5.049
 1371SOL    HW1 5012   1.636   6.974   5.143
 1371SOL    HW2 5013   1.578   6.872   5.030
 1372SOL     OW 5014   3.103   1.932   1.407
 1372SOL    HW1 5015   3.203   1.931   1.420
 1372SOL    HW2 5016   3.080   1.882   1.324
 1373SOL     OW 5017   1.289   5.643   6.447
 1373SOL    HW1 5018   1.357   5.693   6.394
 1373SOL    HW2 5019   1.311   5.650   6.545
 1374SOL     OW 5020   5.533   3.433   4.486
 1374SOL    HW1 5021   5.481   3.465   4.407
 1374SOL    HW2 5022   5.593   3.506   4.518
 1375SOL     OW 5023   0.913   4.594   3.650
 1375SOL    HW1 5024   0.895   4.649   3.568
 1375SOL    HW2 5025   0.901   4.650   3.732
 1376SOL     OW 5026   5.267   0.197   2.514
 1376SOL    HW1 5027   5.198   0.131   2.482
 1376SOL    HW2 5028   5.357   0.155   2.506
 1377SOL     OW 5029   0.125   3.953   5.571
 1377SOL    HW1 5030   0.169   4.027   5.623
 1377SOL    HW2 5031   0.105   3.877   5.634
 1378SOL     OW 5032   1.828   1.925   0.767
 1378SOL    HW1 5033   1.782   1.968   0.689
 1378SOL    HW2 5034   1.901   1.865   0.734
 1379SOL     OW 5035   4.429   5.153   1.497
 1379SOL    HW1 5036   4.359   5.168   1.427
 1379SOL    HW2 5037   4.460   5.241   1.533
 1380SOL     OW 5038   6.262   5.273   3.026
 1380SOL    HW1 5039   6.313   5.318   2.953
 1380SOL    HW2 5040   6.215   5.193   2.990
 1381SOL     OW 5041   4.079   6.840   2.237
 1381SOL    HW1 5042   4.058   6.930   2.275
 1381SOL    HW2 5043   4.060   6.840   2.138
 1382SOL     OW 5044   6.549   3.947   0.357
 1382SOL    HW1 5045   6.457   3.917   0.333
 1382SOL    HW2 5046   6.573   3.913   0.448
 1383SOL     OW 5047   3.637   6.905   0.596
 1383SOL    HW1 5048   3.674   6.880   0.686
 1383SOL    HW2 5049   3.692   6.861   0.525
 1384SOL     OW 5050   0.819   1.577   2.633
 1384SOL    HW1 5051   0.909   1.582   2.676
 1384SOL    HW2 5052   0.748   1.582   2.704
 1385SOL     OW 5053   5.015   3.347   4.577
 1385SOL    HW1 5054   5.002   3.397   4.663
 1385SOL    HW2 5055   4.986   3.252   4.588
 1386SOL     OW 5056   2.494   2.581   3.125
 1386SOL    HW1 5057   2.475   2.491   3.164
 1386SOL    HW2 5058   2.480   2.651   3.194
 1387SOL     OW 5059   3.742   1.214   4.535
 1387SOL    HW1 5060   3.754   1.312   4.517
 1387SOL    HW2 5061   3.675   1.177   4.471
 1388SOL     OW 5062   5.028   2.405   3.696
 1388SOL    HW1 5063   4.933   2.377   3.677
 1388SOL    HW2 5064   5.057   2.365   3.782
 1389SOL     OW 5065   6.878   1.211   4.973
 1389SOL    HW1 5066   6.852   1.187   4.880
 1389SOL    HW2 5067   6.890   1.310   4.981
 1390SOL     OW 5068   5.831   2.313   2.730
 1390SOL    HW1 5069   5.842   2.255   2.649
 1390SOL    HW2 5070   5.861   2.406   2.708
 1391SOL     OW 5071   5.840   1.049   5.276
 1391SOL    HW1 5072   5.929   1.020   5.310
 1391SOL    HW2 5073   5.771   1.035   5.348
 1392SOL     OW 5074   2.809   6.738   5.126
 1392SOL    HW1 5075   2.816   6.645   5.093
 1392SOL    HW2 5076   2.733   6.785   5.081
 1393SOL     OW 5077   4.333   6.718   6.942
 1393SOL    HW1 5078   4.354   6.628   6.903
 1393SOL    HW2 5079   4.359   6.788   6.876
 1394SOL     OW 5080   3.823   1.154   5.123
 1394SOL    HW1 5081   3.757   1.229   5.130
 1394SOL    HW2 5082   3.818   1.115   5.032
 1395SOL     OW 5083   0.953   4.839   2.397
 1395SOL    HW1 5084   1.040   4.834   2.348
 1395SOL    HW2 5085   0.965   4.891   2.481
 1396SOL     OW 5086   1.653   1.876   3.078
 1396SOL    HW1 5087   1.739   1.903   3.033
 1396SOL    HW2 5088   1.640   1.777   3.065
 1397SOL     OW 5089   2.343   5.330   5.620
 1397SOL    HW1 5090   2.327   5.372   5.530
 1397SOL    HW2 5091   2.420   5.375   5.665
 1398SOL     OW 5092   2.978   6.912   6.145
 1398SOL    HW1 5093   2.894   6.869   6.178
 1398SOL    HW2 5094   2.978   7.009   6.171
 1399SOL     OW 5095   3.708   0.160   0.157
 1399SOL    HW1 5096   3.780   0.119   0.102
 1399SOL    HW2 5097   3.626   0.102   0.154
 1400SOL     OW 5098   0.413   2.247   5.956
 1400SOL    HW1 5099   0.488   2.200   6.003
 1400SOL    HW2 5100   0.399   2.206   5.867
 1401SOL     OW 5101   4.318   6.804   2.916
 1401SOL    HW1 5102   4.301   6.845   2.826
 1401SOL    HW2 5103   4.412   6.770   2.920
 1402SOL     OW 5104   4.831   3.716   2.562
 1402SOL    HW1 5105   4.880   3.704   2.475
 1402SOL    HW2 5106   4.733   3.700   2.548
 1403SOL     OW 5107   2.979   2.789   6.572
 1403SOL    HW1 5108   2.948   2.774   6.478
 1403SOL    HW2 5109   2.919   2.739   6.635
 1404SOL     OW 5110   4.126   5.772   0.011
 1404SOL    HW1 5111   4.071   5.840   0.059
 1404SOL    HW2 5112   4.177   5.816   6.956
 1405SOL     OW 5113   1.180   4.942   6.925
 1405SOL    HW1 5114   1.106   4.926   6.990
 1405SOL    HW2 5115   1.145   4.995   6.847
 1406SOL     OW 5116   1.715   2.442   0.522
 1406SOL    HW1 5117   1.654   2.496   0.464
 1406SOL    HW2 5118   1.710   2.476   0.616
 1407SOL     OW 5119   6.493   3.104   1.649
 1407SOL    HW1 5120   6.469   3.194   1.685
 1407SOL    HW2 5121   6.461   3.033   1.713
 1408SOL     OW 5122   5.867   6.233   1.410
 1408SOL    HW1 5123   5.944   6.198   1.464
 1408SOL    HW2 5124   5.887   6.223   1.313
 1409SOL     OW 5125   5.848   2.404   5.788
 1409SOL    HW1 5126   5.789   2.457   5.727
 1409SOL    HW2 5127   5.938   2.393   5.746
 1410SOL     OW 5128   3.675   0.477   0.744
 1410SOL    HW1 5129   3.647   0.505   0.652
 1410SOL    HW2 5130   3.620   0.399   0.774
 1411SOL     OW 5131   3.208   0.262   0.045
 1411SOL    HW1 5132   3.140   0.229   0.110
 1411SOL    HW2 5133   3.163   0.318   6.995
 1412SOL     OW 5134   1.539   1.038   6.321
 1412SOL    HW1 5135   1.538   1.022   6.419
 1412SOL    HW2 5136   1.511   1.133   6.302
 1413SOL     OW 5137   1.734   1.420   4.645
 1413SOL    HW1 5138   1.813   1.364   4.673
 1413SOL    HW2 5139   1.706   1.395   4.553
 1414SOL     OW 5140   0.427   5.376   2.818
 1414SOL    HW1 5141   0.517   5.335   2.798
 1414SOL    HW2 5142   0.372   5.310   2.869
 1415SOL     OW 5143   3.211   1.844   5.168
 1415SOL    HW1 5144   3.220   1.793   5.083
 1415SOL    HW2 5145   3.300   1.850   5.213
 1416SOL     OW 5146   4.103   0.442   5.302
 1416SOL    HW1 5147   4.074   0.377   5.373
 1416SOL    HW2 5148   4.144   0.522   5.345
 1417SOL     OW 5149   3.823   3.630   4.287
 1417SOL    HW1 5150   3.766   3.681   4.352
 1417SOL    HW2 5151   3.770   3.606   4.206
 1418SOL     OW 5152   2.770   3.694   5.849
 1418SOL    HW1 5153   2.756   3.739   5.937
 1418SOL    HW2 5154   2.845   3.629   5.856
 1419SOL     OW 5155   0.306   5.312   1.734
 1419SOL    HW1 5156   0.213   5.277   1.748
 1419SOL    HW2 5157   0.371   5.237   1.735
 1420SOL     OW 5158   2.394   6.669   3.706
 1420SOL    HW1 5159   2.395   6.751   3.764
 1420SOL    HW2 5160   2.477   6.666   3.650
 1421SOL     OW 5161   1.535   4.979   1.325
 1421SOL    HW1 5162   1.558   4.882   1.314
 1421SOL    HW2 5163   1.578   5.032   1.252
 1422SOL     OW 5164   1.460   3.431   6.765
 1422SOL    HW1 5165   1.482   3.498   6.694
 1422SOL    HW2 5166   1.450   3.340   6.723
 1423SOL     OW 5167   4.821   0.851   5.193
 1423SOL    HW1 5168   4.811   0.890   5.284
 1423SOL    HW2 5169   4.873   0.915   5.135
 1424SOL     OW 5170   6.235   4.074   1.429
 1424SOL    HW1 5171   6.181   4.152   1.399
 1424SOL    HW2 5172   6.253   4.014   1.351
 1425SOL     OW 5173   5.701   0.141   2.731
 1425SOL    HW1 5174   5.752   0.215   2.687
 1425SOL    HW2 5175   5.608   0.172   2.752
 1426SOL     OW 5176   3.660   0.791   0.754
 1426SOL    HW1 5177   3.658   0.691   0.749
 1426SOL    HW2 5178   3.698   0.828   0.669
 1427SOL     OW 5179   1.194   0.469   3.510
 1427SOL    HW1 5180   1.242   0.538   3.565
 1427SOL    HW2 5181   1.260   0.420   3.453
 1428SOL     OW 5182   2.355   4.317   3.741
 1428SOL    HW1 5183   2.360   4.218   3.750
 1428SOL    HW2 5184   2.318   4.356   3.826
 1429SOL     OW 5185   5.674   0.640   0.979
 1429SOL    HW1 5186   5.635   0.561   0.932
 1429SOL    HW2 5187   5.655   0.723   0.926
 1430SOL     OW 5188   2.215   4.066   4.372
 1430SOL    HW1 5189   2.234   4.015   4.456
 1430SOL    HW2 5190   2.207   4.002   4.296
 1431SOL     OW 5191   3.582   1.710   0.642
 1431SOL    HW1 5192   3.501   1.769   0.643
 1431SOL    HW2 5193   3.638   1.731   0.562
 1432SOL     OW 5194   2.811   0.157   2.542
 1432SOL    HW1 5195   2.749   0.168   2.464
 1432SOL    HW2 5196   2.899   0.199   2.520
 1433SOL     OW 5197   3.734   1.838   3.593
 1433SOL    HW1 5198   3.741   1.820   3.494
 1433SOL    HW2 5199   3.776   1.926   3.614
 1434SOL     OW 5200   6.295   3.270   1.143
 1434SOL    HW1 5201   6.283   3.179   1.182
 1434SOL    HW2 5202   6.372   3.269   1.079
 1435SOL     OW 5203   6.724   5.955   4.086
 1435SOL    HW1 5204   6.792   5.902   4.036
 1435SOL    HW2 5205   6.633   5.918   4.066
 1436SOL     OW 5206   6.141   0.652   6.587
 1436SOL    HW1 5207   6.140   0.553   6.576
 1436SOL    HW2 5208   6.102   0.676   6.676
 1437SOL     OW 5209   3.897   0.810   0.604
 1437SOL    HW1 5210   3.948   0.881   0.653
 1437SOL    HW2 5211   3.943   0.789   0.518
 1438SOL     OW 5212   2.625   6.673   3.551
 1438SOL    HW1 5213   2.691   6.611   3.593
 1438SOL    HW2 5214   2.647   6.685   3.454
 1439SOL     OW 5215   6.766   5.448   4.351
 1439SOL    HW1 5216   6.704   5.477   4.278
 1439SOL    HW2 5217   6.729   5.478   4.439
 1440SOL     OW 5218   3.711   3.147   2.173
 1440SOL    HW1 5219   3.677   3.065   2.219
 1440SOL    HW2 5220   3.780   3.190   2.230
 1441SOL     OW 5221   0.202   2.404   6.638
 1441SOL    HW1 5222   0.269   2.393   6.565
 1441SOL    HW2 5223   0.213   2.494   6.681
 1442SOL     OW 5224   5.457   6.082   0.384
 1442SOL    HW1 5225   5.432   6.105   0.290
 1442SOL    HW2 5226   5.415   6.148   0.446
 1443SOL     OW 5227   2.195   3.047   4.549
 1443SOL    HW1 5228   2.206   3.133   4.500
 1443SOL    HW2 5229   2.175   2.974   4.484
 1444SOL     OW 5230   4.613   6.604   4.971
 1444SOL    HW1 5231   4.707   6.577   4.953
 1444SOL    HW2 5232   4.560   6.600   4.886
 1445SOL     OW 5233   6.759   2.749   6.777
 1445SOL    HW1 5234   6.768   2.810   6.855
 1445SOL    HW2 5235   6.847   2.739   6.731
 1446SOL     OW 5236   2.870   6.039   2.347
 1446SOL    HW1 5237   2.837   5.945   2.362
 1446SOL    HW2 5238   2.970   6.041   2.357
 1447SOL     OW 5239   6.366   1.147   4.907
 1447SOL    HW1 5240   6.305   1.212   4.951
 1447SOL    HW2 5241   6.362   1.059   4.955
 1448SOL     OW 5242   5.087   1.593   1.128
 1448SOL    HW1 5243   5.107   1.520   1.194
 1448SOL    HW2 5244   5.129   1.571   1.040
 1449SOL     OW 5245   4.955   5.956   0.116
 1449SOL    HW1 5246   5.001   6.010   0.047
 1449SOL    HW2 5247   4.856   5.961   0.102
 1450SOL     OW 5248   5.487   1.374   4.223
 1450SOL    HW1 5249   5.426   1.388   4.146
 1450SOL    HW2 5250   5.561   1.442   4.220
 1451SOL     OW 5251   0.203   6.542   2.500
 1451SOL    HW1 5252   0.206   6.453   2.545
 1451SOL    HW2 5253   0.137   6.601   2.546
 1452SOL     OW 5254   1.689   0.407   6.199
 1452SOL    HW1 5255   1.616   0.364   6.252
 1452SOL    HW2 5256   1.778   0.386   6.240
 1453SOL     OW 5257   6.266   4.444   4.082
 1453SOL    HW1 5258   6.281   4.351   4.116
 1453SOL    HW2 5259   6.353   4.486   4.058
 1454SOL     OW 5260   6.196   4.666   1.712
 1454SOL    HW1 5261   6.114   4.694   1.662
 1454SOL    HW2 5262   6.268   4.734   1.698
 1455SOL     OW 5263   2.106   1.722   1.812
 1455SOL    HW1 5264   2.187   1.699   1.757
 1455SOL    HW2 5265   2.031   1.747   1.752
 1456SOL     OW 5266   5.503   4.798   5.288
 1456SOL    HW1 5267   5.548   4.770   5.373
 1456SOL    HW2 5268   5.507   4.722   5.222
 1457SOL     OW 5269   2.298   1.638   4.533
 1457SOL    HW1 5270   2.300   1.538   4.528
 1457SOL    HW2 5271   2.389   1.671   4.559
 1458SOL     OW 5272   6.277   5.511   6.609
 1458SOL    HW1 5273   6.244   5.578   6.543
 1458SOL    HW2 5274   6.264   5.546   6.702
 1459SOL     OW 5275   3.514   6.729   1.007
 1459SOL    HW1 5276   3.600   6.753   1.051
 1459SOL    HW2 5277   3.467   6.812   0.978
 1460SOL     OW 5278   0.769   1.440   6.769
 1460SOL    HW1 5279   0.675   1.407   6.775
 1460SOL    HW2 5280   0.768   1.539   6.751
 1461SOL     OW 5281   5.220   4.052   2.332
 1461SOL    HW1 5282   5.134   4.097   2.355
 1461SOL    HW2 5283   5.207   3.953   2.333
 1462SOL     OW 5284   5.850   0.320   4.993
 1462SOL    HW1 5285   5.866   0.281   5.083
 1462SOL    HW2 5286   5.924   0.383   4.970
 1463SOL     OW 5287   0.576   2.817   5.707
 1463SOL    HW1 5288   0.493   2.860   5.743
 1463SOL    HW2 5289   0.633   2.784   5.782
 1464SOL     OW 5290   0.454   0.484   1.429
 1464SOL    HW1 5291   0.474   0.580   1.408
 1464SOL    HW2 5292   0.535   0.442   1.470
 1465SOL     OW 5293   2.210   0.852   3.699
 1465SOL    HW1 5294   2.260   0.863   3.785
 1465SOL    HW2 5295   2.112   0.840   3.719
 1466SOL     OW 5296   6.037   6.010   4.750
 1466SOL    HW1 5297   6.076   5.926   4.712
 1466SOL    HW2 5298   6.084   6.033   4.835
 1467SOL     OW 5299   0.870   4.282   4.310
 1467SOL    HW1 5300   0.961   4.271   4.350
 1467SOL    HW2 5301   0.820   4.354   4.358
 1468SOL     OW 5302   4.767   6.972   2.624
 1468SOL    HW1 5303   4.847   0.012   2.619
 1468SOL    HW2 5304   4.689   7.016   2.580
 1469SOL     OW 5305   6.594   0.093   2.223
 1469SOL    HW1 5306   6.657   0.032   2.177
 1469SOL    HW2 5307   6.640   0.180   2.243
 1470SOL     OW 5308   6.778   0.864   2.174
 1470SOL    HW1 5309   6.776   0.955   2.213
 1470SOL    HW2 5310   6.778   0.870   2.074
 1471SOL     OW 5311   6.629   1.179   1.022
 1471SOL    HW1 5312   6.557   1.143   1.081
 1471SOL    HW2 5313   6.638   1.277   1.037
 1472SOL     OW 5314   4.636   4.980   4.617
 1472SOL    HW1 5315   4.599   4.887   4.618
 1472SOL    HW2 5316   4.623   5.020   4.526
 1473SOL     OW 5317   0.692   3.387   3.809
 1473SOL    HW1 5318   0.645   3.337   3.882
 1473SOL    HW2 5319   0.750   3.324   3.757
 1474SOL     OW 5320   4.568   6.342   2.303
 1474SOL    HW1 5321   4.655   6.388   2.320
 1474SOL    HW2 5322   4.496   6.410   2.290
 1475SOL     OW 5323   6.641   6.747   2.879
 1475SOL    HW1 5324   6.561   6.701   2.841
 1475SOL    HW2 5325   6.724   6.714   2.833
 1476SOL     OW 5326   1.130   2.180   0.798
 1476SOL    HW1 5327   1.188   2.101   0.816
 1476SOL    HW2 5328   1.152   2.217   0.707
 1477SOL     OW 5329   2.696   6.422   4.139
 1477SOL    HW1 5330   2.696   6.425   4.239
 1477SOL    HW2 5331   2.643   6.499   4.103
 1478SOL     OW 5332   6.981   4.183   1.017
 1478SOL    HW1 5333   0.022   4.169   1.095
 1478SOL    HW2 5334   6.963   4.281   1.007
 1479SOL     OW 5335   1.410   4.899   0.077
 1479SOL    HW1 5336   1.408   4.800   0.094
 1479SOL    HW2 5337   1.349   4.921   0.001
 1480SOL     OW 5338   3.275   0.593   7.019
 1480SOL    HW1 5339   3.198   0.540   6.983
 1480SOL    HW2 5340   3.326   0.537   0.065
 1481SOL     OW 5341   6.951   2.705   1.122
 1481SOL    HW1 5342   6.968   2.803   1.115
 1481SOL    HW2 5343   6.875   2.688   1.184
 1482SOL     OW 5344   6.163   0.412   5.725
 1482SOL    HW1 5345   6.231   0.447   5.790
 1482SOL    HW2 5346   6.142   0.316   5.747
 1483SOL     OW 5347   0.187   1.887   0.936
 1483SOL    HW1 5348   0.124   1.810   0.943
 1483SOL    HW2 5349   0.185   1.924   0.843
 1484SOL     OW 5350   5.464   0.125   2.929
 1484SOL    HW1 5351   5.444   0.198   2.995
 1484SOL    HW2 5352   5.501   0.046   2.977
 1485SOL     OW 5353   5.617   4.082   4.580
 1485SOL    HW1 5354   5.717   4.080   4.579
 1485SOL    HW2 5355   5.582   3.989   4.584
 1486SOL     OW 5356   5.127   2.879   1.942
 1486SOL    HW1 5357   5.167   2.931   2.017
 1486SOL    HW2 5358   5.190   2.808   1.912
 1487SOL     OW 5359   0.435   6.760   5.667
 1487SOL    HW1 5360   0.497   6.702   5.719
 1487SOL    HW2 5361   0.360   6.704   5.631
 1488SOL     OW 5362   4.503   2.169   3.940
 1488SOL    HW1 5363   4.499   2.158   4.039
 1488SOL    HW2 5364   4.413   2.198   3.906
 1489SOL     OW 5365   3.576   5.503   4.428
 1489SOL    HW1 5366   3.518   5.445   4.371
 1489SOL    HW2 5367   3.519   5.555   4.492
 1490SOL     OW 5368   2.847   2.988   0.760
 1490SOL    HW1 5369   2.750   2.972   0.779
 1490SOL    HW2 5370   2.902   2.955   0.836
 1491SOL     OW 5371   1.887   1.672   3.818
 1491SOL    HW1 5372   1.877   1.588   3.765
 1491SOL    HW2 5373   1.915   1.649   3.912
 1492SOL     OW 5374   6.851   2.223   1.769
 1492SOL    HW1 5375   6.819   2.316   1.786
 1492SOL    HW2 5376   6.938   2.226   1.721
 1493SOL     OW 5377   6.930   3.450   4.934
 1493SOL    HW1 5378   6.928   3.489   4.843
 1493SOL    HW2 5379   6.861   3.494   4.991
 1494SOL     OW 5380   5.893   1.970   4.390
 1494SOL    HW1 5381   5.831   2.044   4.413
 1494SOL    HW2 5382   5.957   2.001   4.319
 1495SOL     OW 5383   1.421   4.031   1.571
 1495SOL    HW1 5384   1.355   3.956   1.562
 1495SOL    HW2 5385   1.514   3.995   1.570
 1496SOL     OW 5386   6.837   0.106   2.829
 1496SOL    HW1 5387   6.788   0.047   2.765
 1496SOL    HW2 5388   6.933   0.078   2.834
 1497SOL     OW 5389   5.407   4.214   5.957
 1497SOL    HW1 5390   5.356   4.145   5.906
 1497SOL    HW2 5391   5.373   4.305   5.932
 1498SOL     OW 5392   2.984   5.626   6.402
 1498SOL    HW1 5393   3.052   5.690   6.366
 1498SOL    HW2 5394   3.015   5.533   6.387
 1499SOL     OW 5395   1.648   4.011   3.866
 1499SOL    HW1 5396   1.579   4.083   3.872
 1499SOL    HW2 5397   1.611   3.927   3.904
 1500SOL     OW 5398   3.934   5.999   5.328
 1500SOL    HW1 5399   3.850   6.052   5.338
 1500SOL    HW2 5400   3.922   5.930   5.257
 1501SOL     OW 5401   3.773   1.519   1.534
 1501SOL    HW1 5402   3.724   1.508   1.620
 1501SOL    HW2 5403   3.707   1.532   1.460
 1502SOL     OW 5404   6.871   0.446   6.330
 1502SOL    HW1 5405   6.795   0.405   6.381
 1502SOL    HW2 5406   6.956   0.434   6.380
 1503SOL     OW 5407   3.569   3.481   5.235
 1503SOL    HW1 5408   3.635   3.406   5.236
 1503SOL    HW2 5409   3.617   3.567   5.216
 1504SOL     OW 5410   2.676   0.694   3.342
 1504SOL    HW1 5411   2.620   0.765   3.384
 1504SOL    HW2 5412   2.644   0.604   3.372
 1505SOL     OW 5413   6.082   6.244   3.228
 1505SOL    HW1 5414   6.129   6.175   3.173
 1505SOL    HW2 5415   5.989   6.255   3.194
 1506SOL     OW 5416   6.568   0.552   3.844
 1506SOL    HW1 5417   6.641   0.588   3.787
 1506SOL    HW2 5418   6.602   0.539   3.937
 1507SOL     OW 5419   2.445   1.865   6.546
 1507SOL    HW1 5420   2.530   1.916   6.528
 1507SOL    HW2 5421   2.415   1.819   6.463
 1508SOL     OW 5422   3.963   6.253   0.960
 1508SOL    HW1 5423   3.968   6.265   1.059
 1508SOL    HW2 5424   4.034   6.189   0.931
 1509SOL     OW 5425   5.107   2.287   6.020
 1509SOL    HW1 5426   5.123   2.195   5.986
 1509SOL    HW2 5427   5.019   2.321   5.988
 1510SOL     OW 5428   6.863   1.881   2.667
 1510SOL    HW1 5429   6.847   1.949   2.595
 1510SOL    HW2 5430   6.904   1.799   2.626
 1511SOL     OW 5431   6.949   2.366   0.667
 1511SOL    HW1 5432   6.946   2.466   0.675
 1511SOL    HW2 5433   6.867   2.334   0.618
 1512SOL     OW 5434   0.444   0.402   3.055
 1512SOL    HW1 5435   0.485   0.324   3.103
 1512SOL    HW2 5436   0.476   0.403   2.960
 1513SOL     OW 5437   2.709   0.522   2.643
 1513SOL    HW1 5438   2.763   0.580   2.581
 1513SOL    HW2 5439   2.767   0.451   2.682
 1514SOL     OW 5440   4.253   0.399   5.744
 1514SOL    HW1 5441   4.299   0.486   5.763
 1514SOL    HW2 5442   4.273   0.335   5.817
 1515SOL     OW 5443   5.386   5.654   5.212
 1515SOL    HW1 5444   5.329   5.572   5.213
 1515SOL    HW2 5445   5.481   5.628   5.229
 1516SOL     OW 5446   6.431   2.095   2.603
 1516SOL    HW1 5447   6.366   2.024   2.574
 1516SOL    HW2 5448   6.487   2.060   2.678
 1517SOL     OW 5449   2.680   5.249   1.902
 1517SOL    HW1 5450   2.744   5.319   1.936
 1517SOL    HW2 5451   2.714   5.158   1.927
 1518SOL     OW 5452   1.165   4.677   0.623
 1518SOL    HW1 5453   1.076   4.671   0.577
 1518SOL    HW2 5454   1.176   4.598   0.684
 1519SOL     OW 5455   1.046   4.282   1.564
 1519SOL    HW1 5456   1.018   4.186   1.562
 1519SOL    HW2 5457   0.967   4.340   1.547
 1520SOL     OW 5458   1.836   4.037   2.847
 1520SOL    HW1 5459   1.920   3.994   2.880
 1520SOL    HW2 5460   1.845   4.057   2.750
 1521SOL     OW 5461   1.853   5.736   5.443
 1521SOL    HW1 5462   1.882   5.783   5.526
 1521SOL    HW2 5463   1.858   5.637   5.457
 1522SOL     OW 5464   1.455   1.871   6.024
 1522SOL    HW1 5465   1.358   1.876   5.998
 1522SOL    HW2 5466   1.502   1.952   5.989
 1523SOL     OW 5467   4.977   1.240   0.446
 1523SOL    HW1 5468   5.051   1.303   0.423
 1523SOL    HW2 5469   4.974   1.227   0.545
 1524SOL     OW 5470   1.369   2.050   1.862
 1524SOL    HW1 5471   1.304   2.076   1.933
 1524SOL    HW2 5472   1.419   1.969   1.890
 1525SOL     OW 5473   4.587   2.163   5.430
 1525SOL    HW1 5474   4.630   2.216   5.357
 1525SOL    HW2 5475   4.638   2.176   5.515
 1526SOL     OW 5476   5.894   2.595   1.136
 1526SOL    HW1 5477   5.976   2.588   1.079
 1526SOL    HW2 5478   5.817   2.625   1.079
 1527SOL     OW 5479   1.589   0.195   4.934
 1527SOL    HW1 5480   1.540   0.269   4.979
 1527SOL    HW2 5481   1.571   0.108   4.981
 1528SOL     OW 5482   4.997   5.734   3.398
 1528SOL    HW1 5483   4.968   5.796   3.471
 1528SOL    HW2 5484   4.984   5.639   3.428
 1529SOL     OW 5485   1.000   6.374   5.549
 1529SOL    HW1 5486   1.029   6.282   5.574
 1529SOL    HW2 5487   0.900   6.376   5.538
 1530SOL     OW 5488   3.595   6.942   1.372
 1530SOL    HW1 5489   3.524   6.880   1.336
 1530SOL    HW2 5490   3.551   0.001   1.415
 1531SOL     OW 5491   5.333   1.512   6.505
 1531SOL    HW1 5492   5.296   1.605   6.508
 1531SOL    HW2 5493   5.426   1.515   6.468
 1532SOL     OW 5494   2.746   1.163   5.063
 1532SOL    HW1 5495   2.676   1.108   5.018
 1532SOL    HW2 5496   2.749   1.254   5.022
 1533SOL     OW 5497   4.373   2.890   1.258
 1533SOL    HW1 5498   4.407   2.801   1.285
 1533SOL    HW2 5499   4.277   2.899   1.285
 1534SOL     OW 5500   5.763   0.542   0.287
 1534SOL    HW1 5501   5.675   0.494   0.278
 1534SOL    HW2 5502   5.788   0.583   0.199
 1535SOL     OW 5503   4.594   4.445   4.282
 1535SOL    HW1 5504   4.621   4.426   4.376
 1535SOL    HW2 5505   4.629   4.373   4.222
 1536SOL     OW 5506   2.557   6.226   2.887
 1536SOL    HW1 5507   2.534   6.198   2.980
 1536SOL    HW2 5508   2.611   6.310   2.890
 1537SOL     OW 5509   1.608   5.399   4.678
 1537SOL    HW1 5510   1.521   5.368   4.715
 1537SOL    HW2 5511   1.619   5.497   4.695
 1538SOL     OW 5512   3.631   6.203   0.438
 1538SOL    HW1 5513   3.645   6.254   0.523
 1538SOL    HW2 5514   3.533   6.193   0.420
 1539SOL     OW 5515   1.860   6.761   1.544
 1539SOL    HW1 5516   1.958   6.754   1.558
 1539SOL    HW2 5517   1.814   6.685   1.590
 1540SOL     OW 5518   6.108   1.016   6.059
 1540SOL    HW1 5519   6.199   1.052   6.040
 1540SOL    HW2 5520   6.062   0.993   5.973
 1541SOL     OW 5521   5.256   1.867   2.301
 1541SOL    HW1 5522   5.308   1.870   2.216
 1541SOL    HW2 5523   5.184   1.937   2.298
 1542SOL     OW 5524   0.237   5.146   0.819
 1542SOL    HW1 5525   0.185   5.131   0.903
 1542SOL    HW2 5526   0.329   5.177   0.842
 1543SOL     OW 5527   3.822   3.134   2.749
 1543SOL    HW1 5528   3.791   3.205   2.686
 1543SOL    HW2 5529   3.761   3.132   2.828
 1544SOL     OW 5530   3.209   3.444   1.391
 1544SOL    HW1 5531   3.154   3.502   1.452
 1544SOL    HW2 5532   3.232   3.359   1.438
 1545SOL     OW 5533   0.734   6.132   6.012
 1545SOL    HW1 5534   0.813   6.179   5.973
 1545SOL    HW2 5535   0.764   6.050   6.060
 1546SOL     OW 5536   6.918   6.355   0.940
 1546SOL    HW1 5537   6.980   6.383   1.013
 1546SOL    HW2 5538   6.891   6.435   0.886
 1547SOL     OW 5539   2.478   6.820   0.468
 1547SOL    HW1 5540   2.543   6.749   0.439
 1547SOL    HW2 5541   2.526   6.888   0.524
 1548SOL     OW 5542   6.169   4.208   3.089
 1548SOL    HW1 5543   6.092   4.210   3.025
 1548SOL    HW2 5544   6.134   4.211   3.183
 1549SOL     OW 5545   6.028   1.889   1.614
 1549SOL    HW1 5546   5.984   1.849   1.535
 1549SOL    HW2 5547   6.072   1.817   1.668
 1550SOL     OW 5548   2.701   4.739   2.199
 1550SOL    HW1 5549   2.702   4.684   2.282
 1550SOL    HW2 5550   2.752   4.692   2.127
 1551SOL     OW 5551   1.255   1.683   2.142
 1551SOL    HW1 5552   1.284   1.716   2.052
 1551SOL    HW2 5553   1.178   1.621   2.132
 1552SOL     OW 5554   1.554   6.321   2.313
 1552SOL    HW1 5555   1.522   6.296   2.222
 1552SOL    HW2 5556   1.584   6.239   2.362
 1553SOL     OW 5557   5.965   1.776   5.420
 1553SOL    HW1 5558   6.037   1.829   5.374
 1553SOL    HW2 5559   5.889   1.762   5.358
 1554SOL     OW 5560   2.495   3.139   0.040
 1554SOL    HW1 5561   2.563   3.192   0.091
 1554SOL    HW2 5562   2.537   3.101   6.977
 1555SOL     OW 5563   4.245   1.233   1.316
 1555SOL    HW1 5564   4.158   1.205   1.356
 1555SOL    HW2 5565   4.248   1.205   1.220
 1556SOL     OW 5566   2.445   2.125   0.257
 1556SOL    HW1 5567   2.492   2.208   0.285
 1556SOL    HW2 5568   2.377   2.100   0.326
 1557SOL     OW 5569   2.511   2.329   1.281
 1557SOL    HW1 5570   2.492   2.404   1.218
 1557SOL    HW2 5571   2.428   2.277   1.298
 1558SOL     OW 5572   4.749   1.512   0.112
 1558SOL    HW1 5573   4.703   1.597   0.136
 1558SOL    HW2 5574   4.847   1.529   0.098
 1559SOL     OW 5575   2.491   5.767   3.901
 1559SOL    HW1 5576   2.556   5.741   3.830
 1559SOL    HW2 5577   2.398   5.747   3.869
 1560SOL     OW 5578   4.828   3.116   1.400
 1560SOL    HW1 5579   4.869   3.200   1.436
 1560SOL    HW2 5580   4.808   3.053   1.475
 1561SOL     OW 5581   5.792   6.830   1.265
 1561SOL    HW1 5582   5.827   6.738   1.282
 1561SOL    HW2 5583   5.747   6.833   1.175
 1562SOL     OW 5584   2.704   6.890   3.046
 1562SOL    HW1 5585   2.643   6.901   2.967
 1562SOL    HW2 5586   2.719   6.979   3.089
 1563SOL     OW 5587   2.404   4.578   4.147
 1563SOL    HW1 5588   2.403   4.556   4.244
 1563SOL    HW2 5589   2.326   4.534   4.102
 1564SOL     OW 5590   2.088   2.003   3.154
 1564SOL    HW1 5591   2.075   1.940   3.231
 1564SOL    HW2 5592   2.158   1.967   3.093
 1565SOL     OW 5593   6.041   2.142   5.303
 1565SOL    HW1 5594   6.022   2.047   5.279
 1565SOL    HW2 5595   6.123   2.147   5.360
 1566SOL     OW 5596   1.066   3.331   3.214
 1566SOL    HW1 5597   1.134   3.329   3.287
 1566SOL    HW2 5598   1.102   3.283   3.134
 1567SOL     OW 5599   5.458   1.286   3.854
 1567SOL    HW1 5600   5.536   1.224   3.862
 1567SOL    HW2 5601   5.411   1.271   3.767
 1568SOL     OW 5602   2.243   4.789   0.619
 1568SOL    HW1 5603   2.252   4.720   0.690
 1568SOL    HW2 5604   2.262   4.879   0.657
 1569SOL     OW 5605   2.269   1.215   2.151
 1569SOL    HW1 5606   2.278   1.273   2.233
 1569SOL    HW2 5607   2.326   1.251   2.078
 1570SOL     OW 5608   2.509   5.961   5.808
 1570SOL    HW1 5609   2.572   6.013   5.867
 1570SOL    HW2 5610   2.452   6.025   5.757
 1571SOL     OW 5611   1.775   1.758   4.513
 1571SOL    HW1 5612   1.716   1.825   4.558
 1571SOL    HW2 5613   1.724   1.709   4.443
 1572SOL     OW 5614   2.755   5.461   3.802
 1572SOL    HW1 5615   2.809   5.387   3.762
 1572SOL    HW2 5616   2.662   5.431   3.819
 1573SOL     OW 5617   5.910   5.892   6.757
 1573SOL    HW1 5618   5.972   5.934   6.690
 1573SOL    HW2 5619   5.910   5.793   6.745
 1574SOL     OW 5620   0.791   2.608   3.609
 1574SOL    HW1 5621   0.840   2.600   3.522
 1574SOL    HW2 5622   0.822   2.536   3.671
 1575SOL     OW 5623   6.748   2.252   0.541
 1575SOL    HW1 5624   6.664   2.227   0.589
 1575SOL    HW2 5625   6.727   2.321   0.471
 1576SOL     OW 5626   1.010   6.328   2.701
 1576SOL    HW1 5627   1.088   6.275   2.735
 1576SOL    HW2 5628   1.042   6.417   2.670
 1577SOL     OW 5629   4.669   5.772   4.110
 1577SOL    HW1 5630   4.591   5.713   4.134
 1577SOL    HW2 5631   4.671   5.850   4.173
 1578SOL     OW 5632   5.542   1.654   2.323
 1578SOL    HW1 5633   5.620   1.600   2.355
 1578SOL    HW2 5634   5.472   1.655   2.394
 1579SOL     OW 5635   1.895   4.065   2.542
 1579SOL    HW1 5636   1.831   4.059   2.465
 1579SOL    HW2 5637   1.963   3.992   2.534
 1580SOL     OW 5638   3.485   3.156   4.292
 1580SOL    HW1 5639   3.413   3.223   4.277
 1580SOL    HW2 5640   3.531   3.174   4.379
 1581SOL     OW 5641   5.574   3.929   5.177
 1581SOL    HW1 5642   5.625   3.849   5.144
 1581SOL    HW2 5643   5.496   3.945   5.117
 1582SOL     OW 5644   4.158   6.739   4.204
 1582SOL    HW1 5645   4.210   6.758   4.287
 1582SOL    HW2 5646   4.167   6.643   4.180
 1583SOL     OW 5647   0.128   5.022   4.275
 1583SOL    HW1 5648   0.216   5.069   4.277
 1583SOL    HW2 5649   0.130   4.949   4.206
 1584SOL     OW 5650   0.468   4.661   0.688
 1584SOL    HW1 5651   0.409   4.581   0.686
 1584SOL    HW2 5652   0.414   4.743   0.707
 1585SOL     OW 5653   4.156   6.429   4.709
 1585SOL    HW1 5654   4.195   6.401   4.622
 1585SOL    HW2 5655   4.124   6.524   4.702
 1586SOL     OW 5656   2.838   6.083   3.138
 1586SOL    HW1 5657   2.845   6.173   3.181
 1586SOL    HW2 5658   2.838   6.012   3.208
 1587SOL     OW 5659   4.170   0.650   6.994
 1587SOL    HW1 5660   4.135   0.741   7.017
 1587SOL    HW2 5661   4.094   0.587   6.982
 1588SOL     OW 5662   6.497   1.628   4.021
 1588SOL    HW1 5663   6.504   1.529   4.009
 1588SOL    HW2 5664   6.440   1.667   3.949
 1589SOL     OW 5665   6.911   0.928   3.605
 1589SOL    HW1 5666   6.993   0.875   3.630
 1589SOL    HW2 5667   6.861   0.951   3.688
 1590SOL     OW 5668   5.559   6.737   3.825
 1590SOL    HW1 5669   5.636   6.738   3.890
 1590SOL    HW2 5670   5.570   6.661   3.761
 1591SOL     OW 5671   6.517   4.838   0.662
 1591SOL    HW1 5672   6.567   4.804   0.582
 1591SOL    HW2 5673   6.566   4.917   0.700
 1592SOL     OW 5674   6.894   4.636   4.048
 1592SOL    HW1 5675   6.934   4.551   4.080
 1592SOL    HW2 5676   6.851   4.622   3.959
 1593SOL     OW 5677   4.238   5.113   1.036
 1593SOL    HW1 5678   4.314   5.048   1.045
 1593SOL    HW2 5679   4.272   5.197   0.994
 1594SOL     OW 5680   5.569   1.099   2.897
 1594SOL    HW1 5681   5.472   1.126   2.896
 1594SOL    HW2 5682   5.621   1.164   2.952
 1595SOL     OW 5683   6.842   3.835   0.765
 1595SOL    HW1 5684   6.865   3.834   0.668
 1595SOL    HW2 5685   6.820   3.928   0.793
 1596SOL     OW 5686   5.593   4.421   4.527
 1596SOL    HW1 5687   5.547   4.362   4.461
 1596SOL    HW2 5688   5.690   4.428   4.504
 1597SOL     OW 5689   4.214   6.657   1.074
 1597SOL    HW1 5690   4.246   6.565   1.095
 1597SOL    HW2 5691   4.238   6.719   1.148
 1598SOL     OW 5692   0.847   5.908   6.106
 1598SOL    HW1 5693   0.878   5.842   6.174
 1598SOL    HW2 5694   0.919   5.920   6.037
 1599SOL     OW 5695   5.171   5.753   4.023
 1599SOL    HW1 5696   5.267   5.739   4.044
 1599SOL    HW2 5697   5.114   5.700   4.086
 1600SOL     OW 5698   5.167   1.187   1.513
 1600SOL    HW1 5699   5.231   1.112   1.532
 1600SOL    HW2 5700   5.083   1.149   1.474
 1601SOL     OW 5701   5.909   0.740   5.308
 1601SOL    HW1 5702   5.946   0.654   5.341
 1601SOL    HW2 5703   5.862   0.725   5.221
 1602SOL     OW 5704   3.615   6.114   3.244
 1602SOL    HW1 5705   3.526   6.107   3.288
 1602SOL    HW2 5706   3.638   6.210   3.228
 1603SOL     OW 5707   3.020   5.602   1.382
 1603SOL    HW1 5708   2.994   5.532   1.448
 1603SOL    HW2 5709   2.962   5.683   1.394
 1604SOL     OW 5710   4.465   5.410   1.614
 1604SOL    HW1 5711   4.464   5.408   1.714
 1604SOL    HW2 5712   4.495   5.501   1.583
 1605SOL     OW 5713   3.798   4.782   0.018
 1605SOL    HW1 5714   3.780   4.880   0.007
 1605SOL    HW2 5715   3.890   4.769   0.055
 1606SOL     OW 5716   4.943   5.427   5.035
 1606SOL    HW1 5717   5.019   5.486   5.009
 1606SOL    HW2 5718   4.924   5.438   5.132
 1607SOL     OW 5719   4.574   4.512   3.972
 1607SOL    HW1 5720   4.662   4.471   3.995
 1607SOL    HW2 5721   4.579   4.555   3.882
 1608SOL     OW 5722   6.250   3.334   3.010
 1608SOL    HW1 5723   6.256   3.327   2.911
 1608SOL    HW2 5724   6.233   3.244   3.049
 1609SOL     OW 5725   1.105   0.114   0.656
 1609SOL    HW1 5726   1.086   0.017   0.642
 1609SOL    HW2 5727   1.199   0.134   0.627
 1610SOL     OW 5728   5.176   5.186   0.806
 1610SOL    HW1 5729   5.236   5.243   0.749
 1610SOL    HW2 5730   5.080   5.209   0.786
 1611SOL     OW 5731   0.840   4.536   0.319
 1611SOL    HW1 5732   0.784   4.596   0.261
 1611SOL    HW2 5733   0.878   4.589   0.395
 1612SOL     OW 5734   5.215   0.322   2.197
 1612SOL    HW1 5735   5.286   0.298   2.263
 1612SOL    HW2 5736   5.229   0.270   2.113
 1613SOL     OW 5737   6.627   6.231   2.664
 1613SOL    HW1 5738   6.724   6.238   2.690
 1613SOL    HW2 5739   6.585   6.322   2.666
 1614SOL     OW 5740   5.992   1.393   5.850
 1614SOL    HW1 5741   6.081   1.353   5.828
 1614SOL    HW2 5742   6.005   1.481   5.895
 1615SOL     OW 5743   6.457   3.468   5.825
 1615SOL    HW1 5744   6.372   3.492   5.777
 1615SOL    HW2 5745   6.451   3.373   5.857
 1616SOL     OW 5746   1.652   0.926   3.478
 1616SOL    HW1 5747   1.728   0.921   3.413
 1616SOL    HW2 5748   1.595   1.005   3.456
 1617SOL     OW 5749   7.017   6.348   4.326
 1617SOL    HW1 5750   0.030   6.347   4.420
 1617SOL    HW2 5751   0.075   6.344   4.263
 1618SOL     OW 5752   3.114   5.437   2.777
 1618SOL    HW1 5753   3.212   5.428   2.795
 1618SOL    HW2 5754   3.064   5.450   2.863
 1619SOL     OW 5755   1.262   4.161   6.267
 1619SOL    HW1 5756   1.281   4.185   6.171
 1619SOL    HW2 5757   1.344   4.120   6.307
 1620SOL     OW 5758   3.175   6.935   4.538
 1620SOL    HW1 5759   3.093   6.993   4.531
 1620SOL    HW2 5760   3.200   6.924   4.634
 1621SOL     OW 5761   5.171   4.920   0.837
 1621SOL    HW1 5762   5.083   4.892   0.800
 1621SOL    HW2 5763   5.175   5.020   0.843
 1622SOL     OW 5764   6.471   3.494   4.108
 1622SOL    HW1 5765   6.513   3.453   4.027
 1622SOL    HW2 5766   6.395   3.436   4.139
 1623SOL     OW 5767   0.381   2.241   4.053
 1623SOL    HW1 5768   0.285   2.254   4.029
 1623SOL    HW2 5769   0.439   2.299   3.995
 1624SOL     OW 5770   4.539   2.987   6.945
 1624SOL    HW1 5771   4.483   3.044   6.884
 1624SOL    HW2 5772   4.631   2.979   6.908
 1625SOL     OW 5773   1.037   6.305   0.276
 1625SOL    HW1 5774   1.017   6.250   0.195
 1625SOL    HW2 5775   0.997   6.396   0.266
 1626SOL     OW 5776   3.052   1.466   2.136
 1626SOL    HW1 5777   2.985   1.394   2.115
 1626SOL    HW2 5778   3.005   1.542   2.181
 1627SOL     OW 5779   4.349   0.931   5.817
 1627SOL    HW1 5780   4.429   0.876   5.791
 1627SOL    HW2 5781   4.378   1.007   5.875
 1628SOL     OW 5782   5.657   5.639   1.176
 1628SOL    HW1 5783   5.711   5.559   1.205
 1628SOL    HW2 5784   5.708   5.722   1.196
 1629SOL     OW 5785   1.783   6.233   1.993
 1629SOL    HW1 5786   1.784   6.331   2.009
 1629SOL    HW2 5787   1.877   6.198   1.988
 1630SOL     OW 5788   0.114   4.908   5.768
 1630SOL    HW1 5789   0.033   4.966   5.759
 1630SOL    HW2 5790   0.155   4.920   5.858
 1631SOL     OW 5791   4.937   4.296   6.574
 1631SOL    HW1 5792   4.918   4.205   6.538
 1631SOL    HW2 5793   4.871   4.361   6.536
 1632SOL     OW 5794   6.053   5.152   2.276
 1632SOL    HW1 5795   5.956   5.168   2.295
 1632SOL    HW2 5796   6.076   5.057   2.297
 1633SOL     OW 5797   6.654   4.127   5.214
 1633SOL    HW1 5798   6.595   4.096   5.139
 1633SOL    HW2 5799   6.704   4.208   5.185
 1634SOL     OW 5800   1.134   4.273   5.973
 1634SOL    HW1 5801   1.097   4.356   5.931
 1634SOL    HW2 5802   1.232   4.284   5.989
 1635SOL     OW 5803   2.793   1.358   4.065
 1635SOL    HW1 5804   2.863   1.417   4.105
 1635SOL    HW2 5805   2.708   1.368   4.117
 1636SOL     OW 5806   6.982   6.108   1.872
 1636SOL    HW1 5807   7.002   6.196   1.916
 1636SOL    HW2 5808   0.041   6.047   1.881
 1637SOL     OW 5809   1.408   1.077   1.371
 1637SOL    HW1 5810   1.423   1.063   1.273
 1637SOL    HW2 5811   1.347   1.156   1.384
 1638SOL     OW 5812   5.567   1.571   3.870
 1638SOL    HW1 5813   5.542   1.641   3.937
 1638SOL    HW2 5814   5.519   1.486   3.891
 1639SOL     OW 5815   4.906   2.022   1.171
 1639SOL    HW1 5816   4.985   1.992   1.117
 1639SOL    HW2 5817   4.886   2.118   1.151
 1640SOL     OW 5818   6.627   1.358   6.307
 1640SOL    HW1 5819   6.633   1.294   6.230
 1640SOL    HW2 5820   6.540   1.344   6.354
 1641SOL     OW 5821   6.398   1.151   2.501
 1641SOL    HW1 5822   6.316   1.187   2.455
 1641SOL    HW2 5823   6.398   1.051   2.495
 1642SOL     OW 5824   0.032   3.511   6.631
 1642SOL    HW1 5825   0.023   3.418   6.666
 1642SOL    HW2 5826   0.096   3.513   6.555
 1643SOL     OW 5827   2.417   5.286   4.163
 1643SOL    HW1 5828   2.439   5.274   4.066
 1643SOL    HW2 5829   2.407   5.384   4.183
 1644SOL     OW 5830   5.787   1.676   1.863
 1644SOL    HW1 5831   5.832   1.588   1.847
 1644SOL    HW2 5832   5.704   1.662   1.917
 1645SOL     OW 5833   2.236   1.156   4.033
 1645SOL    HW1 5834   2.307   1.136   4.100
 1645SOL    HW2 5835   2.175   1.226   4.069
 1646SOL     OW 5836   0.006   5.502   1.679
 1646SOL    HW1 5837   0.060   5.585   1.685
 1646SOL    HW2 5838   6.939   5.515   1.727
 1647SOL     OW 5839   6.741   3.946   5.397
 1647SOL    HW1 5840   6.713   4.026   5.345
 1647SOL    HW2 5841   6.756   3.869   5.334
 1648SOL     OW 5842   5.704   5.709   1.771
 1648SOL    HW1 5843   5.671   5.765   1.847
 1648SOL    HW2 5844   5.665   5.743   1.686
 1649SOL     OW 5845   3.572   0.726   3.703
 1649SOL    HW1 5846   3.501   0.796   3.698
 1649SOL    HW2 5847   3.604   0.718   3.798
 1650SOL     OW 5848   2.612   2.963   5.731
 1650SOL    HW1 5849   2.607   2.997   5.825
 1650SOL    HW2 5850   2.706   2.971   5.697
 1651SOL     OW 5851   1.923   2.154   4.666
 1651SOL    HW1 5852   2.010   2.132   4.620
 1651SOL    HW2 5853   1.931   2.242   4.712
 1652SOL     OW 5854   0.297   4.409   1.700
 1652SOL    HW1 5855   0.350   4.324   1.704
 1652SOL    HW2 5856   0.239   4.415   1.781
 1653SOL     OW 5857   5.607   3.956   1.406
 1653SOL    HW1 5858   5.681   4.017   1.380
 1653SOL    HW2 5859   5.625   3.917   1.496
 1654SOL     OW 5860   0.366   2.961   1.689
 1654SOL    HW1 5861   0.465   2.953   1.699
 1654SOL    HW2 5862   0.343   3.050   1.650
 1655SOL     OW 5863   6.547   0.540   6.111
 1655SOL    HW1 5864   6.603   0.600   6.054
 1655SOL    HW2 5865   6.519   0.589   6.194
 1656SOL     OW 5866   2.080   4.568   2.826
 1656SOL    HW1 5867   2.110   4.663   2.814
 1656SOL    HW2 5868   2.093   4.540   2.921
 1657SOL     OW 5869   0.444   1.932   6.140
 1657SOL    HW1 5870   0.500   1.849   6.148
 1657SOL    HW2 5871   0.349   1.910   6.159
 1658SOL     OW 5872   4.521   0.055   5.348
 1658SOL    HW1 5873   4.556   7.006   5.284
 1658SOL    HW2 5874   4.460   0.117   5.300
 1659SOL     OW 5875   2.784   1.038   6.919
 1659SOL    HW1 5876   2.834   1.005   6.999
 1659SOL    HW2 5877   2.848   1.056   6.845
 1660SOL     OW 5878   2.544   0.726   1.457
 1660SOL    HW1 5879   2.487   0.711   1.376
 1660SOL    HW2 5880   2.489   0.767   1.529
 1661SOL     OW 5881   4.463   4.979   3.281
 1661SOL    HW1 5882   4.402   4.908   3.245
 1661SOL    HW2 5883   4.409   5.060   3.304
 1662SOL     OW 5884   0.872   2.410   4.183
 1662SOL    HW1 5885   0.796   2.472   4.202
 1662SOL    HW2 5886   0.938   2.414   4.258
 1663SOL     OW 5887   6.623   3.766   1.157
 1663SOL    HW1 5888   6.602   3.728   1.067
 1663SOL    HW2 5889   6.564   3.725   1.226
 1664SOL     OW 5890   1.226   0.784   6.915
 1664SOL    HW1 5891   1.149   0.727   6.941
 1664SOL    HW2 5892   1.202   0.880   6.927
 1665SOL     OW 5893   1.602   3.582   0.348
 1665SOL    HW1 5894   1.686   3.625   0.382
 1665SOL    HW2 5895   1.597   3.488   0.383
 1666SOL     OW 5896   6.001   6.258   5.276
 1666SOL    HW1 5897   6.052   6.277   5.192
 1666SOL    HW2 5898   6.034   6.172   5.316
 1667SOL     OW 5899   6.654   5.658   0.997
 1667SOL    HW1 5900   6.625   5.599   0.921
 1667SOL    HW2 5901   6.677   5.748   0.961
 1668SOL     OW 5902   0.058   2.937   2.265
 1668SOL    HW1 5903   6.991   2.899   2.233
 1668SOL    HW2 5904   0.093   3.002   2.197
 1669SOL     OW 5905   6.213   2.937   5.241
 1669SOL    HW1 5906   6.209   3.010   5.309
 1669SOL    HW2 5907   6.300   2.889   5.248
 1670SOL     OW 5908   3.092   4.317   5.288
 1670SOL    HW1 5909   3.129   4.246   5.228
 1670SOL    HW2 5910   3.016   4.363   5.242
 1671SOL     OW 5911   5.561   2.502   0.373
 1671SOL    HW1 5912   5.605   2.461   0.294
 1671SOL    HW2 5913   5.497   2.438   0.415
 1672SOL     OW 5914   0.977   1.952   1.920
 1672SOL    HW1 5915   0.948   1.872   1.971
 1672SOL    HW2 5916   1.023   1.923   1.836
 1673SOL     OW 5917   0.942   0.813   6.391
 1673SOL    HW1 5918   0.950   0.795   6.490
 1673SOL    HW2 5919   0.920   0.727   6.344
 1674SOL     OW 5920   5.026   2.665   3.332
 1674SOL    HW1 5921   5.104   2.644   3.391
 1674SOL    HW2 5922   4.941   2.647   3.382
 1675SOL     OW 5923   4.895   1.014   1.958
 1675SOL    HW1 5924   4.916   1.029   1.862
 1675SOL    HW2 5925   4.972   1.044   2.014
 1676SOL     OW 5926   2.370   1.691   3.746
 1676SOL    HW1 5927   2.283   1.740   3.738
 1676SOL    HW2 5928   2.442   1.755   3.771
 1677SOL     OW 5929   2.848   3.192   1.692
 1677SOL    HW1 5930   2.803   3.273   1.729
 1677SOL    HW2 5931   2.900   3.146   1.764
 1678SOL     OW 5932   6.541   6.785   0.959
 1678SOL    HW1 5933   6.479   6.859   0.983
 1678SOL    HW2 5934   6.517   6.750   0.868
 1679SOL     OW 5935   6.615   2.091   6.671
 1679SOL    HW1 5936   6.615   2.080   6.771
 1679SOL    HW2 5937   6.706   2.117   6.640
 1680SOL     OW 5938   5.685   1.961   3.987
 1680SOL    HW1 5939   5.627   1.919   3.917
 1680SOL    HW2 5940   5.691   1.899   4.065
 1681SOL     OW 5941   4.529   6.798   4.009
 1681SOL    HW1 5942   4.563   6.859   4.080
 1681SOL    HW2 5943   4.440   6.830   3.978
 1682SOL     OW 5944   4.400   1.810   5.280
 1682SOL    HW1 5945   4.483   1.858   5.306
 1682SOL    HW2 5946   4.398   1.796   5.181
 1683SOL     OW 5947   0.931   4.330   3.791
 1683SOL    HW1 5948   0.942   4.338   3.890
 1683SOL    HW2 5949   0.934   4.421   3.750
 1684SOL     OW 5950   3.489   5.893   1.444
 1684SOL    HW1 5951   3.393   5.865   1.444
 1684SOL    HW2 5952   3.495   5.991   1.429
 1685SOL     OW 5953   6.983   2.034   5.856
 1685SOL    HW1 5954   6.904   1.973   5.860
 1685SOL    HW2 5955   0.043   1.983   5.823
 1686SOL     OW 5956   3.093   6.271   1.201
 1686SOL    HW1 5957   3.068   6.332   1.277
 1686SOL    HW2 5958   3.015   6.259   1.140
 1687SOL     OW 5959   4.869   4.354   7.005
 1687SOL    HW1 5960   4.854   4.267   6.959
 1687SOL    HW2 5961   4.908   4.420   6.940
 1688SOL     OW 5962   2.868   0.816   2.827
 1688SOL    HW1 5963   2.825   0.754   2.893
 1688SOL    HW2 5964   2.819   0.812   2.740
 1689SOL     OW 5965   4.462   1.153   2.154
 1689SOL    HW1 5966   4.511   1.236   2.177
 1689SOL    HW2 5967   4.496   1.116   2.067
 1690SOL     OW 5968   0.291   4.649   4.027
 1690SOL    HW1 5969   0.371   4.642   3.967
 1690SOL    HW2 5970   0.266   4.558   4.059
 1691SOL     OW 5971   4.748   2.897   5.276
 1691SOL    HW1 5972   4.734   2.995   5.265
 1691SOL    HW2 5973   4.841   2.874   5.248
 1692SOL     OW 5974   5.781   5.394   3.028
 1692SOL    HW1 5975   5.751   5.401   2.933
 1692SOL    HW2 5976   5.743   5.312   3.070
 1693SOL     OW 5977   5.400   0.535   5.999
 1693SOL    HW1 5978   5.367   0.446   5.966
 1693SOL    HW2 5979   5.334   0.606   5.976
 1694SOL     OW 5980   4.548   1.276   6.500
 1694SOL    HW1 5981   4.507   1.297   6.588
 1694SOL    HW2 5982   4.544   1.177   6.484
 1695SOL     OW 5983   5.711   1.291   5.555
 1695SOL    HW1 5984   5.767   1.288   5.472
 1695SOL    HW2 5985   5.641   1.362   5.545
 1696SOL     OW 5986   5.102   6.890   1.181
 1696SOL    HW1 5987   5.030   6.909   1.248
 1696SOL    HW2 5988   5.169   6.964   1.182
 1697SOL     OW 5989   4.040   4.071   1.640
 1697SOL    HW1 5990   3.970   4.130   1.681
 1697SOL    HW2 5991   4.002   3.980   1.625
 1698SOL     OW 5992   4.796   2.288   1.109
 1698SOL    HW1 5993   4.706   2.273   1.151
 1698SOL    HW2 5994   4.787   2.291   1.010
 1699SOL     OW 5995   1.839   0.191   0.962
 1699SOL    HW1 5996   1.832   0.132   0.882
 1699SOL    HW2 5997   1.838   0.287   0.934
 1700SOL     OW 5998   5.767   3.122   2.979
 1700SOL    HW1 5999   5.816   3.150   3.062
 1700SOL    HW2 6000   5.792   3.027   2.956
 1701SOL     OW 6001   1.255   5.850   4.923
 1701SOL    HW1 6002   1.321   5.855   4.848
 1701SOL    HW2 6003   1.175   5.798   4.894
 1702SOL     OW 6004   2.057   2.381   6.839
 1702SOL    HW1 6005   2.098   2.333   6.917
 1702SOL    HW2 6006   2.081   2.334   6.754
 1703SOL     OW 6007   1.972   1.482   1.907
 1703SOL    HW1 6008   2.040   1.548   1.875
 1703SOL    HW2 6009   1.885   1.528   1.923
 1704SOL     OW 6010   3.132   2.567   6.637
 1704SOL    HW1 6011   3.099   2.654   6.599
 1704SOL    HW2 6012   3.180   2.516   6.566
 1705SOL     OW 6013   5.879   3.068   1.088
 1705SOL    HW1 6014   5.942   3.138   1.120
 1705SOL    HW2 6015   5.871   2.996   1.157
 1706SOL     OW 6016   5.959   0.623   5.837
 1706SOL    HW1 6017   5.992   0.715   5.816
 1706SOL    HW2 6018   6.013   0.556   5.786
 1707SOL     OW 6019   2.902   1.300   2.384
 1707SOL    HW1 6020   2.861   1.330   2.298
 1707SOL    HW2 6021   2.840   1.237   2.431
 1708SOL     OW 6022   2.594   4.639   1.445
 1708SOL    HW1 6023   2.508   4.623   1.495
 1708SOL    HW2 6024   2.583   4.610   1.350
 1709SOL     OW 6025   5.811   5.214   2.345
 1709SOL    HW1 6026   5.778   5.293   2.396
 1709SOL    HW2 6027   5.739   5.145   2.340
 1710SOL     OW 6028   4.879   2.816   1.977
 1710SOL    HW1 6029   4.835   2.896   2.018
 1710SOL    HW2 6030   4.971   2.840   1.948
 1711SOL     OW 6031   3.828   5.242   0.511
 1711SOL    HW1 6032   3.879   5.269   0.429
 1711SOL    HW2 6033   3.876   5.168   0.558
 1712SOL     OW 6034   0.470   2.688   2.392
 1712SOL    HW1 6035   0.501   2.593   2.398
 1712SOL    HW2 6036   0.381   2.692   2.347
 1713SOL     OW 6037   2.694   1.373   2.884
 1713SOL    HW1 6038   2.623   1.395   2.817
 1713SOL    HW2 6039   2.652   1.348   2.971
 1714SOL     OW 6040   3.633   5.104   0.948
 1714SOL    HW1 6041   3.561   5.094   0.879
 1714SOL    HW2 6042   3.595   5.151   1.028
 1715SOL     OW 6043   1.195   5.669   0.966
 1715SOL    HW1 6044   1.110   5.658   1.017
 1715SOL    HW2 6045   1.253   5.735   1.013
 1716SOL     OW 6046   4.810   1.475   2.416
 1716SOL    HW1 6047   4.871   1.439   2.486
 1716SOL    HW2 6048   4.772   1.400   2.362
 1717SOL     OW 6049   3.829   6.990   4.308
 1717SOL    HW1 6050   3.856   6.937   4.228
 1717SOL    HW2 6051   3.803   0.062   4.280
 1718SOL     OW 6052   1.541   3.770   2.005
 1718SOL    HW1 6053   1.566   3.865   2.020
 1718SOL    HW2 6054   1.449   3.766   1.966
 1719SOL     OW 6055   1.556   5.095   3.034
 1719SOL    HW1 6056   1.606   5.019   3.074
 1719SOL    HW2 6057   1.580   5.103   2.937
 1720SOL     OW 6058   1.594   2.754   5.486
 1720SOL    HW1 6059   1.685   2.731   5.451
 1720SOL    HW2 6060   1.541   2.670   5.499
 1721SOL     OW 6061   2.163   2.265   0.291
 1721SOL    HW1 6062   2.168   2.168   0.312
 1721SOL    HW2 6063   2.070   2.298   0.307
 1722SOL     OW 6064   3.854   2.166   2.996
 1722SOL    HW1 6065   3.877   2.075   3.030
 1722SOL    HW2 6066   3.836   2.161   2.897
 1723SOL     OW 6067   6.347   5.664   1.674
 1723SOL    HW1 6068   6.377   5.703   1.587
 1723SOL    HW2 6069   6.262   5.614   1.659
 1724SOL     OW 6070   5.977   3.886   1.296
 1724SOL    HW1 6071   5.939   3.967   1.340
 1724SOL    HW2 6072   5.950   3.805   1.347
 1725SOL     OW 6073   1.954   6.661   4.574
 1725SOL    HW1 6074   2.004   6.598   4.633
 1725SOL    HW2 6075   1.908   6.730   4.630
 1726SOL     OW 6076   5.767   5.194   3.226
 1726SOL    HW1 6077   5.803   5.107   3.259
 1726SOL    HW2 6078   5.838   5.265   3.234
 1727SOL     OW 6079   2.873   3.516   3.603
 1727SOL    HW1 6080   2.916   3.434   3.565
 1727SOL    HW2 6081   2.847   3.499   3.697
 1728SOL     OW 6082   5.435   2.252   4.455
 1728SOL    HW1 6083   5.490   2.205   4.387
 1728SOL    HW2 6084   5.405   2.187   4.525
 1729SOL     OW 6085   1.666   3.270   2.545
 1729SOL    HW1 6086   1.679   3.350   2.487
 1729SOL    HW2 6087   1.570   3.242   2.543
 1730SOL     OW 6088   2.986   0.621   4.421
 1730SOL    HW1 6089   2.946   0.678   4.349
 1730SOL    HW2 6090   2.913   0.566   4.463
 1731SOL     OW 6091   6.507   5.265   2.806
 1731SOL    HW1 6092   6.467   5.350   2.771
 1731SOL    HW2 6093   6.603   5.280   2.827
 1732SOL     OW 6094   3.941   3.088   4.682
 1732SOL    HW1 6095   3.963   3.014   4.745
 1732SOL    HW2 6096   3.923   3.172   4.733
 1733SOL     OW 6097   1.040   1.848   0.079
 1733SOL    HW1 6098   1.056   1.906   7.019
 1733SOL    HW2 6099   1.119   1.853   0.140
 1734SOL     OW 6100   0.813   4.605   2.364
 1734SOL    HW1 6101   0.880   4.678   2.362
 1734SOL    HW2 6102   0.792   4.581   2.459
 1735SOL     OW 6103   3.384   5.797   5.852
 1735SOL    HW1 6104   3.443   5.786   5.772
 1735SOL    HW2 6105   3.288   5.795   5.823
 1736SOL     OW 6106   4.290   2.040   4.949
 1736SOL    HW1 6107   4.236   1.958   4.931
 1736SOL    HW2 6108   4.371   2.040   4.891
 1737SOL     OW 6109   1.872   0.363   0.099
 1737SOL    HW1 6110   1.895   0.286   0.159
 1737SOL    HW2 6111   1.903   0.448   0.141
 1738SOL     OW 6112   1.065   3.609   2.121
 1738SOL    HW1 6113   1.160   3.590   2.142
 1738SOL    HW2 6114   1.008   3.533   2.150
 1739SOL     OW 6115   4.314   6.007   2.988
 1739SOL    HW1 6116   4.260   5.990   3.070
 1739SOL    HW2 6117   4.396   6.059   3.012
 1740SOL     OW 6118   0.298   2.329   5.004
 1740SOL    HW1 6119   0.379   2.303   4.951
 1740SOL    HW2 6120   0.217   2.285   4.966
 1741SOL     OW 6121   1.628   2.198   4.445
 1741SOL    HW1 6122   1.648   2.186   4.348
 1741SOL    HW2 6123   1.572   2.279   4.459
 1742SOL     OW 6124   5.988   0.393   6.228
 1742SOL    HW1 6125   5.933   0.456   6.174
 1742SOL    HW2 6126   6.059   0.445   6.277
 1743SOL     OW 6127   0.854   1.885   2.645
 1743SOL    HW1 6128   0.802   1.824   2.585
 1743SOL    HW2 6129   0.830   1.980   2.626
 1744SOL     OW 6130   2.681   2.122   5.450
 1744SOL    HW1 6131   2.694   2.150   5.355
 1744SOL    HW2 6132   2.759   2.153   5.505
 1745SOL     OW 6133   5.616   0.108   0.887
 1745SOL    HW1 6134   5.580   0.201   0.873
 1745SOL    HW2 6135   5.664   0.079   0.805
 1746SOL     OW 6136   3.030   5.538   2.224
 1746SOL    HW1 6137   2.961   5.465   2.214
 1746SOL    HW2 6138   3.027   5.572   2.318
 1747SOL     OW 6139   2.730   6.831   1.870
 1747SOL    HW1 6140   2.739   6.875   1.959
 1747SOL    HW2 6141   2.674   6.888   1.810
 1748SOL     OW 6142   6.666   1.050   4.289
 1748SOL    HW1 6143   6.710   0.966   4.256
 1748SOL    HW2 6144   6.699   1.128   4.236
 1749SOL     OW 6145   6.324   5.562   2.306
 1749SOL    HW1 6146   6.346   5.602   2.217
 1749SOL    HW2 6147   6.226   5.543   2.310
 1750SOL     OW 6148   2.603   2.151   0.562
 1750SOL    HW1 6149   2.644   2.201   0.638
 1750SOL    HW2 6150   2.599   2.210   0.481
 1751SOL     OW 6151   6.420   4.233   4.156
 1751SOL    HW1 6152   6.454   4.279   4.238
 1751SOL    HW2 6153   6.486   4.245   4.082
 1752SOL     OW 6154   6.155   0.090   2.897
 1752SOL    HW1 6155   6.068   0.079   2.944
 1752SOL    HW2 6156   6.229   0.055   2.954
 1753SOL     OW 6157   6.820   1.429   0.824
 1753SOL    HW1 6158   6.865   1.341   0.834
 1753SOL    HW2 6159   6.742   1.434   0.886
 1754SOL     OW 6160   1.948   4.469   3.837
 1754SOL    HW1 6161   1.969   4.377   3.869
 1754SOL    HW2 6162   1.972   4.535   3.907
 1755SOL     OW 6163   4.858   7.000   5.209
 1755SOL    HW1 6164   4.892   6.935   5.141
 1755SOL    HW2 6165   4.916   6.996   5.290
 1756SOL     OW 6166   4.546   5.170   1.051
 1756SOL    HW1 6167   4.581   5.077   1.055
 1756SOL    HW2 6168   4.499   5.184   0.964
 1757SOL     OW 6169   3.029   5.183   5.216
 1757SOL    HW1 6170   2.952   5.210   5.274
 1757SOL    HW2 6171   3.001   5.111   5.153
 1758SOL     OW 6172   6.955   6.401   3.850
 1758SOL    HW1 6173   6.944   6.323   3.912
 1758SOL    HW2 6174   0.029   6.436   3.859
 1759SOL     OW 6175   1.665   5.825   6.100
 1759SOL    HW1 6176   1.625   5.734   6.092
 1759SOL    HW2 6177   1.745   5.832   6.041
 1760SOL     OW 6178   5.892   1.354   4.134
 1760SOL    HW1 6179   5.843   1.417   4.194
 1760SOL    HW2 6180   5.990   1.370   4.142
 1761SOL     OW 6181   4.784   2.323   4.403
 1761SOL    HW1 6182   4.731   2.240   4.387
 1761SOL    HW2 6183   4.844   2.341   4.326
 1762SOL     OW 6184   0.826   1.624   5.128
 1762SOL    HW1 6185   0.819   1.524   5.125
 1762SOL    HW2 6186   0.922   1.651   5.128
 1763SOL     OW 6187   1.052   5.189   4.451
 1763SOL    HW1 6188   0.956   5.216   4.457
 1763SOL    HW2 6189   1.095   5.236   4.374
 1764SOL     OW 6190   0.797   5.166   3.026
 1764SOL    HW1 6191   0.743   5.234   2.977
 1764SOL    HW2 6192   0.889   5.162   2.986
 1765SOL     OW 6193   5.256   3.904   2.599
 1765SOL    HW1 6194   5.214   3.994   2.593
 1765SOL    HW2 6195   5.260   3.863   2.508
 1766SOL     OW 6196   3.807   4.889   3.701
 1766SOL    HW1 6197   3.773   4.925   3.788
 1766SOL    HW2 6198   3.739   4.906   3.630
 1767SOL     OW 6199   2.517   4.863   1.763
 1767SOL    HW1 6200   2.601   4.908   1.795
 1767SOL    HW2 6201   2.512   4.771   1.800
 1768SOL     OW 6202   3.827   5.430   2.469
 1768SOL    HW1 6203   3.790   5.394   2.384
 1768SOL    HW2 6204   3.890   5.364   2.509
 1769SOL     OW 6205   4.973   0.046   0.165
 1769SOL    HW1 6206   4.971   0.095   0.078
 1769SOL    HW2 6207   5.039   0.088   0.226
 1770SOL     OW 6208   2.014   3.392   0.349
 1770SOL    HW1 6209   2.008   3.425   0.443
 1770SOL    HW2 6210   2.109   3.398   0.317
 1771SOL     OW 6211   1.626   3.085   6.292
 1771SOL    HW1 6212   1.694   3.089   6.219
 1771SOL    HW2 6213   1.653   3.147   6.366
 1772SOL     OW 6214   2.515   5.198   1.533
 1772SOL    HW1 6215   2.537   5.101   1.539
 1772SOL    HW2 6216   2.582   5.251   1.585
 1773SOL     OW 6217   2.024   5.868   4.416
 1773SOL    HW1 6218   2.118   5.902   4.420
 1773SOL    HW2 6219   2.019   5.782   4.468
 1774SOL     OW 6220   5.826   4.592   1.737
 1774SOL    HW1 6221   5.850   4.656   1.810
 1774SOL    HW2 6222   5.729   4.569   1.743
 1775SOL     OW 6223   1.748   6.549   1.021
 1775SOL    HW1 6224   1.691   6.630   1.030
 1775SOL    HW2 6225   1.836   6.565   1.064
 1776SOL     OW 6226   4.394   3.255   5.922
 1776SOL    HW1 6227   4.316   3.317   5.918
 1776SOL    HW2 6228   4.411   3.230   6.017
 1777SOL     OW 6229   4.799   4.655   6.158
 1777SOL    HW1 6230   4.797   4.748   6.120
 1777SOL    HW2 6231   4.706   4.623   6.172
 1778SOL     OW 6232   0.119   0.137   2.623
 1778SOL    HW1 6233   0.084   0.142   2.530
 1778SOL    HW2 6234   0.217   0.157   2.623
 1779SOL     OW 6235   6.742   6.467   4.949
 1779SOL    HW1 6236   6.675   6.537   4.927
 1779SOL    HW2 6237   6.703   6.403   5.015
 1780SOL     OW 6238   2.602   6.858   4.984
 1780SOL    HW1 6239   2.542   6.913   5.041
 1780SOL    HW2 6240   2.564   6.852   4.891
 1781SOL     OW 6241   3.650   1.306   5.500
 1781SOL    HW1 6242   3.585   1.371   5.541
 1781SOL    HW2 6243   3.662   1.329   5.403
 1782SOL     OW 6244   6.024   0.298   2.199
 1782SOL    HW1 6245   5.931   0.333   2.207
 1782SOL    HW2 6246   6.045   0.241   2.279
 1783SOL     OW 6247   1.074   2.979   6.613
 1783SOL    HW1 6248   1.036   3.054   6.667
 1783SOL    HW2 6249   1.068   3.001   6.515
 1784SOL     OW 6250   1.446   6.018   1.337
 1784SOL    HW1 6251   1.476   5.937   1.387
 1784SOL    HW2 6252   1.525   6.064   1.296
 1785SOL     OW 6253   2.494   5.143   5.328
 1785SOL    HW1 6254   2.531   5.127   5.420
 1785SOL    HW2 6255   2.531   5.229   5.292
 1786SOL     OW 6256   0.626   5.544   2.395
 1786SOL    HW1 6257   0.655   5.552   2.490
 1786SOL    HW2 6258   0.577   5.458   2.382
 1787SOL     OW 6259   2.811   1.408   6.153
 1787SOL    HW1 6260   2.764   1.320   6.163
 1787SOL    HW2 6261   2.753   1.481   6.189
 1788SOL     OW 6262   3.563   4.136   0.591
 1788SOL    HW1 6263   3.548   4.207   0.659
 1788SOL    HW2 6264   3.493   4.143   0.519
 1789SOL     OW 6265   6.279   3.351   3.885
 1789SOL    HW1 6266   6.294   3.382   3.979
 1789SOL    HW2 6267   6.220   3.416   3.837
 1790SOL     OW 6268   2.624   2.454   4.673
 1790SOL    HW1 6269   2.534   2.492   4.650
 1790SOL    HW2 6270   2.644   2.377   4.612
 1791SOL     OW 6271   6.595   0.393   3.034
 1791SOL    HW1 6272   6.594   0.310   2.978
 1791SOL    HW2 6273   6.532   0.382   3.111
 1792SOL     OW 6274   0.176   3.651   6.039
 1792SOL    HW1 6275   0.267   3.612   6.056
 1792SOL    HW2 6276   0.127   3.661   6.126
 1793SOL     OW 6277   0.885   2.366   5.255
 1793SOL    HW1 6278   0.913   2.442   5.196
 1793SOL    HW2 6279   0.816   2.312   5.209
 1794SOL     OW 6280   6.895   2.119   6.670
 1794SOL    HW1 6281   6.954   2.151   6.596
 1794SOL    HW2 6282   6.875   2.195   6.732
 1795SOL     OW 6283   5.726   3.473   1.031
 1795SOL    HW1 6284   5.699   3.404   0.964
 1795SOL    HW2 6285   5.821   3.500   1.014
 1796SOL     OW 6286   6.647   6.406   6.178
 1796SOL    HW1 6287   6.697   6.491   6.192
 1796SOL    HW2 6288   6.660   6.345   6.256
 1797SOL     OW 6289   2.944   6.288   5.655
 1797SOL    HW1 6290   3.041   6.286   5.678
 1797SOL    HW2 6291   2.901   6.370   5.693
 1798SOL     OW 6292   2.500   4.412   6.917
 1798SOL    HW1 6293   2.590   4.439   6.952
 1798SOL    HW2 6294   2.434   4.485   6.935
 1799SOL     OW 6295   3.814   1.904   1.675
 1799SOL    HW1 6296   3.900   1.906   1.724
 1799SOL    HW2 6297   3.792   1.996   1.641
 1800SOL     OW 6298   5.372   2.596   5.904
 1800SOL    HW1 6299   5.452   2.547   5.938
 1800SOL    HW2 6300   5.361   2.578   5.806
 1801SOL     OW 6301   0.859   2.151   2.665
 1801SOL    HW1 6302   0.954   2.147   2.634
 1801SOL    HW2 6303   0.819   2.239   2.638
 1802SOL     OW 6304   6.257   4.169   4.880
 1802SOL    HW1 6305   6.249   4.264   4.848
 1802SOL    HW2 6306   6.171   4.121   4.861
 1803SOL     OW 6307   5.875   6.456   3.523
 1803SOL    HW1 6308   5.923   6.542   3.506
 1803SOL    HW2 6309   5.943   6.383   3.536
 1804SOL     OW 6310   1.532   3.019   5.914
 1804SOL    HW1 6311   1.513   2.945   5.849
 1804SOL    HW2 6312   1.626   3.011   5.946
 1805SOL     OW 6313   6.529   5.207   5.911
 1805SOL    HW1 6314   6.604   5.273   5.922
 1805SOL    HW2 6315   6.554   5.140   5.841
 1806SOL     OW 6316   0.089   1.035   2.532
 1806SOL    HW1 6317   0.101   1.055   2.435
 1806SOL    HW2 6318   0.013   1.089   2.568
 1807SOL     OW 6319   6.727   2.777   2.403
 1807SOL    HW1 6320   6.717   2.829   2.488
 1807SOL    HW2 6321   6.655   2.806   2.339
 1808SOL     OW 6322   5.555   1.146   6.903
 1808SOL    HW1 6323   5.551   1.217   6.833
 1808SOL    HW2 6324   5.569   1.188   6.992
 1809SOL     OW 6325   4.411   0.782   4.917
 1809SOL    HW1 6326   4.484   0.787   4.985
 1809SOL    HW2 6327   4.405   0.868   4.867
 1810SOL     OW 6328   0.984   1.004   4.139
 1810SOL    HW1 6329   0.885   1.017   4.144
 1810SOL    HW2 6330   1.019   1.047   4.056
 1811SOL     OW 6331   2.965   5.379   1.548
 1811SOL    HW1 6332   2.960   5.312   1.622
 1811SOL    HW2 6333   2.990   5.332   1.463
 1812SOL     OW 6334   3.695   0.695   6.458
 1812SOL    HW1 6335   3.734   0.779   6.422
 1812SOL    HW2 6336   3.617   0.667   6.402
 1813SOL     OW 6337   5.283   3.414   1.516
 1813SOL    HW1 6338   5.378   3.421   1.548
 1813SOL    HW2 6339   5.227   3.371   1.586
 1814SOL     OW 6340   6.374   5.731   1.393
 1814SOL    HW1 6341   6.424   5.817   1.386
 1814SOL    HW2 6342   6.390   5.676   1.311
 1815SOL     OW 6343   6.242   5.989   0.941
 1815SOL    HW1 6344   6.164   6.025   0.890
 1815SOL    HW2 6345   6.238   5.889   0.944
 1816SOL     OW 6346   3.651   5.180   4.949
 1816SOL    HW1 6347   3.645   5.278   4.964
 1816SOL    HW2 6348   3.625   5.132   5.033
 1817SOL     OW 6349   6.453   2.865   4.697
 1817SOL    HW1 6350   6.489   2.921   4.771
 1817SOL    HW2 6351   6.484   2.901   4.609
 1818SOL     OW 6352   2.318   2.534   0.288
 1818SOL    HW1 6353   2.279   2.443   0.305
 1818SOL    HW2 6354   2.377   2.560   0.364
 1819SOL     OW 6355   0.872   3.230   0.587
 1819SOL    HW1 6356   0.937   3.292   0.631
 1819SOL    HW2 6357   0.779   3.253   0.616
 1820SOL     OW 6358   3.483   6.341   4.389
 1820SOL    HW1 6359   3.581   6.352   4.408
 1820SOL    HW2 6360   3.434   6.323   4.474
 1821SOL     OW 6361   4.149   1.257   2.771
 1821SOL    HW1 6362   4.108   1.278   2.682
 1821SOL    HW2 6363   4.168   1.342   2.820
 1822SOL     OW 6364   2.581   4.597   5.229
 1822SOL    HW1 6365   2.679   4.598   5.208
 1822SOL    HW2 6366   2.545   4.690   5.228
 1823SOL     OW 6367   4.842   0.226   4.483
 1823SOL    HW1 6368   4.756   0.179   4.463
 1823SOL    HW2 6369   4.903   0.218   4.404
 1824SOL     OW 6370   4.481   2.888   1.715
 1824SOL    HW1 6371   4.458   2.967   1.772
 1824SOL    HW2 6372   4.404   2.865   1.656
 1825SOL     OW 6373   1.570   3.702   0.119
 1825SOL    HW1 6374   1.574   3.656   0.208
 1825SOL    HW2 6375   1.498   3.771   0.120
 1826SOL     OW 6376   4.092   3.331   6.943
 1826SOL    HW1 6377   4.040   3.404   6.898
 1826SOL    HW2 6378   4.034   3.286   7.011
 1827SOL     OW 6379   5.310   4.451   0.503
 1827SOL    HW1 6380   5.316   4.546   0.471
 1827SOL    HW2 6381   5.336   4.447   0.600
 1828SOL     OW 6382   2.733   6.003   5.065
 1828SOL    HW1 6383   2.806   6.008   5.134
 1828SOL    HW2 6384   2.748   5.924   5.007
 1829SOL     OW 6385   2.216   5.937   2.442
 1829SOL    HW1 6386   2.249   6.013   2.386
 1829SOL    HW2 6387   2.237   5.955   2.538
 1830SOL     OW 6388   4.489   1.591   6.607
 1830SOL    HW1 6389   4.495   1.508   6.663
 1830SOL    HW2 6390   4.560   1.589   6.537
 1831SOL     OW 6391   3.191   3.693   6.670
 1831SOL    HW1 6392   3.227   3.642   6.592
 1831SOL    HW2 6393   3.233   3.784   6.673
 1832SOL     OW 6394   2.314   2.178   5.658
 1832SOL    HW1 6395   2.362   2.222   5.734
 1832SOL    HW2 6396   2.265   2.247   5.604
 1833SOL     OW 6397   5.551   1.549   0.257
 1833SOL    HW1 6398   5.472   1.532   0.200
 1833SOL    HW2 6399   5.616   1.607   0.208
 1834SOL     OW 6400   1.417   3.678   6.606
 1834SOL    HW1 6401   1.372   3.659   6.519
 1834SOL    HW2 6402   1.499   3.734   6.591
 1835SOL     OW 6403   6.210   0.600   6.310
 1835SOL    HW1 6404   6.153   0.665   6.259
 1835SOL    HW2 6405   6.223   0.633   6.403
 1836SOL     OW 6406   5.489   0.879   5.170
 1836SOL    HW1 6407   5.527   0.822   5.097
 1836SOL    HW2 6408   5.555   0.886   5.245
 1837SOL     OW 6409   1.346   1.924   1.436
 1837SOL    HW1 6410   1.323   1.853   1.370
 1837SOL    HW2 6411   1.261   1.959   1.477
 1838SOL     OW 6412   4.761   0.608   0.223
 1838SOL    HW1 6413   4.770   0.570   0.131
 1838SOL    HW2 6414   4.829   0.565   0.283
 1839SOL     OW 6415   0.187   2.265   6.889
 1839SOL    HW1 6416   0.173   2.314   6.802
 1839SOL    HW2 6417   0.211   2.170   6.870
 1840SOL     OW 6418   1.711   6.659   5.322
 1840SOL    HW1 6419   1.808   6.638   5.335
 1840SOL    HW2 6420   1.685   6.732   5.385
 1841SOL     OW 6421   1.763   0.152   1.488
 1841SOL    HW1 6422   1.759   0.154   1.588
 1841SOL    HW2 6423   1.858   0.167   1.458
 1842SOL     OW 6424   0.197   4.846   1.643
 1842SOL    HW1 6425   0.270   4.780   1.661
 1842SOL    HW2 6426   0.109   4.806   1.667
 1843SOL     OW 6427   3.657   0.594   6.874
 1843SOL    HW1 6428   3.684   0.513   6.927
 1843SOL    HW2 6429   3.630   0.567   6.782
 1844SOL     OW 6430   5.225   2.990   1.446
 1844SOL    HW1 6431   5.213   3.088   1.428
 1844SOL    HW2 6432   5.153   2.939   1.399
 1845SOL     OW 6433   0.505   2.569   4.764
 1845SOL    HW1 6434   0.449   2.557   4.846
 1845SOL    HW2 6435   0.491   2.491   4.702
 1846SOL     OW 6436   3.866   1.139   2.151
 1846SOL    HW1 6437   3.948   1.196   2.154
 1846SOL    HW2 6438   3.827   1.141   2.059
 1847SOL     OW 6439   2.895   5.784   6.855
 1847SOL    HW1 6440   2.928   5.874   6.882
 1847SOL    HW2 6441   2.940   5.755   6.771
 1848SOL     OW 6442   2.724   5.798   4.469
 1848SOL    HW1 6443   2.690   5.890   4.487
 1848SOL    HW2 6444   2.691   5.736   4.539
 1849SOL     OW 6445   4.790   3.024   2.493
 1849SOL    HW1 6446   4.739   3.103   2.457
 1849SOL    HW2 6447   4.888   3.044   2.492
 1850SOL     OW 6448   4.592   1.079   0.557
 1850SOL    HW1 6449   4.545   1.049   0.639
 1850SOL    HW2 6450   4.594   1.179   0.554
 1851SOL     OW 6451   1.917   4.877   3.520
 1851SOL    HW1 6452   1.986   4.888   3.449
 1851SOL    HW2 6453   1.842   4.820   3.486
 1852SOL     OW 6454   0.050   0.531   4.605
 1852SOL    HW1 6455   0.050   0.627   4.635
 1852SOL    HW2 6456   6.981   0.490   4.623
 1853SOL     OW 6457   0.883   1.966   4.975
 1853SOL    HW1 6458   0.937   1.918   5.044
 1853SOL    HW2 6459   0.791   1.982   5.009
 1854SOL     OW 6460   1.253   6.882   3.837
 1854SOL    HW1 6461   1.339   6.908   3.882
 1854SOL    HW2 6462   1.177   6.931   3.880
 1855SOL     OW 6463   6.340   1.486   5.134
 1855SOL    HW1 6464   6.368   1.564   5.190
 1855SOL    HW2 6465   6.420   1.443   5.093
 1856SOL     OW 6466   4.233   3.829   6.978
 1856SOL    HW1 6467   4.249   3.873   0.046
 1856SOL    HW2 6468   4.178   3.889   6.919
 1857SOL     OW 6469   4.711   1.072   6.776
 1857SOL    HW1 6470   4.663   0.985   6.771
 1857SOL    HW2 6471   4.688   1.128   6.696
 1858SOL     OW 6472   4.230   1.996   4.665
 1858SOL    HW1 6473   4.138   2.030   4.688
 1858SOL    HW2 6474   4.230   1.896   4.668
 1859SOL     OW 6475   6.612   5.987   3.402
 1859SOL    HW1 6476   6.676   5.936   3.345
 1859SOL    HW2 6477   6.586   5.931   3.481
 1860SOL     OW 6478   1.597   6.791   0.332
 1860SOL    HW1 6479   1.613   6.708   0.385
 1860SOL    HW2 6480   1.506   6.827   0.354
 1861SOL     OW 6481   6.397   0.036   5.122
 1861SOL    HW1 6482   6.475   0.068   5.070
 1861SOL    HW2 6483   6.323   0.104   5.116
 1862SOL     OW 6484   4.278   4.748   4.773
 1862SOL    HW1 6485   4.319   4.682   4.837
 1862SOL    HW2 6486   4.212   4.804   4.822
 1863SOL     OW 6487   6.990   1.054   0.657
 1863SOL    HW1 6488   6.979   1.013   0.566
 1863SOL    HW2 6489   6.953   0.992   0.726
 1864SOL     OW 6490   2.798   5.481   2.672
 1864SOL    HW1 6491   2.725   5.452   2.734
 1864SOL    HW2 6492   2.881   5.428   2.691
 1865SOL     OW 6493   5.884   2.604   6.169
 1865SOL    HW1 6494   5.973   2.646   6.184
 1865SOL    HW2 6495   5.826   2.667   6.117
 1866SOL     OW 6496   6.976   4.450   5.219
 1866SOL    HW1 6497   6.954   4.393   5.299
 1866SOL    HW2 6498   6.924   4.417   5.140
 1867SOL     OW 6499   1.350   6.898   0.416
 1867SOL    HW1 6500   1.325   6.979   0.468
 1867SOL    HW2 6501   1.301   6.897   0.329
 1868SOL     OW 6502   6.052   3.790   6.008
 1868SOL    HW1 6503   5.996   3.710   6.031
 1868SOL    HW2 6504   6.045   3.857   6.082
 1869SOL     OW 6505   4.403   1.242   5.404
 1869SOL    HW1 6506   4.393   1.262   5.306
 1869SOL    HW2 6507   4.317   1.202   5.438
 1870SOL     OW 6508   5.647   1.644   6.111
 1870SOL    HW1 6509   5.695   1.726   6.142
 1870SOL    HW2 6510   5.687   1.563   6.155
 1871SOL     OW 6511   2.788   4.421   7.003
 1871SOL    HW1 6512   2.797   4.406   6.905
 1871SOL    HW2 6513   2.877   4.447   0.022
 1872SOL     OW 6514   2.019   4.022   6.609
 1872SOL    HW1 6515   2.102   4.047   6.659
 1872SOL    HW2 6516   1.966   4.104   6.589
 1873SOL     OW 6517   5.546   0.906   2.300
 1873SOL    HW1 6518   5.464   0.951   2.335
 1873SOL    HW2 6519   5.561   0.821   2.350
 1874SOL     OW 6520   2.095   5.045   6.693
 1874SOL    HW1 6521   2.158   4.992   6.636
 1874SOL    HW2 6522   2.146   5.117   6.740
 1875SOL     OW 6523   1.189   6.512   2.182
 1875SOL    HW1 6524   1.243   6.565   2.247
 1875SOL    HW2 6525   1.155   6.573   2.110
 1876SOL     OW 6526   1.756   4.993   5.154
 1876SOL    HW1 6527   1.818   5.022   5.081
 1876SOL    HW2 6528   1.795   4.914   5.201
 1877SOL     OW 6529   0.145   1.399   3.795
 1877SOL    HW1 6530   0.096   1.314   3.815
 1877SOL    HW2 6531   0.218   1.381   3.729
 1878SOL     OW 6532   5.501   3.977   3.158
 1878SOL    HW1 6533   5.512   3.915   3.236
 1878SOL    HW2 6534   5.556   3.943   3.081
 1879SOL     OW 6535   3.637   6.542   5.113
 1879SOL    HW1 6536   3.698   6.550   5.191
 1879SOL    HW2 6537   3.621   6.445   5.092
 1880SOL     OW 6538   2.151   3.897   4.121
 1880SOL    HW1 6539   2.057   3.883   4.090
 1880SOL    HW2 6540   2.211   3.908   4.042
 1881SOL     OW 6541   3.301   2.124   2.775
 1881SOL    HW1 6542   3.228   2.121   2.843
 1881SOL    HW2 6543   3.267   2.169   2.692
 1882SOL     OW 6544   4.385   0.253   6.446
 1882SOL    HW1 6545   4.442   0.335   6.451
 1882SOL    HW2 6546   4.304   0.266   6.504
 1883SOL     OW 6547   2.000   3.756   2.721
 1883SOL    HW1 6548   2.025   3.767   2.817
 1883SOL    HW2 6549   2.061   3.811   2.663
 1884SOL     OW 6550   4.705   0.851   0.422
 1884SOL    HW1 6551   4.679   0.934   0.471
 1884SOL    HW2 6552   4.702   0.868   0.323
 1885SOL     OW 6553   6.866   1.922   1.522
 1885SOL    HW1 6554   6.889   1.870   1.604
 1885SOL    HW2 6555   6.868   1.862   1.443
 1886SOL     OW 6556   3.822   2.866   5.084
 1886SOL    HW1 6557   3.775   2.850   4.997
 1886SOL    HW2 6558   3.909   2.817   5.084
 1887SOL     OW 6559   0.627   5.853   5.637
 1887SOL    HW1 6560   0.701   5.811   5.583
 1887SOL    HW2 6561   0.539   5.829   5.597
 1888SOL     OW 6562   2.385   1.383   5.597
 1888SOL    HW1 6563   2.372   1.292   5.558
 1888SOL    HW2 6564   2.347   1.385   5.689
 1889SOL     OW 6565   3.739   3.636   6.808
 1889SOL    HW1 6566   3.835   3.608   6.801
 1889SOL    HW2 6567   3.735   3.731   6.838
 1890SOL     OW 6568   6.038   6.749   6.161
 1890SOL    HW1 6569   6.076   6.789   6.243
 1890SOL    HW2 6570   6.080   6.790   6.080
 1891SOL     OW 6571   5.091   3.443   0.177
 1891SOL    HW1 6572   5.098   3.433   0.078
 1891SOL    HW2 6573   5.110   3.354   0.220
 1892SOL     OW 6574   2.959   0.621   3.415
 1892SOL    HW1 6575   3.044   0.654   3.376
 1892SOL    HW2 6576   2.885   0.686   3.394
 1893SOL     OW 6577   2.733   2.592   6.650
 1893SOL    HW1 6578   2.757   2.508   6.602
 1893SOL    HW2 6579   2.719   2.573   6.747
 1894SOL     OW 6580   5.495   3.067   1.118
 1894SOL    HW1 6581   5.401   3.099   1.130
 1894SOL    HW2 6582   5.538   3.120   1.045
 1895SOL     OW 6583   4.125   6.270   3.121
 1895SOL    HW1 6584   4.070   6.310   3.194
 1895SOL    HW2 6585   4.108   6.319   3.036
 1896SOL     OW 6586   0.168   2.179   4.295
 1896SOL    HW1 6587   0.256   2.209   4.333
 1896SOL    HW2 6588   0.152   2.083   4.321
 1897SOL     OW 6589   4.982   5.465   3.436
 1897SOL    HW1 6590   4.932   5.420   3.362
 1897SOL    HW2 6591   5.033   5.397   3.489
 1898SOL     OW 6592   5.010   6.164   0.422
 1898SOL    HW1 6593   5.061   6.121   0.348
 1898SOL    HW2 6594   5.001   6.100   0.498
 1899SOL     OW 6595   1.939   3.172   4.198
 1899SOL    HW1 6596   2.009   3.179   4.268
 1899SOL    HW2 6597   1.980   3.184   4.107
 1900SOL     OW 6598   2.649   5.562   1.418
 1900SOL    HW1 6599   2.676   5.508   1.498
 1900SOL    HW2 6600   2.549   5.565   1.413
 1901SOL     OW 6601   0.344   1.648   0.019
 1901SOL    HW1 6602   0.319   1.724   0.079
 1901SOL    HW2 6603   0.265   1.623   6.982
 1902SOL     OW 6604   1.736   2.917   4.970
 1902SOL    HW1 6605   1.817   2.873   5.008
 1902SOL    HW2 6606   1.677   2.848   4.929
 1903SOL     OW 6607   6.866   6.161   3.966
 1903SOL    HW1 6608   6.954   6.117   3.950
 1903SOL    HW2 6609   6.805   6.098   4.013
 1904SOL     OW 6610   0.767   1.072   3.864
 1904SOL    HW1 6611   0.860   1.033   3.863
 1904SOL    HW2 6612   0.741   1.093   3.958
 1905SOL     OW 6613   5.828   3.189   6.346
 1905SOL    HW1 6614   5.923   3.217   6.340
 1905SOL    HW2 6615   5.824   3.092   6.370
 1906SOL     OW 6616   2.444   5.552   6.120
 1906SOL    HW1 6617   2.391   5.544   6.204
 1906SOL    HW2 6618   2.521   5.615   6.134
 1907SOL     OW 6619   4.356   0.776   2.612
 1907SOL    HW1 6620   4.428   0.731   2.664
 1907SOL    HW2 6621   4.321   0.854   2.664
 1908SOL     OW 6622   5.718   4.165   0.789
 1908SOL    HW1 6623   5.766   4.250   0.769
 1908SOL    HW2 6624   5.621   4.183   0.804
 1909SOL     OW 6625   5.065   5.256   4.487
 1909SOL    HW1 6626   5.011   5.173   4.504
 1909SOL    HW2 6627   5.004   5.331   4.463
 1910SOL     OW 6628   5.090   4.097   4.239
 1910SOL    HW1 6629   5.023   4.032   4.275
 1910SOL    HW2 6630   5.148   4.130   4.314
 1911SOL     OW 6631   0.764   2.533   5.679
 1911SOL    HW1 6632   0.756   2.434   5.667
 1911SOL    HW2 6633   0.762   2.555   5.776
 1912SOL     OW 6634   3.671   0.507   2.100
 1912SOL    HW1 6635   3.679   0.572   2.025
 1912SOL    HW2 6636   3.688   0.554   2.187
 1913SOL     OW 6637   2.988   3.497   6.871
 1913SOL    HW1 6638   3.078   3.469   6.906
 1913SOL    HW2 6639   2.978   3.596   6.881
 1914SOL     OW 6640   4.584   1.545   5.128
 1914SOL    HW1 6641   4.524   1.624   5.113
 1914SOL    HW2 6642   4.664   1.552   5.070
 1915SOL     OW 6643   2.469   6.498   4.898
 1915SOL    HW1 6644   2.527   6.579   4.895
 1915SOL    HW2 6645   2.400   6.503   4.826
 1916SOL     OW 6646   3.782   6.581   2.657
 1916SOL    HW1 6647   3.705   6.541   2.706
 1916SOL    HW2 6648   3.854   6.606   2.722
 1917SOL     OW 6649   3.598   4.120   3.337
 1917SOL    HW1 6650   3.553   4.189   3.394
 1917SOL    HW2 6651   3.599   4.032   3.385
 1918SOL     OW 6652   0.902   6.672   6.302
 1918SOL    HW1 6653   0.921   6.702   6.209
 1918SOL    HW2 6654   0.845   6.741   6.348
 1919SOL     OW 6655   5.155   0.867   1.761
 1919SOL    HW1 6656   5.188   0.907   1.846
 1919SOL    HW2 6657   5.055   0.877   1.756
 1920SOL     OW 6658   5.719   6.519   4.251
 1920SOL    HW1 6659   5.756   6.426   4.250
 1920SOL    HW2 6660   5.792   6.584   4.230
 1921SOL     OW 6661   2.267   6.928   0.346
 1921SOL    HW1 6662   2.309   6.886   0.427
 1921SOL    HW2 6663   2.338   6.969   0.289
 1922SOL     OW 6664   3.555   5.055   6.716
 1922SOL    HW1 6665   3.481   4.990   6.732
 1922SOL    HW2 6666   3.630   5.009   6.669
 1923SOL     OW 6667   1.647   2.691   1.671
 1923SOL    HW1 6668   1.561   2.641   1.667
 1923SOL    HW2 6669   1.660   2.727   1.763
 1924SOL     OW 6670   1.321   3.742   1.833
 1924SOL    HW1 6671   1.325   3.643   1.820
 1924SOL    HW2 6672   1.380   3.787   1.766
 1925SOL     OW 6673   3.048   4.848   0.117
 1925SOL    HW1 6674   3.096   4.836   0.204
 1925SOL    HW2 6675   3.101   4.806   0.043
 1926SOL     OW 6676   0.217   0.256   2.920
 1926SOL    HW1 6677   0.258   0.339   2.958
 1926SOL    HW2 6678   0.130   0.278   2.876
 1927SOL     OW 6679   5.621   2.942   1.329
 1927SOL    HW1 6680   5.553   2.885   1.375
 1927SOL    HW2 6681   5.577   2.995   1.256
 1928SOL     OW 6682   0.440   4.734   4.775
 1928SOL    HW1 6683   0.495   4.818   4.778
 1928SOL    HW2 6684   0.409   4.719   4.681
 1929SOL     OW 6685   1.655   4.612   3.161
 1929SOL    HW1 6686   1.716   4.638   3.086
 1929SOL    HW2 6687   1.630   4.515   3.151
 1930SOL     OW 6688   6.072   6.003   6.292
 1930SOL    HW1 6689   6.164   5.965   6.294
 1930SOL    HW2 6690   6.028   5.980   6.205
 1931SOL     OW 6691   2.458   2.681   3.607
 1931SOL    HW1 6692   2.459   2.662   3.509
 1931SOL    HW2 6693   2.395   2.756   3.625
 1932SOL     OW 6694   5.778   2.627   2.845
 1932SOL    HW1 6695   5.705   2.622   2.777
 1932SOL    HW2 6696   5.866   2.616   2.799
 1933SOL     OW 6697   2.139   5.253   0.328
 1933SOL    HW1 6698   2.089   5.338   0.315
 1933SOL    HW2 6699   2.195   5.260   0.410
 1934SOL     OW 6700   0.212   6.301   2.665
 1934SOL    HW1 6701   0.292   6.267   2.714
 1934SOL    HW2 6702   0.172   6.226   2.611
 1935SOL     OW 6703   0.849   1.585   2.368
 1935SOL    HW1 6704   0.768   1.555   2.316
 1935SOL    HW2 6705   0.827   1.584   2.466
 1936SOL     OW 6706   0.201   6.028   5.014
 1936SOL    HW1 6707   0.122   6.045   5.074
 1936SOL    HW2 6708   0.175   6.043   4.919
 1937SOL     OW 6709   5.077   1.901   3.712
 1937SOL    HW1 6710   5.098   1.998   3.697
 1937SOL    HW2 6711   5.162   1.851   3.729
 1938SOL     OW 6712   4.631   0.397   3.616
 1938SOL    HW1 6713   4.606   0.398   3.713
 1938SOL    HW2 6714   4.633   0.302   3.584
 1939SOL     OW 6715   2.473   1.193   4.183
 1939SOL    HW1 6716   2.525   1.275   4.209
 1939SOL    HW2 6717   2.483   1.124   4.254
 1940SOL     OW 6718   6.513   0.797   6.625
 1940SOL    HW1 6719   6.425   0.828   6.661
 1940SOL    HW2 6720   6.529   0.703   6.654
 1941SOL     OW 6721   4.627   4.810   2.624
 1941SOL    HW1 6722   4.547   4.870   2.621
 1941SOL    HW2 6723   4.692   4.838   2.553
 1942SOL     OW 6724   6.903   3.426   2.513
 1942SOL    HW1 6725   6.860   3.470   2.591
 1942SOL    HW2 6726   6.984   3.478   2.486
 1943SOL     OW 6727   3.722   5.235   3.582
 1943SOL    HW1 6728   3.686   5.191   3.499
 1943SOL    HW2 6729   3.820   5.250   3.570
 1944SOL     OW 6730   6.315   6.462   1.919
 1944SOL    HW1 6731   6.285   6.369   1.940
 1944SOL    HW2 6732   6.348   6.465   1.825
 1945SOL     OW 6733   3.497   5.229   2.582
 1945SOL    HW1 6734   3.583   5.245   2.534
 1945SOL    HW2 6735   3.465   5.136   2.563
 1946SOL     OW 6736   1.146   6.195   6.591
 1946SOL    HW1 6737   1.146   6.295   6.602
 1946SOL    HW2 6738   1.136   6.152   6.680
 1947SOL     OW 6739   4.339   1.258   3.996
 1947SOL    HW1 6740   4.378   1.351   3.997
 1947SOL    HW2 6741   4.357   1.216   3.907
 1948SOL     OW 6742   6.177   3.109   5.034
 1948SOL    HW1 6743   6.083   3.099   5.002
 1948SOL    HW2 6744   6.201   3.030   5.091
 1949SOL     OW 6745   4.682   3.904   6.982
 1949SOL    HW1 6746   4.743   3.829   7.010
 1949SOL    HW2 6747   4.612   3.917   0.033
 1950SOL     OW 6748   2.361   4.961   0.990
 1950SOL    HW1 6749   2.304   4.889   1.028
 1950SOL    HW2 6750   2.305   5.042   0.971
 1951SOL     OW 6751   5.565   2.881   6.549
 1951SOL    HW1 6752   5.495   2.865   6.618
 1951SOL    HW2 6753   5.522   2.916   6.466
 1952SOL     OW 6754   3.098   3.274   3.244
 1952SOL    HW1 6755   3.017   3.270   3.185
 1952SOL    HW2 6756   3.166   3.209   3.211
 1953SOL     OW 6757   1.026   2.192   4.930
 1953SOL    HW1 6758   0.978   2.105   4.921
 1953SOL    HW2 6759   0.973   2.265   4.886
 1954SOL     OW 6760   2.515   1.697   4.230
 1954SOL    HW1 6761   2.501   1.790   4.263
 1954SOL    HW2 6762   2.562   1.700   4.141
 1955SOL     OW 6763   6.647   5.577   3.041
 1955SOL    HW1 6764   6.720   5.515   3.069
 1955SOL    HW2 6765   6.563   5.555   3.090
 1956SOL     OW 6766   3.896   6.276   3.591
 1956SOL    HW1 6767   3.941   6.333   3.660
 1956SOL    HW2 6768   3.911   6.179   3.612
 1957SOL     OW 6769   2.349   6.206   5.721
 1957SOL    HW1 6770   2.255   6.208   5.686
 1957SOL    HW2 6771   2.349   6.232   5.817
 1958SOL     OW 6772   3.951   3.698   5.820
 1958SOL    HW1 6773   3.992   3.631   5.881
 1958SOL    HW2 6774   3.943   3.786   5.867
 1959SOL     OW 6775   3.302   0.104   0.817
 1959SOL    HW1 6776   3.221   0.064   0.860
 1959SOL    HW2 6777   3.339   0.040   0.750
 1960SOL     OW 6778   4.341   5.740   2.967
 1960SOL    HW1 6779   4.351   5.836   2.943
 1960SOL    HW2 6780   4.304   5.689   2.889
 1961SOL     OW 6781   5.813   5.317   5.385
 1961SOL    HW1 6782   5.726   5.306   5.338
 1961SOL    HW2 6783   5.809   5.273   5.475
 1962SOL     OW 6784   0.376   6.622   4.323
 1962SOL    HW1 6785   0.332   6.702   4.362
 1962SOL    HW2 6786   0.475   6.635   4.323
 1963SOL     OW 6787   2.689   1.830   3.781
 1963SOL    HW1 6788   2.743   1.788   3.708
 1963SOL    HW2 6789   2.626   1.898   3.742
 1964SOL     OW 6790   6.470   2.395   2.046
 1964SOL    HW1 6791   6.428   2.391   2.137
 1964SOL    HW2 6792   6.569   2.386   2.054
 1965SOL     OW 6793   1.435   6.437   3.321
 1965SOL    HW1 6794   1.498   6.437   3.398
 1965SOL    HW2 6795   1.374   6.516   3.328
 1966SOL     OW 6796   6.630   6.439   0.331
 1966SOL    HW1 6797   6.537   6.402   0.340
 1966SOL    HW2 6798   6.693   6.383   0.386
 1967SOL     OW 6799   6.921   2.459   4.821
 1967SOL    HW1 6800   6.887   2.544   4.783
 1967SOL    HW2 6801   6.846   2.410   4.866
 1968SOL     OW 6802   4.576   5.773   4.523
 1968SOL    HW1 6803   4.566   5.810   4.615
 1968SOL    HW2 6804   4.515   5.694   4.511
 1969SOL     OW 6805   5.863   0.953   1.115
 1969SOL    HW1 6806   5.874   0.891   1.037
 1969SOL    HW2 6807   5.925   1.030   1.105
 1970SOL     OW 6808   2.114   1.376   4.873
 1970SOL    HW1 6809   2.040   1.389   4.940
 1970SOL    HW2 6810   2.169   1.459   4.868
 1971SOL     OW 6811   0.066   1.605   5.606
 1971SOL    HW1 6812   0.050   1.586   5.509
 1971SOL    HW2 6813   0.004   1.550   5.662
 1972SOL     OW 6814   0.974   6.531   4.061
 1972SOL    HW1 6815   1.039   6.607   4.055
 1972SOL    HW2 6816   1.009   6.462   4.125
 1973SOL     OW 6817   3.930   2.717   0.142
 1973SOL    HW1 6818   4.013   2.725   0.197
 1973SOL    HW2 6819   3.953   2.683   0.051
 1974SOL     OW 6820   6.034   6.329   4.005
 1974SOL    HW1 6821   5.978   6.248   4.019
 1974SOL    HW2 6822   6.058   6.337   3.908
 1975SOL     OW 6823   2.348   0.283   3.756
 1975SOL    HW1 6824   2.301   0.313   3.839
 1975SOL    HW2 6825   2.414   0.353   3.728
 1976SOL     OW 6826   6.131   4.427   6.651
 1976SOL    HW1 6827   6.114   4.391   6.742
 1976SOL    HW2 6828   6.090   4.366   6.583
 1977SOL     OW 6829   3.083   2.085   5.240
 1977SOL    HW1 6830   3.124   2.173   5.219
 1977SOL    HW2 6831   3.144   2.011   5.211
 1978SOL     OW 6832   0.427   2.801   5.023
 1978SOL    HW1 6833   0.526   2.792   5.016
 1978SOL    HW2 6834   0.384   2.717   4.990
 1979SOL     OW 6835   6.645   4.234   2.277
 1979SOL    HW1 6836   6.730   4.181   2.279
 1979SOL    HW2 6837   6.656   4.312   2.217
 1980SOL     OW 6838   2.787   0.712   3.073
 1980SOL    HW1 6839   2.845   0.792   3.088
 1980SOL    HW2 6840   2.730   0.696   3.153
 1981SOL     OW 6841   5.332   3.173   2.524
 1981SOL    HW1 6842   5.381   3.248   2.569
 1981SOL    HW2 6843   5.377   3.086   2.544
 1982SOL     OW 6844   0.244   6.846   5.420
 1982SOL    HW1 6845   0.312   6.855   5.492
 1982SOL    HW2 6846   0.208   6.937   5.396
 1983SOL     OW 6847   0.883   4.942   1.565
 1983SOL    HW1 6848   0.858   4.916   1.472
 1983SOL    HW2 6849   0.950   4.877   1.601
 1984SOL     OW 6850   3.547   7.015   5.786
 1984SOL    HW1 6851   3.565   6.926   5.744
 1984SOL    HW2 6852   3.507   7.001   5.877
 1985SOL     OW 6853   1.053   5.130   2.197
 1985SOL    HW1 6854   1.102   5.105   2.281
 1985SOL    HW2 6855   1.112   5.114   2.118
 1986SOL     OW 6856   5.752   2.103   1.218
 1986SOL    HW1 6857   5.678   2.052   1.263
 1986SOL    HW2 6858   5.840   2.060   1.239
 1987SOL     OW 6859   1.778   2.997   0.606
 1987SOL    HW1 6860   1.794   3.065   0.534
 1987SOL    HW2 6861   1.866   2.970   0.646
 1988SOL     OW 6862   5.238   2.591   1.553
 1988SOL    HW1 6863   5.303   2.518   1.570
 1988SOL    HW2 6864   5.147   2.553   1.535
 1989SOL     OW 6865   2.475   2.338   3.256
 1989SOL    HW1 6866   2.395   2.297   3.213
 1989SOL    HW2 6867   2.475   2.319   3.354
 1990SOL     OW 6868   1.537   6.979   3.065
 1990SOL    HW1 6869   1.570   0.018   2.990
 1990SOL    HW2 6870   1.616   6.942   3.115
 1991SOL     OW 6871   5.269   5.617   2.347
 1991SOL    HW1 6872   5.361   5.580   2.340
 1991SOL    HW2 6873   5.269   5.711   2.314
 1992SOL     OW 6874   1.911   5.937   5.113
 1992SOL    HW1 6875   1.869   5.849   5.134
 1992SOL    HW2 6876   1.987   5.923   5.050
 1993SOL     OW 6877   3.519   3.265   4.017
 1993SOL    HW1 6878   3.447   3.330   4.039
 1993SOL    HW2 6879   3.505   3.180   4.068
 1994SOL     OW 6880   6.487   1.739   1.377
 1994SOL    HW1 6881   6.528   1.793   1.451
 1994SOL    HW2 6882   6.388   1.747   1.381
 1995SOL     OW 6883   4.123   2.792   1.682
 1995SOL    HW1 6884   4.056   2.841   1.739
 1995SOL    HW2 6885   4.100   2.695   1.679
 1996SOL     OW 6886   2.151   5.464   6.081
 1996SOL    HW1 6887   2.235   5.502   6.119
 1996SOL    HW2 6888   2.135   5.373   6.119
 1997SOL     OW 6889   5.821   6.118   4.672
 1997SOL    HW1 6890   5.760   6.142   4.747
 1997SOL    HW2 6891   5.906   6.080   4.708
 1998SOL     OW 6892   3.218   5.282   4.847
 1998SOL    HW1 6893   3.225   5.216   4.922
 1998SOL    HW2 6894   3.285   5.355   4.860
 1999SOL     OW 6895   3.505   0.948   2.152
 1999SOL    HW1 6896   3.530   1.001   2.071
 1999SOL    HW2 6897   3.585   0.940   2.212
 2000SOL     OW 6898   3.080   0.809   6.129
 2000SOL    HW1 6899   3.100   0.790   6.033
 2000SOL    HW2 6900   3.039   0.728   6.171
 2001SOL     OW 6901   1.877   3.373   0.101
 2001SOL    HW1 6902   1.954   3.340   0.047
 2001SOL    HW2 6903   1.909   3.407   0.189
 2002SOL     OW 6904   2.107   4.983   5.247
 2002SOL    HW1 6905   2.062   5.002   5.160
 2002SOL    HW2 6906   2.160   5.063   5.275
 2003SOL     OW 6907   6.267   4.101   3.363
 2003SOL    HW1 6908   6.221   4.018   3.395
 2003SOL    HW2 6909   6.284   4.094   3.265
 2004SOL     OW 6910   3.328   6.881   6.522
 2004SOL    HW1 6911   3.308   6.853   6.429
 2004SOL    HW2 6912   3.341   6.980   6.526
 2005SOL     OW 6913   2.545   6.967   5.506
 2005SOL    HW1 6914   2.601   6.976   5.588
 2005SOL    HW2 6915   2.468   6.906   5.524
 2006SOL     OW 6916   5.158   0.482   2.547
 2006SOL    HW1 6917   5.180   0.384   2.538
 2006SOL    HW2 6918   5.143   0.520   2.456
 2007SOL     OW 6919   6.680   5.315   0.179
 2007SOL    HW1 6920   6.632   5.242   0.130
 2007SOL    HW2 6921   6.671   5.401   0.128
 2008SOL     OW 6922   0.166   5.649   5.873
 2008SOL    HW1 6923   0.224   5.576   5.908
 2008SOL    HW2 6924   0.151   5.717   5.945
 2009SOL     OW 6925   1.167   0.283   6.922
 2009SOL    HW1 6926   1.232   0.232   6.979
 2009SOL    HW2 6927   1.075   0.247   6.935
 2010SOL     OW 6928   2.650   0.867   0.868
 2010SOL    HW1 6929   2.687   0.948   0.823
 2010SOL    HW2 6930   2.638   0.795   0.800
 2011SOL     OW 6931   0.216   1.596   4.985
 2011SOL    HW1 6932   0.173   1.668   5.040
 2011SOL    HW2 6933   0.197   1.612   4.888
 2012SOL     OW 6934   6.862   3.415   2.243
 2012SOL    HW1 6935   6.826   3.327   2.211
 2012SOL    HW2 6936   6.880   3.409   2.341
 2013SOL     OW 6937   3.456   2.304   1.660
 2013SOL    HW1 6938   3.528   2.284   1.726
 2013SOL    HW2 6939   3.484   2.379   1.601
 2014SOL     OW 6940   3.670   4.945   3.473
 2014SOL    HW1 6941   3.574   4.920   3.459
 2014SOL    HW2 6942   3.722   4.922   3.391
 2015SOL     OW 6943   2.940   5.096   6.890
 2015SOL    HW1 6944   2.895   5.009   6.870
 2015SOL    HW2 6945   2.883   5.150   6.951
 2016SOL     OW 6946   6.945   5.368   5.169
 2016SOL    HW1 6947   6.849   5.380   5.194
 2016SOL    HW2 6948   6.955   5.374   5.069
 2017SOL     OW 6949   2.162   5.002   1.821
 2017SOL    HW1 6950   2.246   5.034   1.864
 2017SOL    HW2 6951   2.128   4.920   1.869
 2018SOL     OW 6952   0.409   4.453   4.790
 2018SOL    HW1 6953   0.444   4.400   4.713
 2018SOL    HW2 6954   0.432   4.549   4.777
 2019SOL     OW 6955   5.749   0.795   2.635
 2019SOL    HW1 6956   5.771   0.703   2.667
 2019SOL    HW2 6957   5.716   0.790   2.541
 2020SOL     OW 6958   2.065   5.180   3.351
 2020SOL    HW1 6959   1.986   5.162   3.411
 2020SOL    HW2 6960   2.036   5.236   3.274
 2021SOL     OW 6961   1.559   6.282   1.590
 2021SOL    HW1 6962   1.584   6.203   1.534
 2021SOL    HW2 6963   1.559   6.256   1.687
 2022SOL     OW 6964   4.120   5.234   1.643
 2022SOL    HW1 6965   4.067   5.154   1.612
 2022SOL    HW2 6966   4.167   5.212   1.728
 2023SOL     OW 6967   0.165   2.610   6.090
 2023SOL    HW1 6968   0.152   2.540   6.020
 2023SOL    HW2 6969   0.164   2.700   6.047
 2024SOL     OW 6970   5.452   6.529   3.561
 2024SOL    HW1 6971   5.490   6.622   3.555
 2024SOL    HW2 6972   5.459   6.484   3.472
 2025SOL     OW 6973   6.471   0.853   1.133
 2025SOL    HW1 6974   6.434   0.945   1.118
 2025SOL    HW2 6975   6.569   0.853   1.115
 2026SOL     OW 6976   2.501   2.021   5.034
 2026SOL    HW1 6977   2.552   1.949   5.081
 2026SOL    HW2 6978   2.409   1.988   5.013
 2027SOL     OW 6979   6.219   6.902   2.072
 2027SOL    HW1 6980   6.139   6.884   2.015
 2027SOL    HW2 6981   6.258   6.991   2.049
 2028SOL     OW 6982   3.655   4.138   5.639
 2028SOL    HW1 6983   3.630   4.051   5.597
 2028SOL    HW2 6984   3.574   4.179   5.682
 2029SOL     OW 6985   2.370   0.628   0.128
 2029SOL    HW1 6986   2.315   0.615   0.045
 2029SOL    HW2 6987   2.358   0.721   0.161
 2030SOL     OW 6988   2.067   2.776   2.764
 2030SOL    HW1 6989   2.166   2.772   2.754
 2030SOL    HW2 6990   2.036   2.869   2.742
 2031SOL     OW 6991   6.082   6.902   2.311
 2031SOL    HW1 6992   6.127   6.906   2.222
 2031SOL    HW2 6993   6.147   6.873   2.381
 2032SOL     OW 6994   4.268   6.276   2.666
 2032SOL    HW1 6995   4.297   6.181   2.678
 2032SOL    HW2 6996   4.275   6.301   2.570
 2033SOL     OW 6997   0.526   5.034   6.961
 2033SOL    HW1 6998   0.435   4.995   6.951
 2033SOL    HW2 6999   0.566   5.048   6.871
 2034SOL     OW 7000   2.042   5.600   4.048
 2034SOL    HW1 7001   2.023   5.695   4.021
 2034SOL    HW2 7002   1.957   5.555   4.073
 2035SOL     OW 7003   0.723   0.907   2.891
 2035SOL    HW1 7004   0.822   0.908   2.906
 2035SOL    HW2 7005   0.677   0.881   2.976
 2036SOL     OW 7006   1.117   4.105   1.846
 2036SOL    HW1 7007   1.059   4.160   1.906
 2036SOL    HW2 7008   1.078   4.103   1.754
 2037SOL     OW 7009   1.052   2.962   5.915
 2037SOL    HW1 7010   0.983   3.034   5.908
 2037SOL    HW2 7011   1.017   2.878   5.875
 2038SOL     OW 7012   1.663   6.433   5.046
 2038SOL    HW1 7013   1.657   6.418   5.144
 2038SOL    HW2 7014   1.728   6.368   5.006
 2039SOL     OW 7015   1.171   4.973   1.929
 2039SOL    HW1 7016   1.245   5.002   1.869
 2039SOL    HW2 7017   1.084   5.007   1.892
 2040SOL     OW 7018   4.000   3.152   4.322
 2040SOL    HW1 7019   4.032   3.244   4.299
 2040SOL    HW2 7020   3.997   3.141   4.421
 2041SOL     OW 7021   5.257   3.018   0.399
 2041SOL    HW1 7022   5.182   2.953   0.408
 2041SOL    HW2 7023   5.329   2.994   0.465
 2042SOL     OW 7024   3.583   6.667   0.190
 2042SOL    HW1 7025   3.577   6.595   0.258
 2042SOL    HW2 7026   3.664   6.652   0.133
 2043SOL     OW 7027   4.901   5.088   2.483
 2043SOL    HW1 7028   4.805   5.072   2.458
 2043SOL    HW2 7029   4.916   5.060   2.577
 2044SOL     OW 7030   6.110   0.846   1.758
 2044SOL    HW1 7031   6.091   0.898   1.842
 2044SOL    HW2 7032   6.085   0.901   1.678
 2045SOL     OW 7033   3.724   6.797   5.436
 2045SOL    HW1 7034   3.725   6.830   5.531
 2045SOL    HW2 7035   3.632   6.808   5.399
 2046SOL     OW 7036   6.180   0.735   5.597
 2046SOL    HW1 7037   6.129   0.679   5.532
 2046SOL    HW2 7038   6.157   0.831   5.583
 2047SOL     OW 7039   5.463   3.453   0.210
 2047SOL    HW1 7040   5.508   3.446   0.299
 2047SOL    HW2 7041   5.404   3.374   0.195
 2048SOL     OW 7042   4.853   6.465   5.188
 2048SOL    HW1 7043   4.814   6.380   5.153
 2048SOL    HW2 7044   4.935   6.444   5.241
 2049SOL     OW 7045   5.614   5.974   6.770
 2049SOL    HW1 7046   5.573   5.929   6.691
 2049SOL    HW2 7047   5.711   5.951   6.774
 2050SOL     OW 7048   5.698   0.987   3.570
 2050SOL    HW1 7049   5.723   0.896   3.603
 2050SOL    HW2 7050   5.623   0.978   3.504
 2051SOL     OW 7051   3.177   5.957   1.104
 2051SOL    HW1 7052   3.253   5.897   1.130
 2051SOL    HW2 7053   3.130   5.988   1.187
 2052SOL     OW 7054   0.949   2.342   0.945
 2052SOL    HW1 7055   0.857   2.345   0.906
 2052SOL    HW2 7056   1.006   2.281   0.890
 2053SOL     OW 7057   5.307   0.679   0.125
 2053SOL    HW1 7058   5.338   0.774   0.132
 2053SOL    HW2 7059   5.278   0.660   0.032
 2054SOL     OW 7060   0.682   2.703   0.341
 2054SOL    HW1 7061   0.766   2.651   0.325
 2054SOL    HW2 7062   0.695   2.797   0.311
 2055SOL     OW 7063   6.200   1.042   4.298
 2055SOL    HW1 7064   6.137   1.098   4.245
 2055SOL    HW2 7065   6.149   0.986   4.363
 2056SOL     OW 7066   6.788   6.911   2.184
 2056SOL    HW1 7067   6.858   6.931   2.115
 2056SOL    HW2 7068   6.764   6.814   2.181
 2057SOL     OW 7069   5.142   3.248   4.045
 2057SOL    HW1 7070   5.131   3.225   3.948
 2057SOL    HW2 7071   5.190   3.174   4.092
 2058SOL     OW 7072   0.958   1.140   1.432
 2058SOL    HW1 7073   0.928   1.048   1.411
 2058SOL    HW2 7074   1.051   1.154   1.397
 2059SOL     OW 7075   1.547   0.208   0.280
 2059SOL    HW1 7076   1.606   0.285   0.304
 2059SOL    HW2 7077   1.603   0.131   0.247
 2060SOL     OW 7078   0.850   4.931   3.331
 2060SOL    HW1 7079   0.903   5.008   3.297
 2060SOL    HW2 7080   0.890   4.846   3.297
 2061SOL     OW 7081   1.242   0.375   0.430
 2061SOL    HW1 7082   1.198   0.439   0.367
 2061SOL    HW2 7083   1.321   0.419   0.474
 2062SOL     OW 7084   3.962   0.020   3.607
 2062SOL    HW1 7085   3.905   0.005   3.526
 2062SOL    HW2 7086   3.912   0.079   3.672
 2063SOL     OW 7087   2.470   3.197   0.995
 2063SOL    HW1 7088   2.464   3.268   1.066
 2063SOL    HW2 7089   2.530   3.123   1.027
 2064SOL     OW 7090   0.569   1.782   0.960
 2064SOL    HW1 7091   0.669   1.783   0.963
 2064SOL    HW2 7092   0.532   1.845   1.029
 2065SOL     OW 7093   0.055   3.235   3.266
 2065SOL    HW1 7094   0.018   3.157   3.317
 2065SOL    HW2 7095   0.097   3.300   3.330
 2066SOL     OW 7096   0.857   6.181   3.470
 2066SOL    HW1 7097   0.922   6.126   3.418
 2066SOL    HW2 7098   0.769   6.184   3.422
 2067SOL     OW 7099   6.779   0.529   0.824
 2067SOL    HW1 7100   6.686   0.498   0.845
 2067SOL    HW2 7101   6.785   0.555   0.728
 2068SOL     OW 7102   2.211   1.981   5.429
 2068SOL    HW1 7103   2.272   1.910   5.395
 2068SOL    HW2 7104   2.237   2.005   5.523
 2069SOL     OW 7105   2.066   2.064   1.761
 2069SOL    HW1 7106   1.971   2.082   1.737
 2069SOL    HW2 7107   2.070   2.015   1.848
 2070SOL     OW 7108   0.536   1.833   2.675
 2070SOL    HW1 7109   0.556   1.737   2.692
 2070SOL    HW2 7110   0.566   1.858   2.583
 2071SOL     OW 7111   2.881   6.051   5.804
 2071SOL    HW1 7112   2.891   6.135   5.751
 2071SOL    HW2 7113   2.816   6.066   5.878
 2072SOL     OW 7114   5.349   4.225   2.867
 2072SOL    HW1 7115   5.316   4.131   2.873
 2072SOL    HW2 7116   5.372   4.247   2.772
 2073SOL     OW 7117   3.467   6.780   4.790
 2073SOL    HW1 7118   3.529   6.841   4.839
 2073SOL    HW2 7119   3.514   6.694   4.771
 2074SOL     OW 7120   4.592   1.813   3.408
 2074SOL    HW1 7121   4.674   1.781   3.455
 2074SOL    HW2 7122   4.595   1.913   3.400
 2075SOL     OW 7123   3.753   2.977   6.419
 2075SOL    HW1 7124   3.831   2.967   6.356
 2075SOL    HW2 7125   3.703   3.060   6.397
 2076SOL     OW 7126   4.764   6.714   0.741
 2076SOL    HW1 7127   4.773   6.706   0.642
 2076SOL    HW2 7128   4.753   6.623   0.781
 2077SOL     OW 7129   3.654   1.362   5.178
 2077SOL    HW1 7130   3.684   1.433   5.241
 2077SOL    HW2 7131   3.569   1.391   5.133
 2078SOL     OW 7132   4.010   6.453   4.066
 2078SOL    HW1 7133   4.100   6.451   4.110
 2078SOL    HW2 7134   3.941   6.478   4.134
 2079SOL     OW 7135   5.387   6.946   3.733
 2079SOL    HW1 7136   5.444   6.875   3.776
 2079SOL    HW2 7137   5.397   0.012   3.784
 2080SOL     OW 7138   3.288   1.822   2.832
 2080SOL    HW1 7139   3.230   1.783   2.903
 2080SOL    HW2 7140   3.257   1.915   2.810
 2081SOL     OW 7141   1.357   5.815   3.357
 2081SOL    HW1 7142   1.409   5.787   3.437
 2081SOL    HW2 7143   1.295   5.890   3.382
 2082SOL     OW 7144   4.749   0.821   3.063
 2082SOL    HW1 7145   4.678   0.792   2.999
 2082SOL    HW2 7146   4.751   0.921   3.069
 2083SOL     OW 7147   3.910   4.768   5.865
 2083SOL    HW1 7148   3.869   4.761   5.774
 2083SOL    HW2 7149   3.968   4.689   5.882
 2084SOL     OW 7150   0.315   2.406   3.210
 2084SOL    HW1 7151   0.327   2.483   3.148
 2084SOL    HW2 7152   0.351   2.323   3.167
 2085SOL     OW 7153   5.706   6.856   0.590
 2085SOL    HW1 7154   5.790   6.831   0.638
 2085SOL    HW2 7155   5.695   6.956   0.592
 2086SOL     OW 7156   3.615   5.885   6.524
 2086SOL    HW1 7157   3.656   5.819   6.587
 2086SOL    HW2 7158   3.581   5.964   6.575
 2087SOL     OW 7159   6.018   5.560   2.720
 2087SOL    HW1 7160   6.032   5.491   2.791
 2087SOL    HW2 7161   5.930   5.605   2.733
 2088SOL     OW 7162   1.978   6.599   1.147
 2088SOL    HW1 7163   2.032   6.515   1.138
 2088SOL    HW2 7164   2.028   6.666   1.202
 2089SOL     OW 7165   2.604   0.953   6.661
 2089SOL    HW1 7166   2.551   1.025   6.705
 2089SOL    HW2 7167   2.679   0.926   6.721
 2090SOL     OW 7168   2.873   3.568   3.325
 2090SOL    HW1 7169   2.862   3.572   3.424
 2090SOL    HW2 7170   2.815   3.495   3.287
 2091SOL     OW 7171   2.528   3.960   1.459
 2091SOL    HW1 7172   2.515   4.056   1.486
 2091SOL    HW2 7173   2.611   3.925   1.502
 2092SOL     OW 7174   5.906   0.119   0.328
 2092SOL    HW1 7175   5.963   0.084   0.253
 2092SOL    HW2 7176   5.964   0.151   0.402
 2093SOL     OW 7177   1.492   1.589   1.819
 2093SOL    HW1 7178   1.564   1.521   1.805
 2093SOL    HW2 7179   1.488   1.651   1.741
 2094SOL     OW 7180   0.090   0.739   2.526
 2094SOL    HW1 7181   0.119   0.833   2.543
 2094SOL    HW2 7182   7.018   0.739   2.485
 2095SOL     OW 7183   6.187   4.308   5.376
 2095SOL    HW1 7184   6.249   4.327   5.453
 2095SOL    HW2 7185   6.185   4.210   5.359
 2096SOL     OW 7186   5.011   4.363   3.671
 2096SOL    HW1 7187   4.953   4.359   3.590
 2096SOL    HW2 7188   4.983   4.440   3.728
 2097SOL     OW 7189   6.823   3.332   5.540
 2097SOL    HW1 7190   6.879   3.289   5.469
 2097SOL    HW2 7191   6.728   3.304   5.529
 2098SOL     OW 7192   4.615   0.405   4.499
 2098SOL    HW1 7193   4.595   0.368   4.408
 2098SOL    HW2 7194   4.702   0.368   4.532
 2099SOL     OW 7195   2.678   1.660   3.991
 2099SOL    HW1 7196   2.770   1.634   4.017
 2099SOL    HW2 7197   2.680   1.713   3.906
 2100SOL     OW 7198   4.704   4.446   5.660
 2100SOL    HW1 7199   4.687   4.371   5.724
 2100SOL    HW2 7200   4.637   4.442   5.586
 2101SOL     OW 7201   5.503   0.254   1.918
 2101SOL    HW1 7202   5.522   0.207   1.833
 2101SOL    HW2 7203   5.429   0.207   1.967
 2102SOL     OW 7204   0.009   5.113   0.968
 2102SOL    HW1 7205   0.007   5.039   1.035
 2102SOL    HW2 7206   7.013   5.200   1.014
 2103SOL     OW 7207   3.554   3.698   6.522
 2103SOL    HW1 7208   3.584   3.626   6.585
 2103SOL    HW2 7209   3.624   3.769   6.518
 2104SOL     OW 7210   0.379   4.833   6.204
 2104SOL    HW1 7211   0.382   4.887   6.289
 2104SOL    HW2 7212   0.416   4.742   6.221
 2105SOL     OW 7213   4.981   6.229   2.426
 2105SOL    HW1 7214   5.000   6.233   2.328
 2105SOL    HW2 7215   4.955   6.136   2.452
 2106SOL     OW 7216   6.361   6.443   6.441
 2106SOL    HW1 7217   6.309   6.381   6.382
 2106SOL    HW2 7218   6.320   6.445   6.532
 2107SOL     OW 7219   2.613   5.079   6.985
 2107SOL    HW1 7220   2.555   5.082   0.047
 2107SOL    HW2 7221   2.625   5.172   6.950
 2108SOL     OW 7222   5.641   4.607   6.481
 2108SOL    HW1 7223   5.661   4.598   6.579
 2108SOL    HW2 7224   5.613   4.701   6.461
 2109SOL     OW 7225   5.527   5.629   2.975
 2109SOL    HW1 7226   5.517   5.701   2.906
 2109SOL    HW2 7227   5.477   5.654   3.057
 2110SOL     OW 7228   1.545   5.134   5.534
 2110SOL    HW1 7229   1.544   5.189   5.617
 2110SOL    HW2 7230   1.513   5.042   5.554
 2111SOL     OW 7231   1.784   1.803   6.750
 2111SOL    HW1 7232   1.859   1.749   6.711
 2111SOL    HW2 7233   1.775   1.889   6.700
 2112SOL     OW 7234   4.914   4.000   0.142
 2112SOL    HW1 7235   4.909   3.900   0.146
 2112SOL    HW2 7236   4.824   4.037   0.117
 2113SOL     OW 7237   6.437   1.345   4.000
 2113SOL    HW1 7238   6.443   1.309   4.093
 2113SOL    HW2 7239   6.494   1.291   3.938
 2114SOL     OW 7240   1.344   3.631   6.359
 2114SOL    HW1 7241   1.254   3.596   6.333
 2114SOL    HW2 7242   1.413   3.559   6.347
 2115SOL     OW 7243   3.993   4.987   1.570
 2115SOL    HW1 7244   4.049   4.934   1.634
 2115SOL    HW2 7245   3.898   4.955   1.574
 2116SOL     OW 7246   0.680   4.081   4.304
 2116SOL    HW1 7247   0.626   4.047   4.381
 2116SOL    HW2 7248   0.719   4.170   4.326
 2117SOL     OW 7249   6.159   5.872   6.033
 2117SOL    HW1 7250   6.226   5.935   6.073
 2117SOL    HW2 7251   6.199   5.827   5.953
 2118SOL     OW 7252   0.023   3.015   2.552
 2118SOL    HW1 7253   0.051   3.111   2.557
 2118SOL    HW2 7254   0.059   2.974   2.468
 2119SOL     OW 7255   4.080   6.867   6.998
 2119SOL    HW1 7256   4.179   6.852   6.992
 2119SOL    HW2 7257   4.035   6.826   6.919
 2120SOL     OW 7258   6.345   4.028   2.172
 2120SOL    HW1 7259   6.374   4.094   2.102
 2120SOL    HW2 7260   6.423   3.970   2.196
 2121SOL     OW 7261   0.764   3.680   4.253
 2121SOL    HW1 7262   0.822   3.753   4.289
 2121SOL    HW2 7263   0.700   3.718   4.187
 2122SOL     OW 7264   3.892   5.209   5.352
 2122SOL    HW1 7265   3.792   5.211   5.350
 2122SOL    HW2 7266   3.927   5.293   5.310
 2123SOL     OW 7267   3.787   6.351   3.321
 2123SOL    HW1 7268   3.721   6.418   3.354
 2123SOL    HW2 7269   3.806   6.285   3.393
 2124SOL     OW 7270   2.671   2.645   1.742
 2124SOL    HW1 7271   2.626   2.593   1.670
 2124SOL    HW2 7272   2.770   2.646   1.726
 2125SOL     OW 7273   5.140   6.079   6.825
 2125SOL    HW1 7274   5.110   6.099   6.732
 2125SOL    HW2 7275   5.236   6.104   6.836
 2126SOL     OW 7276   3.040   1.764   1.198
 2126SOL    HW1 7277   3.070   1.808   1.113
 2126SOL    HW2 7278   2.950   1.723   1.184
 2127SOL     OW 7279   5.816   2.235   4.413
 2127SOL    HW1 7280   5.814   2.323   4.462
 2127SOL    HW2 7281   5.774   2.246   4.323
 2128SOL     OW 7282   1.149   3.381   4.540
 2128SOL    HW1 7283   1.169   3.403   4.636
 2128SOL    HW2 7284   1.090   3.452   4.502
 2129SOL     OW 7285   4.451   2.374   4.959
 2129SOL    HW1 7286   4.495   2.354   5.046
 2129SOL    HW2 7287   4.353   2.388   4.974
 2130SOL     OW 7288   4.504   6.348   2.809
 2130SOL    HW1 7289   4.432   6.353   2.740
 2130SOL    HW2 7290   4.493   6.263   2.862
 2131SOL     OW 7291   4.942   1.700   6.533
 2131SOL    HW1 7292   5.022   1.745   6.495
 2131SOL    HW2 7293   4.970   1.619   6.585
 2132SOL     OW 7294   0.879   2.985   1.457
 2132SOL    HW1 7295   0.928   2.900   1.439
 2132SOL    HW2 7296   0.781   2.968   1.455
 2133SOL     OW 7297   2.264   4.471   5.928
 2133SOL    HW1 7298   2.246   4.529   5.848
 2133SOL    HW2 7299   2.359   4.484   5.957
 2134SOL     OW 7300   0.099   6.745   0.582
 2134SOL    HW1 7301   0.021   6.804   0.603
 2134SOL    HW2 7302   0.167   6.797   0.531
 2135SOL     OW 7303   6.350   5.354   5.540
 2135SOL    HW1 7304   6.314   5.268   5.504
 2135SOL    HW2 7305   6.448   5.346   5.556
 2136SOL     OW 7306   1.859   5.216   0.020
 2136SOL    HW1 7307   1.822   5.309   0.026
 2136SOL    HW2 7308   1.784   5.152   0.006
 2137SOL     OW 7309   1.560   6.368   3.563
 2137SOL    HW1 7310   1.611   6.438   3.612
 2137SOL    HW2 7311   1.465   6.368   3.593
 2138SOL     OW 7312   4.851   2.290   1.860
 2138SOL    HW1 7313   4.831   2.270   1.956
 2138SOL    HW2 7314   4.792   2.235   1.801
 2139SOL     OW 7315   2.670   5.943   5.415
 2139SOL    HW1 7316   2.579   5.903   5.400
 2139SOL    HW2 7317   2.731   5.874   5.454
 2140SOL     OW 7318   2.154   2.456   3.272
 2140SOL    HW1 7319   2.180   2.368   3.233
 2140SOL    HW2 7320   2.058   2.476   3.252
 2141SOL     OW 7321   6.658   3.108   2.860
 2141SOL    HW1 7322   6.567   3.083   2.827
 2141SOL    HW2 7323   6.671   3.207   2.850
 2142SOL     OW 7324   1.883   1.683   1.621
 2142SOL    HW1 7325   1.817   1.747   1.661
 2142SOL    HW2 7326   1.866   1.591   1.656
 2143SOL     OW 7327   6.707   5.409   5.879
 2143SOL    HW1 7328   6.756   5.408   5.792
 2143SOL    HW2 7329   6.767   5.440   5.952
 2144SOL     OW 7330   6.049   4.587   2.914
 2144SOL    HW1 7331   6.149   4.593   2.909
 2144SOL    HW2 7332   6.021   4.579   3.009
 2145SOL     OW 7333   3.426   1.007   3.188
 2145SOL    HW1 7334   3.404   0.927   3.132
 2145SOL    HW2 7335   3.394   1.090   3.143
 2146SOL     OW 7336   1.898   1.399   6.839
 2146SOL    HW1 7337   1.922   1.490   6.872
 2146SOL    HW2 7338   1.821   1.405   6.775
 2147SOL     OW 7339   5.947   0.223   5.228
 2147SOL    HW1 7340   5.984   0.131   5.215
 2147SOL    HW2 7341   5.887   0.224   5.307
 2148SOL     OW 7342   1.933   2.388   5.250
 2148SOL    HW1 7343   1.981   2.326   5.313
 2148SOL    HW2 7344   1.997   2.457   5.216
 2149SOL     OW 7345   0.052   6.645   0.042
 2149SOL    HW1 7346   6.999   6.617   6.999
 2149SOL    HW2 7347   0.120   6.698   7.011
 2150SOL     OW 7348   1.274   2.465   0.445
 2150SOL    HW1 7349   1.282   2.434   0.350
 2150SOL    HW2 7350   1.178   2.458   0.474
 2151SOL     OW 7351   0.904   5.496   0.009
 2151SOL    HW1 7352   0.824   5.458   0.055
 2151SOL    HW2 7353   0.875   5.561   6.959
 2152SOL     OW 7354   5.152   6.441   4.133
 2152SOL    HW1 7355   5.060   6.460   4.098
 2152SOL    HW2 7356   5.219   6.497   4.085
 2153SOL     OW 7357   4.731   0.137   3.487
 2153SOL    HW1 7358   4.680   0.084   3.419
 2153SOL    HW2 7359   4.722   0.094   3.577
 2154SOL     OW 7360   2.423   6.516   2.003
 2154SOL    HW1 7361   2.362   6.520   2.082
 2154SOL    HW2 7362   2.447   6.609   1.975
 2155SOL     OW 7363   5.250   0.794   0.479
 2155SOL    HW1 7364   5.257   0.888   0.444
 2155SOL    HW2 7365   5.166   0.783   0.531
 2156SOL     OW 7366   6.427   1.743   4.252
 2156SOL    HW1 7367   6.363   1.819   4.266
 2156SOL    HW2 7368   6.451   1.736   4.156
 2157SOL     OW 7369   4.186   6.045   3.246
 2157SOL    HW1 7370   4.245   6.042   3.326
 2157SOL    HW2 7371   4.178   6.140   3.214
 2158SOL     OW 7372   3.054   0.207   0.270
 2158SOL    HW1 7373   2.974   0.170   0.319
 2158SOL    HW2 7374   3.137   0.170   0.310
 2159SOL     OW 7375   0.783   2.268   5.672
 2159SOL    HW1 7376   0.785   2.243   5.768
 2159SOL    HW2 7377   0.822   2.193   5.618
 2160SOL     OW 7378   5.406   6.611   6.679
 2160SOL    HW1 7379   5.427   6.515   6.661
 2160SOL    HW2 7380   5.428   6.666   6.598
 2161SOL     OW 7381   1.401   3.654   6.913
 2161SOL    HW1 7382   1.465   3.650   6.990
 2161SOL    HW2 7383   1.397   3.565   6.868
 2162SOL     OW 7384   1.904   6.604   0.293
 2162SOL    HW1 7385   1.903   6.703   0.288
 2162SOL    HW2 7386   1.818   6.571   0.333
 2163SOL     OW 7387   0.856   3.257   4.240
 2163SOL    HW1 7388   0.917   3.182   4.266
 2163SOL    HW2 7389   0.772   3.219   4.201
 2164SOL     OW 7390   1.871   4.768   1.900
 2164SOL    HW1 7391   1.940   4.760   1.972
 2164SOL    HW2 7392   1.877   4.690   1.839
 2165SOL     OW 7393   6.275   2.106   5.744
 2165SOL    HW1 7394   6.187   2.143   5.777
 2165SOL    HW2 7395   6.276   2.007   5.755
 2166SOL     OW 7396   6.569   2.095   2.129
 2166SOL    HW1 7397   6.507   2.149   2.072
 2166SOL    HW2 7398   6.597   2.150   2.208
 2167SOL     OW 7399   1.421   2.170   2.988
 2167SOL    HW1 7400   1.344   2.184   2.926
 2167SOL    HW2 7401   1.488   2.243   2.975
 2168SOL     OW 7402   1.461   2.092   3.732
 2168SOL    HW1 7403   1.482   2.035   3.653
 2168SOL    HW2 7404   1.404   2.169   3.703
 2169SOL     OW 7405   6.240   6.885   0.586
 2169SOL    HW1 7406   6.183   6.844   0.514
 2169SOL    HW2 7407   6.221   6.840   0.673
 2170SOL     OW 7408   1.962   2.839   6.130
 2170SOL    HW1 7409   1.916   2.768   6.184
 2170SOL    HW2 7410   1.951   2.819   6.032
 2171SOL     OW 7411   5.994   6.938   1.642
 2171SOL    HW1 7412   5.910   6.884   1.645
 2171SOL    HW2 7413   5.972   0.014   1.629
 2172SOL     OW 7414   2.516   2.575   4.903
 2172SOL    HW1 7415   2.506   2.490   4.852
 2172SOL    HW2 7416   2.581   2.635   4.857
 2173SOL     OW 7417   4.128   0.819   4.943
 2173SOL    HW1 7418   4.128   0.917   4.962
 2173SOL    HW2 7419   4.219   0.782   4.962
 2174SOL     OW 7420   5.064   6.932   5.409
 2174SOL    HW1 7421   5.135   6.967   5.348
 2174SOL    HW2 7422   5.105   6.907   5.497
 2175SOL     OW 7423   3.091   2.708   5.772
 2175SOL    HW1 7424   3.098   2.799   5.814
 2175SOL    HW2 7425   3.024   2.710   5.698
 2176SOL     OW 7426   6.938   1.839   2.941
 2176SOL    HW1 7427   6.910   1.909   3.006
 2176SOL    HW2 7428   6.915   1.867   2.848
 2177SOL     OW 7429   0.849   0.221   4.812
 2177SOL    HW1 7430   0.915   0.158   4.853
 2177SOL    HW2 7431   0.789   0.257   4.883
 2178SOL     OW 7432   1.865   3.451   1.984
 2178SOL    HW1 7433   1.950   3.406   2.011
 2178SOL    HW2 7434   1.793   3.427   2.048
 2179SOL     OW 7435   1.286   4.239   6.691
 2179SOL    HW1 7436   1.294   4.150   6.647
 2179SOL    HW2 7437   1.352   4.246   6.766
 2180SOL     OW 7438   0.137   5.102   2.658
 2180SOL    HW1 7439   0.061   5.137   2.714
 2180SOL    HW2 7440   0.210   5.069   2.718
 2181SOL     OW 7441   4.174   4.928   3.120
 2181SOL    HW1 7442   4.143   4.990   3.048
 2181SOL    HW2 7443   4.210   4.844   3.079
 2182SOL     OW 7444   0.065   6.879   0.957
 2182SOL    HW1 7445   6.998   6.870   1.008
 2182SOL    HW2 7446   0.051   6.848   0.863
 2183SOL     OW 7447   3.978   2.872   6.762
 2183SOL    HW1 7448   4.005   2.892   6.856
 2183SOL    HW2 7449   3.977   2.956   6.709
 2184SOL     OW 7450   6.440   1.928   6.515
 2184SOL    HW1 7451   6.501   1.979   6.576
 2184SOL    HW2 7452   6.369   1.883   6.570
 2185SOL     OW 7453   7.012   1.526   6.376
 2185SOL    HW1 7454   6.957   1.443   6.372
 2185SOL    HW2 7455   0.021   1.551   6.283
 2186SOL     OW 7456   6.841   6.106   6.041
 2186SOL    HW1 7457   6.769   6.095   5.973
 2186SOL    HW2 7458   6.863   6.203   6.051
 2187SOL     OW 7459   5.920   3.647   1.413
 2187SOL    HW1 7460   5.857   3.580   1.374
 2187SOL    HW2 7461   5.981   3.603   1.479
 2188SOL     OW 7462   3.315   2.027   0.920
 2188SOL    HW1 7463   3.400   2.076   0.941
 2188SOL    HW2 7464   3.271   2.069   0.841
 2189SOL     OW 7465   2.423   0.850   2.072
 2189SOL    HW1 7466   2.497   0.908   2.107
 2189SOL    HW2 7467   2.457   0.756   2.061
 2190SOL     OW 7468   6.792   4.593   1.686
 2190SOL    HW1 7469   6.700   4.561   1.711
 2190SOL    HW2 7470   6.851   4.514   1.671
 2191SOL     OW 7471   3.704   0.265   6.368
 2191SOL    HW1 7472   3.766   0.254   6.290
 2191SOL    HW2 7473   3.618   0.307   6.336
 2192SOL     OW 7474   5.266   2.090   1.697
 2192SOL    HW1 7475   5.254   2.124   1.604
 2192SOL    HW2 7476   5.203   2.139   1.758
 2193SOL     OW 7477   1.702   0.161   6.009
 2193SOL    HW1 7478   1.664   0.254   6.008
 2193SOL    HW2 7479   1.756   0.149   6.092
 2194SOL     OW 7480   1.065   4.580   5.457
 2194SOL    HW1 7481   1.129   4.518   5.503
 2194SOL    HW2 7482   1.039   4.654   5.518
 2195SOL     OW 7483   0.270   4.263   5.498
 2195SOL    HW1 7484   0.349   4.206   5.522
 2195SOL    HW2 7485   0.288   4.358   5.525
 2196SOL     OW 7486   4.004   1.193   6.750
 2196SOL    HW1 7487   3.939   1.159   6.683
 2196SOL    HW2 7488   3.961   1.197   6.840
 2197SOL     OW 7489   3.903   5.093   6.821
 2197SOL    HW1 7490   3.960   5.059   6.896
 2197SOL    HW2 7491   3.883   5.018   6.758
 2198SOL     OW 7492   1.254   0.676   6.182
 2198SOL    HW1 7493   1.338   0.727   6.163
 2198SOL    HW2 7494   1.208   0.716   6.262
 2199SOL     OW 7495   4.687   5.967   3.439
 2199SOL    HW1 7496   4.692   5.930   3.347
 2199SOL    HW2 7497   4.690   6.067   3.435
 2200SOL     OW 7498   2.643   1.810   5.119
 2200SOL    HW1 7499   2.742   1.811   5.133
 2200SOL    HW2 7500   2.610   1.715   5.118
 2201SOL     OW 7501   5.807   3.388   4.235
 2201SOL    HW1 7502   5.814   3.291   4.214
 2201SOL    HW2 7503   5.745   3.401   4.313
 2202SOL     OW 7504   4.742   0.285   4.760
 2202SOL    HW1 7505   4.828   0.274   4.708
 2202SOL    HW2 7506   4.673   0.223   4.722
 2203SOL     OW 7507   2.183   5.735   1.153
 2203SOL    HW1 7508   2.127   5.729   1.070
 2203SOL    HW2 7509   2.275   5.764   1.130
 2204SOL     OW 7510   4.822   3.503   0.228
 2204SOL    HW1 7511   4.819   3.560   0.310
 2204SOL    HW2 7512   4.916   3.474   0.211
 2205SOL     OW 7513   5.141   5.396   1.102
 2205SOL    HW1 7514   5.119   5.303   1.131
 2205SOL    HW2 7515   5.078   5.460   1.146
 2206SOL     OW 7516   3.385   3.130   5.222
 2206SOL    HW1 7517   3.378   3.102   5.126
 2206SOL    HW2 7518   3.474   3.101   5.259
 2207SOL     OW 7519   4.788   4.649   1.199
 2207SOL    HW1 7520   4.861   4.712   1.226
 2207SOL    HW2 7521   4.820   4.590   1.125
 2208SOL     OW 7522   6.490   6.080   2.967
 2208SOL    HW1 7523   6.522   6.162   3.014
 2208SOL    HW2 7524   6.568   6.022   2.944
 2209SOL     OW 7525   2.603   5.644   3.653
 2209SOL    HW1 7526   2.665   5.576   3.693
 2209SOL    HW2 7527   2.592   5.625   3.555
 2210SOL     OW 7528   5.360   6.454   2.197
 2210SOL    HW1 7529   5.356   6.388   2.272
 2210SOL    HW2 7530   5.329   6.410   2.112
 2211SOL     OW 7531   1.841   0.813   1.253
 2211SOL    HW1 7532   1.794   0.812   1.164
 2211SOL    HW2 7533   1.882   0.903   1.268
 2212SOL     OW 7534   2.828   6.538   6.176
 2212SOL    HW1 7535   2.825   6.618   6.116
 2212SOL    HW2 7536   2.834   6.568   6.271
 2213SOL     OW 7537   3.526   2.013   4.194
 2213SOL    HW1 7538   3.596   2.056   4.252
 2213SOL    HW2 7539   3.511   1.919   4.224
 2214SOL     OW 7540   4.107   4.933   6.964
 2214SOL    HW1 7541   4.169   4.966   6.891
 2214SOL    HW2 7542   4.087   4.836   6.949
 2215SOL     OW 7543   0.019   5.467   6.565
 2215SOL    HW1 7544   0.022   5.372   6.534
 2215SOL    HW2 7545   6.964   5.515   6.520
 2216SOL     OW 7546   0.305   6.255   0.524
 2216SOL    HW1 7547   0.252   6.209   0.452
 2216SOL    HW2 7548   0.299   6.354   0.511
 2217SOL     OW 7549   4.101   1.331   4.109
 2217SOL    HW1 7550   4.174   1.281   4.063
 2217SOL    HW2 7551   4.063   1.399   4.047
 2218SOL     OW 7552   5.954   5.539   5.682
 2218SOL    HW1 7553   6.036   5.506   5.730
 2218SOL    HW2 7554   5.957   5.510   5.587
 2219SOL     OW 7555   5.210   2.156   0.642
 2219SOL    HW1 7556   5.155   2.155   0.558
 2219SOL    HW2 7557   5.155   2.192   0.717
 2220SOL     OW 7558   6.477   6.843   4.654
 2220SOL    HW1 7559   6.388   6.863   4.694
 2220SOL    HW2 7560   6.525   6.928   4.634
 2221SOL     OW 7561   5.061   7.018   3.197
 2221SOL    HW1 7562   5.029   7.016   3.292
 2221SOL    HW2 7563   5.128   0.071   3.185
 2222SOL     OW 7564   4.062   0.576   4.398
 2222SOL    HW1 7565   3.987   0.631   4.436
 2222SOL    HW2 7566   4.048   0.562   4.300
 2223SOL     OW 7567   0.797   0.268   5.821
 2223SOL    HW1 7568   0.707   0.309   5.838
 2223SOL    HW2 7569   0.838   0.312   5.741
 2224SOL     OW 7570   5.033   4.739   6.423
 2224SOL    HW1 7571   4.953   4.689   6.458
 2224SOL    HW2 7572   5.014   4.770   6.330
 2225SOL     OW 7573   6.777   0.761   0.593
 2225SOL    HW1 7574   6.855   0.821   0.576
 2225SOL    HW2 7575   6.694   0.803   0.555
 2226SOL     OW 7576   2.860   3.280   6.916
 2226SOL    HW1 7577   2.898   3.372   6.916
 2226SOL    HW2 7578   2.932   3.214   6.895
 2227SOL     OW 7579   4.377   1.823   1.399
 2227SOL    HW1 7580   4.385   1.810   1.300
 2227SOL    HW2 7581   4.425   1.749   1.446
 2228SOL     OW 7582   4.841   6.537   6.647
 2228SOL    HW1 7583   4.748   6.525   6.612
 2228SOL    HW2 7584   4.860   6.466   6.715
 2229SOL     OW 7585   3.583   2.991   4.100
 2229SOL    HW1 7586   3.682   2.982   4.091
 2229SOL    HW2 7587   3.562   3.050   4.178
 2230SOL     OW 7588   6.939   1.797   6.345
 2230SOL    HW1 7589   6.916   1.702   6.365
 2230SOL    HW2 7590   6.861   1.841   6.299
 2231SOL     OW 7591   0.886   6.709   5.704
 2231SOL    HW1 7592   0.823   6.661   5.643
 2231SOL    HW2 7593   0.980   6.681   5.686
 2232SOL     OW 7594   1.401   0.750   0.114
 2232SOL    HW1 7595   1.429   0.840   0.147
 2232SOL    HW2 7596   1.354   0.760   0.027
 2233SOL     OW 7597   3.213   5.699   0.905
 2233SOL    HW1 7598   3.279   5.642   0.954
 2233SOL    HW2 7599   3.241   5.708   0.809
 2234SOL     OW 7600   5.383   1.936   2.063
 2234SOL    HW1 7601   5.437   1.977   1.989
 2234SOL    HW2 7602   5.314   2.002   2.093
 2235SOL     OW 7603   1.633   2.089   3.951
 2235SOL    HW1 7604   1.601   2.085   3.857
 2235SOL    HW2 7605   1.700   2.016   3.967
 2236SOL     OW 7606   2.760   5.167   4.893
 2236SOL    HW1 7607   2.824   5.235   4.858
 2236SOL    HW2 7608   2.810   5.099   4.946
 2237SOL     OW 7609   6.071   6.913   6.521
 2237SOL    HW1 7610   6.064   6.815   6.538
 2237SOL    HW2 7611   5.997   6.941   6.459
 2238SOL     OW 7612   5.388   4.206   1.589
 2238SOL    HW1 7613   5.299   4.251   1.601
 2238SOL    HW2 7614   5.374   4.107   1.578
 2239SOL     OW 7615   3.405   0.284   3.092
 2239SOL    HW1 7616   3.503   0.303   3.092
 2239SOL    HW2 7617   3.377   0.251   3.002
 2240SOL     OW 7618   4.740   5.389   2.869
 2240SOL    HW1 7619   4.706   5.480   2.892
 2240SOL    HW2 7620   4.815   5.396   2.804
 2241SOL     OW 7621   1.513   2.056   3.227
 2241SOL    HW1 7622   1.593   2.006   3.194
 2241SOL    HW2 7623   1.483   2.122   3.159
 2242SOL     OW 7624   5.354   2.575   4.272
 2242SOL    HW1 7625   5.296   2.499   4.241
 2242SOL    HW2 7626   5.444   2.568   4.230
 2243SOL     OW 7627   2.416   0.390   0.264
 2243SOL    HW1 7628   2.499   0.334   0.259
 2243SOL    HW2 7629   2.429   0.474   0.212
 2244SOL     OW 7630   2.101   1.967   1.116
 2244SOL    HW1 7631   2.139   2.055   1.089
 2244SOL    HW2 7632   2.026   1.982   1.182
 2245SOL     OW 7633   6.890   1.396   0.171
 2245SOL    HW1 7634   6.867   1.299   0.176
 2245SOL    HW2 7635   6.955   1.418   0.244
 2246SOL     OW 7636   5.730   0.797   5.721
 2246SOL    HW1 7637   5.740   0.702   5.691
 2246SOL    HW2 7638   5.646   0.806   5.776
 2247SOL     OW 7639   3.998   3.385   1.677
 2247SOL    HW1 7640   3.957   3.467   1.717
 2247SOL    HW2 7641   3.957   3.368   1.587
 2248SOL     OW 7642   5.326   2.969   4.537
 2248SOL    HW1 7643   5.291   3.062   4.526
 2248SOL    HW2 7644   5.263   2.916   4.593
 2249SOL     OW 7645   2.516   6.106   3.670
 2249SOL    HW1 7646   2.436   6.097   3.729
 2249SOL    HW2 7647   2.567   6.188   3.695
 2250SOL     OW 7648   4.312   6.002   5.897
 2250SOL    HW1 7649   4.287   5.909   5.868
 2250SOL    HW2 7650   4.327   6.002   5.996
 2251SOL     OW 7651   3.749   6.704   4.903
 2251SOL    HW1 7652   3.804   6.766   4.958
 2251SOL    HW2 7653   3.722   6.624   4.957
 2252SOL     OW 7654   3.772   1.369   2.358
 2252SOL    HW1 7655   3.673   1.385   2.359
 2252SOL    HW2 7656   3.815   1.431   2.293
 2253SOL     OW 7657   1.250   2.372   1.837
 2253SOL    HW1 7658   1.320   2.405   1.773
 2253SOL    HW2 7659   1.174   2.334   1.785
 2254SOL     OW 7660   3.617   3.004   2.513
 2254SOL    HW1 7661   3.620   3.103   2.524
 2254SOL    HW2 7662   3.527   2.970   2.540
 2255SOL     OW 7663   1.794   1.649   6.317
 2255SOL    HW1 7664   1.868   1.714   6.301
 2255SOL    HW2 7665   1.707   1.699   6.321
 2256SOL     OW 7666   4.891   0.147   1.298
 2256SOL    HW1 7667   4.893   0.194   1.210
 2256SOL    HW2 7668   4.834   0.066   1.291
 2257SOL     OW 7669   0.441   1.071   6.407
 2257SOL    HW1 7670   0.403   1.090   6.317
 2257SOL    HW2 7671   0.367   1.054   6.472
 2258SOL     OW 7672   1.914   0.381   3.297
 2258SOL    HW1 7673   2.006   0.411   3.321
 2258SOL    HW2 7674   1.911   0.358   3.200
 2259SOL     OW 7675   6.051   7.004   5.209
 2259SOL    HW1 7676   6.082   0.007   5.301
 2259SOL    HW2 7677   6.035   6.905   5.203
 2260SOL     OW 7678   1.269   3.535   1.284
 2260SOL    HW1 7679   1.204   3.566   1.214
 2260SOL    HW2 7680   1.360   3.573   1.264
 2261SOL     OW 7681   4.206   4.570   6.449
 2261SOL    HW1 7682   4.146   4.591   6.372
 2261SOL    HW2 7683   4.224   4.653   6.501
 2262SOL     OW 7684   6.565   0.797   3.494
 2262SOL    HW1 7685   6.572   0.853   3.411
 2262SOL    HW2 7686   6.489   0.733   3.484
 2263SOL     OW 7687   2.485   4.206   6.720
 2263SOL    HW1 7688   2.504   4.281   6.785
 2263SOL    HW2 7689   2.549   4.212   6.644
 2264SOL     OW 7690   1.948   0.589   6.849
 2264SOL    HW1 7691   1.933   0.674   6.800
 2264SOL    HW2 7692   1.864   0.562   6.896
 2265SOL     OW 7693   0.384   6.399   3.791
 2265SOL    HW1 7694   0.374   6.348   3.706
 2265SOL    HW2 7695   0.470   6.451   3.788
 2266SOL     OW 7696   4.099   4.001   6.789
 2266SOL    HW1 7697   4.124   4.069   6.859
 2266SOL    HW2 7698   4.005   4.016   6.760
 2267SOL     OW 7699   5.711   3.200   4.716
 2267SOL    HW1 7700   5.641   3.130   4.729
 2267SOL    HW2 7701   5.682   3.285   4.761
 2268SOL     OW 7702   1.096   6.108   4.682
 2268SOL    HW1 7703   1.059   6.015   4.683
 2268SOL    HW2 7704   1.062   6.158   4.762
 2269SOL     OW 7705   1.540   2.047   5.492
 2269SOL    HW1 7706   1.627   2.061   5.444
 2269SOL    HW2 7707   1.522   2.126   5.551
 2270SOL     OW 7708   4.221   1.534   6.409
 2270SOL    HW1 7709   4.229   1.550   6.508
 2270SOL    HW2 7710   4.173   1.610   6.367
 2271SOL     OW 7711   4.178   5.882   5.115
 2271SOL    HW1 7712   4.115   5.825   5.168
 2271SOL    HW2 7713   4.166   5.863   5.018
 2272SOL     OW 7714   5.974   1.241   6.126
 2272SOL    HW1 7715   5.995   1.222   6.222
 2272SOL    HW2 7716   6.019   1.173   6.068
 2273SOL     OW 7717   2.176   2.001   4.533
 2273SOL    HW1 7718   2.194   1.943   4.453
 2273SOL    HW2 7719   2.256   2.057   4.552
 2274SOL     OW 7720   1.209   1.078   0.164
 2274SOL    HW1 7721   1.183   1.127   0.247
 2274SOL    HW2 7722   1.211   1.142   0.087
 2275SOL     OW 7723   5.240   3.622   2.860
 2275SOL    HW1 7724   5.228   3.674   2.945
 2275SOL    HW2 7725   5.192   3.668   2.786
 2276SOL     OW 7726   2.058   1.720   1.406
 2276SOL    HW1 7727   1.994   1.733   1.482
 2276SOL    HW2 7728   2.008   1.724   1.320
 2277SOL     OW 7729   4.136   3.330   3.463
 2277SOL    HW1 7730   4.128   3.429   3.454
 2277SOL    HW2 7731   4.143   3.306   3.560
 2278SOL     OW 7732   6.712   3.637   3.780
 2278SOL    HW1 7733   6.694   3.681   3.868
 2278SOL    HW2 7734   6.730   3.540   3.795
 2279SOL     OW 7735   0.614   5.548   5.956
 2279SOL    HW1 7736   0.678   5.596   5.896
 2279SOL    HW2 7737   0.665   5.493   6.023
 2280SOL     OW 7738   5.058   2.697   5.262
 2280SOL    HW1 7739   5.106   2.768   5.314
 2280SOL    HW2 7740   5.013   2.738   5.183
 2281SOL     OW 7741   5.196   6.766   2.380
 2281SOL    HW1 7742   5.181   6.668   2.395
 2281SOL    HW2 7743   5.153   6.793   2.293
 2282SOL     OW 7744   3.670   5.226   5.743
 2282SOL    HW1 7745   3.629   5.172   5.817
 2282SOL    HW2 7746   3.646   5.322   5.754
 2283SOL     OW 7747   6.745   0.479   5.523
 2283SOL    HW1 7748   6.829   0.434   5.554
 2283SOL    HW2 7749   6.758   0.578   5.527
 2284SOL     OW 7750   1.563   4.077   6.085
 2284SOL    HW1 7751   1.570   4.012   6.161
 2284SOL    HW2 7752   1.654   4.115   6.065
 2285SOL     OW 7753   1.578   5.253   0.221
 2285SOL    HW1 7754   1.480   5.234   0.228
 2285SOL    HW2 7755   1.601   5.271   0.125
 2286SOL     OW 7756   4.748   4.521   2.343
 2286SOL    HW1 7757   4.743   4.470   2.429
 2286SOL    HW2 7758   4.661   4.512   2.294
 2287SOL     OW 7759   2.021   1.354   3.870
 2287SOL    HW1 7760   2.117   1.377   3.886
 2287SOL    HW2 7761   2.012   1.314   3.779
 2288SOL     OW 7762   6.636   4.864   2.799
 2288SOL    HW1 7763   6.718   4.914   2.771
 2288SOL    HW2 7764   6.572   4.927   2.843
 2289SOL     OW 7765   0.435   4.534   0.144
 2289SOL    HW1 7766   0.505   4.498   0.081
 2289SOL    HW2 7767   0.479   4.579   0.221
 2290SOL     OW 7768   0.859   4.944   7.015
 2290SOL    HW1 7769   0.847   5.025   0.051
 2290SOL    HW2 7770   0.919   4.879   0.042
 2291SOL     OW 7771   1.919   1.322   0.087
 2291SOL    HW1 7772   1.979   1.393   0.125
 2291SOL    HW2 7773   1.926   1.324   7.007
 2292SOL     OW 7774   2.178   0.855   4.845
 2292SOL    HW1 7775   2.187   0.946   4.886
 2292SOL    HW2 7776   2.096   0.852   4.788
 2293SOL     OW 7777   5.149   3.913   3.381
 2293SOL    HW1 7778   5.170   3.917   3.283
 2293SOL    HW2 7779   5.066   3.859   3.395
 2294SOL     OW 7780   3.952   0.130   6.430
 2294SOL    HW1 7781   3.944   0.081   6.517
 2294SOL    HW2 7782   3.863   0.167   6.404
 2295SOL     OW 7783   0.879   0.487   1.727
 2295SOL    HW1 7784   0.903   0.545   1.805
 2295SOL    HW2 7785   0.963   0.453   1.685
 2296SOL     OW 7786   2.995   6.294   6.759
 2296SOL    HW1 7787   3.058   6.312   6.684
 2296SOL    HW2 7788   2.907   6.338   6.740
 2297SOL     OW 7789   4.081   5.949   6.289
 2297SOL    HW1 7790   4.043   6.028   6.337
 2297SOL    HW2 7791   4.038   5.941   6.199
 2298SOL     OW 7792   4.610   2.950   6.638
 2298SOL    HW1 7793   4.677   2.959   6.711
 2298SOL    HW2 7794   4.600   2.854   6.613
 2299SOL     OW 7795   4.928   0.289   1.539
 2299SOL    HW1 7796   5.026   0.275   1.552
 2299SOL    HW2 7797   4.899   0.247   1.453
 2300SOL     OW 7798   0.905   4.801   0.973
 2300SOL    HW1 7799   0.984   4.787   0.914
 2300SOL    HW2 7800   0.888   4.719   1.027
 2301SOL     OW 7801   3.407   2.819   1.360
 2301SOL    HW1 7802   3.421   2.732   1.407
 2301SOL    HW2 7803   3.477   2.884   1.390
 2302SOL     OW 7804   3.047   5.358   3.066
 2302SOL    HW1 7805   3.085   5.375   3.157
 2302SOL    HW2 7806   2.984   5.281   3.070
 2303SOL     OW 7807   0.648   3.512   5.880
 2303SOL    HW1 7808   0.671   3.415   5.870
 2303SOL    HW2 7809   0.728   3.561   5.917
 2304SOL     OW 7810   1.745   0.931   4.671
 2304SOL    HW1 7811   1.683   0.858   4.699
 2304SOL    HW2 7812   1.698   1.019   4.680
 2305SOL     OW 7813   4.268   4.941   1.614
 2305SOL    HW1 7814   4.307   5.033   1.608
 2305SOL    HW2 7815   4.274   4.897   1.524
 2306SOL     OW 7816   0.515   4.548   0.416
 2306SOL    HW1 7817   0.479   4.595   0.496
 2306SOL    HW2 7818   0.608   4.515   0.436
 2307SOL     OW 7819   0.224   1.078   3.259
 2307SOL    HW1 7820   0.208   1.172   3.229
 2307SOL    HW2 7821   0.247   1.077   3.356
 2308SOL     OW 7822   0.818   0.279   0.216
 2308SOL    HW1 7823   0.876   0.283   0.297
 2308SOL    HW2 7824   0.724   0.305   0.241
 2309SOL     OW 7825   1.884   5.172   6.525
 2309SOL    HW1 7826   1.911   5.133   6.613
 2309SOL    HW2 7827   1.922   5.118   6.450
 2310SOL     OW 7828   5.636   1.401   3.418
 2310SOL    HW1 7829   5.619   1.492   3.456
 2310SOL    HW2 7830   5.660   1.409   3.321
 2311SOL     OW 7831   2.758   6.918   2.614
 2311SOL    HW1 7832   2.724   6.914   2.708
 2311SOL    HW2 7833   2.756   7.013   2.582
 2312SOL     OW 7834   2.470   0.572   2.019
 2312SOL    HW1 7835   2.381   0.537   1.991
 2312SOL    HW2 7836   2.540   0.542   1.954
 2313SOL     OW 7837   4.959   4.673   1.508
 2313SOL    HW1 7838   4.887   4.608   1.530
 2313SOL    HW2 7839   4.919   4.764   1.493
 2314SOL     OW 7840   6.934   6.036   2.992
 2314SOL    HW1 7841   6.848   5.992   3.018
 2314SOL    HW2 7842   6.991   6.049   3.073
 2315SOL     OW 7843   5.105   6.629   5.025
 2315SOL    HW1 7844   5.173   6.656   4.957
 2315SOL    HW2 7845   5.143   6.557   5.083
 2316SOL     OW 7846   3.988   2.465   6.489
 2316SOL    HW1 7847   3.896   2.427   6.494
 2316SOL    HW2 7848   3.985   2.563   6.507
 2317SOL     OW 7849   0.244   5.025   2.097
 2317SOL    HW1 7850   0.186   4.956   2.055
 2317SOL    HW2 7851   0.243   5.014   2.197
 2318SOL     OW 7852   1.273   4.726   3.948
 2318SOL    HW1 7853   1.316   4.637   3.964
 2318SOL    HW2 7854   1.278   4.749   3.851
 2319SOL     OW 7855   2.612   5.056   3.011
 2319SOL    HW1 7856   2.521   5.036   2.974
 2319SOL    HW2 7857   2.681   5.034   2.942
 2320SOL     OW 7858   1.334   2.020   5.107
 2320SOL    HW1 7859   1.304   2.107   5.147
 2320SOL    HW2 7860   1.394   2.037   5.029
 2321SOL     OW 7861   1.935   5.212   5.492
 2321SOL    HW1 7862   2.025   5.226   5.451
 2321SOL    HW2 7863   1.866   5.205   5.419
 2322SOL     OW 7864   1.869   3.263   1.780
 2322SOL    HW1 7865   1.877   3.342   1.840
 2322SOL    HW2 7866   1.855   3.180   1.834
 2323SOL     OW 7867   2.242   5.995   6.428
 2323SOL    HW1 7868   2.180   5.944   6.368
 2323SOL    HW2 7869   2.331   5.949   6.430
 2324SOL     OW 7870   6.434   4.482   2.637
 2324SOL    HW1 7871   6.426   4.419   2.560
 2324SOL    HW2 7872   6.490   4.561   2.610
 2325SOL     OW 7873   6.851   3.714   2.571
 2325SOL    HW1 7874   6.778   3.660   2.613
 2325SOL    HW2 7875   6.836   3.718   2.472
 2326SOL     OW 7876   2.145   0.216   0.324
 2326SOL    HW1 7877   2.151   0.117   0.337
 2326SOL    HW2 7878   2.237   0.255   0.324
 2327SOL     OW 7879   6.151   6.241   1.952
 2327SOL    HW1 7880   6.062   6.212   1.918
 2327SOL    HW2 7881   6.207   6.160   1.970
 2328SOL     OW 7882   2.174   3.953   2.271
 2328SOL    HW1 7883   2.178   4.023   2.200
 2328SOL    HW2 7884   2.096   3.893   2.255
 2329SOL     OW 7885   1.041   4.769   1.741
 2329SOL    HW1 7886   1.015   4.748   1.835
 2329SOL    HW2 7887   1.111   4.840   1.740
 2330SOL     OW 7888   5.867   3.436   1.688
 2330SOL    HW1 7889   5.933   3.365   1.666
 2330SOL    HW2 7890   5.774   3.398   1.684
 2331SOL     OW 7891   4.760   5.267   1.515
 2331SOL    HW1 7892   4.691   5.202   1.484
 2331SOL    HW2 7893   4.771   5.338   1.445
 2332SOL     OW 7894   5.792   0.261   6.337
 2332SOL    HW1 7895   5.872   0.309   6.303
 2332SOL    HW2 7896   5.724   0.328   6.368
 2333SOL     OW 7897   1.724   4.677   2.513
 2333SOL    HW1 7898   1.733   4.577   2.515
 2333SOL    HW2 7899   1.727   4.709   2.418
 2334SOL     OW 7900   3.686   1.259   5.938
 2334SOL    HW1 7901   3.729   1.278   6.026
 2334SOL    HW2 7902   3.631   1.176   5.945
 2335SOL     OW 7903   6.079   0.461   3.427
 2335SOL    HW1 7904   6.006   0.434   3.491
 2335SOL    HW2 7905   6.168   0.449   3.471
 2336SOL     OW 7906   1.578   1.592   3.102
 2336SOL    HW1 7907   1.578   1.519   3.170
 2336SOL    HW2 7908   1.525   1.562   3.022
 2337SOL     OW 7909   4.345   0.999   2.384
 2337SOL    HW1 7910   4.351   1.029   2.289
 2337SOL    HW2 7911   4.248   0.996   2.412
 2338SOL     OW 7912   6.994   3.831   3.842
 2338SOL    HW1 7913   6.907   3.856   3.799
 2338SOL    HW2 7914   0.048   3.837   3.774
 2339SOL     OW 7915   3.344   2.963   2.569
 2339SOL    HW1 7916   3.280   2.928   2.501
 2339SOL    HW2 7917   3.319   3.057   2.593
 2340SOL     OW 7918   1.861   3.859   6.399
 2340SOL    HW1 7919   1.905   3.916   6.469
 2340SOL    HW2 7920   1.929   3.798   6.358
 2341SOL     OW 7921   2.957   4.793   4.178
 2341SOL    HW1 7922   2.986   4.821   4.270
 2341SOL    HW2 7923   3.034   4.801   4.115
 2342SOL     OW 7924   3.681   1.797   4.574
 2342SOL    HW1 7925   3.703   1.891   4.597
 2342SOL    HW2 7926   3.652   1.748   4.656
 2343SOL     OW 7927   6.717   0.121   0.935
 2343SOL    HW1 7928   6.618   0.112   0.943
 2343SOL    HW2 7929   6.759   0.110   1.025
 2344SOL     OW 7930   6.094   4.530   0.308
 2344SOL    HW1 7931   6.022   4.498   0.246
 2344SOL    HW2 7932   6.084   4.629   0.323
 2345SOL     OW 7933   3.527   6.279   3.890
 2345SOL    HW1 7934   3.565   6.296   3.799
 2345SOL    HW2 7935   3.444   6.224   3.881
 2346SOL     OW 7936   5.012   3.482   0.473
 2346SOL    HW1 7937   4.999   3.399   0.420
 2346SOL    HW2 7938   5.093   3.530   0.439
 2347SOL     OW 7939   1.667   1.260   0.944
 2347SOL    HW1 7940   1.604   1.234   0.871
 2347SOL    HW2 7941   1.759   1.226   0.923
 2348SOL     OW 7942   0.338   5.701   2.394
 2348SOL    HW1 7943   0.281   5.644   2.453
 2348SOL    HW2 7944   0.392   5.643   2.334
 2349SOL     OW 7945   0.950   4.800   4.701
 2349SOL    HW1 7946   0.912   4.890   4.723
 2349SOL    HW2 7947   0.941   4.740   4.780
 2350SOL     OW 7948   5.720   3.954   0.588
 2350SOL    HW1 7949   5.766   4.012   0.655
 2350SOL    HW2 7950   5.785   3.886   0.553
 2351SOL     OW 7951   2.520   5.819   1.351
 2351SOL    HW1 7952   2.445   5.754   1.354
 2351SOL    HW2 7953   2.546   5.836   1.255
 2352SOL     OW 7954   6.933   2.546   3.377
 2352SOL    HW1 7955   6.986   2.564   3.294
 2352SOL    HW2 7956   6.837   2.569   3.360
 2353SOL     OW 7957   3.135   6.309   4.087
 2353SOL    HW1 7958   3.149   6.408   4.079
 2353SOL    HW2 7959   3.109   6.287   4.181
 2354SOL     OW 7960   2.573   2.329   4.292
 2354SOL    HW1 7961   2.579   2.291   4.384
 2354SOL    HW2 7962   2.665   2.343   4.255
 2355SOL     OW 7963   2.409   5.462   4.444
 2355SOL    HW1 7964   2.474   5.411   4.388
 2355SOL    HW2 7965   2.324   5.475   4.394
 2356SOL     OW 7966   6.845   2.653   0.137
 2356SOL    HW1 7967   6.883   2.561   0.123
 2356SOL    HW2 7968   6.745   2.649   0.135
 2357SOL     OW 7969   2.339   6.650   2.931
 2357SOL    HW1 7970   2.349   6.684   3.024
 2357SOL    HW2 7971   2.257   6.689   2.890
 2358SOL     OW 7972   4.673   5.399   5.965
 2358SOL    HW1 7973   4.723   5.467   6.018
 2358SOL    HW2 7974   4.631   5.333   6.027
 2359SOL     OW 7975   1.424   0.075   5.430
 2359SOL    HW1 7976   1.401   0.168   5.457
 2359SOL    HW2 7977   1.340   0.021   5.420
 2360SOL     OW 7978   6.851   3.702   0.141
 2360SOL    HW1 7979   6.945   3.673   0.120
 2360SOL    HW2 7980   6.854   3.788   0.193
 2361SOL     OW 7981   3.237   1.186   0.609
 2361SOL    HW1 7982   3.193   1.096   0.615
 2361SOL    HW2 7983   3.178   1.249   0.558
 2362SOL     OW 7984   2.873   5.146   3.106
 2362SOL    HW1 7985   2.788   5.100   3.079
 2362SOL    HW2 7986   2.876   5.156   3.205
 2363SOL     OW 7987   3.861   0.335   3.769
 2363SOL    HW1 7988   3.764   0.356   3.757
 2363SOL    HW2 7989   3.874   0.285   3.854
 2364SOL     OW 7990   1.008   2.323   1.245
 2364SOL    HW1 7991   0.993   2.333   1.147
 2364SOL    HW2 7992   1.043   2.231   1.264
 2365SOL     OW 7993   5.340   1.907   0.604
 2365SOL    HW1 7994   5.329   2.006   0.595
 2365SOL    HW2 7995   5.396   1.873   0.529
 2366SOL     OW 7996   4.451   5.602   0.517
 2366SOL    HW1 7997   4.535   5.564   0.556
 2366SOL    HW2 7998   4.372   5.557   0.556
 2367SOL     OW 7999   2.326   3.298   6.006
 2367SOL    HW1 8000   2.303   3.274   5.912
 2367SOL    HW2 8001   2.256   3.261   6.068
 2368SOL     OW 8002   5.582   5.853   1.976
 2368SOL    HW1 8003   5.517   5.788   2.016
 2368SOL    HW2 8004   5.558   5.946   2.006
 2369SOL     OW 8005   2.279   1.553   3.331
 2369SOL    HW1 8006   2.204   1.540   3.395
 2369SOL    HW2 8007   2.244   1.591   3.245
 2370SOL     OW 8008   5.723   2.782   6.049
 2370SOL    HW1 8009   5.724   2.784   5.949
 2370SOL    HW2 8010   5.649   2.840   6.083
 2371SOL     OW 8011   1.369   5.744   1.907
 2371SOL    HW1 8012   1.320   5.788   1.831
 2371SOL    HW2 8013   1.356   5.798   1.990
 2372SOL     OW 8014   6.523   2.250   3.271
 2372SOL    HW1 8015   6.614   2.233   3.310
 2372SOL    HW2 8016   6.460   2.277   3.344
 2373SOL     OW 8017   2.451   3.498   6.524
 2373SOL    HW1 8018   2.428   3.499   6.427
 2373SOL    HW2 8019   2.498   3.412   6.546
 2374SOL     OW 8020   5.099   2.439   4.934
 2374SOL    HW1 8021   5.082   2.348   4.897
 2374SOL    HW2 8022   5.028   2.502   4.900
 2375SOL     OW 8023   0.922   6.975   5.627
 2375SOL    HW1 8024   0.834   7.019   5.606
 2375SOL    HW2 8025   0.906   6.883   5.663
 2376SOL     OW 8026   0.070   2.286   3.930
 2376SOL    HW1 8027   0.019   2.296   4.016
 2376SOL    HW2 8028   0.010   2.246   3.861
 2377SOL     OW 8029   3.356   2.971   3.923
 2377SOL    HW1 8030   3.421   2.955   3.997
 2377SOL    HW2 8031   3.383   2.918   3.843
 2378SOL     OW 8032   5.146   1.987   1.027
 2378SOL    HW1 8033   5.111   2.067   0.978
 2378SOL    HW2 8034   5.138   1.906   0.970
 2379SOL     OW 8035   6.619   0.262   6.090
 2379SOL    HW1 8036   6.541   0.205   6.066
 2379SOL    HW2 8037   6.591   0.357   6.096
 2380SOL     OW 8038   6.169   2.089   3.348
 2380SOL    HW1 8039   6.159   1.991   3.364
 2380SOL    HW2 8040   6.257   2.120   3.385
 2381SOL     OW 8041   1.677   6.101   2.420
 2381SOL    HW1 8042   1.649   6.040   2.346
 2381SOL    HW2 8043   1.772   6.080   2.446
 2382SOL     OW 8044   1.898   2.298   5.911
 2382SOL    HW1 8045   1.940   2.235   5.846
 2382SOL    HW2 8046   1.814   2.258   5.948
 2383SOL     OW 8047   5.689   5.378   1.335
 2383SOL    HW1 8048   5.704   5.295   1.280
 2383SOL    HW2 8049   5.728   5.365   1.426
 2384SOL     OW 8050   4.301   1.493   1.280
 2384SOL    HW1 8051   4.346   1.483   1.191
 2384SOL    HW2 8052   4.295   1.404   1.324
 2385SOL     OW 8053   1.210   2.747   6.991
 2385SOL    HW1 8054   1.151   2.724   6.913
 2385SOL    HW2 8055   1.305   2.745   6.962
 2386SOL     OW 8056   4.301   4.619   2.816
 2386SOL    HW1 8057   4.383   4.582   2.773
 2386SOL    HW2 8058   4.319   4.634   2.914
 2387SOL     OW 8059   1.245   1.357   2.703
 2387SOL    HW1 8060   1.190   1.423   2.651
 2387SOL    HW2 8061   1.194   1.272   2.714
 2388SOL     OW 8062   6.700   1.462   4.255
 2388SOL    HW1 8063   6.764   1.525   4.299
 2388SOL    HW2 8064   6.609   1.475   4.294
 2389SOL     OW 8065   3.695   6.622   2.124
 2389SOL    HW1 8066   3.649   6.587   2.043
 2389SOL    HW2 8067   3.676   6.720   2.134
 2390SOL     OW 8068   3.164   4.705   1.033
 2390SOL    HW1 8069   3.120   4.632   1.085
 2390SOL    HW2 8070   3.259   4.715   1.063
 2391SOL     OW 8071   4.174   5.299   4.325
 2391SOL    HW1 8072   4.109   5.375   4.322
 2391SOL    HW2 8073   4.249   5.316   4.261
 2392SOL     OW 8074   4.242   1.108   6.842
 2392SOL    HW1 8075   4.265   1.011   6.836
 2392SOL    HW2 8076   4.145   1.121   6.821
 2393SOL     OW 8077   3.662   5.446   4.995
 2393SOL    HW1 8078   3.569   5.472   4.970
 2393SOL    HW2 8079   3.726   5.491   4.932
 2394SOL     OW 8080   0.443   5.012   5.317
 2394SOL    HW1 8081   0.391   5.024   5.402
 2394SOL    HW2 8082   0.384   4.969   5.248
 2395SOL     OW 8083   4.391   6.334   6.414
 2395SOL    HW1 8084   4.358   6.251   6.459
 2395SOL    HW2 8085   4.342   6.347   6.327
 2396SOL     OW 8086   2.860   6.290   0.609
 2396SOL    HW1 8087   2.888   6.215   0.549
 2396SOL    HW2 8088   2.923   6.294   0.687
 2397SOL     OW 8089   0.740   3.051   4.452
 2397SOL    HW1 8090   0.770   3.128   4.509
 2397SOL    HW2 8091   0.815   3.024   4.392
 2398SOL     OW 8092   4.929   3.763   5.423
 2398SOL    HW1 8093   4.944   3.666   5.441
 2398SOL    HW2 8094   4.968   3.786   5.334
 2399SOL     OW 8095   4.959   2.521   1.520
 2399SOL    HW1 8096   4.918   2.607   1.487
 2399SOL    HW2 8097   4.916   2.495   1.606
 2400SOL     OW 8098   1.540   4.345   0.184
 2400SOL    HW1 8099   1.461   4.366   0.242
 2400SOL    HW2 8100   1.534   4.399   0.100
 2401SOL     OW 8101   6.221   5.851   6.703
 2401SOL    HW1 8102   6.155   5.863   6.629
 2401SOL    HW2 8103   6.229   5.937   6.754
 2402SOL     OW 8104   6.800   6.719   4.120
 2402SOL    HW1 8105   6.824   6.668   4.203
 2402SOL    HW2 8106   6.733   6.667   4.067
 2403SOL     OW 8107   1.157   0.809   3.420
 2403SOL    HW1 8108   1.165   0.907   3.398
 2403SOL    HW2 8109   1.081   0.796   3.484
 2404SOL     OW 8110   1.363   0.150   0.078
 2404SOL    HW1 8111   1.413   0.196   0.152
 2404SOL    HW2 8112   1.428   0.095   0.025
 2405SOL     OW 8113   3.188   4.807   1.462
 2405SOL    HW1 8114   3.219   4.712   1.468
 2405SOL    HW2 8115   3.231   4.851   1.383
 2406SOL     OW 8116   4.816   1.678   1.268
 2406SOL    HW1 8117   4.889   1.659   1.202
 2406SOL    HW2 8118   4.729   1.685   1.220
 2407SOL     OW 8119   5.058   6.975   3.490
 2407SOL    HW1 8120   5.051   6.996   3.587
 2407SOL    HW2 8121   5.144   6.928   3.472
 2408SOL     OW 8122   4.168   4.690   2.006
 2408SOL    HW1 8123   4.259   4.701   2.046
 2408SOL    HW2 8124   4.099   4.694   2.078
 2409SOL     OW 8125   1.437   3.914   0.940
 2409SOL    HW1 8126   1.494   3.957   1.010
 2409SOL    HW2 8127   1.471   3.822   0.921
 2410SOL     OW 8128   3.839   3.859   2.976
 2410SOL    HW1 8129   3.934   3.832   2.962
 2410SOL    HW2 8130   3.799   3.885   2.888
 2411SOL     OW 8131   3.789   0.309   5.117
 2411SOL    HW1 8132   3.702   0.352   5.142
 2411SOL    HW2 8133   3.829   0.358   5.040
 2412SOL     OW 8134   4.225   3.500   0.921
 2412SOL    HW1 8135   4.272   3.579   0.881
 2412SOL    HW2 8136   4.192   3.523   1.012
 2413SOL     OW 8137   3.368   0.519   3.251
 2413SOL    HW1 8138   3.286   0.574   3.233
 2413SOL    HW2 8139   3.374   0.446   3.183
 2414SOL     OW 8140   4.815   3.038   4.406
 2414SOL    HW1 8141   4.844   2.998   4.319
 2414SOL    HW2 8142   4.739   3.101   4.389
 2415SOL     OW 8143   3.774   0.226   3.331
 2415SOL    HW1 8144   3.684   0.262   3.358
 2415SOL    HW2 8145   3.782   0.132   3.362
 2416SOL     OW 8146   5.381   2.038   6.301
 2416SOL    HW1 8147   5.437   2.096   6.361
 2416SOL    HW2 8148   5.407   1.943   6.314
 2417SOL     OW 8149   2.944   3.843   5.641
 2417SOL    HW1 8150   2.884   3.897   5.582
 2417SOL    HW2 8151   2.887   3.789   5.704
 2418SOL     OW 8152   3.660   2.844   2.306
 2418SOL    HW1 8153   3.650   2.881   2.398
 2418SOL    HW2 8154   3.714   2.760   2.310
 2419SOL     OW 8155   6.679   0.445   4.114
 2419SOL    HW1 8156   6.621   0.525   4.127
 2419SOL    HW2 8157   6.775   0.470   4.130
 2420SOL     OW 8158   2.062   0.178   1.869
 2420SOL    HW1 8159   2.126   0.102   1.857
 2420SOL    HW2 8160   2.069   0.240   1.791
 2421SOL     OW 8161   4.560   2.399   3.175
 2421SOL    HW1 8162   4.463   2.376   3.170
 2421SOL    HW2 8163   4.590   2.433   3.085
 2422SOL     OW 8164   5.335   1.709   1.241
 2422SOL    HW1 8165   5.333   1.661   1.329
 2422SOL    HW2 8166   5.257   1.680   1.185
 2423SOL     OW 8167   1.205   5.068   2.426
 2423SOL    HW1 8168   1.263   4.986   2.421
 2423SOL    HW2 8169   1.219   5.112   2.514
 2424SOL     OW 8170   6.618   6.706   6.675
 2424SOL    HW1 8171   6.646   6.754   6.758
 2424SOL    HW2 8172   6.523   6.678   6.683
 2425SOL     OW 8173   6.895   0.071   4.444
 2425SOL    HW1 8174   6.833   0.013   4.391
 2425SOL    HW2 8175   6.988   0.035   4.436
 2426SOL     OW 8176   1.543   5.705   4.306
 2426SOL    HW1 8177   1.503   5.797   4.314
 2426SOL    HW2 8178   1.470   5.637   4.302
 2427SOL     OW 8179   5.845   0.670   5.040
 2427SOL    HW1 8180   5.875   0.621   4.958
 2427SOL    HW2 8181   5.747   0.654   5.054
 2428SOL     OW 8182   5.615   2.205   0.565
 2428SOL    HW1 8183   5.599   2.111   0.537
 2428SOL    HW2 8184   5.556   2.267   0.513
 2429SOL     OW 8185   4.729   4.377   2.586
 2429SOL    HW1 8186   4.747   4.289   2.629
 2429SOL    HW2 8187   4.650   4.420   2.629
 2430SOL     OW 8188   5.349   0.061   2.039
 2430SOL    HW1 8189   5.388   0.035   2.127
 2430SOL    HW2 8190   5.308   7.001   1.996
 2431SOL     OW 8191   4.335   6.812   2.234
 2431SOL    HW1 8192   4.386   6.779   2.155
 2431SOL    HW2 8193   4.237   6.812   2.213
 2432SOL     OW 8194   2.833   5.727   2.469
 2432SOL    HW1 8195   2.807   5.664   2.542
 2432SOL    HW2 8196   2.926   5.761   2.485
 2433SOL     OW 8197   5.034   0.072   0.458
 2433SOL    HW1 8198   4.967   0.138   0.424
 2433SOL    HW2 8199   4.994   7.000   0.457
 2434SOL     OW 8200   3.392   2.923   5.032
 2434SOL    HW1 8201   3.329   2.911   5.109
 2434SOL    HW2 8202   3.347   2.977   4.961
 2435SOL     OW 8203   5.535   5.164   6.530
 2435SOL    HW1 8204   5.484   5.156   6.616
 2435SOL    HW2 8205   5.510   5.249   6.484
 2436SOL     OW 8206   3.474   4.329   0.775
 2436SOL    HW1 8207   3.395   4.380   0.808
 2436SOL    HW2 8208   3.510   4.272   0.850
 2437SOL     OW 8209   0.120   1.049   5.606
 2437SOL    HW1 8210   0.195   1.026   5.545
 2437SOL    HW2 8211   0.143   1.021   5.699
 2438SOL     OW 8212   3.480   3.500   0.578
 2438SOL    HW1 8213   3.446   3.550   0.658
 2438SOL    HW2 8214   3.482   3.561   0.499
 2439SOL     OW 8215   6.342   4.073   6.439
 2439SOL    HW1 8216   6.328   4.140   6.511
 2439SOL    HW2 8217   6.283   4.095   6.361
 2440SOL     OW 8218   6.241   4.956   6.142
 2440SOL    HW1 8219   6.243   5.018   6.064
 2440SOL    HW2 8220   6.146   4.927   6.159
 2441SOL     OW 8221   6.550   2.187   0.719
 2441SOL    HW1 8222   6.455   2.216   0.709
 2441SOL    HW2 8223   6.553   2.092   0.748
 2442SOL     OW 8224   6.772   1.590   4.486
 2442SOL    HW1 8225   6.727   1.678   4.468
 2442SOL    HW2 8226   6.726   1.544   4.561
 2443SOL     OW 8227   2.893   4.685   6.520
 2443SOL    HW1 8228   2.966   4.670   6.587
 2443SOL    HW2 8229   2.911   4.769   6.470
 2444SOL     OW 8230   3.690   2.545   6.252
 2444SOL    HW1 8231   3.703   2.639   6.218
 2444SOL    HW2 8232   3.654   2.488   6.179
 2445SOL     OW 8233   0.933   0.881   0.825
 2445SOL    HW1 8234   0.975   0.834   0.747
 2445SOL    HW2 8235   0.907   0.974   0.798
 2446SOL     OW 8236   5.169   2.839   6.283
 2446SOL    HW1 8237   5.233   2.909   6.252
 2446SOL    HW2 8238   5.173   2.760   6.222
 2447SOL     OW 8239   0.857   3.659   6.762
 2447SOL    HW1 8240   0.852   3.559   6.759
 2447SOL    HW2 8241   0.766   3.698   6.744
 2448SOL     OW 8242   6.091   0.401   4.847
 2448SOL    HW1 8243   6.041   0.487   4.850
 2448SOL    HW2 8244   6.094   0.367   4.752
 2449SOL     OW 8245   0.040   3.100   5.787
 2449SOL    HW1 8246   0.042   3.012   5.834
 2449SOL    HW2 8247   6.997   3.162   5.834
 2450SOL     OW 8248   2.621   2.915   1.091
 2450SOL    HW1 8249   2.704   2.913   1.146
 2450SOL    HW2 8250   2.542   2.894   1.149
 2451SOL     OW 8251   1.913   6.284   3.627
 2451SOL    HW1 8252   1.904   6.355   3.557
 2451SOL    HW2 8253   2.010   6.261   3.638
 2452SOL     OW 8254   2.946   1.637   4.133
 2452SOL    HW1 8255   2.965   1.624   4.230
 2452SOL    HW2 8256   3.030   1.662   4.085
 2453SOL     OW 8257   0.531   3.949   0.951
 2453SOL    HW1 8258   0.494   3.947   0.858
 2453SOL    HW2 8259   0.467   3.904   1.013
 2454SOL     OW 8260   0.527   0.066   2.075
 2454SOL    HW1 8261   0.606   0.007   2.060
 2454SOL    HW2 8262   0.465   0.058   1.996
 2455SOL     OW 8263   5.485   3.712   1.360
 2455SOL    HW1 8264   5.385   3.712   1.354
 2455SOL    HW2 8265   5.518   3.806   1.363
 2456SOL     OW 8266   2.847   6.349   1.446
 2456SOL    HW1 8267   2.813   6.409   1.518
 2456SOL    HW2 8268   2.786   6.355   1.366
 2457SOL     OW 8269   5.005   6.005   0.672
 2457SOL    HW1 8270   5.021   6.087   0.727
 2457SOL    HW2 8271   5.083   5.943   0.683
 2458SOL     OW 8272   0.273   6.608   1.828
 2458SOL    HW1 8273   0.358   6.652   1.799
 2458SOL    HW2 8274   0.272   6.513   1.797
 2459SOL     OW 8275   1.367   2.117   0.382
 2459SOL    HW1 8276   1.464   2.096   0.378
 2459SOL    HW2 8277   1.350   2.205   0.336
 2460SOL     OW 8278   2.099   4.386   0.750
 2460SOL    HW1 8279   2.037   4.312   0.774
 2460SOL    HW2 8280   2.106   4.394   0.650
 2461SOL     OW 8281   4.545   1.024   3.286
 2461SOL    HW1 8282   4.454   1.056   3.259
 2461SOL    HW2 8283   4.547   0.924   3.287
 2462SOL     OW 8284   3.037   4.964   6.613
 2462SOL    HW1 8285   3.023   4.866   6.625
 2462SOL    HW2 8286   3.001   5.013   6.693
 2463SOL     OW 8287   2.051   3.463   5.394
 2463SOL    HW1 8288   2.047   3.367   5.423
 2463SOL    HW2 8289   2.081   3.467   5.298
 2464SOL     OW 8290   0.952   3.352   0.903
 2464SOL    HW1 8291   0.999   3.311   0.825
 2464SOL    HW2 8292   0.929   3.447   0.882
 2465SOL     OW 8293   6.399   4.321   2.953
 2465SOL    HW1 8294   6.314   4.271   2.941
 2465SOL    HW2 8295   6.409   4.348   3.049
 2466SOL     OW 8296   4.046   1.953   1.794
 2466SOL    HW1 8297   4.063   2.021   1.866
 2466SOL    HW2 8298   4.128   1.945   1.737
 2467SOL     OW 8299   1.340   1.374   4.236
 2467SOL    HW1 8300   1.428   1.360   4.191
 2467SOL    HW2 8301   1.350   1.357   4.334
 2468SOL     OW 8302   6.530   4.949   6.597
 2468SOL    HW1 8303   6.602   4.980   6.659
 2468SOL    HW2 8304   6.547   4.854   6.570
 2469SOL     OW 8305   2.647   1.967   6.373
 2469SOL    HW1 8306   2.646   1.899   6.299
 2469SOL    HW2 8307   2.741   1.980   6.405
 2470SOL     OW 8308   5.186   2.909   0.778
 2470SOL    HW1 8309   5.091   2.890   0.752
 2470SOL    HW2 8310   5.227   2.827   0.817
 2471SOL     OW 8311   0.614   1.386   3.366
 2471SOL    HW1 8312   0.644   1.297   3.401
 2471SOL    HW2 8313   0.693   1.441   3.339
 2472SOL     OW 8314   6.613   0.736   4.504
 2472SOL    HW1 8315   6.708   0.751   4.534
 2472SOL    HW2 8316   6.553   0.736   4.584
 2473SOL     OW 8317   0.411   5.541   4.597
 2473SOL    HW1 8318   0.392   5.443   4.596
 2473SOL    HW2 8319   0.397   5.577   4.689
 2474SOL     OW 8320   5.754   6.776   4.025
 2474SOL    HW1 8321   5.730   6.872   4.040
 2474SOL    HW2 8322   5.836   6.754   4.079
 2475SOL     OW 8323   3.931   2.749   6.455
 2475SOL    HW1 8324   3.857   2.805   6.493
 2475SOL    HW2 8325   3.908   2.722   6.361
 2476SOL     OW 8326   0.648   1.611   3.886
 2476SOL    HW1 8327   0.615   1.673   3.957
 2476SOL    HW2 8328   0.699   1.536   3.928
 2477SOL     OW 8329   4.551   4.451   1.765
 2477SOL    HW1 8330   4.564   4.401   1.851
 2477SOL    HW2 8331   4.488   4.401   1.706
 2478SOL     OW 8332   6.998   0.687   2.059
 2478SOL    HW1 8333   6.917   0.735   2.025
 2478SOL    HW2 8334   6.968   0.607   2.112
 2479SOL     OW 8335   1.166   3.256   0.402
 2479SOL    HW1 8336   1.259   3.230   0.375
 2479SOL    HW2 8337   1.101   3.195   0.357
 2480SOL     OW 8338   6.559   4.904   0.371
 2480SOL    HW1 8339   6.599   4.821   0.411
 2480SOL    HW2 8340   6.496   4.879   0.298
 2481SOL     OW 8341   3.969   4.783   2.518
 2481SOL    HW1 8342   3.997   4.737   2.434
 2481SOL    HW2 8343   3.869   4.783   2.525
 2482SOL     OW 8344   3.766   2.038   4.659
 2482SOL    HW1 8345   3.739   2.025   4.755
 2482SOL    HW2 8346   3.834   2.111   4.652
 2483SOL     OW 8347   0.558   3.135   6.826
 2483SOL    HW1 8348   0.633   3.084   6.869
 2483SOL    HW2 8349   0.596   3.199   6.758
 2484SOL     OW 8350   3.434   4.321   5.515
 2484SOL    HW1 8351   3.503   4.324   5.443
 2484SOL    HW2 8352   3.343   4.335   5.475
 2485SOL     OW 8353   0.916   4.733   0.481
 2485SOL    HW1 8354   0.959   4.823   0.470
 2485SOL    HW2 8355   0.849   4.737   0.555
 2486SOL     OW 8356   0.362   5.278   3.819
 2486SOL    HW1 8357   0.363   5.237   3.728
 2486SOL    HW2 8358   0.386   5.375   3.812
 2487SOL     OW 8359   2.376   1.426   1.309
 2487SOL    HW1 8360   2.462   1.401   1.353
 2487SOL    HW2 8361   2.343   1.513   1.348
 2488SOL     OW 8362   2.642   5.677   6.633
 2488SOL    HW1 8363   2.556   5.638   6.601
 2488SOL    HW2 8364   2.653   5.660   6.731
 2489SOL     OW 8365   6.414   5.600   4.845
 2489SOL    HW1 8366   6.334   5.540   4.856
 2489SOL    HW2 8367   6.397   5.687   4.891
 2490SOL     OW 8368   5.942   2.589   1.410
 2490SOL    HW1 8369   5.861   2.606   1.465
 2490SOL    HW2 8370   5.915   2.572   1.315
 2491SOL     OW 8371   6.858   4.057   2.217
 2491SOL    HW1 8372   6.914   4.132   2.182
 2491SOL    HW2 8373   6.904   4.015   2.295
 2492SOL     OW 8374   4.002   1.821   0.474
 2492SOL    HW1 8375   4.066   1.895   0.491
 2492SOL    HW2 8376   4.044   1.734   0.501
 2493SOL     OW 8377   6.088   1.024   5.537
 2493SOL    HW1 8378   6.010   1.007   5.597
 2493SOL    HW2 8379   6.129   1.112   5.559
 2494SOL     OW 8380   5.775   5.313   0.607
 2494SOL    HW1 8381   5.721   5.357   0.679
 2494SOL    HW2 8382   5.739   5.341   0.517
 2495SOL     OW 8383   6.931   1.281   2.873
 2495SOL    HW1 8384   7.016   1.246   2.914
 2495SOL    HW2 8385   6.863   1.208   2.869
 2496SOL     OW 8386   1.746   4.701   0.656
 2496SOL    HW1 8387   1.820   4.656   0.706
 2496SOL    HW2 8388   1.721   4.645   0.577
 2497SOL     OW 8389   6.344   1.295   6.341
 2497SOL    HW1 8390   6.271   1.256   6.284
 2497SOL    HW2 8391   6.313   1.381   6.381
 2498SOL     OW 8392   1.555   3.520   4.401
 2498SOL    HW1 8393   1.594   3.598   4.451
 2498SOL    HW2 8394   1.627   3.476   4.348
 2499SOL     OW 8395   5.008   0.188   6.926
 2499SOL    HW1 8396   5.014   0.142   6.838
 2499SOL    HW2 8397   5.087   0.248   6.938
 2500SOL     OW 8398   5.258   3.160   6.289
 2500SOL    HW1 8399   5.301   3.242   6.326
 2500SOL    HW2 8400   5.193   3.186   6.217
 2501SOL     OW 8401   5.856   5.043   0.698
 2501SOL    HW1 8402   5.819   5.136   0.695
 2501SOL    HW2 8403   5.936   5.037   0.638
 2502SOL     OW 8404   1.147   6.905   2.902
 2502SOL    HW1 8405   1.216   6.833   2.913
 2502SOL    HW2 8406   1.057   6.863   2.897
 2503SOL     OW 8407   5.656   5.756   3.682
 2503SOL    HW1 8408   5.747   5.732   3.717
 2503SOL    HW2 8409   5.613   5.820   3.746
 2504SOL     OW 8410   3.152   4.833   2.791
 2504SOL    HW1 8411   3.076   4.780   2.755
 2504SOL    HW2 8412   3.197   4.882   2.716
 2505SOL     OW 8413   4.867   3.734   4.536
 2505SOL    HW1 8414   4.884   3.750   4.633
 2505SOL    HW2 8415   4.917   3.653   4.506
 2506SOL     OW 8416   1.483   1.390   0.127
 2506SOL    HW1 8417   1.467   1.430   0.037
 2506SOL    HW2 8418   1.545   1.312   0.118
 2507SOL     OW 8419   6.801   5.544   1.177
 2507SOL    HW1 8420   6.740   5.585   1.109
 2507SOL    HW2 8421   6.749   5.519   1.258
 2508SOL     OW 8422   1.272   1.519   1.579
 2508SOL    HW1 8423   1.186   1.562   1.551
 2508SOL    HW2 8424   1.346   1.586   1.574
 2509SOL     OW 8425   6.178   0.025   3.496
 2509SOL    HW1 8426   6.155   7.014   3.589
 2509SOL    HW2 8427   6.248   0.096   3.501
 2510SOL     OW 8428   3.394   6.022   2.796
 2510SOL    HW1 8429   3.421   6.085   2.869
 2510SOL    HW2 8430   3.307   5.979   2.821
 2511SOL     OW 8431   0.805   5.240   4.377
 2511SOL    HW1 8432   0.742   5.163   4.365
 2511SOL    HW2 8433   0.797   5.302   4.299
 2512SOL     OW 8434   5.982   3.111   4.677
 2512SOL    HW1 8435   6.039   3.180   4.722
 2512SOL    HW2 8436   5.886   3.127   4.701
 2513SOL     OW 8437   0.689   4.589   1.697
 2513SOL    HW1 8438   0.758   4.601   1.625
 2513SOL    HW2 8439   0.621   4.522   1.667
 2514SOL     OW 8440   0.113   2.030   4.635
 2514SOL    HW1 8441   0.018   2.041   4.664
 2514SOL    HW2 8442   0.157   2.120   4.631
 2515SOL     OW 8443   0.114   4.755   6.297
 2515SOL    HW1 8444   0.202   4.788   6.264
 2515SOL    HW2 8445   0.126   4.665   6.340
 2516SOL     OW 8446   5.087   6.520   4.674
 2516SOL    HW1 8447   5.135   6.456   4.614
 2516SOL    HW2 8448   5.101   6.613   4.642
 2517SOL     OW 8449   2.613   5.955   6.692
 2517SOL    HW1 8450   2.516   5.974   6.699
 2517SOL    HW2 8451   2.627   5.865   6.650
 2518SOL     OW 8452   2.029   2.223   0.592
 2518SOL    HW1 8453   2.071   2.304   0.550
 2518SOL    HW2 8454   2.100   2.160   0.622
 2519SOL     OW 8455   5.739   4.208   4.268
 2519SOL    HW1 8456   5.651   4.247   4.295
 2519SOL    HW2 8457   5.766   4.245   4.179
 2520SOL     OW 8458   4.486   5.554   0.915
 2520SOL    HW1 8459   4.409   5.617   0.906
 2520SOL    HW2 8460   4.462   5.465   0.877
 2521SOL     OW 8461   5.724   6.350   5.945
 2521SOL    HW1 8462   5.715   6.360   6.044
 2521SOL    HW2 8463   5.641   6.385   5.901
 2522SOL     OW 8464   3.733   5.507   4.695
 2522SOL    HW1 8465   3.695   5.430   4.644
 2522SOL    HW2 8466   3.660   5.571   4.719
 2523SOL     OW 8467   1.100   1.999   6.880
 2523SOL    HW1 8468   1.157   1.973   6.802
 2523SOL    HW2 8469   1.021   2.051   6.848
 2524SOL     OW 8470   1.935   0.037   4.602
 2524SOL    HW1 8471   1.997   0.115   4.615
 2524SOL    HW2 8472   1.973   6.995   4.534
 2525SOL     OW 8473   3.003   4.834   2.428
 2525SOL    HW1 8474   2.994   4.845   2.329
 2525SOL    HW2 8475   3.096   4.803   2.449
 2526SOL     OW 8476   2.022   3.111   5.053
 2526SOL    HW1 8477   2.083   3.108   5.132
 2526SOL    HW2 8478   2.075   3.095   4.969
 2527SOL     OW 8479   6.675   6.971   3.970
 2527SOL    HW1 8480   6.645   6.918   3.891
 2527SOL    HW2 8481   6.689   6.910   4.048
 2528SOL     OW 8482   5.544   4.589   2.647
 2528SOL    HW1 8483   5.634   4.569   2.686
 2528SOL    HW2 8484   5.508   4.507   2.602
 2529SOL     OW 8485   5.108   5.635   5.003
 2529SOL    HW1 8486   5.118   5.688   4.918
 2529SOL    HW2 8487   5.144   5.688   5.079
 2530SOL     OW 8488   1.162   6.897   3.584
 2530SOL    HW1 8489   1.152   6.930   3.678
 2530SOL    HW2 8490   1.108   6.813   3.574
 2531SOL     OW 8491   4.961   2.628   6.016
 2531SOL    HW1 8492   4.862   2.633   6.031
 2531SOL    HW2 8493   4.979   2.581   5.929
 2532SOL     OW 8494   6.413   5.067   6.851
 2532SOL    HW1 8495   6.355   5.148   6.861
 2532SOL    HW2 8496   6.450   5.064   6.759
 2533SOL     OW 8497   4.933   0.502   3.586
 2533SOL    HW1 8498   4.970   0.500   3.493
 2533SOL    HW2 8499   4.842   0.461   3.586
 2534SOL     OW 8500   6.768   0.496   2.477
 2534SOL    HW1 8501   6.734   0.444   2.399
 2534SOL    HW2 8502   6.829   0.438   2.532
 2535SOL     OW 8503   2.865   1.343   1.261
 2535SOL    HW1 8504   2.864   1.356   1.361
 2535SOL    HW2 8505   2.773   1.316   1.231
 2536SOL     OW 8506   0.702   0.044   2.980
 2536SOL    HW1 8507   0.746   0.134   2.981
 2536SOL    HW2 8508   0.717   7.018   3.068
 2537SOL     OW 8509   2.399   6.375   1.733
 2537SOL    HW1 8510   2.316   6.332   1.697
 2537SOL    HW2 8511   2.374   6.439   1.805
 2538SOL     OW 8512   0.427   5.315   5.237
 2538SOL    HW1 8513   0.443   5.219   5.257
 2538SOL    HW2 8514   0.330   5.336   5.253
 2539SOL     OW 8515   0.661   0.141   5.347
 2539SOL    HW1 8516   0.642   0.068   5.413
 2539SOL    HW2 8517   0.687   0.099   5.259
 2540SOL     OW 8518   5.614   3.010   2.119
 2540SOL    HW1 8519   5.563   2.995   2.034
 2540SOL    HW2 8520   5.551   3.007   2.197
 2541SOL     OW 8521   1.972   0.639   0.218
 2541SOL    HW1 8522   1.972   0.735   0.190
 2541SOL    HW2 8523   2.047   0.623   0.282
 2542SOL     OW 8524   4.169   2.138   2.967
 2542SOL    HW1 8525   4.094   2.123   2.902
 2542SOL    HW2 8526   4.187   2.054   3.017
 2543SOL     OW 8527   5.913   6.486   5.364
 2543SOL    HW1 8528   5.932   6.397   5.323
 2543SOL    HW2 8529   5.920   6.478   5.464
 2544SOL     OW 8530   0.396   0.644   0.433
 2544SOL    HW1 8531   0.351   0.634   0.522
 2544SOL    HW2 8532   0.362   0.726   0.387
 2545SOL     OW 8533   0.807   1.419   0.448
 2545SOL    HW1 8534   0.858   1.440   0.365
 2545SOL    HW2 8535   0.740   1.492   0.464
 2546SOL     OW 8536   6.009   3.085   3.653
 2546SOL    HW1 8537   6.092   3.071   3.707
 2546SOL    HW2 8538   5.929   3.062   3.709
 2547SOL     OW 8539   6.428   3.226   0.596
 2547SOL    HW1 8540   6.424   3.126   0.601
 2547SOL    HW2 8541   6.336   3.263   0.585
 2548SOL     OW 8542   6.022   0.523   5.514
 2548SOL    HW1 8543   6.089   0.504   5.586
 2548SOL    HW2 8544   5.930   0.525   5.554
 2549SOL     OW 8545   2.864   3.974   6.631
 2549SOL    HW1 8546   2.873   3.876   6.649
 2549SOL    HW2 8547   2.788   3.990   6.567
 2550SOL     OW 8548   3.841   0.943   1.460
 2550SOL    HW1 8549   3.768   0.939   1.391
 2550SOL    HW2 8550   3.894   0.858   1.457
 2551SOL     OW 8551   2.645   4.799   0.705
 2551SOL    HW1 8552   2.578   4.783   0.633
 2551SOL    HW2 8553   2.657   4.715   0.758
 2552SOL     OW 8554   3.372   5.434   1.019
 2552SOL    HW1 8555   3.360   5.349   0.968
 2552SOL    HW2 8556   3.452   5.426   1.078
 2553SOL     OW 8557   4.460   2.271   1.548
 2553SOL    HW1 8558   4.426   2.304   1.636
 2553SOL    HW2 8559   4.514   2.343   1.504
 2554SOL     OW 8560   1.097   5.782   0.750
 2554SOL    HW1 8561   1.137   5.707   0.803
 2554SOL    HW2 8562   1.068   5.855   0.812
 2555SOL     OW 8563   0.279   5.741   4.745
 2555SOL    HW1 8564   0.243   5.834   4.747
 2555SOL    HW2 8565   0.206   5.678   4.719
 2556SOL     OW 8566   5.537   0.596   6.959
 2556SOL    HW1 8567   5.615   0.554   6.914
 2556SOL    HW2 8568   5.545   0.695   6.954
 2557SOL     OW 8569   2.641   1.467   0.609
 2557SOL    HW1 8570   2.659   1.370   0.626
 2557SOL    HW2 8571   2.633   1.515   0.696
 2558SOL     OW 8572   5.749   2.870   1.774
 2558SOL    HW1 8573   5.837   2.843   1.811
 2558SOL    HW2 8574   5.752   2.966   1.746
 2559SOL     OW 8575   0.091   6.061   3.232
 2559SOL    HW1 8576   0.076   6.022   3.323
 2559SOL    HW2 8577   0.137   6.149   3.240
 2560SOL     OW 8578   3.857   2.926   1.782
 2560SOL    HW1 8579   3.772   2.954   1.826
 2560SOL    HW2 8580   3.927   2.996   1.797
 2561SOL     OW 8581   3.584   0.880   4.770
 2561SOL    HW1 8582   3.642   0.801   4.750
 2561SOL    HW2 8583   3.559   0.879   4.867
 2562SOL     OW 8584   0.970   6.712   4.599
 2562SOL    HW1 8585   1.067   6.691   4.613
 2562SOL    HW2 8586   0.947   6.797   4.647
 2563SOL     OW 8587   4.634   1.759   0.154
 2563SOL    HW1 8588   4.726   1.790   0.128
 2563SOL    HW2 8589   4.567   1.795   0.089
 2564SOL     OW 8590   1.717   0.948   1.490
 2564SOL    HW1 8591   1.749   0.901   1.408
 2564SOL    HW2 8592   1.691   1.042   1.466
 2565SOL     OW 8593   5.905   0.400   0.481
 2565SOL    HW1 8594   5.913   0.475   0.547
 2565SOL    HW2 8595   5.856   0.433   0.400
 2566SOL     OW 8596   2.897   1.334   0.819
 2566SOL    HW1 8597   2.929   1.365   0.730
 2566SOL    HW2 8598   2.950   1.380   0.891
 2567SOL     OW 8599   1.979   0.620   6.440
 2567SOL    HW1 8600   1.989   0.663   6.350
 2567SOL    HW2 8601   2.000   0.522   6.433
 2568SOL     OW 8602   3.268   6.561   6.859
 2568SOL    HW1 8603   3.253   6.531   6.953
 2568SOL    HW2 8604   3.181   6.593   6.820
 2569SOL     OW 8605   3.142   6.361   6.535
 2569SOL    HW1 8606   3.232   6.360   6.579
 2569SOL    HW2 8607   3.135   6.441   6.475
 2570SOL     OW 8608   6.817   0.632   3.666
 2570SOL    HW1 8609   6.805   0.731   3.669
 2570SOL    HW2 8610   6.878   0.608   3.590
 2571SOL     OW 8611   3.313   3.299   2.248
 2571SOL    HW1 8612   3.251   3.305   2.326
 2571SOL    HW2 8613   3.298   3.214   2.198
 2572SOL     OW 8614   2.457   6.352   2.350
 2572SOL    HW1 8615   2.425   6.393   2.435
 2572SOL    HW2 8616   2.551   6.380   2.332
 2573SOL     OW 8617   6.052   0.146   2.417
 2573SOL    HW1 8618   6.091   0.162   2.508
 2573SOL    HW2 8619   6.051   0.048   2.399
 2574SOL     OW 8620   0.706   4.562   2.043
 2574SOL    HW1 8621   0.689   4.586   2.139
 2574SOL    HW2 8622   0.805   4.560   2.026
 2575SOL     OW 8623   4.246   3.422   5.250
 2575SOL    HW1 8624   4.221   3.445   5.156
 2575SOL    HW2 8625   4.341   3.449   5.267
 2576SOL     OW 8626   1.392   0.602   3.727
 2576SOL    HW1 8627   1.478   0.604   3.778
 2576SOL    HW2 8628   1.397   0.664   3.649
 2577SOL     OW 8629   1.661   4.635   0.206
 2577SOL    HW1 8630   1.582   4.672   0.158
 2577SOL    HW2 8631   1.732   4.705   0.212
 2578SOL     OW 8632   5.336   1.341   5.183
 2578SOL    HW1 8633   5.393   1.273   5.135
 2578SOL    HW2 8634   5.315   1.308   5.275
 2579SOL     OW 8635   0.079   2.202   6.503
 2579SOL    HW1 8636   0.162   2.157   6.471
 2579SOL    HW2 8637   0.104   2.282   6.558
 2580SOL     OW 8638   1.664   2.410   5.466
 2580SOL    HW1 8639   1.714   2.325   5.478
 2580SOL    HW2 8640   1.597   2.399   5.393
 2581SOL     OW 8641   4.719   6.915   4.219
 2581SOL    HW1 8642   4.688   6.965   4.301
 2581SOL    HW2 8643   4.801   6.862   4.241
 2582SOL     OW 8644   7.001   4.454   2.451
 2582SOL    HW1 8645   0.065   4.506   2.435
 2582SOL    HW2 8646   6.927   4.517   2.474
 2583SOL     OW 8647   2.843   0.518   0.007
 2583SOL    HW1 8648   2.908   0.519   0.083
 2583SOL    HW2 8649   2.776   0.591   0.020
 2584SOL     OW 8650   3.646   1.052   4.246
 2584SOL    HW1 8651   3.714   1.106   4.198
 2584SOL    HW2 8652   3.569   1.110   4.274
 2585SOL     OW 8653   3.740   0.799   3.039
 2585SOL    HW1 8654   3.689   0.812   2.954
 2585SOL    HW2 8655   3.680   0.758   3.108
 2586SOL     OW 8656   2.092   1.766   4.674
 2586SOL    HW1 8657   2.175   1.731   4.629
 2586SOL    HW2 8658   2.076   1.860   4.643
 2587SOL     OW 8659   6.748   4.700   3.565
 2587SOL    HW1 8660   6.745   4.775   3.499
 2587SOL    HW2 8661   6.843   4.682   3.592
 2588SOL     OW 8662   3.066   0.282   2.445
 2588SOL    HW1 8663   3.082   0.373   2.486
 2588SOL    HW2 8664   3.128   0.268   2.368
 2589SOL     OW 8665   5.102   6.750   2.100
 2589SOL    HW1 8666   5.104   6.814   2.023
 2589SOL    HW2 8667   5.081   6.658   2.066
 2590SOL     OW 8668   4.256   6.253   3.837
 2590SOL    HW1 8669   4.221   6.214   3.752
 2590SOL    HW2 8670   4.196   6.328   3.867
 2591SOL     OW 8671   5.204   0.458   0.639
 2591SOL    HW1 8672   5.153   0.435   0.722
 2591SOL    HW2 8673   5.281   0.516   0.662
 2592SOL     OW 8674   2.765   5.982   2.031
 2592SOL    HW1 8675   2.772   6.059   2.095
 2592SOL    HW2 8676   2.841   5.919   2.046
 2593SOL     OW 8677   2.757   6.960   4.441
 2593SOL    HW1 8678   2.722   6.997   4.356
 2593SOL    HW2 8679   2.767   6.861   4.433
 2594SOL     OW 8680   1.568   5.843   6.403
 2594SOL    HW1 8681   1.604   5.768   6.457
 2594SOL    HW2 8682   1.499   5.893   6.456
 2595SOL     OW 8683   0.382   3.160   5.449
 2595SOL    HW1 8684   0.325   3.196   5.523
 2595SOL    HW2 8685   0.347   3.193   5.361
 2596SOL     OW 8686   4.171   1.620   0.769
 2596SOL    HW1 8687   4.252   1.605   0.826
 2596SOL    HW2 8688   4.198   1.619   0.673
 2597SOL     OW 8689   2.656   2.266   6.053
 2597SOL    HW1 8690   2.716   2.203   6.101
 2597SOL    HW2 8691   2.672   2.260   5.955
 2598SOL     OW 8692   6.660   1.412   3.502
 2598SOL    HW1 8693   6.719   1.332   3.494
 2598SOL    HW2 8694   6.614   1.428   3.415
 2599SOL     OW 8695   5.168   6.001   5.886
 2599SOL    HW1 8696   5.132   6.094   5.897
 2599SOL    HW2 8697   5.262   6.006   5.853
 2600SOL     OW 8698   0.212   3.186   5.230
 2600SOL    HW1 8699   0.202   3.127   5.150
 2600SOL    HW2 8700   0.254   3.273   5.203
 2601SOL     OW 8701   4.150   4.279   5.265
 2601SOL    HW1 8702   4.172   4.365   5.218
 2601SOL    HW2 8703   4.095   4.221   5.204
 2602SOL     OW 8704   6.358   0.268   0.349
 2602SOL    HW1 8705   6.290   0.312   0.407
 2602SOL    HW2 8706   6.338   0.171   0.341
 2603SOL     OW 8707   1.971   1.627   6.976
 2603SOL    HW1 8708   2.069   1.640   6.988
 2603SOL    HW2 8709   1.925   1.716   6.974
 2604SOL     OW 8710   5.929   1.298   0.706
 2604SOL    HW1 8711   5.832   1.308   0.685
 2604SOL    HW2 8712   5.983   1.318   0.624
 2605SOL     OW 8713   5.624   1.960   5.522
 2605SOL    HW1 8714   5.690   2.014   5.574
 2605SOL    HW2 8715   5.655   1.865   5.515
 2606SOL     OW 8716   6.436   4.482   1.044
 2606SOL    HW1 8717   6.519   4.427   1.037
 2606SOL    HW2 8718   6.454   4.575   1.013
 2607SOL     OW 8719   0.619   0.568   3.195
 2607SOL    HW1 8720   0.641   0.534   3.286
 2607SOL    HW2 8721   0.552   0.507   3.152
 2608SOL     OW 8722   4.378   0.911   0.350
 2608SOL    HW1 8723   4.434   0.972   0.294
 2608SOL    HW2 8724   4.360   0.826   0.300
 2609SOL     OW 8725   0.772   4.187   3.624
 2609SOL    HW1 8726   0.812   4.239   3.699
 2609SOL    HW2 8727   0.844   4.136   3.576
 2610SOL     OW 8728   5.706   4.755   4.895
 2610SOL    HW1 8729   5.714   4.795   4.804
 2610SOL    HW2 8730   5.718   4.656   4.889
 2611SOL     OW 8731   2.980   6.525   1.773
 2611SOL    HW1 8732   2.957   6.429   1.792
 2611SOL    HW2 8733   2.909   6.565   1.715
 2612SOL     OW 8734   0.300   6.919   3.947
 2612SOL    HW1 8735   0.214   6.923   3.997
 2612SOL    HW2 8736   0.356   6.844   3.983
 2613SOL     OW 8737   3.975   1.551   0.026
 2613SOL    HW1 8738   4.032   1.492   0.083
 2613SOL    HW2 8739   4.034   1.607   6.987
 2614SOL     OW 8740   6.353   6.801   6.751
 2614SOL    HW1 8741   6.395   6.857   6.823
 2614SOL    HW2 8742   6.261   6.834   6.731
 2615SOL     OW 8743   0.179   4.363   1.463
 2615SOL    HW1 8744   0.237   4.405   1.533
 2615SOL    HW2 8745   0.147   4.433   1.400
 2616SOL     OW 8746   3.959   3.808   1.636
 2616SOL    HW1 8747   3.860   3.793   1.626
 2616SOL    HW2 8748   4.007   3.764   1.561
 2617SOL     OW 8749   2.874   6.594   0.872
 2617SOL    HW1 8750   2.830   6.581   0.783
 2617SOL    HW2 8751   2.917   6.508   0.901
 2618SOL     OW 8752   1.455   5.866   0.396
 2618SOL    HW1 8753   1.372   5.893   0.347
 2618SOL    HW2 8754   1.433   5.795   0.462
 2619SOL     OW 8755   6.119   0.678   2.796
 2619SOL    HW1 8756   6.160   0.749   2.853
 2619SOL    HW2 8757   6.044   0.716   2.743
 2620SOL     OW 8758   1.664   6.246   3.835
 2620SOL    HW1 8759   1.598   6.175   3.808
 2620SOL    HW2 8760   1.729   6.260   3.760
 2621SOL     OW 8761   1.510   6.005   4.371
 2621SOL    HW1 8762   1.425   6.001   4.425
 2621SOL    HW2 8763   1.510   6.089   4.317
 2622SOL     OW 8764   2.381   2.785   4.207
 2622SOL    HW1 8765   2.407   2.758   4.114
 2622SOL    HW2 8766   2.406   2.712   4.271
 2623SOL     OW 8767   2.952   0.070   5.395
 2623SOL    HW1 8768   2.863   0.046   5.432
 2623SOL    HW2 8769   2.960   0.170   5.389
 2624SOL     OW 8770   4.665   1.681   4.431
 2624SOL    HW1 8771   4.626   1.595   4.463
 2624SOL    HW2 8772   4.653   1.688   4.332
 2625SOL     OW 8773   1.551   0.310   5.638
 2625SOL    HW1 8774   1.547   0.234   5.574
 2625SOL    HW2 8775   1.520   0.280   5.729
 2626SOL     OW 8776   3.153   6.857   3.030
 2626SOL    HW1 8777   3.118   6.907   3.109
 2626SOL    HW2 8778   3.206   6.778   3.061
 2627SOL     OW 8779   1.189   7.012   4.176
 2627SOL    HW1 8780   1.161   6.919   4.203
 2627SOL    HW2 8781   1.278   7.009   4.131
 2628SOL     OW 8782   4.837   5.032   6.879
 2628SOL    HW1 8783   4.822   5.110   6.818
 2628SOL    HW2 8784   4.934   5.030   6.907
 2629SOL     OW 8785   3.079   4.227   1.715
 2629SOL    HW1 8786   3.052   4.197   1.806
 2629SOL    HW2 8787   3.015   4.296   1.682
 2630SOL     OW 8788   3.562   1.433   2.735
 2630SOL    HW1 8789   3.474   1.445   2.690
 2630SOL    HW2 8790   3.558   1.354   2.796
 2631SOL     OW 8791   3.266   6.545   3.447
 2631SOL    HW1 8792   3.287   6.615   3.515
 2631SOL    HW2 8793   3.261   6.456   3.492
 2632SOL     OW 8794   5.007   1.149   0.773
 2632SOL    HW1 8795   4.925   1.135   0.828
 2632SOL    HW2 8796   5.022   1.247   0.761
 2633SOL     OW 8797   0.204   2.147   0.210
 2633SOL    HW1 8798   0.293   2.103   0.224
 2633SOL    HW2 8799   0.204   2.238   0.251
 2634SOL     OW 8800   2.466   5.073   0.187
 2634SOL    HW1 8801   2.369   5.089   0.169
 2634SOL    HW2 8802   2.475   5.007   0.262
 2635SOL     OW 8803   6.377   4.402   3.195
 2635SOL    HW1 8804   6.449   4.396   3.264
 2635SOL    HW2 8805   6.289   4.380   3.238
 2636SOL     OW 8806   5.440   5.103   5.621
 2636SOL    HW1 8807   5.496   5.056   5.553
 2636SOL    HW2 8808   5.355   5.052   5.637
 2637SOL     OW 8809   5.330   5.160   1.857
 2637SOL    HW1 8810   5.349   5.083   1.796
 2637SOL    HW2 8811   5.392   5.236   1.836
 2638SOL     OW 8812   4.786   5.487   0.551
 2638SOL    HW1 8813   4.789   5.399   0.503
 2638SOL    HW2 8814   4.873   5.503   0.597
 2639SOL     OW 8815   6.224   0.645   0.389
 2639SOL    HW1 8816   6.159   0.720   0.377
 2639SOL    HW2 8817   6.178   0.568   0.433
 2640SOL     OW 8818   6.563   6.350   1.122
 2640SOL    HW1 8819   6.514   6.310   1.044
 2640SOL    HW2 8820   6.541   6.447   1.130
 2641SOL     OW 8821   6.448   6.002   1.395
 2641SOL    HW1 8822   6.406   6.037   1.312
 2641SOL    HW2 8823   6.477   6.078   1.453
 2642SOL     OW 8824   6.738   6.893   4.320
 2642SOL    HW1 8825   6.739   6.838   4.404
 2642SOL    HW2 8826   6.757   6.833   4.242
 2643SOL     OW 8827   1.558   0.644   1.914
 2643SOL    HW1 8828   1.650   0.670   1.944
 2643SOL    HW2 8829   1.514   0.723   1.871
 2644SOL     OW 8830   5.850   6.349   4.514
 2644SOL    HW1 8831   5.834   6.292   4.595
 2644SOL    HW2 8832   5.765   6.396   4.489
 2645SOL     OW 8833   5.751   6.232   6.714
 2645SOL    HW1 8834   5.707   6.163   6.772
 2645SOL    HW2 8835   5.701   6.318   6.723
 2646SOL     OW 8836   5.744   5.399   5.805
 2646SOL    HW1 8837   5.813   5.467   5.784
 2646SOL    HW2 8838   5.787   5.320   5.849
 2647SOL     OW 8839   3.099   4.430   0.493
 2647SOL    HW1 8840   3.033   4.504   0.481
 2647SOL    HW2 8841   3.064   4.366   0.562
 2648SOL     OW 8842   4.576   1.222   3.476
 2648SOL    HW1 8843   4.673   1.245   3.477
 2648SOL    HW2 8844   4.559   1.151   3.407
 2649SOL     OW 8845   2.927   3.939   5.173
 2649SOL    HW1 8846   2.994   3.915   5.243
 2649SOL    HW2 8847   2.835   3.913   5.204
 2650SOL     OW 8848   0.082   6.758   2.237
 2650SOL    HW1 8849   0.033   6.806   2.310
 2650SOL    HW2 8850   0.147   6.820   2.194
 2651SOL     OW 8851   1.845   0.459   2.571
 2651SOL    HW1 8852   1.791   0.483   2.491
 2651SOL    HW2 8853   1.933   0.422   2.542
 2652SOL     OW 8854   3.258   2.115   1.656
 2652SOL    HW1 8855   3.214   2.117   1.746
 2652SOL    HW2 8856   3.330   2.184   1.653
 2653SOL     OW 8857   5.302   0.007   1.003
 2653SOL    HW1 8858   5.322   0.072   1.077
 2653SOL    HW2 8859   5.274   0.057   0.921
 2654SOL     OW 8860   0.202   3.500   5.805
 2654SOL    HW1 8861   0.195   3.545   5.894
 2654SOL    HW2 8862   0.294   3.514   5.768
 2655SOL     OW 8863   5.713   4.736   3.755
 2655SOL    HW1 8864   5.631   4.705   3.707
 2655SOL    HW2 8865   5.746   4.821   3.713
 2656SOL     OW 8866   5.962   3.880   5.081
 2656SOL    HW1 8867   5.903   3.903   5.159
 2656SOL    HW2 8868   6.055   3.865   5.114
 2657SOL     OW 8869   3.918   1.824   5.348
 2657SOL    HW1 8870   3.920   1.842   5.250
 2657SOL    HW2 8871   3.882   1.905   5.396
 2658SOL     OW 8872   0.140   4.015   5.931
 2658SOL    HW1 8873   0.090   3.939   5.889
 2658SOL    HW2 8874   0.224   3.981   5.972
 2659SOL     OW 8875   6.257   0.468   3.055
 2659SOL    HW1 8876   6.300   0.495   2.969
 2659SOL    HW2 8877   6.214   0.547   3.097
 2660SOL     OW 8878   1.209   1.428   3.994
 2660SOL    HW1 8879   1.142   1.500   3.978
 2660SOL    HW2 8880   1.210   1.404   4.091
 2661SOL     OW 8881   3.421   6.653   2.943
 2661SOL    HW1 8882   3.355   6.620   3.010
 2661SOL    HW2 8883   3.508   6.673   2.988
 2662SOL     OW 8884   4.276   1.438   4.777
 2662SOL    HW1 8885   4.237   1.449   4.868
 2662SOL    HW2 8886   4.355   1.377   4.781
 2663SOL     OW 8887   0.991   4.503   3.014
 2663SOL    HW1 8888   1.030   4.478   3.102
 2663SOL    HW2 8889   0.896   4.474   3.009
 2664SOL     OW 8890   4.882   4.237   1.805
 2664SOL    HW1 8891   4.902   4.334   1.815
 2664SOL    HW2 8892   4.787   4.226   1.773
 2665SOL     OW 8893   3.718   0.717   5.313
 2665SOL    HW1 8894   3.746   0.659   5.390
 2665SOL    HW2 8895   3.760   0.808   5.323
 2666SOL     OW 8896   4.612   6.020   1.754
 2666SOL    HW1 8897   4.548   6.094   1.776
 2666SOL    HW2 8898   4.657   5.989   1.838
 2667SOL     OW 8899   2.266   4.830   2.999
 2667SOL    HW1 8900   2.175   4.809   3.036
 2667SOL    HW2 8901   2.289   4.925   3.022
 2668SOL     OW 8902   0.280   2.765   5.294
 2668SOL    HW1 8903   0.323   2.822   5.224
 2668SOL    HW2 8904   0.346   2.698   5.328
 2669SOL     OW 8905   4.258   5.488   4.896
 2669SOL    HW1 8906   4.287   5.435   4.815
 2669SOL    HW2 8907   4.325   5.475   4.969
 2670SOL     OW 8908   1.729   6.904   4.443
 2670SOL    HW1 8909   1.773   6.950   4.520
 2670SOL    HW2 8910   1.797   6.850   4.393
 2671SOL     OW 8911   2.693   3.458   6.678
 2671SOL    HW1 8912   2.744   3.461   6.592
 2671SOL    HW2 8913   2.725   3.380   6.732
 2672SOL     OW 8914   1.393   4.133   0.789
 2672SOL    HW1 8915   1.472   4.194   0.805
 2672SOL    HW2 8916   1.409   4.046   0.835
 2673SOL     OW 8917   4.325   2.305   3.133
 2673SOL    HW1 8918   4.258   2.252   3.082
 2673SOL    HW2 8919   4.305   2.300   3.231
 2674SOL     OW 8920   4.841   5.962   5.482
 2674SOL    HW1 8921   4.923   5.909   5.460
 2674SOL    HW2 8922   4.792   5.983   5.398
 2675SOL     OW 8923   6.962   5.311   5.950
 2675SOL    HW1 8924   7.016   5.379   5.999
 2675SOL    HW2 8925   6.955   5.228   6.006
 2676SOL     OW 8926   4.788   6.904   1.581
 2676SOL    HW1 8927   4.773   6.984   1.639
 2676SOL    HW2 8928   4.765   6.821   1.632
 2677SOL     OW 8929   2.440   4.761   2.174
 2677SOL    HW1 8930   2.444   4.845   2.119
 2677SOL    HW2 8931   2.495   4.690   2.131
 2678SOL     OW 8932   1.024   6.165   0.050
 2678SOL    HW1 8933   0.989   6.198   6.982
 2678SOL    HW2 8934   1.117   6.131   0.037
 2679SOL     OW 8935   2.103   5.126   1.029
 2679SOL    HW1 8936   2.007   5.099   1.024
 2679SOL    HW2 8937   2.132   5.132   1.124
 2680SOL     OW 8938   6.483   2.059   1.127
 2680SOL    HW1 8939   6.572   2.067   1.083
 2680SOL    HW2 8940   6.493   2.067   1.226
 2681SOL     OW 8941   1.497   2.228   1.445
 2681SOL    HW1 8942   1.470   2.137   1.416
 2681SOL    HW2 8943   1.552   2.222   1.528
 2682SOL     OW 8944   0.828   2.903   3.561
 2682SOL    HW1 8945   0.829   2.807   3.588
 2682SOL    HW2 8946   0.783   2.913   3.473
 2683SOL     OW 8947   1.836   0.053   1.194
 2683SOL    HW1 8948   1.875   0.098   1.114
 2683SOL    HW2 8949   1.752   0.100   1.220
 2684SOL     OW 8950   3.535   4.916   3.162
 2684SOL    HW1 8951   3.476   4.920   3.242
 2684SOL    HW2 8952   3.610   4.852   3.179
 2685SOL     OW 8953   5.453   4.758   5.718
 2685SOL    HW1 8954   5.546   4.771   5.682
 2685SOL    HW2 8955   5.409   4.682   5.670
 2686SOL     OW 8956   1.359   3.888   4.022
 2686SOL    HW1 8957   1.424   3.831   4.072
 2686SOL    HW2 8958   1.274   3.837   4.009
 2687SOL     OW 8959   4.312   5.285   3.083
 2687SOL    HW1 8960   4.286   5.236   3.166
 2687SOL    HW2 8961   4.411   5.298   3.082
 2688SOL     OW 8962   3.207   4.547   5.378
 2688SOL    HW1 8963   3.200   4.452   5.347
 2688SOL    HW2 8964   3.128   4.599   5.344
 2689SOL     OW 8965   5.933   1.179   3.932
 2689SOL    HW1 8966   6.023   1.218   3.915
 2689SOL    HW2 8967   5.880   1.240   3.991
 2690SOL     OW 8968   3.408   4.135   3.802
 2690SOL    HW1 8969   3.347   4.098   3.732
 2690SOL    HW2 8970   3.389   4.091   3.890
 2691SOL     OW 8971   0.989   6.026   1.379
 2691SOL    HW1 8972   0.946   5.989   1.461
 2691SOL    HW2 8973   1.011   6.122   1.393
 2692SOL     OW 8974   0.161   4.073   4.181
 2692SOL    HW1 8975   0.091   4.013   4.222
 2692SOL    HW2 8976   0.135   4.094   4.087
 2693SOL     OW 8977   2.113   3.315   2.555
 2693SOL    HW1 8978   2.126   3.369   2.472
 2693SOL    HW2 8979   2.056   3.367   2.619
 2694SOL     OW 8980   1.946   1.600   3.032
 2694SOL    HW1 8981   1.925   1.676   2.971
 2694SOL    HW2 8982   1.911   1.515   2.992
 2695SOL     OW 8983   3.974   2.272   1.800
 2695SOL    HW1 8984   3.876   2.286   1.816
 2695SOL    HW2 8985   4.016   2.237   1.884
 2696SOL     OW 8986   3.268   3.233   6.619
 2696SOL    HW1 8987   3.330   3.212   6.695
 2696SOL    HW2 8988   3.269   3.157   6.554
 2697SOL     OW 8989   2.129   1.105   5.298
 2697SOL    HW1 8990   2.114   1.022   5.244
 2697SOL    HW2 8991   2.055   1.170   5.281
 2698SOL     OW 8992   2.026   1.880   0.076
 2698SOL    HW1 8993   2.106   1.915   0.027
 2698SOL    HW2 8994   2.043   1.883   0.175
 2699SOL     OW 8995   1.682   4.138   3.556
 2699SOL    HW1 8996   1.742   4.068   3.594
 2699SOL    HW2 8997   1.698   4.225   3.604
 2700SOL     OW 8998   2.084   4.501   3.106
 2700SOL    HW1 8999   2.026   4.577   3.135
 2700SOL    HW2 9000   2.077   4.427   3.173
 2701SOL     OW 9001   1.317   0.726   4.959
 2701SOL    HW1 9002   1.372   0.644   4.942
 2701SOL    HW2 9003   1.264   0.748   4.877
 2702SOL     OW 9004   5.763   5.823   2.221
 2702SOL    HW1 9005   5.783   5.784   2.311
 2702SOL    HW2 9006   5.703   5.761   2.170
 2703SOL     OW 9007   1.985   2.669   2.359
 2703SOL    HW1 9008   2.022   2.761   2.362
 2703SOL    HW2 9009   2.061   2.603   2.358
 2704SOL     OW 9010   0.587   6.217   0.502
 2704SOL    HW1 9011   0.493   6.249   0.499
 2704SOL    HW2 9012   0.589   6.117   0.499
 2705SOL     OW 9013   6.967   2.844   3.132
 2705SOL    HW1 9014   7.018   2.759   3.143
 2705SOL    HW2 9015   7.013   2.917   3.181
 2706SOL     OW 9016   6.765   2.285   3.442
 2706SOL    HW1 9017   6.799   2.377   3.419
 2706SOL    HW2 9018   6.832   2.217   3.413
 2707SOL     OW 9019   3.647   0.502   0.476
 2707SOL    HW1 9020   3.576   0.572   0.463
 2707SOL    HW2 9021   3.609   0.412   0.457
 2708SOL     OW 9022   1.296   4.696   6.779
 2708SOL    HW1 9023   1.227   4.624   6.770
 2708SOL    HW2 9024   1.269   4.759   6.851
 2709SOL     OW 9025   3.887   0.315   2.032
 2709SOL    HW1 9026   3.944   0.356   1.960
 2709SOL    HW2 9027   3.837   0.387   2.079
 2710SOL     OW 9028   5.855   3.743   2.934
 2710SOL    HW1 9029   5.863   3.700   3.024
 2710SOL    HW2 9030   5.933   3.804   2.919
 2711SOL     OW 9031   6.913   6.481   2.030
 2711SOL    HW1 9032   7.009   6.503   2.047
 2711SOL    HW2 9033   6.901   6.456   1.934
 2712SOL     OW 9034   3.717   5.673   2.771
 2712SOL    HW1 9035   3.756   5.617   2.844
 2712SOL    HW2 9036   3.780   5.675   2.693
 2713SOL     OW 9037   2.650   2.656   5.587
 2713SOL    HW1 9038   2.573   2.598   5.561
 2713SOL    HW2 9039   2.624   2.753   5.577
 2714SOL     OW 9040   5.534   0.340   6.655
 2714SOL    HW1 9041   5.606   0.391   6.609
 2714SOL    HW2 9042   5.484   0.284   6.589
 2715SOL     OW 9043   5.863   7.019   6.382
 2715SOL    HW1 9044   5.826   0.089   6.357
 2715SOL    HW2 9045   5.836   6.951   6.314
 2716SOL     OW 9046   5.960   6.433   2.250
 2716SOL    HW1 9047   5.978   6.478   2.163
 2716SOL    HW2 9048   6.023   6.357   2.262
 2717SOL     OW 9049   0.194   6.880   3.239
 2717SOL    HW1 9050   0.260   6.868   3.164
 2717SOL    HW2 9051   0.102   6.881   3.202
 2718SOL     OW 9052   6.717   3.814   3.058
 2718SOL    HW1 9053   6.698   3.821   3.156
 2718SOL    HW2 9054   6.636   3.782   3.010
 2719SOL     OW 9055   4.670   4.184   3.327
 2719SOL    HW1 9056   4.644   4.210   3.234
 2719SOL    HW2 9057   4.627   4.247   3.392
 2720SOL     OW 9058   0.081   7.011   4.122
 2720SOL    HW1 9059   0.049   6.917   4.106
 2720SOL    HW2 9060   0.006   0.055   4.107
 2721SOL     OW 9061   4.845   5.741   2.730
 2721SOL    HW1 9062   4.801   5.740   2.640
 2721SOL    HW2 9063   4.943   5.722   2.720
 2722SOL     OW 9064   0.500   5.825   2.616
 2722SOL    HW1 9065   0.453   5.737   2.621
 2722SOL    HW2 9066   0.543   5.835   2.527
 2723SOL     OW 9067   2.740   1.906   4.697
 2723SOL    HW1 9068   2.818   1.850   4.726
 2723SOL    HW2 9069   2.715   1.970   4.770
 2724SOL     OW 9070   4.812   5.975   5.743
 2724SOL    HW1 9071   4.887   5.919   5.779
 2724SOL    HW2 9072   4.818   5.979   5.644
 2725SOL     OW 9073   1.763   5.675   2.318
 2725SOL    HW1 9074   1.682   5.676   2.377
 2725SOL    HW2 9075   1.778   5.583   2.282
 2726SOL     OW 9076   4.424   6.044   2.728
 2726SOL    HW1 9077   4.375   6.046   2.815
 2726SOL    HW2 9078   4.519   6.019   2.744
 2727SOL     OW 9079   2.540   5.247   3.930
 2727SOL    HW1 9080   2.495   5.193   3.859
 2727SOL    HW2 9081   2.613   5.193   3.972
 2728SOL     OW 9082   1.934   6.548   5.045
 2728SOL    HW1 9083   1.838   6.549   5.019
 2728SOL    HW2 9084   1.984   6.617   4.992
 2729SOL     OW 9085   6.852   3.693   2.291
 2729SOL    HW1 9086   6.901   3.611   2.261
 2729SOL    HW2 9087   6.895   3.774   2.251
 2730SOL     OW 9088   1.678   3.038   1.561
 2730SOL    HW1 9089   1.593   3.025   1.611
 2730SOL    HW2 9090   1.752   2.988   1.606
 2731SOL     OW 9091   1.556   3.461   6.280
 2731SOL    HW1 9092   1.595   3.492   6.193
 2731SOL    HW2 9093   1.629   3.430   6.341
 2732SOL     OW 9094   5.568   3.120   4.465
 2732SOL    HW1 9095   5.476   3.085   4.487
 2732SOL    HW2 9096   5.567   3.220   4.465
 2733SOL     OW 9097   2.196   0.464   6.772
 2733SOL    HW1 9098   2.103   0.494   6.793
 2733SOL    HW2 9099   2.251   0.543   6.745
 2734SOL     OW 9100   2.007   0.160   4.142
 2734SOL    HW1 9101   2.032   0.181   4.048
 2734SOL    HW2 9102   1.913   0.124   4.144
 2735SOL     OW 9103   1.364   5.865   1.055
 2735SOL    HW1 9104   1.398   5.862   0.961
 2735SOL    HW2 9105   1.440   5.860   1.119
 2736SOL     OW 9106   4.366   0.662   6.789
 2736SOL    HW1 9107   4.456   0.680   6.830
 2736SOL    HW2 9108   4.296   0.664   6.861
 2737SOL     OW 9109   4.124   3.847   5.330
 2737SOL    HW1 9110   4.087   3.792   5.405
 2737SOL    HW2 9111   4.224   3.840   5.330
 2738SOL     OW 9112   0.450   3.504   5.697
 2738SOL    HW1 9113   0.536   3.510   5.748
 2738SOL    HW2 9114   0.453   3.566   5.619
 2739SOL     OW 9115   3.854   4.071   6.694
 2739SOL    HW1 9116   3.901   4.129   6.628
 2739SOL    HW2 9117   3.785   4.124   6.742
 2740SOL     OW 9118   6.565   2.996   4.905
 2740SOL    HW1 9119   6.646   2.979   4.961
 2740SOL    HW2 9120   6.519   3.078   4.937
 2741SOL     OW 9121   2.220   3.051   6.083
 2741SOL    HW1 9122   2.253   2.993   6.009
 2741SOL    HW2 9123   2.222   2.999   6.169
 2742SOL     OW 9124   2.408   5.882   5.020
 2742SOL    HW1 9125   2.429   5.880   5.118
 2742SOL    HW2 9126   2.456   5.808   4.973
 2743SOL     OW 9127   5.316   3.769   6.423
 2743SOL    HW1 9128   5.265   3.687   6.451
 2743SOL    HW2 9129   5.403   3.772   6.472
 2744SOL     OW 9130   4.951   6.617   1.366
 2744SOL    HW1 9131   4.908   6.706   1.352
 2744SOL    HW2 9132   5.040   6.629   1.409
 2745SOL     OW 9133   3.367   5.475   3.116
 2745SOL    HW1 9134   3.465   5.483   3.095
 2745SOL    HW2 9135   3.326   5.406   3.057
 2746SOL     OW 9136   1.276   2.189   6.998
 2746SOL    HW1 9137   1.291   2.266   6.935
 2746SOL    HW2 9138   1.201   2.133   6.965
 2747SOL     OW 9139   4.630   6.272   3.409
 2747SOL    HW1 9140   4.642   6.340   3.481
 2747SOL    HW2 9141   4.561   6.305   3.344
 2748SOL     OW 9142   5.381   0.899   4.715
 2748SOL    HW1 9143   5.367   0.814   4.766
 2748SOL    HW2 9144   5.315   0.968   4.745
 2749SOL     OW 9145   6.366   5.476   2.673
 2749SOL    HW1 9146   6.334   5.560   2.717
 2749SOL    HW2 9147   6.300   5.447   2.604
 2750SOL     OW 9148   0.763   0.265   0.615
 2750SOL    HW1 9149   0.696   0.335   0.588
 2750SOL    HW2 9150   0.831   0.306   0.676
 2751SOL     OW 9151   1.210   6.928   0.192
 2751SOL    HW1 9152   1.219   6.856   0.124
 2751SOL    HW2 9153   1.225   7.017   0.150
 2752SOL     OW 9154   0.508   6.651   6.080
 2752SOL    HW1 9155   0.468   6.579   6.137
 2752SOL    HW2 9156   0.441   6.724   6.068
 2753SOL     OW 9157   3.388   5.952   4.323
 2753SOL    HW1 9158   3.328   5.878   4.291
 2753SOL    HW2 9159   3.454   5.974   4.251
 2754SOL     OW 9160   1.156   5.032   3.983
 2754SOL    HW1 9161   1.217   4.953   3.973
 2754SOL    HW2 9162   1.197   5.099   4.045
 2755SOL     OW 9163   4.321   6.953   2.515
 2755SOL    HW1 9164   4.309   6.973   2.418
 2755SOL    HW2 9165   4.346   6.857   2.527
 2756SOL     OW 9166   0.256   2.901   4.789
 2756SOL    HW1 9167   0.298   2.877   4.876
 2756SOL    HW2 9168   0.300   2.851   4.715
 2757SOL     OW 9169   5.284   3.790   5.499
 2757SOL    HW1 9170   5.271   3.780   5.400
 2757SOL    HW2 9171   5.345   3.866   5.517
 2758SOL     OW 9172   6.827   6.871   1.080
 2758SOL    HW1 9173   6.805   6.950   1.138
 2758SOL    HW2 9174   6.743   6.837   1.038
 2759SOL     OW 9175   4.016   3.841   4.235
 2759SOL    HW1 9176   3.959   3.760   4.252
 2759SOL    HW2 9177   4.084   3.820   4.165
 2760SOL     OW 9178   5.130   5.684   2.995
 2760SOL    HW1 9179   5.167   5.695   3.087
 2760SOL    HW2 9180   5.162   5.759   2.937
 2761SOL     OW 9181   2.118   3.598   3.926
 2761SOL    HW1 9182   2.076   3.589   4.016
 2761SOL    HW2 9183   2.140   3.507   3.890
 2762SOL     OW 9184   4.363   1.984   2.793
 2762SOL    HW1 9185   4.265   1.965   2.785
 2762SOL    HW2 9186   4.377   2.063   2.852
 2763SOL     OW 9187   5.384   0.674   3.149
 2763SOL    HW1 9188   5.477   0.684   3.183
 2763SOL    HW2 9189   5.344   0.589   3.184
 2764SOL     OW 9190   0.217   1.763   2.869
 2764SOL    HW1 9191   0.145   1.811   2.920
 2764SOL    HW2 9192   0.279   1.718   2.934
 2765SOL     OW 9193   6.630   6.770   6.271
 2765SOL    HW1 9194   6.667   6.801   6.184
 2765SOL    HW2 9195   6.695   6.708   6.315
 2766SOL     OW 9196   5.306   0.206   0.019
 2766SOL    HW1 9197   5.309   0.275   0.090
 2766SOL    HW2 9198   5.298   0.250   6.949
 2767SOL     OW 9199   6.901   6.363   6.694
 2767SOL    HW1 9200   6.885   6.318   6.606
 2767SOL    HW2 9201   6.982   6.323   6.737
 2768SOL     OW 9202   4.127   0.401   1.568
 2768SOL    HW1 9203   4.171   0.348   1.496
 2768SOL    HW2 9204   4.153   0.497   1.560
 2769SOL     OW 9205   0.783   5.356   6.091
 2769SOL    HW1 9206   0.818   5.293   6.021
 2769SOL    HW2 9207   0.758   5.304   6.173
 2770SOL     OW 9208   2.001   6.863   0.251
 2770SOL    HW1 9209   2.002   6.863   0.151
 2770SOL    HW2 9210   2.094   6.850   0.286
 2771SOL     OW 9211   4.207   6.354   5.503
 2771SOL    HW1 9212   4.282   6.296   5.471
 2771SOL    HW2 9213   4.145   6.372   5.426
 2772SOL     OW 9214   6.222   1.734   3.118
 2772SOL    HW1 9215   6.291   1.804   3.100
 2772SOL    HW2 9216   6.251   1.648   3.075
 2773SOL     OW 9217   4.459   0.840   6.172
 2773SOL    HW1 9218   4.417   0.825   6.261
 2773SOL    HW2 9219   4.512   0.924   6.173
 2774SOL     OW 9220   6.156   6.717   3.710
 2774SOL    HW1 9221   6.212   6.763   3.779
 2774SOL    HW2 9222   6.059   6.734   3.729
 2775SOL     OW 9223   0.119   2.567   4.675
 2775SOL    HW1 9224   0.068   2.516   4.744
 2775SOL    HW2 9225   0.055   2.614   4.614
 2776SOL     OW 9226   4.906   3.986   5.828
 2776SOL    HW1 9227   4.947   3.956   5.914
 2776SOL    HW2 9228   4.807   3.972   5.831
 2777SOL     OW 9229   1.528   1.707   0.749
 2777SOL    HW1 9230   1.517   1.768   0.828
 2777SOL    HW2 9231   1.486   1.748   0.669
 2778SOL     OW 9232   2.604   6.244   5.607
 2778SOL    HW1 9233   2.506   6.240   5.627
 2778SOL    HW2 9234   2.636   6.154   5.580
 2779SOL     OW 9235   5.155   1.610   3.776
 2779SOL    HW1 9236   5.178   1.522   3.818
 2779SOL    HW2 9237   5.056   1.623   3.778
 2780SOL     OW 9238   0.554   6.895   5.455
 2780SOL    HW1 9239   0.554   6.860   5.549
 2780SOL    HW2 9240   0.567   6.820   5.391
 2781SOL     OW 9241   6.960   6.923   2.410
 2781SOL    HW1 9242   6.962   7.016   2.446
 2781SOL    HW2 9243   6.888   6.915   2.341
 2782SOL     OW 9244   5.783   6.543   4.822
 2782SOL    HW1 9245   5.702   6.485   4.829
 2782SOL    HW2 9246   5.754   6.638   4.805
 2783SOL     OW 9247   0.230   1.908   1.953
 2783SOL    HW1 9248   0.237   1.916   2.053
 2783SOL    HW2 9249   0.284   1.830   1.922
 2784SOL     OW 9250   1.357   1.856   2.315
 2784SOL    HW1 9251   1.457   1.865   2.310
 2784SOL    HW2 9252   1.327   1.782   2.256
 2785SOL     OW 9253   5.635   3.051   3.884
 2785SOL    HW1 9254   5.619   3.145   3.853
 2785SOL    HW2 9255   5.599   3.039   3.976
 2786SOL     OW 9256   0.265   6.348   1.349
 2786SOL    HW1 9257   0.205   6.268   1.349
 2786SOL    HW2 9258   0.301   6.364   1.441
 2787SOL     OW 9259   6.910   6.359   5.981
 2787SOL    HW1 9260   6.987   6.420   5.958
 2787SOL    HW2 9261   6.827   6.391   5.935
 2788SOL     OW 9262   3.093   6.655   6.505
 2788SOL    HW1 9263   3.174   6.616   6.460
 2788SOL    HW2 9264   3.121   6.702   6.589
 2789SOL     OW 9265   2.388   2.069   4.301
 2789SOL    HW1 9266   2.324   2.126   4.249
 2789SOL    HW2 9267   2.479   2.076   4.261
 2790SOL     OW 9268   1.152   4.446   0.800
 2790SOL    HW1 9269   1.150   4.430   0.899
 2790SOL    HW2 9270   1.060   4.469   0.769
 2791SOL     OW 9271   0.765   4.107   5.657
 2791SOL    HW1 9272   0.847   4.061   5.622
 2791SOL    HW2 9273   0.792   4.192   5.703
 2792SOL     OW 9274   2.911   2.597   6.983
 2792SOL    HW1 9275   2.996   2.555   6.953
 2792SOL    HW2 9276   2.926   2.693   7.003
 2793SOL     OW 9277   4.056   3.880   6.204
 2793SOL    HW1 9278   4.132   3.817   6.221
 2793SOL    HW2 9279   4.047   3.943   6.281
 2794SOL     OW 9280   1.508   1.804   0.124
 2794SOL    HW1 9281   1.592   1.789   0.073
 2794SOL    HW2 9282   1.510   1.750   0.208
 2795SOL     OW 9283   1.032   0.205   0.397
 2795SOL    HW1 9284   1.113   0.260   0.376
 2795SOL    HW2 9285   1.022   0.198   0.497
 2796SOL     OW 9286   3.067   5.688   6.662
 2796SOL    HW1 9287   3.121   5.771   6.665
 2796SOL    HW2 9288   3.031   5.674   6.569
 2797SOL     OW 9289   4.713   4.004   5.239
 2797SOL    HW1 9290   4.642   4.059   5.283
 2797SOL    HW2 9291   4.708   3.910   5.272
 2798SOL     OW 9292   5.886   2.059   2.158
 2798SOL    HW1 9293   5.865   2.049   2.061
 2798SOL    HW2 9294   5.911   2.154   2.177
 2799SOL     OW 9295   3.458   0.204   4.026
 2799SOL    HW1 9296   3.480   0.107   4.027
 2799SOL    HW2 9297   3.456   0.239   4.120
 2800SOL     OW 9298   4.440   1.569   0.691
 2800SOL    HW1 9299   4.440   1.526   0.600
 2800SOL    HW2 9300   4.517   1.535   0.744
 2801SOL     OW 9301   0.418   4.479   2.974
 2801SOL    HW1 9302   0.327   4.455   2.939
 2801SOL    HW2 9303   0.450   4.406   3.035
 2802SOL     OW 9304   2.483   4.439   4.404
 2802SOL    HW1 9305   2.467   4.400   4.494
 2802SOL    HW2 9306   2.573   4.482   4.402
 2803SOL     OW 9307   2.928   2.887   6.975
 2803SOL    HW1 9308   2.852   2.890   6.911
 2803SOL    HW2 9309   2.993   2.960   6.954
 2804SOL     OW 9310   5.483   2.642   3.638
 2804SOL    HW1 9311   5.534   2.598   3.565
 2804SOL    HW2 9312   5.509   2.738   3.644
 2805SOL     OW 9313   3.496   5.291   0.170
 2805SOL    HW1 9314   3.565   5.246   0.113
 2805SOL    HW2 9315   3.410   5.241   0.162
 2806SOL     OW 9316   1.500   3.141   4.548
 2806SOL    HW1 9317   1.463   3.207   4.483
 2806SOL    HW2 9318   1.545   3.189   4.624
 2807SOL     OW 9319   5.112   1.261   4.155
 2807SOL    HW1 9320   5.035   1.265   4.219
 2807SOL    HW2 9321   5.191   1.220   4.200
 2808SOL     OW 9322   0.540   6.559   0.127
 2808SOL    HW1 9323   0.587   6.488   0.180
 2808SOL    HW2 9324   0.441   6.543   0.133
 2809SOL     OW 9325   0.659   6.232   0.974
 2809SOL    HW1 9326   0.669   6.329   0.994
 2809SOL    HW2 9327   0.733   6.181   1.017
 2810SOL     OW 9328   6.793   6.210   2.059
 2810SOL    HW1 9329   6.818   6.304   2.038
 2810SOL    HW2 9330   6.715   6.209   2.123
 2811SOL     OW 9331   0.365   6.791   0.360
 2811SOL    HW1 9332   0.463   6.788   0.380
 2811SOL    HW2 9333   0.324   6.873   0.400
 2812SOL     OW 9334   2.070   0.669   0.758
 2812SOL    HW1 9335   2.156   0.684   0.808
 2812SOL    HW2 9336   2.076   0.583   0.708
 2813SOL     OW 9337   5.434   2.168   2.295
 2813SOL    HW1 9338   5.505   2.099   2.304
 2813SOL    HW2 9339   5.349   2.126   2.263
 2814SOL     OW 9340   1.857   4.246   6.599
 2814SOL    HW1 9341   1.858   4.265   6.697
 2814SOL    HW2 9342   1.913   4.313   6.551
 2815SOL     OW 9343   6.084   6.343   5.029
 2815SOL    HW1 9344   6.075   6.442   5.025
 2815SOL    HW2 9345   6.149   6.313   4.959
 2816SOL     OW 9346   1.080   5.431   5.393
 2816SOL    HW1 9347   0.990   5.412   5.354
 2816SOL    HW2 9348   1.135   5.482   5.327
 2817SOL     OW 9349   2.850   0.778   1.191
 2817SOL    HW1 9350   2.910   0.838   1.139
 2817SOL    HW2 9351   2.847   0.688   1.149
 2818SOL     OW 9352   1.848   0.238   0.354
 2818SOL    HW1 9353   1.820   0.151   0.396
 2818SOL    HW2 9354   1.941   0.260   0.382
 2819SOL     OW 9355   6.338   0.494   6.936
 2819SOL    HW1 9356   6.247   0.459   6.912
 2819SOL    HW2 9357   6.330   0.556   7.015
 2820SOL     OW 9358   1.872   2.042   0.461
 2820SOL    HW1 9359   1.932   2.096   0.520
 2820SOL    HW2 9360   1.923   1.965   0.422
 2821SOL     OW 9361   4.014   2.935   6.238
 2821SOL    HW1 9362   4.076   2.984   6.177
 2821SOL    HW2 9363   4.061   2.910   6.323
 2822SOL     OW 9364   4.189   3.916   1.306
 2822SOL    HW1 9365   4.276   3.932   1.352
 2822SOL    HW2 9366   4.200   3.842   1.239
 2823SOL     OW 9367   5.251   4.407   3.825
 2823SOL    HW1 9368   5.322   4.410   3.755
 2823SOL    HW2 9369   5.163   4.386   3.782
 2824SOL     OW 9370   0.782   4.354   5.788
 2824SOL    HW1 9371   0.734   4.355   5.876
 2824SOL    HW2 9372   0.879   4.376   5.803
 2825SOL     OW 9373   5.013   2.488   5.802
 2825SOL    HW1 9374   5.013   2.526   5.710
 2825SOL    HW2 9375   4.923   2.452   5.824
 2826SOL     OW 9376   2.997   2.372   6.361
 2826SOL    HW1 9377   2.947   2.422   6.290
 2826SOL    HW2 9378   3.075   2.426   6.391
 2827SOL     OW 9379   0.160   1.965   0.657
 2827SOL    HW1 9380   0.110   2.037   0.609
 2827SOL    HW2 9381   0.224   1.921   0.594
 2828SOL     OW 9382   1.978   3.786   6.966
 2828SOL    HW1 9383   2.042   3.710   6.980
 2828SOL    HW2 9384   1.884   3.750   6.965
 2829SOL     OW 9385   3.437   4.457   1.124
 2829SOL    HW1 9386   3.463   4.506   1.041
 2829SOL    HW2 9387   3.517   4.445   1.183
 2830SOL     OW 9388   2.631   5.031   4.606
 2830SOL    HW1 9389   2.543   5.078   4.615
 2830SOL    HW2 9390   2.696   5.072   4.670
 2831SOL     OW 9391   5.364   1.811   1.687
 2831SOL    HW1 9392   5.335   1.900   1.721
 2831SOL    HW2 9393   5.366   1.746   1.762
 2832SOL     OW 9394   1.554   3.338   1.226
 2832SOL    HW1 9395   1.550   3.438   1.223
 2832SOL    HW2 9396   1.594   3.309   1.313
 2833SOL     OW 9397   6.711   1.993   3.183
 2833SOL    HW1 9398   6.768   2.076   3.184
 2833SOL    HW2 9399   6.756   1.922   3.237
 2834SOL     OW 9400   2.659   0.072   4.232
 2834SOL    HW1 9401   2.587   0.008   4.205
 2834SOL    HW2 9402   2.717   0.093   4.153
 2835SOL     OW 9403   6.101   1.380   0.528
 2835SOL    HW1 9404   6.105   1.480   0.529
 2835SOL    HW2 9405   6.193   1.343   0.520
 2836SOL     OW 9406   2.996   6.735   1.965
 2836SOL    HW1 9407   3.008   6.666   1.895
 2836SOL    HW2 9408   2.934   6.806   1.931
 2837SOL     OW 9409   4.901   4.284   3.392
 2837SOL    HW1 9410   4.810   4.247   3.371
 2837SOL    HW2 9411   4.899   4.384   3.380
 2838SOL     OW 9412   6.743   4.831   5.966
 2838SOL    HW1 9413   6.680   4.865   6.036
 2838SOL    HW2 9414   6.832   4.813   6.008
 2839SOL     OW 9415   5.636   2.395   6.576
 2839SOL    HW1 9416   5.574   2.467   6.546
 2839SOL    HW2 9417   5.717   2.436   6.618
 2840SOL     OW 9418   6.448   5.719   5.140
 2840SOL    HW1 9419   6.453   5.619   5.135
 2840SOL    HW2 9420   6.419   5.746   5.231
 2841SOL     OW 9421   5.471   3.488   2.860
 2841SOL    HW1 9422   5.481   3.459   2.955
 2841SOL    HW2 9423   5.389   3.545   2.851
 2842SOL     OW 9424   1.071   5.956   3.928
 2842SOL    HW1 9425   1.061   5.895   4.007
 2842SOL    HW2 9426   1.106   6.044   3.959
 2843SOL     OW 9427   1.135   2.743   3.847
 2843SOL    HW1 9428   1.148   2.761   3.750
 2843SOL    HW2 9429   1.142   2.644   3.864
 2844SOL     OW 9430   5.470   3.932   0.687
 2844SOL    HW1 9431   5.563   3.961   0.664
 2844SOL    HW2 9432   5.470   3.835   0.710
 2845SOL     OW 9433   3.484   1.825   1.222
 2845SOL    HW1 9434   3.447   1.733   1.228
 2845SOL    HW2 9435   3.541   1.844   1.301
 2846SOL     OW 9436   5.828   0.558   6.077
 2846SOL    HW1 9437   5.844   0.589   5.983
 2846SOL    HW2 9438   5.761   0.618   6.121
 2847SOL     OW 9439   6.114   5.027   2.925
 2847SOL    HW1 9440   6.029   4.979   2.903
 2847SOL    HW2 9441   6.183   4.961   2.957
 2848SOL     OW 9442   6.841   3.867   0.340
 2848SOL    HW1 9443   6.858   3.796   0.409
 2848SOL    HW2 9444   6.746   3.897   0.345
 2849SOL     OW 9445   5.250   1.093   0.669
 2849SOL    HW1 9446   5.250   1.158   0.593
 2849SOL    HW2 9447   5.157   1.082   0.703
 2850SOL     OW 9448   6.858   1.018   0.984
 2850SOL    HW1 9449   6.768   1.059   0.996
 2850SOL    HW2 9450   6.924   1.063   1.044
 2851SOL     OW 9451   3.424   2.827   2.160
 2851SOL    HW1 9452   3.368   2.763   2.211
 2851SOL    HW2 9453   3.504   2.853   2.215
 2852SOL     OW 9454   1.547   4.713   4.945
 2852SOL    HW1 9455   1.603   4.689   4.866
 2852SOL    HW2 9456   1.593   4.784   4.998
 2853SOL     OW 9457   6.698   5.306   5.264
 2853SOL    HW1 9458   6.670   5.358   5.345
 2853SOL    HW2 9459   6.689   5.208   5.282
 2854SOL     OW 9460   3.233   0.795   0.174
 2854SOL    HW1 9461   3.299   0.864   0.144
 2854SOL    HW2 9462   3.236   0.718   0.110
 2855SOL     OW 9463   3.027   1.973   4.203
 2855SOL    HW1 9464   2.937   1.948   4.238
 2855SOL    HW2 9465   3.029   1.960   4.104
 2856SOL     OW 9466   1.136   5.212   4.724
 2856SOL    HW1 9467   1.164   5.163   4.807
 2856SOL    HW2 9468   1.145   5.152   4.645
 2857SOL     OW 9469   1.078   4.398   0.312
 2857SOL    HW1 9470   1.016   4.477   0.312
 2857SOL    HW2 9471   1.046   4.331   0.245
 2858SOL     OW 9472   5.441   4.761   4.375
 2858SOL    HW1 9473   5.441   4.701   4.455
 2858SOL    HW2 9474   5.348   4.770   4.341
 2859SOL     OW 9475   0.489   5.124   2.013
 2859SOL    HW1 9476   0.396   5.090   2.021
 2859SOL    HW2 9477   0.529   5.092   1.927
 2860SOL     OW 9478   1.409   6.326   2.083
 2860SOL    HW1 9479   1.427   6.408   2.028
 2860SOL    HW2 9480   1.322   6.337   2.131
 2861SOL     OW 9481   5.900   3.099   4.989
 2861SOL    HW1 9482   5.806   3.117   4.961
 2861SOL    HW2 9483   5.912   3.125   5.085
 2862SOL     OW 9484   4.218   1.186   1.017
 2862SOL    HW1 9485   4.221   1.086   1.027
 2862SOL    HW2 9486   4.159   1.210   0.940
 2863SOL     OW 9487   5.393   1.755   6.262
 2863SOL    HW1 9488   5.375   1.753   6.164
 2863SOL    HW2 9489   5.472   1.696   6.282
 2864SOL     OW 9490   4.761   4.711   0.208
 2864SOL    HW1 9491   4.750   4.692   0.305
 2864SOL    HW2 9492   4.847   4.672   0.176
 2865SOL     OW 9493   5.389   4.203   6.680
 2865SOL    HW1 9494   5.392   4.242   6.588
 2865SOL    HW2 9495   5.467   4.142   6.693
 2866SOL     OW 9496   4.909   6.370   0.704
 2866SOL    HW1 9497   4.858   6.439   0.755
 2866SOL    HW2 9498   4.949   6.412   0.622
 2867SOL     OW 9499   0.702   6.501   3.243
 2867SOL    HW1 9500   0.651   6.579   3.208
 2867SOL    HW2 9501   0.716   6.511   3.342
 2868SOL     OW 9502   6.513   6.737   5.235
 2868SOL    HW1 9503   6.610   6.726   5.255
 2868SOL    HW2 9504   6.491   6.835   5.227
 2869SOL     OW 9505   6.134   4.568   5.347
 2869SOL    HW1 9506   6.145   4.471   5.370
 2869SOL    HW2 9507   6.194   4.623   5.405
 2870SOL     OW 9508   0.583   1.473   1.535
 2870SOL    HW1 9509   0.542   1.507   1.451
 2870SOL    HW2 9510   0.545   1.383   1.557
 2871SOL     OW 9511   4.872   1.711   3.432
 2871SOL    HW1 9512   4.953   1.740   3.381
 2871SOL    HW2 9513   4.875   1.750   3.524
 2872SOL     OW 9514   3.298   1.463   2.630
 2872SOL    HW1 9515   3.227   1.408   2.675
 2872SOL    HW2 9516   3.268   1.558   2.623
 2873SOL     OW 9517   0.132   0.485   2.551
 2873SOL    HW1 9518   0.129   0.474   2.451
 2873SOL    HW2 9519   0.116   0.581   2.574
 2874SOL     OW 9520   1.100   0.564   1.917
 2874SOL    HW1 9521   1.095   0.639   1.982
 2874SOL    HW2 9522   1.135   0.597   1.830
 2875SOL     OW 9523   3.327   1.229   2.465
 2875SOL    HW1 9524   3.299   1.304   2.525
 2875SOL    HW2 9525   3.251   1.204   2.405
 2876SOL     OW 9526   0.790   0.012   0.505
 2876SOL    HW1 9527   0.733   0.018   0.423
 2876SOL    HW2 9528   0.803   0.103   0.543
 2877SOL     OW 9529   1.163   2.996   6.350
 2877SOL    HW1 9530   1.174   2.920   6.286
 2877SOL    HW2 9531   1.206   3.078   6.312
 2878SOL     OW 9532   4.108   3.717   4.470
 2878SOL    HW1 9533   4.153   3.643   4.419
 2878SOL    HW2 9534   4.072   3.784   4.405
 2879SOL     OW 9535   6.697   6.743   0.328
 2879SOL    HW1 9536   6.790   6.781   0.328
 2879SOL    HW2 9537   6.701   6.645   0.311
 2880SOL     OW 9538   1.518   1.134   2.460
 2880SOL    HW1 9539   1.552   1.188   2.536
 2880SOL    HW2 9540   1.579   1.144   2.381
 2881SOL     OW 9541   5.066   5.748   6.801
 2881SOL    HW1 9542   5.099   5.842   6.813
 2881SOL    HW2 9543   5.073   5.700   6.888
 2882SOL     OW 9544   4.325   6.614   0.722
 2882SOL    HW1 9545   4.253   6.667   0.766
 2882SOL    HW2 9546   4.305   6.516   0.731
 2883SOL     OW 9547   5.516   6.161   2.799
 2883SOL    HW1 9548   5.553   6.152   2.891
 2883SOL    HW2 9549   5.568   6.104   2.736
 2884SOL     OW 9550   6.053   5.122   3.715
 2884SOL    HW1 9551   6.081   5.073   3.632
 2884SOL    HW2 9552   6.070   5.219   3.703
 2885SOL     OW 9553   0.362   4.603   3.700
 2885SOL    HW1 9554   0.290   4.669   3.719
 2885SOL    HW2 9555   0.418   4.635   3.624
 2886SOL     OW 9556   1.914   4.492   5.063
 2886SOL    HW1 9557   1.933   4.436   5.143
 2886SOL    HW2 9558   1.925   4.436   4.980
 2887SOL     OW 9559   0.418   4.948   2.432
 2887SOL    HW1 9560   0.495   4.956   2.369
 2887SOL    HW2 9561   0.332   4.943   2.380
 2888SOL     OW 9562   4.254   5.773   6.770
 2888SOL    HW1 9563   4.225   5.679   6.791
 2888SOL    HW2 9564   4.237   5.792   6.673
 2889SOL     OW 9565   4.382   5.017   3.818
 2889SOL    HW1 9566   4.462   4.957   3.811
 2889SOL    HW2 9567   4.307   4.979   3.763
 2890SOL     OW 9568   1.403   1.124   0.499
 2890SOL    HW1 9569   1.448   1.196   0.551
 2890SOL    HW2 9570   1.371   1.052   0.561
 2891SOL     OW 9571   1.488   1.716   5.526
 2891SOL    HW1 9572   1.443   1.769   5.454
 2891SOL    HW2 9573   1.568   1.669   5.489
 2892SOL     OW 9574   5.947   4.573   2.225
 2892SOL    HW1 9575   5.868   4.544   2.279
 2892SOL    HW2 9576   6.030   4.556   2.277
 2893SOL     OW 9577   6.606   6.148   4.935
 2893SOL    HW1 9578   6.618   6.049   4.939
 2893SOL    HW2 9579   6.664   6.192   5.004
 2894SOL     OW 9580   1.499   5.776   1.466
 2894SOL    HW1 9581   1.521   5.722   1.547
 2894SOL    HW2 9582   1.419   5.736   1.420
 2895SOL     OW 9583   5.165   6.271   6.215
 2895SOL    HW1 9584   5.149   6.286   6.118
 2895SOL    HW2 9585   5.079   6.281   6.265
 2896SOL     OW 9586   6.340   0.233   6.761
 2896SOL    HW1 9587   6.332   0.169   6.685
 2896SOL    HW2 9588   6.436   0.253   6.777
 2897SOL     OW 9589   2.971   5.850   3.803
 2897SOL    HW1 9590   2.904   5.860   3.730
 2897SOL    HW2 9591   2.924   5.843   3.891
 2898SOL     OW 9592   5.026   2.719   2.463
 2898SOL    HW1 9593   5.105   2.696   2.406
 2898SOL    HW2 9594   4.942   2.710   2.410
 2899SOL     OW 9595   6.322   3.012   1.214
 2899SOL    HW1 9596   6.401   3.022   1.274
 2899SOL    HW2 9597   6.250   2.961   1.261
 2900SOL     OW 9598   3.525   2.897   4.617
 2900SOL    HW1 9599   3.596   2.966   4.631
 2900SOL    HW2 9600   3.461   2.928   4.547
 2901SOL     OW 9601   1.433   2.527   1.667
 2901SOL    HW1 9602   1.494   2.462   1.623
 2901SOL    HW2 9603   1.365   2.559   1.601
 2902SOL     OW 9604   5.116   6.310   3.433
 2902SOL    HW1 9605   5.027   6.330   3.392
 2902SOL    HW2 9606   5.166   6.396   3.447
 2903SOL     OW 9607   0.768   4.896   2.192
 2903SOL    HW1 9608   0.812   4.888   2.281
 2903SOL    HW2 9609   0.693   4.962   2.197
 2904SOL     OW 9610   3.567   4.945   4.357
 2904SOL    HW1 9611   3.524   4.967   4.270
 2904SOL    HW2 9612   3.500   4.954   4.430
 2905SOL     OW 9613   2.189   4.161   1.480
 2905SOL    HW1 9614   2.286   4.166   1.501
 2905SOL    HW2 9615   2.151   4.077   1.519
 2906SOL     OW 9616   6.038   6.649   6.506
 2906SOL    HW1 9617   5.950   6.605   6.492
 2906SOL    HW2 9618   6.107   6.580   6.527
 2907SOL     OW 9619   0.258   1.654   6.249
 2907SOL    HW1 9620   0.348   1.648   6.207
 2907SOL    HW2 9621   0.268   1.671   6.347
 2908SOL     OW 9622   3.668   5.884   3.913
 2908SOL    HW1 9623   3.710   5.796   3.890
 2908SOL    HW2 9624   3.722   5.958   3.874
 2909SOL     OW 9625   6.635   6.437   0.667
 2909SOL    HW1 9626   6.647   6.407   0.762
 2909SOL    HW2 9627   6.712   6.405   0.612
 2910SOL     OW 9628   1.437   0.153   3.817
 2910SOL    HW1 9629   1.479   0.206   3.743
 2910SOL    HW2 9630   1.339   0.142   3.798
 2911SOL     OW 9631   6.512   3.588   3.463
 2911SOL    HW1 9632   6.462   3.638   3.392
 2911SOL    HW2 9633   6.545   3.501   3.425
 2912SOL     OW 9634   0.184   1.329   3.183
 2912SOL    HW1 9635   0.239   1.397   3.231
 2912SOL    HW2 9636   0.087   1.345   3.201
 2913SOL     OW 9637   0.629   6.596   4.422
 2913SOL    HW1 9638   0.650   6.691   4.443
 2913SOL    HW2 9639   0.665   6.537   4.494
 2914SOL     OW 9640   3.819   4.527   0.795
 2914SOL    HW1 9641   3.832   4.545   0.892
 2914SOL    HW2 9642   3.851   4.434   0.774
 2915SOL     OW 9643   1.983   6.940   3.447
 2915SOL    HW1 9644   1.912   7.005   3.419
 2915SOL    HW2 9645   2.070   6.967   3.406
 2916SOL     OW 9646   0.281   6.167   0.041
 2916SOL    HW1 9647   0.350   6.145   0.110
 2916SOL    HW2 9648   0.268   6.088   7.000
 2917SOL     OW 9649   2.412   1.960   3.972
 2917SOL    HW1 9650   2.448   1.997   3.887
 2917SOL    HW2 9651   2.477   1.974   4.046
 2918SOL     OW 9652   4.857   0.799   1.352
 2918SOL    HW1 9653   4.910   0.718   1.326
 2918SOL    HW2 9654   4.779   0.808   1.290
 2919SOL     OW 9655   1.246   5.258   5.532
 2919SOL    HW1 9656   1.321   5.205   5.492
 2919SOL    HW2 9657   1.191   5.298   5.459
 2920SOL     OW 9658   2.918   2.663   1.675
 2920SOL    HW1 9659   2.950   2.688   1.583
 2920SOL    HW2 9660   2.997   2.648   1.735
 2921SOL     OW 9661   0.062   4.775   3.296
 2921SOL    HW1 9662   0.085   4.822   3.211
 2921SOL    HW2 9663   0.006   4.694   3.275
 2922SOL     OW 9664   3.904   5.487   3.966
 2922SOL    HW1 9665   3.825   5.440   3.926
 2922SOL    HW2 9666   3.984   5.427   3.961
 2923SOL     OW 9667   1.413   4.314   3.744
 2923SOL    HW1 9668   1.510   4.336   3.744
 2923SOL    HW2 9669   1.364   4.378   3.685
 2924SOL     OW 9670   4.381   1.797   6.769
 2924SOL    HW1 9671   4.356   1.884   6.726
 2924SOL    HW2 9672   4.440   1.745   6.708
 2925SOL     OW 9673   5.476   6.605   4.150
 2925SOL    HW1 9674   5.448   6.684   4.205
 2925SOL    HW2 9675   5.564   6.571   4.183
 2926SOL     OW 9676   6.905   2.766   5.292
 2926SOL    HW1 9677   6.997   2.806   5.292
 2926SOL    HW2 9678   6.845   2.822   5.235
 2927SOL     OW 9679   1.209   1.886   3.177
 2927SOL    HW1 9680   1.255   1.877   3.089
 2927SOL    HW2 9681   1.167   1.800   3.203
 2928SOL     OW 9682   5.386   4.933   0.084
 2928SOL    HW1 9683   5.404   4.836   0.067
 2928SOL    HW2 9684   5.288   4.947   0.093
 2929SOL     OW 9685   1.924   1.391   2.514
 2929SOL    HW1 9686   1.942   1.425   2.606
 2929SOL    HW2 9687   1.835   1.346   2.511
 2930SOL     OW 9688   0.819   3.159   3.718
 2930SOL    HW1 9689   0.870   3.174   3.802
 2930SOL    HW2 9690   0.880   3.117   3.650
 2931SOL     OW 9691   5.510   4.347   5.670
 2931SOL    HW1 9692   5.536   4.250   5.674
 2931SOL    HW2 9693   5.559   4.398   5.741
 2932SOL     OW 9694   6.649   0.244   0.493
 2932SOL    HW1 9695   6.567   0.190   0.477
 2932SOL    HW2 9696   6.624   0.340   0.505
 2933SOL     OW 9697   0.387   0.789   6.688
 2933SOL    HW1 9698   0.464   0.759   6.633
 2933SOL    HW2 9699   0.302   0.770   6.639
 2934SOL     OW 9700   5.333   5.527   2.715
 2934SOL    HW1 9701   5.389   5.548   2.795
 2934SOL    HW2 9702   5.345   5.597   2.645
 2935SOL     OW 9703   0.175   4.514   6.402
 2935SOL    HW1 9704   0.265   4.476   6.383
 2935SOL    HW2 9705   0.109   4.439   6.411
 2936SOL     OW 9706   4.772   6.296   2.801
 2936SOL    HW1 9707   4.805   6.317   2.893
 2936SOL    HW2 9708   4.682   6.338   2.788
 2937SOL     OW 9709   6.370   3.160   3.501
 2937SOL    HW1 9710   6.393   3.122   3.590
 2937SOL    HW2 9711   6.355   3.085   3.436
 2938SOL     OW 9712   0.238   5.322   1.110
 2938SOL    HW1 9713   0.311   5.377   1.068
 2938SOL    HW2 9714   0.149   5.363   1.088
 2939SOL     OW 9715   6.370   5.861   1.872
 2939SOL    HW1 9716   6.320   5.797   1.815
 2939SOL    HW2 9717   6.464   5.828   1.886
 2940SOL     OW 9718   4.683   5.886   3.181
 2940SOL    HW1 9719   4.708   5.983   3.172
 2940SOL    HW2 9720   4.716   5.836   3.102
 2941SOL     OW 9721   3.001   5.155   1.792
 2941SOL    HW1 9722   3.054   5.114   1.717
 2941SOL    HW2 9723   2.974   5.083   1.856
 2942SOL     OW 9724   2.465   1.897   0.514
 2942SOL    HW1 9725   2.531   1.825   0.494
 2942SOL    HW2 9726   2.513   1.980   0.542
 2943SOL     OW 9727   0.239   4.576   3.377
 2943SOL    HW1 9728   0.315   4.614   3.429
 2943SOL    HW2 9729   0.177   4.650   3.351
 2944SOL     OW 9730   0.640   5.076   3.666
 2944SOL    HW1 9731   0.544   5.082   3.640
 2944SOL    HW2 9732   0.696   5.128   3.601
 2945SOL     OW 9733   5.894   3.341   0.260
 2945SOL    HW1 9734   5.803   3.314   0.291
 2945SOL    HW2 9735   5.948   3.259   0.239
 2946SOL     OW 9736   3.248   3.759   4.564
 2946SOL    HW1 9737   3.201   3.709   4.636
 2946SOL    HW2 9738   3.181   3.801   4.503
 2947SOL     OW 9739   6.461   6.882   0.328
 2947SOL    HW1 9740   6.445   6.914   0.422
 2947SOL    HW2 9741   6.547   6.832   0.325
 2948SOL     OW 9742   6.378   5.300   0.869
 2948SOL    HW1 9743   6.387   5.203   0.894
 2948SOL    HW2 9744   6.285   5.318   0.837
 2949SOL     OW 9745   1.453   5.907   0.799
 2949SOL    HW1 9746   1.398   5.854   0.734
 2949SOL    HW2 9747   1.433   6.004   0.788
 2950SOL     OW 9748   4.933   5.039   2.804
 2950SOL    HW1 9749   4.870   4.967   2.833
 2950SOL    HW2 9750   4.924   5.118   2.864
 2951SOL     OW 9751   0.936   2.943   0.565
 2951SOL    HW1 9752   0.890   3.031   0.553
 2951SOL    HW2 9753   1.024   2.956   0.610
 2952SOL     OW 9754   1.329   1.037   4.421
 2952SOL    HW1 9755   1.379   1.000   4.343
 2952SOL    HW2 9756   1.247   1.084   4.388
 2953SOL     OW 9757   1.384   5.560   3.234
 2953SOL    HW1 9758   1.387   5.648   3.282
 2953SOL    HW2 9759   1.425   5.571   3.143
 2954SOL     OW 9760   0.338   4.733   5.748
 2954SOL    HW1 9761   0.391   4.800   5.697
 2954SOL    HW2 9762   0.241   4.741   5.724
 2955SOL     OW 9763   1.006   5.030   6.211
 2955SOL    HW1 9764   0.919   4.989   6.186
 2955SOL    HW2 9765   0.991   5.100   6.281
 2956SOL     OW 9766   6.533   3.751   5.104
 2956SOL    HW1 9767   6.613   3.726   5.050
 2956SOL    HW2 9768   6.458   3.689   5.083
 2957SOL     OW 9769   1.218   4.514   1.658
 2957SOL    HW1 9770   1.229   4.542   1.562
 2957SOL    HW2 9771   1.208   4.596   1.715
 2958SOL     OW 9772   2.200   3.123   1.366
 2958SOL    HW1 9773   2.171   3.162   1.453
 2958SOL    HW2 9774   2.131   3.140   1.296
 2959SOL     OW 9775   1.190   3.954   4.280
 2959SOL    HW1 9776   1.233   3.900   4.207
 2959SOL    HW2 9777   1.228   3.927   4.368
 2960SOL     OW 9778   5.390   6.289   0.549
 2960SOL    HW1 9779   5.348   6.276   0.639
 2960SOL    HW2 9780   5.332   6.348   0.492
 2961SOL     OW 9781   5.739   1.697   0.939
 2961SOL    HW1 9782   5.643   1.704   0.966
 2961SOL    HW2 9783   5.751   1.617   0.879
 2962SOL     OW 9784   6.250   0.715   4.269
 2962SOL    HW1 9785   6.160   0.689   4.235
 2962SOL    HW2 9786   6.264   0.813   4.254
 2963SOL     OW 9787   2.098   1.037   6.503
 2963SOL    HW1 9788   2.085   1.096   6.582
 2963SOL    HW2 9789   2.016   1.038   6.446
 2964SOL     OW 9790   0.778   0.597   5.858
 2964SOL    HW1 9791   0.826   0.560   5.778
 2964SOL    HW2 9792   0.845   0.628   5.926
 2965SOL     OW 9793   6.564   0.647   6.394
 2965SOL    HW1 9794   6.560   0.556   6.434
 2965SOL    HW2 9795   6.567   0.716   6.467
 2966SOL     OW 9796   3.768   0.047   2.631
 2966SOL    HW1 9797   3.849   0.008   2.587
 2966SOL    HW2 9798   3.795   0.094   2.715
 2967SOL     OW 9799   5.373   6.787   5.285
 2967SOL    HW1 9800   5.425   6.702   5.270
 2967SOL    HW2 9801   5.291   6.767   5.337
 2968SOL     OW 9802   1.779   3.686   1.908
 2968SOL    HW1 9803   1.797   3.590   1.929
 2968SOL    HW2 9804   1.693   3.714   1.950
 2969SOL     OW 9805   3.904   1.860   5.052
 2969SOL    HW1 9806   3.982   1.822   5.003
 2969SOL    HW2 9807   3.910   1.959   5.055
 2970SOL     OW 9808   2.560   2.397   6.458
 2970SOL    HW1 9809   2.528   2.386   6.363
 2970SOL    HW2 9810   2.496   2.353   6.520
 2971SOL     OW 9811   3.906   4.124   5.575
 2971SOL    HW1 9812   3.809   4.132   5.597
 2971SOL    HW2 9813   3.943   4.215   5.554
 2972SOL     OW 9814   0.096   6.074   0.380
 2972SOL    HW1 9815   0.076   6.148   0.315
 2972SOL    HW2 9816   0.041   5.994   0.356
 2973SOL     OW 9817   4.971   0.693   4.736
 2973SOL    HW1 9818   4.992   0.602   4.771
 2973SOL    HW2 9819   4.884   0.692   4.687
 2974SOL     OW 9820   5.379   4.999   2.820
 2974SOL    HW1 9821   5.290   4.955   2.813
 2974SOL    HW2 9822   5.373   5.075   2.885
 2975SOL     OW 9823   1.104   3.497   4.796
 2975SOL    HW1 9824   1.192   3.545   4.790
 2975SOL    HW2 9825   1.040   3.552   4.849
 2976SOL     OW 9826   4.259   0.163   1.525
 2976SOL    HW1 9827   4.333   0.127   1.469
 2976SOL    HW2 9828   4.172   0.121   1.496
 2977SOL     OW 9829   1.362   1.511   2.335
 2977SOL    HW1 9830   1.302   1.556   2.268
 2977SOL    HW2 9831   1.402   1.429   2.293
 2978SOL     OW 9832   3.254   5.680   0.445
 2978SOL    HW1 9833   3.295   5.738   0.374
 2978SOL    HW2 9834   3.319   5.671   0.521
 2979SOL     OW 9835   1.697   1.355   5.528
 2979SOL    HW1 9836   1.771   1.356   5.595
 2979SOL    HW2 9837   1.677   1.449   5.498
 2980SOL     OW 9838   3.344   3.228   2.614
 2980SOL    HW1 9839   3.276   3.298   2.637
 2980SOL    HW2 9840   3.421   3.270   2.566
 2981SOL     OW 9841   2.352   1.663   1.720
 2981SOL    HW1 9842   2.434   1.614   1.751
 2981SOL    HW2 9843   2.363   1.687   1.623
 2982SOL     OW 9844   0.506   0.550   2.313
 2982SOL    HW1 9845   0.409   0.571   2.307
 2982SOL    HW2 9846   0.519   0.451   2.314
 2983SOL     OW 9847   6.727   2.628   6.084
 2983SOL    HW1 9848   6.655   2.696   6.100
 2983SOL    HW2 9849   6.701   2.572   6.005
 2984SOL     OW 9850   0.648   5.910   1.127
 2984SOL    HW1 9851   0.655   5.938   1.031
 2984SOL    HW2 9852   0.678   5.985   1.186
 2985SOL     OW 9853   0.429   6.981   5.852
 2985SOL    HW1 9854   0.344   7.019   5.887
 2985SOL    HW2 9855   0.413   6.889   5.815
 2986SOL     OW 9856   3.675   4.055   2.241
 2986SOL    HW1 9857   3.678   4.076   2.339
 2986SOL    HW2 9858   3.581   4.032   2.215
 2987SOL     OW 9859   2.404   6.947   5.960
 2987SOL    HW1 9860   2.415   6.871   5.896
 2987SOL    HW2 9861   2.422   6.915   6.053
 2988SOL     OW 9862   1.044   1.508   6.512
 2988SOL    HW1 9863   1.139   1.533   6.529
 2988SOL    HW2 9864   1.019   1.432   6.573
 2989SOL     OW 9865   5.547   3.506   5.784
 2989SOL    HW1 9866   5.596   3.590   5.758
 2989SOL    HW2 9867   5.590   3.467   5.866
 2990SOL     OW 9868   4.766   2.194   4.964
 2990SOL    HW1 9869   4.747   2.222   4.870
 2990SOL    HW2 9870   4.857   2.154   4.969
 2991SOL     OW 9871   6.251   2.422   0.510
 2991SOL    HW1 9872   6.272   2.329   0.539
 2991SOL    HW2 9873   6.324   2.484   0.539
 2992SOL     OW 9874   2.368   4.396   4.660
 2992SOL    HW1 9875   2.340   4.450   4.739
 2992SOL    HW2 9876   2.398   4.305   4.691
 2993SOL     OW 9877   4.009   5.461   6.921
 2993SOL    HW1 9878   3.956   5.545   6.911
 2993SOL    HW2 9879   3.958   5.396   6.978
 2994SOL     OW 9880   2.917   5.376   4.785
 2994SOL    HW1 9881   3.011   5.407   4.804
 2994SOL    HW2 9882   2.901   5.379   4.687
 2995SOL     OW 9883   5.844   0.359   2.575
 2995SOL    HW1 9884   5.919   0.333   2.513
 2995SOL    HW2 9885   5.881   0.412   2.651
 2996SOL     OW 9886   6.560   0.437   4.465
 2996SOL    HW1 9887   6.518   0.415   4.377
 2996SOL    HW2 9888   6.582   0.535   4.467
 2997SOL     OW 9889   4.899   6.522   4.054
 2997SOL    HW1 9890   4.845   6.582   3.995
 2997SOL    HW2 9891   4.883   6.427   4.030
 2998SOL     OW 9892   2.477   0.421   1.425
 2998SOL    HW1 9893   2.557   0.449   1.477
 2998SOL    HW2 9894   2.489   0.445   1.328
 2999SOL     OW 9895   2.589   5.328   0.223
 2999SOL    HW1 9896   2.586   5.388   0.143
 2999SOL    HW2 9897   2.533   5.247   0.206
 3000SOL     OW 9898   1.711   4.136   6.398
 3000SOL    HW1 9899   1.780   4.115   6.328
 3000SOL    HW2 9900   1.751   4.192   6.469
 3001SOL     OW 9901   2.954   0.351   5.799
 3001SOL    HW1 9902   3.003   0.270   5.767
 3001SOL    HW2 9903   2.915   0.400   5.720
 3002SOL     OW 9904   2.091   2.057   1.469
 3002SOL    HW1 9905   2.037   1.993   1.414
 3002SOL    HW2 9906   2.084   2.032   1.566
 3003SOL     OW 9907   1.009   5.974   0.273
 3003SOL    HW1 9908   0.916   5.941   0.290
 3003SOL    HW2 9909   1.007   6.040   0.197
 3004SOL     OW 9910   2.978   1.383   4.700
 3004SOL    HW1 9911   3.028   1.296   4.705
 3004SOL    HW2 9912   2.889   1.373   4.745
 3005SOL     OW 9913   2.874   1.457   6.977
 3005SOL    HW1 9914   2.810   1.499   6.913
 3005SOL    HW2 9915   2.968   1.473   6.947
 3006SOL     OW 9916   5.752   1.307   6.348
 3006SOL    HW1 9917   5.816   1.337   6.277
 3006SOL    HW2 9918   5.732   1.210   6.336
 3007SOL     OW 9919   6.332   5.517   6.237
 3007SOL    HW1 9920   6.359   5.441   6.296
 3007SOL    HW2 9921   6.347   5.492   6.141
 3008SOL     OW 9922   5.339   3.397   5.587
 3008SOL    HW1 9923   5.350   3.403   5.487
 3008SOL    HW2 9924   5.406   3.455   5.632
 3009SOL     OW 9925   6.116   4.318   1.340
 3009SOL    HW1 9926   6.119   4.335   1.439
 3009SOL    HW2 9927   6.054   4.382   1.296
 3010SOL     OW 9928   4.381   4.079   1.461
 3010SOL    HW1 9929   4.364   4.033   1.549
 3010SOL    HW2 9930   4.475   4.062   1.432
 3011SOL     OW 9931   5.366   0.690   1.201
 3011SOL    HW1 9932   5.345   0.714   1.106
 3011SOL    HW2 9933   5.308   0.614   1.229
 3012SOL     OW 9934   1.868   2.664   4.715
 3012SOL    HW1 9935   1.882   2.689   4.810
 3012SOL    HW2 9936   1.870   2.746   4.658
 3013SOL     OW 9937   0.795   5.599   5.768
 3013SOL    HW1 9938   0.891   5.616   5.748
 3013SOL    HW2 9939   0.762   5.523   5.713
 3014SOL     OW 9940   3.767   6.868   0.839
 3014SOL    HW1 9941   3.768   6.893   0.936
 3014SOL    HW2 9942   3.821   6.785   0.825
 3015SOL     OW 9943   2.233   6.598   5.918
 3015SOL    HW1 9944   2.233   6.500   5.898
 3015SOL    HW2 9945   2.325   6.634   5.903
 3016SOL     OW 9946   3.498   1.406   4.622
 3016SOL    HW1 9947   3.518   1.492   4.667
 3016SOL    HW2 9948   3.490   1.333   4.690
 3017SOL     OW 9949   1.968   6.209   6.609
 3017SOL    HW1 9950   2.025   6.172   6.682
 3017SOL    HW2 9951   2.025   6.258   6.544
 3018SOL     OW 9952   2.143   2.766   1.980
 3018SOL    HW1 9953   2.153   2.838   2.048
 3018SOL    HW2 9954   2.228   2.755   1.929
 3019SOL     OW 9955   0.995   1.227   5.287
 3019SOL    HW1 9956   0.968   1.322   5.302
 3019SOL    HW2 9957   1.094   1.218   5.298
 3020SOL     OW 9958   5.296   3.950   6.661
 3020SOL    HW1 9959   5.342   3.923   6.576
 3020SOL    HW2 9960   5.330   4.039   6.690
 3021SOL     OW 9961   3.743   6.388   4.463
 3021SOL    HW1 9962   3.756   6.437   4.550
 3021SOL    HW2 9963   3.819   6.325   4.450
 3022SOL     OW 9964   4.022   6.383   1.844
 3022SOL    HW1 9965   3.925   6.399   1.825
 3022SOL    HW2 9966   4.057   6.456   1.902
 3023SOL     OW 9967   6.367   4.407   5.614
 3023SOL    HW1 9968   6.337   4.312   5.626
 3023SOL    HW2 9969   6.463   4.409   5.588
 3024SOL     OW 9970   6.326   1.952   6.069
 3024SOL    HW1 9971   6.341   1.907   5.981
 3024SOL    HW2 9972   6.390   1.915   6.136
 3025SOL     OW 9973   3.762   5.389   0.974
 3025SOL    HW1 9974   3.713   5.409   1.059
 3025SOL    HW2 9975   3.833   5.458   0.959
 3026SOL     OW 9976   0.087   5.407   2.770
 3026SOL    HW1 9977   0.136   5.357   2.842
 3026SOL    HW2 9978   0.087   5.505   2.791
 3027SOL     OW 9979   3.837   0.328   1.038
 3027SOL    HW1 9980   3.907   0.292   0.976
 3027SOL    HW2 9981   3.877   0.399   1.095
 3028SOL     OW 9982   3.404   3.764   3.719
 3028SOL    HW1 9983   3.355   3.678   3.733
 3028SOL    HW2 9984   3.386   3.799   3.627
 3029SOL     OW 9985   0.094   2.547   5.133
 3029SOL    HW1 9986   0.171   2.585   5.183
 3029SOL    HW2 9987   0.035   2.620   5.101
 3030SOL     OW 9988   0.403   3.740   6.284
 3030SOL    HW1 9989   0.397   3.672   6.212
 3030SOL    HW2 9990   0.452   3.701   6.362
 3031SOL     OW 9991   0.431   4.232   0.301
 3031SOL    HW1 9992   0.498   4.179   0.248
 3031SOL    HW2 9993   0.431   4.326   0.268
 3032SOL     OW 9994   3.620   0.450   3.725
 3032SOL    HW1 9995   3.523   0.423   3.728
 3032SOL    HW2 9996   3.626   0.548   3.705
 3033SOL     OW 9997   2.024   0.666   6.163
 3033SOL    HW1 9998   2.002   0.632   6.072
 3033SOL    HW2 9999   2.080   0.748   6.156
 3034SOL     OW10000   5.102   3.519   3.225
 3034SOL    HW110001   5.022   3.470   3.192
 3034SOL    HW210002   5.137   3.579   3.152
 3035SOL     OW10003   5.661   4.233   7.005
 3035SOL    HW110004   5.618   4.309   6.956
 3035SOL    HW210005   5.591   4.174   0.025
 3036SOL     OW10006   2.635   2.660   6.931
 3036SOL    HW110007   2.567   2.594   6.965
 3036SOL    HW210008   2.717   2.654   6.988
 3037SOL     OW10009   0.473   5.236   6.180
 3037SOL    HW110010   0.456   5.266   6.086
 3037SOL    HW210011   0.392   5.255   6.236
 3038SOL     OW10012   6.171   5.368   5.723
 3038SOL    HW110013   6.234   5.362   5.646
 3038SOL    HW210014   6.216   5.412   5.800
 3039SOL     OW10015   6.096   3.250   6.289
 3039SOL    HW110016   6.086   3.348   6.269
 3039SOL    HW210017   6.149   3.206   6.217
 3040SOL     OW10018   3.598   6.637   6.513
 3040SOL    HW110019   3.676   6.700   6.503
 3040SOL    HW210020   3.578   6.625   6.610
 3041SOL     OW10021   1.902   5.848   5.685
 3041SOL    HW110022   1.973   5.778   5.700
 3041SOL    HW210023   1.882   5.893   5.772
 3042SOL     OW10024   6.877   5.975   4.835
 3042SOL    HW110025   6.796   5.955   4.889
 3042SOL    HW210026   6.851   6.002   4.742
 3043SOL     OW10027   2.640   3.610   1.608
 3043SOL    HW110028   2.672   3.535   1.665
 3043SOL    HW210029   2.679   3.696   1.640
 3044SOL     OW10030   3.838   3.947   3.832
 3044SOL    HW110031   3.872   3.993   3.914
 3044SOL    HW210032   3.767   3.882   3.857
 3045SOL     OW10033   5.571   6.764   3.496
 3045SOL    HW110034   5.594   6.782   3.400
 3045SOL    HW210035   5.602   6.840   3.553
 3046SOL     OW10036   6.031   6.208   1.627
 3046SOL    HW110037   5.970   6.182   1.702
 3046SOL    HW210038   6.113   6.151   1.629
 3047SOL     OW10039   4.373   1.751   3.700
 3047SOL    HW110040   4.411   1.825   3.755
 3047SOL    HW210041   4.432   1.671   3.705
 3048SOL     OW10042   4.323   4.595   0.575
 3048SOL    HW110043   4.380   4.597   0.657
 3048SOL    HW210044   4.297   4.689   0.551
 3049SOL     OW10045   6.904   0.418   1.404
 3049SOL    HW110046   6.969   0.403   1.479
 3049SOL    HW210047   6.947   0.471   1.332
 3050SOL     OW10048   4.098   3.196   5.721
 3050SOL    HW110049   4.039   3.144   5.782
 3050SOL    HW210050   4.147   3.134   5.660
 3051SOL     OW10051   2.380   4.763   5.768
 3051SOL    HW110052   2.390   4.853   5.726
 3051SOL    HW210053   2.430   4.695   5.715
 3052SOL     OW10054   6.276   6.965   4.379
 3052SOL    HW110055   6.265   6.932   4.285
 3052SOL    HW210056   6.366   7.007   4.389
 3053SOL     OW10057   0.613   5.330   5.674
 3053SOL    HW110058   0.527   5.305   5.717
 3053SOL    HW210059   0.684   5.264   5.699
 3054SOL     OW10060   6.281   6.102   3.574
 3054SOL    HW110061   6.302   6.097   3.476
 3054SOL    HW210062   6.366   6.115   3.625
 3055SOL     OW10063   5.427   5.990   0.868
 3055SOL    HW110064   5.353   5.952   0.812
 3055SOL    HW210065   5.421   6.090   0.867
 3056SOL     OW10066   4.701   2.581   1.270
 3056SOL    HW110067   4.601   2.591   1.275
 3056SOL    HW210068   4.743   2.634   1.343
 3057SOL     OW10069   0.024   2.149   2.811
 3057SOL    HW110070   0.073   2.211   2.750
 3057SOL    HW210071   7.009   2.071   2.758
 3058SOL     OW10072   5.351   4.289   6.420
 3058SOL    HW110073   5.304   4.378   6.414
 3058SOL    HW210074   5.306   4.223   6.360
 3059SOL     OW10075   1.594   2.677   2.964
 3059SOL    HW110076   1.557   2.695   3.055
 3059SOL    HW210077   1.574   2.755   2.904
 3060SOL     OW10078   6.666   2.823   3.988
 3060SOL    HW110079   6.588   2.879   4.017
 3060SOL    HW210080   6.632   2.745   3.935
 3061SOL     OW10081   5.183   5.426   2.108
 3061SOL    HW110082   5.249   5.417   2.182
 3061SOL    HW210083   5.228   5.463   2.027
 3062SOL     OW10084   4.321   5.021   6.778
 3062SOL    HW110085   4.398   4.970   6.740
 3062SOL    HW210086   4.355   5.105   6.820
 3063SOL     OW10087   5.928   6.170   1.118
 3063SOL    HW110088   5.953   6.158   1.022
 3063SOL    HW210089   6.010   6.169   1.174
 3064SOL     OW10090   4.812   0.699   5.922
 3064SOL    HW110091   4.833   0.652   6.008
 3064SOL    HW210092   4.873   0.778   5.912
 3065SOL     OW10093   4.701   1.932   6.335
 3065SOL    HW110094   4.690   1.999   6.409
 3065SOL    HW210095   4.657   1.846   6.361
 3066SOL     OW10096   4.940   0.012   6.713
 3066SOL    HW110097   4.863   0.043   6.657
 3066SOL    HW210098   4.915   6.945   6.757
 3067SOL     OW10099   1.355   1.902   4.706
 3067SOL    HW110100   1.303   1.915   4.621
 3067SOL    HW210101   1.432   1.840   4.689
 3068SOL     OW10102   6.358   0.275   0.686
 3068SOL    HW110103   6.427   0.342   0.713
 3068SOL    HW210104   6.401   0.202   0.632
 3069SOL     OW10105   5.292   5.941   4.244
 3069SOL    HW110106   5.332   5.882   4.174
 3069SOL    HW210107   5.274   6.031   4.205
 3070SOL     OW10108   2.277   1.629   0.448
 3070SOL    HW110109   2.344   1.686   0.494
 3070SOL    HW210110   2.220   1.583   0.516
 3071SOL     OW10111   6.198   4.104   4.405
 3071SOL    HW110112   6.183   4.203   4.405
 3071SOL    HW210113   6.115   4.058   4.375
 3072SOL     OW10114   2.179   6.715   4.100
 3072SOL    HW110115   2.098   6.656   4.109
 3072SOL    HW210116   2.158   6.805   4.137
 3073SOL     OW10117   0.946   5.216   3.237
 3073SOL    HW110118   1.021   5.273   3.202
 3073SOL    HW210119   0.870   5.217   3.172
 3074SOL     OW10120   3.043   3.621   1.553
 3074SOL    HW110121   3.076   3.705   1.510
 3074SOL    HW210122   2.944   3.614   1.542
 3075SOL     OW10123   3.876   4.745   0.637
 3075SOL    HW110124   3.865   4.668   0.700
 3075SOL    HW210125   3.849   4.830   0.681
 3076SOL     OW10126   2.265   1.360   4.590
 3076SOL    HW110127   2.327   1.333   4.663
 3076SOL    HW210128   2.241   1.279   4.536
 3077SOL     OW10129   0.283   3.414   2.916
 3077SOL    HW110130   0.319   3.456   3.000
 3077SOL    HW210131   0.232   3.331   2.940
 3078SOL     OW10132   6.165   4.970   1.546
 3078SOL    HW110133   6.255   4.930   1.563
 3078SOL    HW210134   6.173   5.041   1.476
 3079SOL     OW10135   0.174   4.126   2.346
 3079SOL    HW110136   0.211   4.078   2.266
 3079SOL    HW210137   0.231   4.205   2.367
 3080SOL     OW10138   3.552   5.020   1.588
 3080SOL    HW110139   3.626   5.017   1.655
 3080SOL    HW210140   3.488   4.946   1.607
 3081SOL     OW10141   2.416   2.243   5.898
 3081SOL    HW110142   2.342   2.207   5.955
 3081SOL    HW210143   2.503   2.236   5.948
 3082SOL     OW10144   6.299   3.578   4.421
 3082SOL    HW110145   6.211   3.609   4.458
 3082SOL    HW210146   6.365   3.653   4.427
 3083SOL     OW10147   4.511   5.295   2.030
 3083SOL    HW110148   4.584   5.254   2.085
 3083SOL    HW210149   4.536   5.389   2.005
 3084SOL     OW10150   0.050   5.303   4.606
 3084SOL    HW110151   7.017   5.229   4.563
 3084SOL    HW210152   0.147   5.284   4.597
 3085SOL     OW10153   6.513   5.642   5.904
 3085SOL    HW110154   6.560   5.555   5.885
 3085SOL    HW210155   6.578   5.717   5.897
 3086SOL     OW10156   6.405   6.365   6.065
 3086SOL    HW110157   6.495   6.376   6.108
 3086SOL    HW210158   6.373   6.454   6.032
 3087SOL     OW10159   2.286   0.052   1.658
 3087SOL    HW110160   2.324   0.113   1.727
 3087SOL    HW210161   2.299   0.092   1.567
 3088SOL     OW10162   2.125   2.580   5.159
 3088SOL    HW110163   2.169   2.537   5.238
 3088SOL    HW210164   2.189   2.643   5.115
 3089SOL     OW10165   4.347   0.270   0.508
 3089SOL    HW110166   4.319   0.179   0.540
 3089SOL    HW210167   4.402   0.315   0.578
 3090SOL     OW10168   0.384   2.122   3.089
 3090SOL    HW110169   0.397   2.095   3.184
 3090SOL    HW210170   0.417   2.049   3.029
 3091SOL     OW10171   1.564   1.614   5.994
 3091SOL    HW110172   1.544   1.707   6.023
 3091SOL    HW210173   1.663   1.598   5.997
 3092SOL     OW10174   4.876   2.055   4.101
 3092SOL    HW110175   4.944   1.984   4.080
 3092SOL    HW210176   4.807   2.057   4.028
 3093SOL     OW10177   6.370   6.339   0.300
 3093SOL    HW110178   6.372   6.243   0.327
 3093SOL    HW210179   6.333   6.347   0.208
 3094SOL     OW10180   1.234   0.406   6.189
 3094SOL    HW110181   1.231   0.505   6.200
 3094SOL    HW210182   1.216   0.383   6.093
 3095SOL     OW10183   2.241   3.609   5.958
 3095SOL    HW110184   2.303   3.671   5.909
 3095SOL    HW210185   2.281   3.517   5.959
 3096SOL     OW10186   1.864   3.396   3.705
 3096SOL    HW110187   1.786   3.360   3.653
 3096SOL    HW210188   1.839   3.399   3.802
 3097SOL     OW10189   5.216   2.182   6.578
 3097SOL    HW110190   5.298   2.235   6.557
 3097SOL    HW210191   5.150   2.239   6.625
 3098SOL     OW10192   2.055   4.150   3.028
 3098SOL    HW110193   1.988   4.222   3.049
 3098SOL    HW210194   2.102   4.123   3.112
 3099SOL     OW10195   0.489   1.331   5.355
 3099SOL    HW110196   0.417   1.289   5.299
 3099SOL    HW210197   0.503   1.425   5.326
 3100SOL     OW10198   5.976   4.208   2.903
 3100SOL    HW110199   5.901   4.173   2.848
 3100SOL    HW210200   6.054   4.229   2.844
 3101SOL     OW10201   4.620   0.487   4.939
 3101SOL    HW110202   4.554   0.544   4.890
 3101SOL    HW210203   4.652   0.415   4.878
 3102SOL     OW10204   5.230   2.983   2.814
 3102SOL    HW110205   5.245   2.964   2.717
 3102SOL    HW210206   5.315   3.016   2.855
 3103SOL     OW10207   1.364   0.931   2.539
 3103SOL    HW110208   1.268   0.940   2.514
 3103SOL    HW210209   1.416   1.007   2.501
 3104SOL     OW10210   6.061   1.951   6.179
 3104SOL    HW110211   6.082   2.046   6.199
 3104SOL    HW210212   6.079   1.932   6.082
 3105SOL     OW10213   5.698   4.531   0.928
 3105SOL    HW110214   5.740   4.590   0.860
 3105SOL    HW210215   5.756   4.450   0.942
 3106SOL     OW10216   5.353   1.839   5.157
 3106SOL    HW110217   5.445   1.867   5.132
 3106SOL    HW210218   5.286   1.888   5.102
 3107SOL     OW10219   4.798   1.261   4.678
 3107SOL    HW110220   4.807   1.201   4.598
 3107SOL    HW210221   4.887   1.272   4.721
 3108SOL     OW10222   2.892   5.116   4.380
 3108SOL    HW110223   2.821   5.067   4.329
 3108SOL    HW210224   2.943   5.052   4.437
 3109SOL     OW10225   6.921   5.050   4.030
 3109SOL    HW110226   6.967   4.969   4.066
 3109SOL    HW210227   6.989   5.117   4.002
 3110SOL     OW10228   2.119   4.863   3.715
 3110SOL    HW110229   2.052   4.881   3.643
 3110SOL    HW210230   2.184   4.794   3.684
 3111SOL     OW10231   0.371   3.607   4.370
 3111SOL    HW110232   0.454   3.552   4.375
 3111SOL    HW210233   0.368   3.671   4.447
 3112SOL     OW10234   4.625   0.615   0.892
 3112SOL    HW110235   4.716   0.590   0.859
 3112SOL    HW210236   4.579   0.672   0.823
 3113SOL     OW10237   1.025   6.677   3.708
 3113SOL    HW110238   1.119   6.643   3.701
 3113SOL    HW210239   0.967   6.605   3.746
 3114SOL     OW10240   5.271   4.914   5.129
 3114SOL    HW110241   5.331   4.856   5.185
 3114SOL    HW210242   5.318   4.938   5.044
 3115SOL     OW10243   5.788   5.148   4.314
 3115SOL    HW110244   5.712   5.192   4.266
 3115SOL    HW210245   5.868   5.207   4.310
 3116SOL     OW10246   0.710   2.610   5.935
 3116SOL    HW110247   0.789   2.602   5.995
 3116SOL    HW210248   0.627   2.616   5.990
 3117SOL     OW10249   4.217   0.164   2.022
 3117SOL    HW110250   4.201   0.242   2.083
 3117SOL    HW210251   4.197   0.192   1.928
 3118SOL     OW10252   1.061   1.709   3.471
 3118SOL    HW110253   1.107   1.797   3.486
 3118SOL    HW210254   0.962   1.723   3.475
 3119SOL     OW10255   4.217   6.591   3.072
 3119SOL    HW110256   4.272   6.668   3.039
 3119SOL    HW210257   4.187   6.535   2.995
 3120SOL     OW10258   3.922   6.370   6.553
 3120SOL    HW110259   3.940   6.463   6.520
 3120SOL    HW210260   3.863   6.374   6.633
 3121SOL     OW10261   4.090   1.298   3.155
 3121SOL    HW110262   4.056   1.213   3.115
 3121SOL    HW210263   4.131   1.354   3.083
 3122SOL     OW10264   5.260   3.229   6.767
 3122SOL    HW110265   5.354   3.261   6.752
 3122SOL    HW210266   5.221   3.198   6.680
 3123SOL     OW10267   2.121   3.104   2.684
 3123SOL    HW110268   2.196   3.114   2.750
 3123SOL    HW210269   2.116   3.187   2.628
 3124SOL     OW10270   5.163   6.403   5.659
 3124SOL    HW110271   5.080   6.379   5.608
 3124SOL    HW210272   5.241   6.403   5.597
 3125SOL     OW10273   2.321   1.563   4.865
 3125SOL    HW110274   2.314   1.603   4.956
 3125SOL    HW210275   2.337   1.636   4.798
 3126SOL     OW10276   5.374   4.038   5.048
 3126SOL    HW110277   5.306   4.078   5.110
 3126SOL    HW210278   5.330   4.014   4.961
 3127SOL     OW10279   6.708   2.337   6.437
 3127SOL    HW110280   6.786   2.293   6.392
 3127SOL    HW210281   6.697   2.430   6.400
 3128SOL     OW10282   4.687   2.374   1.451
 3128SOL    HW110283   4.705   2.441   1.380
 3128SOL    HW210284   4.740   2.291   1.434
 3129SOL     OW10285   4.336   4.489   0.123
 3129SOL    HW110286   4.270   4.416   0.137
 3129SOL    HW210287   4.413   4.455   0.069
 3130SOL     OW10288   6.387   5.706   3.365
 3130SOL    HW110289   6.332   5.763   3.304
 3130SOL    HW210290   6.435   5.764   3.431
 3131SOL     OW10291   0.811   1.560   3.640
 3131SOL    HW110292   0.724   1.544   3.686
 3131SOL    HW210293   0.817   1.503   3.558
 3132SOL     OW10294   4.606   4.080   6.075
 3132SOL    HW110295   4.593   4.001   6.016
 3132SOL    HW210296   4.541   4.075   6.152
 3133SOL     OW10297   5.596   6.493   4.535
 3133SOL    HW110298   5.510   6.477   4.488
 3133SOL    HW210299   5.637   6.579   4.502
 3134SOL     OW10300   3.849   5.501   2.944
 3134SOL    HW110301   3.943   5.481   2.973
 3134SOL    HW210302   3.785   5.466   3.011
 3135SOL     OW10303   4.173   0.735   6.365
 3135SOL    HW110304   4.264   0.713   6.400
 3135SOL    HW210305   4.111   0.659   6.382
 3136SOL     OW10306   6.041   5.621   2.011
 3136SOL    HW110307   6.028   5.657   1.919
 3136SOL    HW210308   5.964   5.562   2.035
 3137SOL     OW10309   5.097   3.807   6.937
 3137SOL    HW110310   5.191   3.776   6.946
 3137SOL    HW210311   5.088   3.865   6.855
 3138SOL     OW10312   6.595   6.323   5.493
 3138SOL    HW110313   6.605   6.230   5.458
 3138SOL    HW210314   6.569   6.385   5.418
 3139SOL     OW10315   1.339   4.939   2.139
 3139SOL    HW110316   1.259   4.954   2.082
 3139SOL    HW210317   1.413   4.900   2.083
 3140SOL     OW10318   4.501   5.495   6.804
 3140SOL    HW110319   4.488   5.441   6.887
 3140SOL    HW210320   4.471   5.443   6.725
 3141SOL     OW10321   5.984   2.299   0.327
 3141SOL    HW110322   6.051   2.260   0.264
 3141SOL    HW210323   5.985   2.399   0.318
 3142SOL     OW10324   3.941   0.617   3.872
 3142SOL    HW110325   3.931   0.526   3.832
 3142SOL    HW210326   4.015   0.616   3.940
 3143SOL     OW10327   5.776   1.386   6.896
 3143SOL    HW110328   5.761   1.368   6.994
 3143SOL    HW210329   5.834   1.314   6.858
 3144SOL     OW10330   3.763   5.239   6.375
 3144SOL    HW110331   3.717   5.154   6.348
 3144SOL    HW210332   3.750   5.254   6.473
 3145SOL     OW10333   1.080   6.178   5.232
 3145SOL    HW110334   1.049   6.094   5.277
 3145SOL    HW210335   1.177   6.191   5.248
 3146SOL     OW10336   6.376   1.458   4.745
 3146SOL    HW110337   6.457   1.460   4.687
 3146SOL    HW210338   6.397   1.411   4.831
 3147SOL     OW10339   5.026   0.498   0.895
 3147SOL    HW110340   4.972   0.417   0.918
 3147SOL    HW210341   4.972   0.559   0.837
 3148SOL     OW10342   5.437   4.931   0.585
 3148SOL    HW110343   5.497   4.959   0.510
 3148SOL    HW210344   5.471   4.969   0.671
 3149SOL     OW10345   4.350   3.150   6.821
 3149SOL    HW110346   4.356   3.248   6.801
 3149SOL    HW210347   4.266   3.132   6.873
 3150SOL     OW10348   6.756   0.779   5.464
 3150SOL    HW110349   6.667   0.821   5.480
 3150SOL    HW210350   6.764   0.756   5.367
 3151SOL     OW10351   0.800   1.223   6.983
 3151SOL    HW110352   0.754   1.176   0.038
 3151SOL    HW210353   0.732   1.257   6.918
 3152SOL     OW10354   2.945   1.190   5.813
 3152SOL    HW110355   2.889   1.236   5.744
 3152SOL    HW210356   2.915   1.096   5.823
 3153SOL     OW10357   5.252   5.726   1.229
 3153SOL    HW110358   5.340   5.740   1.184
 3153SOL    HW210359   5.244   5.631   1.258
 3154SOL     OW10360   3.924   2.153   0.435
 3154SOL    HW110361   4.017   2.118   0.430
 3154SOL    HW210362   3.925   2.252   0.418
 3155SOL     OW10363   6.842   6.571   6.268
 3155SOL    HW110364   6.941   6.587   6.276
 3155SOL    HW210365   6.807   6.539   6.355
 3156SOL     OW10366   2.930   4.910   0.832
 3156SOL    HW110367   2.971   4.847   0.898
 3156SOL    HW210368   2.839   4.878   0.807
 3157SOL     OW10369   1.406   1.117   3.283
 3157SOL    HW110370   1.472   1.073   3.222
 3157SOL    HW210371   1.340   1.170   3.229
 3158SOL     OW10372   1.602   0.602   6.357
 3158SOL    HW110373   1.624   0.522   6.301
 3158SOL    HW210374   1.666   0.607   6.433
 3159SOL     OW10375   4.908   5.343   0.880
 3159SOL    HW110376   4.889   5.263   0.822
 3159SOL    HW210377   4.932   5.312   0.972
 3160SOL     OW10378   2.119   1.127   5.679
 3160SOL    HW110379   2.048   1.141   5.610
 3160SOL    HW210380   2.079   1.080   5.758
 3161SOL     OW10381   1.990   2.237   2.169
 3161SOL    HW110382   2.012   2.321   2.119
 3161SOL    HW210383   1.927   2.181   2.114
 3162SOL     OW10384   1.382   5.750   2.348
 3162SOL    HW110385   1.296   5.709   2.316
 3162SOL    HW210386   1.399   5.834   2.297
 3163SOL     OW10387   5.506   4.564   1.421
 3163SOL    HW110388   5.560   4.559   1.505
 3163SOL    HW210389   5.415   4.601   1.441
 3164SOL     OW10390   2.100   6.716   2.800
 3164SOL    HW110391   2.078   6.629   2.755
 3164SOL    HW210392   2.021   6.777   2.796
 3165SOL     OW10393   6.709   5.544   0.005
 3165SOL    HW110394   6.789   5.524   6.968
 3165SOL    HW210395   6.652   5.612   6.978
 3166SOL     OW10396   3.656   2.037   4.933
 3166SOL    HW110397   3.563   2.023   4.967
 3166SOL    HW210398   3.711   2.079   5.005
 3167SOL     OW10399   6.615   2.675   2.698
 3167SOL    HW110400   6.704   2.715   2.719
 3167SOL    HW210401   6.628   2.583   2.660
 3168SOL     OW10402   6.028   1.507   0.881
 3168SOL    HW110403   6.048   1.419   0.840
 3168SOL    HW210404   5.972   1.562   0.819
 3169SOL     OW10405   1.399   2.125   2.407
 3169SOL    HW110406   1.367   2.055   2.342
 3169SOL    HW210407   1.380   2.216   2.369
 3170SOL     OW10408   2.772   5.104   4.030
 3170SOL    HW110409   2.828   5.040   3.978
 3170SOL    HW210410   2.749   5.063   4.119
 3171SOL     OW10411   6.640   2.411   4.505
 3171SOL    HW110412   6.586   2.490   4.532
 3171SOL    HW210413   6.729   2.441   4.471
 3172SOL     OW10414   6.383   4.287   0.759
 3172SOL    HW110415   6.311   4.353   0.780
 3172SOL    HW210416   6.404   4.290   0.661
 3173SOL     OW10417   5.519   4.232   0.258
 3173SOL    HW110418   5.453   4.173   0.304
 3173SOL    HW210419   5.612   4.197   0.273
 3174SOL     OW10420   2.647   3.138   6.817
 3174SOL    HW110421   2.686   3.054   6.780
 3174SOL    HW210422   2.718   3.188   6.868
 3175SOL     OW10423   5.914   5.760   4.939
 3175SOL    HW110424   6.009   5.756   4.911
 3175SOL    HW210425   5.880   5.668   4.957
 3176SOL     OW10426   6.840   5.022   3.665
 3176SOL    HW110427   6.773   5.016   3.739
 3176SOL    HW210428   6.851   4.933   3.622
 3177SOL     OW10429   5.630   2.280   1.774
 3177SOL    HW110430   5.710   2.327   1.738
 3177SOL    HW210431   5.595   2.216   1.706
 3178SOL     OW10432   1.775   0.642   2.074
 3178SOL    HW110433   1.817   0.563   2.029
 3178SOL    HW210434   1.844   0.692   2.127
 3179SOL     OW10435   0.454   4.544   2.715
 3179SOL    HW110436   0.471   4.451   2.683
 3179SOL    HW210437   0.442   4.543   2.814
 3180SOL     OW10438   6.305   6.940   6.226
 3180SOL    HW110439   6.310   6.842   6.245
 3180SOL    HW210440   6.381   6.987   6.272
 3181SOL     OW10441   6.687   6.529   4.629
 3181SOL    HW110442   6.669   6.588   4.708
 3181SOL    HW210443   6.696   6.434   4.660
 3182SOL     OW10444   1.256   6.581   1.442
 3182SOL    HW110445   1.168   6.541   1.466
 3182SOL    HW210446   1.288   6.542   1.356
 3183SOL     OW10447   4.180   4.290   0.243
 3183SOL    HW110448   4.249   4.275   0.314
 3183SOL    HW210449   4.096   4.241   0.267
 3184SOL     OW10450   6.521   0.483   4.827
 3184SOL    HW110451   6.557   0.396   4.791
 3184SOL    HW210452   6.450   0.464   4.895
 3185SOL     OW10453   1.174   6.839   6.367
 3185SOL    HW110454   1.147   6.872   6.277
 3185SOL    HW210455   1.165   6.914   6.434
 3186SOL     OW10456   0.794   2.269   5.978
 3186SOL    HW110457   0.734   2.304   6.051
 3186SOL    HW210458   0.792   2.169   5.978
 3187SOL     OW10459   5.094   0.283   3.020
 3187SOL    HW110460   5.134   0.309   2.932
 3187SOL    HW210461   5.071   0.186   3.018
 3188SOL     OW10462   0.499   6.525   1.508
 3188SOL    HW110463   0.431   6.594   1.482
 3188SOL    HW210464   0.557   6.505   1.429
 3189SOL     OW10465   2.735   1.613   5.571
 3189SOL    HW110466   2.723   1.645   5.665
 3189SOL    HW210467   2.762   1.690   5.513
 3190SOL     OW10468   6.598   5.550   4.661
 3190SOL    HW110469   6.545   5.577   4.741
 3190SOL    HW210470   6.663   5.622   4.638
 3191SOL     OW10471   4.323   5.102   0.306
 3191SOL    HW110472   4.352   5.054   0.223
 3191SOL    HW210473   4.388   5.175   0.326
 3192SOL     OW10474   5.174   0.861   3.230
 3192SOL    HW110475   5.229   0.942   3.255
 3192SOL    HW210476   5.235   0.783   3.215
 3193SOL     OW10477   3.962   6.045   4.680
 3193SOL    HW110478   3.939   6.123   4.738
 3193SOL    HW210479   3.889   5.976   4.687
 3194SOL     OW10480   2.458   6.734   5.837
 3194SOL    HW110481   2.439   6.738   5.739
 3194SOL    HW210482   2.514   6.653   5.856
 3195SOL     OW10483   6.808   6.053   1.661
 3195SOL    HW110484   6.737   6.113   1.624
 3195SOL    HW210485   6.873   6.107   1.714
 3196SOL     OW10486   6.248   0.845   2.985
 3196SOL    HW110487   6.151   0.858   3.006
 3196SOL    HW210488   6.282   0.766   3.035
 3197SOL     OW10489   3.086   0.798   0.393
 3197SOL    HW110490   3.040   0.885   0.410
 3197SOL    HW210491   3.152   0.809   0.319
 3198SOL     OW10492   5.928   4.135   3.722
 3198SOL    HW110493   5.857   4.179   3.778
 3198SOL    HW210494   5.980   4.204   3.673
 3199SOL     OW10495   5.165   3.492   4.125
 3199SOL    HW110496   5.158   3.395   4.100
 3199SOL    HW210497   5.120   3.548   4.055
 3200SOL     OW10498   6.313   3.600   5.006
 3200SOL    HW110499   6.223   3.564   5.026
 3200SOL    HW210500   6.340   3.576   4.912
 3201SOL     OW10501   6.226   3.212   2.503
 3201SOL    HW110502   6.247   3.123   2.461
 3201SOL    HW210503   6.186   3.272   2.434
 3202SOL     OW10504   3.579   3.133   5.854
 3202SOL    HW110505   3.611   3.127   5.759
 3202SOL    HW210506   3.600   3.047   5.901
 3203SOL     OW10507   3.253   6.459   1.659
 3203SOL    HW110508   3.157   6.482   1.678
 3203SOL    HW210509   3.310   6.541   1.670
 3204SOL     OW10510   5.736   0.303   3.159
 3204SOL    HW110511   5.834   0.318   3.155
 3204SOL    HW210512   5.695   0.326   3.070
 3205SOL     OW10513   5.582   2.823   0.742
 3205SOL    HW110514   5.652   2.888   0.771
 3205SOL    HW210515   5.560   2.761   0.817
 3206SOL     OW10516   3.835   5.373   0.065
 3206SOL    HW110517   3.849   5.454   0.121
 3206SOL    HW210518   3.845   5.291   0.121
 3207SOL     OW10519   1.857   5.740   2.584
 3207SOL    HW110520   1.773   5.783   2.618
 3207SOL    HW210521   1.865   5.756   2.486
 3208SOL     OW10522   0.383   4.013   6.925
 3208SOL    HW110523   0.397   4.018   0.004
 3208SOL    HW210524   0.346   3.924   6.900
 3209SOL     OW10525   5.087   0.309   5.098
 3209SOL    HW110526   5.133   0.232   5.143
 3209SOL    HW210527   4.992   0.312   5.128
 3210SOL     OW10528   4.845   4.998   2.219
 3210SOL    HW110529   4.873   5.079   2.271
 3210SOL    HW210530   4.914   4.978   2.150
 3211SOL     OW10531   2.415   0.277   6.684
 3211SOL    HW110532   2.455   0.248   6.771
 3211SOL    HW210533   2.342   0.343   6.701
 3212SOL     OW10534   3.848   0.033   3.906
 3212SOL    HW110535   3.836   6.954   3.910
 3212SOL    HW210536   3.934   0.058   3.951
 3213SOL     OW10537   1.312   0.152   5.787
 3213SOL    HW110538   1.375   0.136   5.864
 3213SOL    HW210539   1.244   0.079   5.784
 3214SOL     OW10540   2.120   0.053   2.840
 3214SOL    HW110541   2.029   0.049   2.799
 3214SOL    HW210542   2.187   0.073   2.769
 3215SOL     OW10543   2.091   3.167   1.601
 3215SOL    HW110544   2.174   3.190   1.651
 3215SOL    HW210545   2.012   3.213   1.642
 3216SOL     OW10546   0.319   4.117   1.549
 3216SOL    HW110547   0.389   4.144   1.615
 3216SOL    HW210548   0.271   4.199   1.516
 3217SOL     OW10549   6.208   5.870   4.318
 3217SOL    HW110550   6.110   5.854   4.326
 3217SOL    HW210551   6.224   5.960   4.277
 3218SOL     OW10552   5.834   1.464   3.207
 3218SOL    HW110553   5.857   1.540   3.147
 3218SOL    HW210554   5.918   1.423   3.242
 3219SOL     OW10555   4.312   1.839   4.234
 3219SOL    HW110556   4.322   1.919   4.293
 3219SOL    HW210557   4.247   1.859   4.161
 3220SOL     OW10558   0.358   3.913   6.051
 3220SOL    HW110559   0.379   3.850   6.126
 3220SOL    HW210560   0.430   3.908   5.982
 3221SOL     OW10561   3.898   1.798   2.330
 3221SOL    HW110562   3.825   1.774   2.265
 3221SOL    HW210563   3.889   1.742   2.412
 3222SOL     OW10564   2.964   0.877   3.168
 3222SOL    HW110565   3.038   0.815   3.196
 3222SOL    HW210566   2.932   0.928   3.247
 3223SOL     OW10567   2.032   5.172   0.761
 3223SOL    HW110568   2.104   5.128   0.706
 3223SOL    HW210569   2.064   5.183   0.855
 3224SOL     OW10570   4.463   2.471   3.962
 3224SOL    HW110571   4.553   2.434   3.984
 3224SOL    HW210572   4.446   2.552   4.019
 3225SOL     OW10573   2.768   1.191   4.716
 3225SOL    HW110574   2.831   1.125   4.674
 3225SOL    HW210575   2.695   1.142   4.763
 3226SOL     OW10576   5.267   1.060   6.940
 3226SOL    HW110577   5.274   0.969   6.899
 3226SOL    HW210578   5.347   1.076   6.998
 3227SOL     OW10579   6.043   4.244   5.888
 3227SOL    HW110580   6.083   4.208   5.972
 3227SOL    HW210581   5.943   4.240   5.895
 3228SOL     OW10582   2.016   4.261   1.089
 3228SOL    HW110583   2.038   4.357   1.073
 3228SOL    HW210584   2.097   4.214   1.124
 3229SOL     OW10585   0.698   1.027   0.174
 3229SOL    HW110586   0.729   0.942   0.130
 3229SOL    HW210587   0.743   1.037   0.263
 3230SOL     OW10588   3.635   0.000   5.190
 3230SOL    HW110589   3.575   0.058   5.135
 3230SOL    HW210590   3.586   6.938   5.220
 3231SOL     OW10591   2.888   2.253   2.896
 3231SOL    HW110592   2.971   2.198   2.902
 3231SOL    HW210593   2.838   2.229   2.813
 3232SOL     OW10594   3.445   5.180   3.433
 3232SOL    HW110595   3.445   5.280   3.432
 3232SOL    HW210596   3.460   5.149   3.527
 3233SOL     OW10597   1.928   6.929   5.121
 3233SOL    HW110598   1.925   0.000   5.080
 3233SOL    HW210599   1.855   6.920   5.189
 3234SOL     OW10600   3.635   3.893   0.657
 3234SOL    HW110601   3.621   3.991   0.643
 3234SOL    HW210602   3.661   3.876   0.751
 3235SOL     OW10603   0.337   1.577   3.019
 3235SOL    HW110604   0.269   1.563   3.091
 3235SOL    HW210605   0.376   1.489   2.992
 3236SOL     OW10606   5.687   6.630   0.860
 3236SOL    HW110607   5.691   6.600   0.765
 3236SOL    HW210608   5.681   6.550   0.920
 3237SOL     OW10609   6.201   2.620   5.612
 3237SOL    HW110610   6.170   2.553   5.545
 3237SOL    HW210611   6.150   2.705   5.600
 3238SOL     OW10612   0.847   4.287   0.736
 3238SOL    HW110613   0.899   4.281   0.651
 3238SOL    HW210614   0.863   4.205   0.791
 3239SOL     OW10615   6.512   1.697   4.936
 3239SOL    HW110616   6.539   1.602   4.950
 3239SOL    HW210617   6.540   1.727   4.845
 3240SOL     OW10618   1.021   1.678   1.574
 3240SOL    HW110619   0.981   1.693   1.484
 3240SOL    HW210620   0.953   1.636   1.634
 3241SOL     OW10621   6.921   2.683   5.666
 3241SOL    HW110622   6.919   2.693   5.765
 3241SOL    HW210623   6.988   2.746   5.627
 3242SOL     OW10624   6.790   4.924   5.558
 3242SOL    HW110625   6.815   4.973   5.641
 3242SOL    HW210626   6.769   4.829   5.580
 3243SOL     OW10627   6.114   4.509   5.041
 3243SOL    HW110628   6.104   4.552   5.130
 3243SOL    HW210629   6.041   4.442   5.028
 3244SOL     OW10630   4.692   6.810   6.931
 3244SOL    HW110631   4.737   6.841   7.015
 3244SOL    HW210632   4.619   6.873   6.906
 3245SOL     OW10633   1.804   6.250   4.372
 3245SOL    HW110634   1.795   6.238   4.273
 3245SOL    HW210635   1.792   6.162   4.418
 3246SOL     OW10636   6.198   5.258   2.016
 3246SOL    HW110637   6.275   5.311   2.052
 3246SOL    HW210638   6.151   5.214   2.093
 3247SOL     OW10639   2.259   4.116   4.731
 3247SOL    HW110640   2.292   4.035   4.682
 3247SOL    HW210641   2.248   4.094   4.828
 3248SOL     OW10642   6.042   2.547   4.051
 3248SOL    HW110643   6.040   2.462   3.998
 3248SOL    HW210644   6.093   2.531   4.136
 3249SOL     OW10645   3.877   4.025   4.101
 3249SOL    HW110646   3.941   3.970   4.155
 3249SOL    HW210647   3.783   4.000   4.125
 3250SOL     OW10648   4.307   5.187   3.338
 3250SOL    HW110649   4.393   5.231   3.362
 3250SOL    HW210650   4.251   5.174   3.420
 3251SOL     OW10651   2.547   2.521   1.980
 3251SOL    HW110652   2.586   2.590   1.919
 3251SOL    HW210653   2.477   2.563   2.038
 3252SOL     OW10654   1.515   1.303   2.722
 3252SOL    HW110655   1.416   1.316   2.726
 3252SOL    HW210656   1.557   1.386   2.684
 3253SOL     OW10657   6.755   3.106   1.029
 3253SOL    HW110658   6.747   3.202   1.057
 3253SOL    HW210659   6.712   3.094   0.940
 3254SOL     OW10660   5.695   0.090   0.618
 3254SOL    HW110661   5.772   0.148   0.646
 3254SOL    HW210662   5.651   0.130   0.537
 3255SOL     OW10663   3.562   4.921   2.198
 3255SOL    HW110664   3.522   4.878   2.117
 3255SOL    HW210665   3.490   4.938   2.265
 3256SOL     OW10666   5.193   2.602   2.242
 3256SOL    HW110667   5.267   2.616   2.177
 3256SOL    HW210668   5.212   2.521   2.297
 3257SOL     OW10669   2.917   1.556   2.452
 3257SOL    HW110670   3.002   1.599   2.423
 3257SOL    HW210671   2.922   1.458   2.433
 3258SOL     OW10672   0.009   5.587   4.574
 3258SOL    HW110673   0.012   5.489   4.592
 3258SOL    HW210674   6.941   5.624   4.606
 3259SOL     OW10675   6.119   5.398   2.547
 3259SOL    HW110676   6.083   5.416   2.456
 3259SOL    HW210677   6.078   5.461   2.613
 3260SOL     OW10678   3.138   4.858   3.509
 3260SOL    HW110679   3.222   4.853   3.456
 3260SOL    HW210680   3.060   4.871   3.447
 3261SOL     OW10681   6.020   0.608   4.205
 3261SOL    HW110682   6.066   0.535   4.155
 3261SOL    HW210683   5.921   0.594   4.202
 3262SOL     OW10684   3.151   2.189   2.553
 3262SOL    HW110685   3.052   2.201   2.554
 3262SOL    HW210686   3.186   2.204   2.461
 3263SOL     OW10687   5.551   0.433   0.820
 3263SOL    HW110688   5.544   0.423   0.721
 3263SOL    HW210689   5.465   0.405   0.863
 3264SOL     OW10690   1.726   5.472   0.009
 3264SOL    HW110691   1.680   5.425   6.953
 3264SOL    HW210692   1.667   5.545   0.043
 3265SOL     OW10693   6.687   5.579   5.421
 3265SOL    HW110694   6.599   5.622   5.399
 3265SOL    HW210695   6.762   5.641   5.398
 3266SOL     OW10696   3.114   4.648   6.710
 3266SOL    HW110697   3.178   4.582   6.749
 3266SOL    HW210698   3.051   4.678   6.782
 3267SOL     OW10699   3.028   0.489   0.217
 3267SOL    HW110700   3.002   0.547   0.294
 3267SOL    HW210701   3.088   0.416   0.249
 3268SOL     OW10702   5.545   3.965   2.654
 3268SOL    HW110703   5.578   3.889   2.598
 3268SOL    HW210704   5.446   3.957   2.667
 3269SOL     OW10705   2.391   5.581   0.306
 3269SOL    HW110706   2.316   5.556   0.244
 3269SOL    HW210707   2.412   5.503   0.365
 3270SOL     OW10708   1.743   3.328   6.472
 3270SOL    HW110709   1.750   3.388   6.551
 3270SOL    HW210710   1.827   3.273   6.465
 3271SOL     OW10711   1.311   3.968   1.984
 3271SOL    HW110712   1.246   4.034   1.945
 3271SOL    HW210713   1.299   3.880   1.938
 3272SOL     OW10714   3.716   0.146   0.638
 3272SOL    HW110715   3.779   0.149   0.715
 3272SOL    HW210716   3.680   0.054   0.627
 3273SOL     OW10717   4.051   3.796   6.634
 3273SOL    HW110718   4.090   3.816   6.544
 3273SOL    HW210719   4.083   3.864   6.700
 3274SOL     OW10720   4.960   0.040   1.964
 3274SOL    HW110721   5.026   6.993   1.930
 3274SOL    HW210722   4.909   0.080   1.887
 3275SOL     OW10723   4.812   0.122   1.743
 3275SOL    HW110724   4.762   0.174   1.812
 3275SOL    HW210725   4.838   0.182   1.668
 3276SOL     OW10726   6.391   6.312   0.596
 3276SOL    HW110727   6.369   6.343   0.504
 3276SOL    HW210728   6.475   6.357   0.627
 3277SOL     OW10729   5.085   1.093   2.197
 3277SOL    HW110730   5.042   1.064   2.283
 3277SOL    HW210731   5.105   1.190   2.201
 3278SOL     OW10732   5.016   1.141   6.591
 3278SOL    HW110733   5.082   1.203   6.633
 3278SOL    HW210734   4.945   1.193   6.543
 3279SOL     OW10735   4.200   0.390   2.169
 3279SOL    HW110736   4.265   0.374   2.243
 3279SOL    HW210737   4.123   0.445   2.203
 3280SOL     OW10738   0.684   2.131   4.475
 3280SOL    HW110739   0.715   2.084   4.558
 3280SOL    HW210740   0.762   2.149   4.415
 3281SOL     OW10741   5.675   2.613   2.027
 3281SOL    HW110742   5.664   2.665   1.942
 3281SOL    HW210743   5.614   2.534   2.026
 3282SOL     OW10744   6.515   5.016   5.684
 3282SOL    HW110745   6.532   4.919   5.699
 3282SOL    HW210746   6.488   5.032   5.589
 3283SOL     OW10747   3.378   1.428   0.554
 3283SOL    HW110748   3.388   1.339   0.597
 3283SOL    HW210749   3.344   1.495   0.621
 3284SOL     OW10750   2.235   0.824   5.959
 3284SOL    HW110751   2.267   0.827   6.054
 3284SOL    HW210752   2.280   0.749   5.911
 3285SOL     OW10753   4.088   1.701   4.610
 3285SOL    HW110754   4.024   1.624   4.610
 3285SOL    HW210755   4.152   1.692   4.534
 3286SOL     OW10756   1.745   3.940   3.134
 3286SOL    HW110757   1.702   3.938   3.043
 3286SOL    HW210758   1.828   3.885   3.132
 3287SOL     OW10759   3.258   1.607   0.716
 3287SOL    HW110760   3.289   1.700   0.698
 3287SOL    HW210761   3.284   1.580   0.809
 3288SOL     OW10762   3.063   5.326   1.057
 3288SOL    HW110763   3.152   5.281   1.063
 3288SOL    HW210764   2.993   5.259   1.032
 3289SOL     OW10765   5.141   6.761   0.126
 3289SOL    HW110766   5.228   6.775   0.079
 3289SOL    HW210767   5.089   6.846   0.126
 3290SOL     OW10768   0.817   3.909   0.271
 3290SOL    HW110769   0.864   3.835   0.318
 3290SOL    HW210770   0.881   3.955   0.210
 3291SOL     OW10771   5.293   0.072   5.754
 3291SOL    HW110772   5.269   0.141   5.686
 3291SOL    HW210773   5.211   0.019   5.778
 3292SOL     OW10774   0.600   2.843   0.703
 3292SOL    HW110775   0.541   2.906   0.652
 3292SOL    HW210776   0.627   2.768   0.644
 3293SOL     OW10777   6.970   4.793   1.781
 3293SOL    HW110778   6.924   4.715   1.739
 3293SOL    HW210779   6.904   4.866   1.799
 3294SOL     OW10780   4.087   2.946   5.497
 3294SOL    HW110781   4.105   3.024   5.437
 3294SOL    HW210782   4.033   2.878   5.447
 3295SOL     OW10783   2.090   3.636   3.239
 3295SOL    HW110784   1.993   3.648   3.261
 3295SOL    HW210785   2.146   3.675   3.313
 3296SOL     OW10786   2.284   0.823   0.374
 3296SOL    HW110787   2.367   0.828   0.429
 3296SOL    HW210788   2.288   0.893   0.303
 3297SOL     OW10789   3.086   0.882   5.853
 3297SOL    HW110790   3.027   0.869   5.773
 3297SOL    HW210791   3.176   0.911   5.824
 3298SOL     OW10792   3.693   4.022   6.261
 3298SOL    HW110793   3.652   3.983   6.179
 3298SOL    HW210794   3.698   4.122   6.251
 3299SOL     OW10795   2.492   6.796   3.984
 3299SOL    HW110796   2.441   6.873   3.945
 3299SOL    HW210797   2.590   6.810   3.970
 3300SOL     OW10798   1.788   1.138   2.795
 3300SOL    HW110799   1.695   1.172   2.795
 3300SOL    HW210800   1.794   1.056   2.738
 3301SOL     OW10801   1.171   0.724   1.690
 3301SOL    HW110802   1.101   0.713   1.618
 3301SOL    HW210803   1.262   0.714   1.649
 3302SOL     OW10804   1.973   5.107   4.989
 3302SOL    HW110805   1.951   5.096   4.892
 3302SOL    HW210806   1.932   5.191   5.024
 3303SOL     OW10807   4.381   4.166   0.395
 3303SOL    HW110808   4.346   4.186   0.486
 3303SOL    HW210809   4.480   4.176   0.394
 3304SOL     OW10810   2.566   3.940   0.799
 3304SOL    HW110811   2.593   3.898   0.885
 3304SOL    HW210812   2.641   3.995   0.763
 3305SOL     OW10813   3.549   2.601   6.839
 3305SOL    HW110814   3.453   2.631   6.836
 3305SOL    HW210815   3.555   2.506   6.810
 3306SOL     OW10816   2.805   0.493   0.541
 3306SOL    HW110817   2.769   0.400   0.538
 3306SOL    HW210818   2.903   0.491   0.557
 3307SOL     OW10819   2.079   5.634   5.090
 3307SOL    HW110820   2.146   5.565   5.062
 3307SOL    HW210821   1.990   5.612   5.051
 3308SOL     OW10822   5.322   4.933   1.676
 3308SOL    HW110823   5.413   4.893   1.673
 3308SOL    HW210824   5.290   4.952   1.583
 3309SOL     OW10825   5.827   3.131   4.134
 3309SOL    HW110826   5.736   3.100   4.162
 3309SOL    HW210827   5.889   3.052   4.134
 3310SOL     OW10828   6.054   4.302   6.879
 3310SOL    HW110829   6.122   4.285   6.950
 3310SOL    HW210830   5.970   4.337   6.921
 3311SOL     OW10831   1.083   3.005   1.107
 3311SOL    HW110832   1.033   3.006   1.020
 3311SOL    HW210833   1.130   3.093   1.119
 3312SOL     OW10834   5.439   3.833   0.194
 3312SOL    HW110835   5.412   3.755   0.251
 3312SOL    HW210836   5.416   3.814   0.099
 3313SOL     OW10837   0.618   6.121   4.132
 3313SOL    HW110838   0.579   6.048   4.188
 3313SOL    HW210839   0.619   6.206   4.185
 3314SOL     OW10840   3.396   6.134   3.436
 3314SOL    HW110841   3.332   6.058   3.423
 3314SOL    HW210842   3.480   6.101   3.479
 3315SOL     OW10843   0.689   6.470   4.095
 3315SOL    HW110844   0.691   6.383   4.145
 3315SOL    HW210845   0.780   6.511   4.094
 3316SOL     OW10846   4.007   1.823   0.831
 3316SOL    HW110847   4.064   1.749   0.795
 3316SOL    HW210848   4.061   1.907   0.834
 3317SOL     OW10849   5.728   2.385   1.261
 3317SOL    HW110850   5.765   2.292   1.261
 3317SOL    HW210851   5.785   2.444   1.203
 3318SOL     OW10852   4.206   2.777   0.729
 3318SOL    HW110853   4.112   2.793   0.697
 3318SOL    HW210854   4.249   2.864   0.751
 3319SOL     OW10855   6.429   6.294   3.892
 3319SOL    HW110856   6.452   6.334   3.981
 3319SOL    HW210857   6.364   6.353   3.845
 3320SOL     OW10858   6.461   0.605   2.886
 3320SOL    HW110859   6.544   0.590   2.939
 3320SOL    HW210860   6.470   0.690   2.833
 3321SOL     OW10861   4.694   1.636   6.422
 3321SOL    HW110862   4.781   1.666   6.462
 3321SOL    HW210863   4.704   1.624   6.324
 3322SOL     OW10864   5.767   3.538   1.950
 3322SOL    HW110865   5.808   3.610   2.007
 3322SOL    HW210866   5.817   3.531   1.864
 3323SOL     OW10867   0.187   0.469   2.278
 3323SOL    HW110868   0.190   0.569   2.280
 3323SOL    HW210869   0.218   0.436   2.189
 3324SOL     OW10870   6.449   5.745   6.309
 3324SOL    HW110871   6.416   5.743   6.403
 3324SOL    HW210872   6.437   5.655   6.267
 3325SOL     OW10873   2.402   5.683   6.524
 3325SOL    HW110874   2.307   5.687   6.555
 3325SOL    HW210875   2.408   5.722   6.432
 3326SOL     OW10876   4.015   1.385   1.624
 3326SOL    HW110877   4.096   1.441   1.644
 3326SOL    HW210878   3.941   1.443   1.593
 3327SOL     OW10879   1.720   6.317   5.828
 3327SOL    HW110880   1.689   6.374   5.752
 3327SOL    HW210881   1.670   6.341   5.911
 3328SOL     OW10882   4.151   2.609   5.664
 3328SOL    HW110883   4.181   2.703   5.650
 3328SOL    HW210884   4.165   2.557   5.580
 3329SOL     OW10885   0.224   6.618   5.563
 3329SOL    HW110886   0.262   6.543   5.510
 3329SOL    HW210887   0.213   6.698   5.505
 3330SOL     OW10888   6.783   3.161   3.403
 3330SOL    HW110889   6.758   3.157   3.306
 3330SOL    HW210890   6.864   3.105   3.418
 3331SOL     OW10891   2.091   3.466   0.592
 3331SOL    HW110892   2.094   3.439   0.689
 3331SOL    HW210893   2.184   3.484   0.560
 3332SOL     OW10894   6.828   4.011   1.826
 3332SOL    HW110895   6.889   4.085   1.856
 3332SOL    HW210896   6.738   4.049   1.805
 3333SOL     OW10897   2.931   6.288   5.355
 3333SOL    HW110898   2.967   6.285   5.448
 3333SOL    HW210899   2.843   6.335   5.355
 3334SOL     OW10900   1.631   2.615   1.178
 3334SOL    HW110901   1.540   2.613   1.136
 3334SOL    HW210902   1.627   2.668   1.263
 3335SOL     OW10903   5.740   4.116   5.285
 3335SOL    HW110904   5.668   4.065   5.237
 3335SOL    HW210905   5.719   4.214   5.280
 3336SOL     OW10906   3.476   6.295   5.696
 3336SOL    HW110907   3.496   6.301   5.598
 3336SOL    HW210908   3.540   6.230   5.739
 3337SOL     OW10909   3.856   1.034   1.114
 3337SOL    HW110910   3.875   1.132   1.123
 3337SOL    HW210911   3.855   1.009   1.017
 3338SOL     OW10912   6.527   5.759   0.431
 3338SOL    HW110913   6.477   5.728   0.349
 3338SOL    HW210914   6.595   5.690   0.456
 3339SOL     OW10915   0.518   5.058   6.677
 3339SOL    HW110916   0.597   5.081   6.621
 3339SOL    HW210917   0.474   5.141   6.710
 3340SOL     OW10918   4.182   1.039   1.826
 3340SOL    HW110919   4.151   1.038   1.921
 3340SOL    HW210920   4.220   0.950   1.802
 3341SOL     OW10921   1.506   0.127   6.538
 3341SOL    HW110922   1.531   0.155   6.446
 3341SOL    HW210923   1.475   0.207   6.590
 3342SOL     OW10924   1.148   6.981   5.169
 3342SOL    HW110925   1.172   6.884   5.176
 3342SOL    HW210926   1.049   6.990   5.165
 3343SOL     OW10927   0.314   2.223   1.077
 3343SOL    HW110928   0.342   2.213   0.982
 3343SOL    HW210929   0.323   2.318   1.105
 3344SOL     OW10930   1.476   2.005   6.972
 3344SOL    HW110931   1.392   2.055   6.992
 3344SOL    HW210932   1.481   1.924   0.011
 3345SOL     OW10933   3.208   2.861   6.676
 3345SOL    HW110934   3.119   2.851   6.632
 3345SOL    HW210935   3.266   2.920   6.619
 3346SOL     OW10936   2.698   5.535   3.079
 3346SOL    HW110937   2.701   5.456   3.018
 3346SOL    HW210938   2.603   5.555   3.104
 3347SOL     OW10939   5.798   3.968   3.489
 3347SOL    HW110940   5.733   4.030   3.534
 3347SOL    HW210941   5.855   3.924   3.558
 3348SOL     OW10942   3.988   3.824   3.436
 3348SOL    HW110943   3.936   3.909   3.448
 3348SOL    HW210944   3.968   3.785   3.346
 3349SOL     OW10945   5.468   2.482   0.762
 3349SOL    HW110946   5.450   2.425   0.842
 3349SOL    HW210947   5.567   2.485   0.745
 3350SOL     OW10948   2.477   2.865   1.567
 3350SOL    HW110949   2.561   2.841   1.519
 3350SOL    HW210950   2.399   2.825   1.518
 3351SOL     OW10951   6.314   2.983   0.917
 3351SOL    HW110952   6.389   2.925   0.887
 3351SOL    HW210953   6.314   2.990   1.016
 3352SOL     OW10954   0.208   4.179   0.853
 3352SOL    HW110955   0.266   4.242   0.905
 3352SOL    HW210956   0.136   4.143   0.912
 3353SOL     OW10957   1.042   6.182   6.187
 3353SOL    HW110958   1.050   6.215   6.092
 3353SOL    HW210959   1.015   6.258   6.246
 3354SOL     OW10960   0.289   6.333   2.315
 3354SOL    HW110961   0.270   6.363   2.221
 3354SOL    HW210962   0.283   6.412   2.377
 3355SOL     OW10963   5.870   1.267   2.648
 3355SOL    HW110964   5.908   1.234   2.735
 3355SOL    HW210965   5.810   1.345   2.666
 3356SOL     OW10966   1.575   3.921   6.838
 3356SOL    HW110967   1.638   3.893   6.765
 3356SOL    HW210968   1.505   3.851   6.849
 3357SOL     OW10969   2.708   6.033   2.749
 3357SOL    HW110970   2.700   5.950   2.803
 3357SOL    HW210971   2.655   6.106   2.792
 3358SOL     OW10972   0.384   3.589   3.355
 3358SOL    HW110973   0.462   3.620   3.411
 3358SOL    HW210974   0.413   3.577   3.260
 3359SOL     OW10975   2.703   1.987   1.725
 3359SOL    HW110976   2.702   2.062   1.791
 3359SOL    HW210977   2.790   1.988   1.675
 3360SOL     OW10978   2.391   1.106   6.257
 3360SOL    HW110979   2.386   1.008   6.279
 3360SOL    HW210980   2.364   1.119   6.161
 3361SOL     OW10981   2.525   1.113   2.795
 3361SOL    HW110982   2.588   1.065   2.855
 3361SOL    HW210983   2.485   1.192   2.843
 3362SOL     OW10984   3.271   2.128   4.179
 3362SOL    HW110985   3.366   2.096   4.180
 3362SOL    HW210986   3.209   2.050   4.184
 3363SOL     OW10987   6.853   0.791   0.277
 3363SOL    HW110988   6.834   0.715   0.339
 3363SOL    HW210989   6.766   0.830   0.246
 3364SOL     OW10990   1.436   5.462   4.971
 3364SOL    HW110991   1.449   5.561   4.969
 3364SOL    HW210992   1.501   5.421   5.035
 3365SOL     OW10993   6.313   2.355   5.065
 3365SOL    HW110994   6.376   2.403   5.004
 3365SOL    HW210995   6.326   2.256   5.055
 3366SOL     OW10996   4.686   1.334   0.339
 3366SOL    HW110997   4.703   1.421   0.294
 3366SOL    HW210998   4.766   1.306   0.392
 3367SOL     OW10999   1.576   6.835   2.257
 3367SOL    HW111000   1.637   6.772   2.305
 3367SOL    HW211001   1.606   6.929   2.273
 3368SOL     OW11002   6.167   1.282   4.648
 3368SOL    HW111003   6.191   1.199   4.598
 3368SOL    HW211004   6.250   1.325   4.683
 3369SOL     OW11005   3.841   5.344   6.609
 3369SOL    HW111006   3.934   5.380   6.605
 3369SOL    HW211007   3.796   5.377   6.693
 3370SOL     OW11008   5.941   0.995   5.804
 3370SOL    HW111009   5.882   0.916   5.825
 3370SOL    HW211010   5.895   1.078   5.835
 3371SOL     OW11011   6.419   4.864   1.622
 3371SOL    HW111012   6.506   4.871   1.572
 3371SOL    HW211013   6.405   4.948   1.675
 3372SOL     OW11014   1.636   2.834   2.586
 3372SOL    HW111015   1.689   2.749   2.578
 3372SOL    HW211016   1.576   2.828   2.665
 3373SOL     OW11017   1.219   2.869   6.124
 3373SOL    HW111018   1.260   2.788   6.083
 3373SOL    HW211019   1.165   2.917   6.055
 3374SOL     OW11020   3.244   6.163   5.298
 3374SOL    HW111021   3.240   6.247   5.351
 3374SOL    HW211022   3.282   6.182   5.208
 3375SOL     OW11023   3.174   4.148   5.045
 3375SOL    HW111024   3.094   4.139   4.985
 3375SOL    HW211025   3.234   4.069   5.032
 3376SOL     OW11026   3.661   2.925   1.136
 3376SOL    HW111027   3.598   3.003   1.138
 3376SOL    HW211028   3.674   2.896   1.041
 3377SOL     OW11029   2.604   5.135   6.192
 3377SOL    HW111030   2.582   5.038   6.193
 3377SOL    HW211031   2.702   5.148   6.209
 3378SOL     OW11032   6.928   1.573   0.597
 3378SOL    HW111033   6.892   1.527   0.678
 3378SOL    HW211034   6.944   1.670   0.618
 3379SOL     OW11035   6.236   5.612   5.519
 3379SOL    HW111036   6.292   5.529   5.513
 3379SOL    HW211037   6.149   5.596   5.473
 3380SOL     OW11038   0.835   4.002   5.151
 3380SOL    HW111039   0.736   4.008   5.139
 3380SOL    HW211040   0.861   3.908   5.170
 3381SOL     OW11041   3.087   2.166   0.990
 3381SOL    HW111042   3.163   2.102   1.006
 3381SOL    HW211043   3.023   2.125   0.925
 3382SOL     OW11044   6.821   6.309   0.132
 3382SOL    HW111045   6.735   6.360   0.140
 3382SOL    HW211046   6.806   6.214   0.162
 3383SOL     OW11047   0.735   4.042   1.774
 3383SOL    HW111048   0.704   3.950   1.797
 3383SOL    HW211049   0.830   4.039   1.744
 3384SOL     OW11050   3.208   3.567   3.251
 3384SOL    HW111051   3.220   3.569   3.151
 3384SOL    HW211052   3.133   3.504   3.274
 3385SOL     OW11053   0.003   4.275   3.750
 3385SOL    HW111054   0.013   4.310   3.657
 3385SOL    HW211055   6.933   4.301   3.786
 3386SOL     OW11056   5.666   4.319   3.816
 3386SOL    HW111057   5.608   4.380   3.761
 3386SOL    HW211058   5.666   4.228   3.776
 3387SOL     OW11059   3.542   1.663   2.372
 3387SOL    HW111060   3.496   1.575   2.360
 3387SOL    HW211061   3.596   1.683   2.291
 3388SOL     OW11062   5.908   1.429   1.098
 3388SOL    HW111063   5.937   1.464   1.009
 3388SOL    HW211064   5.823   1.377   1.087
 3389SOL     OW11065   3.999   5.241   2.106
 3389SOL    HW111066   4.063   5.315   2.124
 3389SOL    HW211067   3.912   5.260   2.152
 3390SOL     OW11068   4.045   2.001   5.790
 3390SOL    HW111069   4.079   2.006   5.883
 3390SOL    HW211070   4.093   1.928   5.741
 3391SOL     OW11071   3.198   1.342   4.159
 3391SOL    HW111072   3.174   1.384   4.072
 3391SOL    HW211073   3.117   1.333   4.216
 3392SOL     OW11074   5.536   6.136   4.028
 3392SOL    HW111075   5.566   6.209   3.966
 3392SOL    HW211076   5.436   6.128   4.024
 3393SOL     OW11077   0.079   0.378   6.151
 3393SOL    HW111078   0.008   0.346   6.214
 3393SOL    HW211079   0.053   0.467   6.113
 3394SOL     OW11080   5.041   1.736   2.023
 3394SOL    HW111081   4.982   1.734   2.104
 3394SOL    HW211082   5.041   1.645   1.980
 3395SOL     OW11083   1.851   3.838   5.270
 3395SOL    HW111084   1.785   3.881   5.208
 3395SOL    HW211085   1.943   3.847   5.232
 3396SOL     OW11086   6.103   3.722   3.907
 3396SOL    HW111087   6.029   3.667   3.868
 3396SOL    HW211088   6.124   3.798   3.845
 3397SOL     OW11089   3.114   5.878   6.355
 3397SOL    HW111090   3.214   5.887   6.344
 3397SOL    HW211091   3.068   5.926   6.280
 3398SOL     OW11092   0.593   1.858   4.313
 3398SOL    HW111093   0.544   1.773   4.296
 3398SOL    HW211094   0.623   1.897   4.225
 3399SOL     OW11095   3.808   5.786   4.458
 3399SOL    HW111096   3.744   5.863   4.462
 3399SOL    HW211097   3.757   5.700   4.462
 3400SOL     OW11098   5.157   1.835   0.326
 3400SOL    HW111099   5.227   1.852   0.256
 3400SOL    HW211100   5.197   1.849   0.416
 3401SOL     OW11101   6.681   4.863   6.999
 3401SOL    HW111102   6.708   4.868   0.075
 3401SOL    HW211103   6.747   4.807   6.949
 3402SOL     OW11104   3.998   4.911   1.848
 3402SOL    HW111105   3.966   4.993   1.895
 3402SOL    HW211106   3.943   4.896   1.766
 3403SOL     OW11107   3.738   1.608   6.435
 3403SOL    HW111108   3.669   1.627   6.505
 3403SOL    HW211109   3.745   1.509   6.422
 3404SOL     OW11110   4.117   5.724   2.065
 3404SOL    HW111111   4.071   5.710   1.978
 3404SOL    HW211112   4.144   5.820   2.073
 3405SOL     OW11113   6.084   3.965   0.353
 3405SOL    HW111114   6.101   4.055   0.392
 3405SOL    HW211115   6.031   3.974   0.269
 3406SOL     OW11116   0.863   3.148   1.649
 3406SOL    HW111117   0.765   3.155   1.670
 3406SOL    HW211118   0.875   3.087   1.571
 3407SOL     OW11119   1.132   5.639   2.323
 3407SOL    HW111120   1.070   5.667   2.397
 3407SOL    HW211121   1.089   5.658   2.235
 3408SOL     OW11122   5.386   3.640   2.217
 3408SOL    HW111123   5.422   3.653   2.125
 3408SOL    HW211124   5.461   3.616   2.279
 3409SOL     OW11125   2.806   1.632   0.208
 3409SOL    HW111126   2.898   1.633   0.171
 3409SOL    HW211127   2.770   1.539   0.206
 3410SOL     OW11128   0.572   1.461   0.161
 3410SOL    HW111129   0.657   1.510   0.182
 3410SOL    HW211130   0.510   1.522   0.112
 3411SOL     OW11131   4.996   1.795   2.623
 3411SOL    HW111132   4.906   1.750   2.616
 3411SOL    HW211133   5.060   1.733   2.667
 3412SOL     OW11134   4.497   4.891   6.616
 3412SOL    HW111135   4.486   4.837   6.532
 3412SOL    HW211136   4.563   4.965   6.599
 3413SOL     OW11137   4.859   0.856   2.707
 3413SOL    HW111138   4.900   0.794   2.773
 3413SOL    HW211139   4.833   0.942   2.752
 3414SOL     OW11140   4.242   0.610   5.458
 3414SOL    HW111141   4.290   0.682   5.407
 3414SOL    HW211142   4.305   0.537   5.481
 3415SOL     OW11143   1.591   6.058   5.794
 3415SOL    HW111144   1.641   6.144   5.788
 3415SOL    HW211145   1.497   6.076   5.822
 3416SOL     OW11146   1.469   4.903   5.253
 3416SOL    HW111147   1.471   4.886   5.352
 3416SOL    HW211148   1.561   4.927   5.222
 3417SOL     OW11149   5.533   1.018   1.255
 3417SOL    HW111150   5.445   1.012   1.301
 3417SOL    HW211151   5.606   0.998   1.321
 3418SOL     OW11152   2.813   2.432   5.435
 3418SOL    HW111153   2.738   2.391   5.384
 3418SOL    HW211154   2.778   2.500   5.499
 3419SOL     OW11155   4.624   3.468   6.137
 3419SOL    HW111156   4.575   3.397   6.188
 3419SOL    HW211157   4.594   3.558   6.170
 3420SOL     OW11158   2.908   0.580   4.983
 3420SOL    HW111159   2.856   0.658   5.019
 3420SOL    HW211160   3.001   0.608   4.961
 3421SOL     OW11161   0.981   6.534   2.919
 3421SOL    HW111162   0.980   6.502   2.824
 3421SOL    HW211163   0.975   6.455   2.980
 3422SOL     OW11164   3.520   2.017   2.896
 3422SOL    HW111165   3.471   1.937   2.931
 3422SOL    HW211166   3.459   2.071   2.838
 3423SOL     OW11167   3.480   0.959   1.586
 3423SOL    HW111168   3.425   0.941   1.667
 3423SOL    HW211169   3.553   1.024   1.608
 3424SOL     OW11170   4.570   2.026   0.777
 3424SOL    HW111171   4.578   1.984   0.868
 3424SOL    HW211172   4.539   1.957   0.712
 3425SOL     OW11173   4.056   3.716   1.409
 3425SOL    HW111174   4.097   3.638   1.363
 3425SOL    HW211175   4.098   3.801   1.377
 3426SOL     OW11176   5.105   3.822   0.776
 3426SOL    HW111177   5.095   3.836   0.678
 3426SOL    HW211178   5.171   3.886   0.813
 3427SOL     OW11179   0.990   1.863   0.546
 3427SOL    HW111180   1.046   1.793   0.501
 3427SOL    HW211181   0.935   1.820   0.619
 3428SOL     OW11182   4.688   4.698   3.344
 3428SOL    HW111183   4.611   4.637   3.360
 3428SOL    HW211184   4.685   4.774   3.409
 3429SOL     OW11185   0.396   2.992   0.571
 3429SOL    HW111186   0.313   2.958   0.614
 3429SOL    HW211187   0.386   3.090   0.551
 3430SOL     OW11188   0.663   5.403   0.118
 3430SOL    HW111189   0.647   5.482   0.176
 3430SOL    HW211190   0.610   5.325   0.152
 3431SOL     OW11191   1.159   6.029   6.377
 3431SOL    HW111192   1.101   6.049   6.298
 3431SOL    HW211193   1.164   6.109   6.437
 3432SOL     OW11194   3.632   2.154   6.366
 3432SOL    HW111195   3.560   2.101   6.322
 3432SOL    HW211196   3.721   2.117   6.339
 3433SOL     OW11197   3.962   1.541   4.898
 3433SOL    HW111198   3.870   1.570   4.922
 3433SOL    HW211199   3.961   1.498   4.808
 3434SOL     OW11200   4.417   1.275   3.692
 3434SOL    HW111201   4.452   1.259   3.600
 3434SOL    HW211202   4.317   1.276   3.691
 3435SOL     OW11203   0.227   1.122   6.579
 3435SOL    HW111204   0.130   1.096   6.580
 3435SOL    HW211205   0.234   1.222   6.579
 3436SOL     OW11206   3.986   6.698   1.794
 3436SOL    HW111207   4.052   6.683   1.720
 3436SOL    HW211208   3.913   6.630   1.787
 3437SOL     OW11209   4.178   0.200   0.029
 3437SOL    HW111210   4.186   0.226   0.126
 3437SOL    HW211211   4.179   0.100   0.022
 3438SOL     OW11212   0.786   5.400   6.525
 3438SOL    HW111213   0.779   5.341   6.445
 3438SOL    HW211214   0.835   5.353   6.598
 3439SOL     OW11215   2.631   0.516   3.899
 3439SOL    HW111216   2.617   0.485   3.993
 3439SOL    HW211217   2.578   0.599   3.883
 3440SOL     OW11218   3.799   1.993   0.600
 3440SOL    HW111219   3.840   1.908   0.568
 3440SOL    HW211220   3.847   2.071   0.560
 3441SOL     OW11221   4.505   0.212   4.302
 3441SOL    HW111222   4.410   0.237   4.317
 3441SOL    HW211223   4.520   0.118   4.333
 3442SOL     OW11224   0.958   5.545   3.219
 3442SOL    HW111225   1.044   5.498   3.201
 3442SOL    HW211226   0.937   5.541   3.317
 3443SOL     OW11227   6.112   6.592   4.012
 3443SOL    HW111228   6.067   6.596   3.922
 3443SOL    HW211229   6.150   6.500   4.025
 3444SOL     OW11230   3.435   5.354   6.781
 3444SOL    HW111231   3.391   5.264   6.783
 3444SOL    HW211232   3.519   5.351   6.835
 3445SOL     OW11233   6.276   5.143   5.394
 3445SOL    HW111234   6.321   5.136   5.305
 3445SOL    HW211235   6.278   5.054   5.440
 3446SOL     OW11236   2.438   5.816   1.634
 3446SOL    HW111237   2.461   5.803   1.538
 3446SOL    HW211238   2.515   5.861   1.681
 3447SOL     OW11239   5.959   4.279   5.228
 3447SOL    HW111240   5.908   4.193   5.237
 3447SOL    HW211241   6.033   4.281   5.296
 3448SOL     OW11242   3.879   3.249   0.394
 3448SOL    HW111243   3.780   3.248   0.377
 3448SOL    HW211244   3.897   3.228   0.490
 3449SOL     OW11245   5.759   5.792   3.106
 3449SOL    HW111246   5.855   5.773   3.085
 3449SOL    HW211247   5.728   5.729   3.176
 3450SOL     OW11248   0.781   1.428   0.915
 3450SOL    HW111249   0.770   1.392   0.822
 3450SOL    HW211250   0.734   1.515   0.922
 3451SOL     OW11251   1.995   5.402   4.266
 3451SOL    HW111252   2.041   5.321   4.302
 3451SOL    HW211253   1.930   5.374   4.194
 3452SOL     OW11254   6.543   1.872   0.465
 3452SOL    HW111255   6.563   1.892   0.561
 3452SOL    HW211256   6.623   1.897   0.409
 3453SOL     OW11257   6.148   5.194   4.966
 3453SOL    HW111258   6.143   5.146   4.878
 3453SOL    HW211259   6.056   5.222   4.995
 3454SOL     OW11260   6.834   1.289   0.534
 3454SOL    HW111261   6.876   1.369   0.577
 3454SOL    HW211262   6.895   1.210   0.545
 3455SOL     OW11263   1.516   2.770   3.225
 3455SOL    HW111264   1.464   2.850   3.194
 3455SOL    HW211265   1.612   2.795   3.236
 3456SOL     OW11266   6.530   0.386   0.164
 3456SOL    HW111267   6.471   0.328   0.221
 3456SOL    HW211268   6.482   0.471   0.143
 3457SOL     OW11269   1.834   6.461   3.419
 3457SOL    HW111270   1.758   6.524   3.436
 3457SOL    HW211271   1.827   6.424   3.327
 3458SOL     OW11272   4.620   5.037   0.069
 3458SOL    HW111273   4.522   5.016   0.073
 3458SOL    HW211274   4.656   5.013   6.999
 3459SOL     OW11275   6.265   6.875   3.311
 3459SOL    HW111276   6.324   6.810   3.358
 3459SOL    HW211277   6.236   6.946   3.375
 3460SOL     OW11278   4.952   2.855   0.637
 3460SOL    HW111279   5.002   2.855   0.551
 3460SOL    HW211280   4.860   2.892   0.623
 3461SOL     OW11281   2.330   6.053   3.024
 3461SOL    HW111282   2.365   6.130   3.078
 3461SOL    HW211283   2.231   6.057   3.021
 3462SOL     OW11284   4.920   2.362   2.881
 3462SOL    HW111285   5.005   2.341   2.928
 3462SOL    HW211286   4.922   2.456   2.848
 3463SOL     OW11287   0.986   2.804   1.271
 3463SOL    HW111288   0.998   2.730   1.205
 3463SOL    HW211289   0.999   2.892   1.225
 3464SOL     OW11290   5.208   1.311   6.343
 3464SOL    HW111291   5.280   1.311   6.274
 3464SOL    HW211292   5.232   1.376   6.415
 3465SOL     OW11293   2.322   4.443   1.527
 3465SOL    HW111294   2.227   4.411   1.519
 3465SOL    HW211295   2.322   4.540   1.554
 3466SOL     OW11296   6.640   3.594   4.441
 3466SOL    HW111297   6.600   3.642   4.363
 3466SOL    HW211298   6.657   3.499   4.416
 3467SOL     OW11299   3.258   3.648   0.196
 3467SOL    HW111300   3.287   3.552   0.192
 3467SOL    HW211301   3.282   3.686   0.285
 3468SOL     OW11302   4.457   1.586   1.512
 3468SOL    HW111303   4.388   1.542   1.455
 3468SOL    HW211304   4.429   1.583   1.607
 3469SOL     OW11305   3.778   5.649   5.395
 3469SOL    HW111306   3.702   5.594   5.362
 3469SOL    HW211307   3.745   5.741   5.418
 3470SOL     OW11308   0.950   2.670   0.664
 3470SOL    HW111309   0.882   2.681   0.737
 3470SOL    HW211310   0.989   2.760   0.642
 3471SOL     OW11311   4.935   3.165   4.924
 3471SOL    HW111312   5.035   3.164   4.916
 3471SOL    HW211313   4.894   3.146   4.835
 3472SOL     OW11314   4.693   1.886   1.938
 3472SOL    HW111315   4.674   1.928   2.026
 3472SOL    HW211316   4.786   1.910   1.909
 3473SOL     OW11317   6.187   4.497   1.911
 3473SOL    HW111318   6.200   4.402   1.881
 3473SOL    HW211319   6.194   4.558   1.833
 3474SOL     OW11320   4.833   3.977   3.514
 3474SOL    HW111321   4.899   4.049   3.494
 3474SOL    HW211322   4.749   3.993   3.461
 3475SOL     OW11323   6.696   3.985   4.260
 3475SOL    HW111324   6.675   3.965   4.356
 3475SOL    HW211325   6.670   3.907   4.204
 3476SOL     OW11326   1.589   3.202   3.210
 3476SOL    HW111327   1.605   3.124   3.150
 3476SOL    HW211328   1.578   3.285   3.156
 3477SOL     OW11329   1.561   4.064   2.022
 3477SOL    HW111330   1.552   4.154   2.066
 3477SOL    HW211331   1.470   4.032   1.995
 3478SOL     OW11332   2.620   0.971   1.112
 3478SOL    HW111333   2.634   0.929   1.023
 3478SOL    HW211334   2.676   0.924   1.181
 3479SOL     OW11335   1.227   3.651   5.746
 3479SOL    HW111336   1.264   3.558   5.748
 3479SOL    HW211337   1.260   3.698   5.664
 3480SOL     OW11338   1.308   5.395   6.874
 3480SOL    HW111339   1.260   5.422   6.958
 3480SOL    HW211340   1.242   5.385   6.800
 3481SOL     OW11341   5.860   0.949   4.736
 3481SOL    HW111342   5.818   0.862   4.711
 3481SOL    HW211343   5.801   1.024   4.706
 3482SOL     OW11344   5.999   2.863   6.345
 3482SOL    HW111345   6.034   2.922   6.418
 3482SOL    HW211346   5.942   2.792   6.385
 3483SOL     OW11347   4.993   2.122   4.769
 3483SOL    HW111348   5.059   2.100   4.697
 3483SOL    HW211349   4.913   2.166   4.728
 3484SOL     OW11350   1.214   2.801   4.577
 3484SOL    HW111351   1.200   2.895   4.606
 3484SOL    HW211352   1.257   2.749   4.651
 3485SOL     OW11353   6.600   4.116   6.647
 3485SOL    HW111354   6.523   4.177   6.667
 3485SOL    HW211355   6.606   4.100   6.549
 3486SOL     OW11356   1.243   6.387   4.972
 3486SOL    HW111357   1.327   6.388   4.918
 3486SOL    HW211358   1.174   6.334   4.924
 3487SOL     OW11359   4.113   1.690   6.842
 3487SOL    HW111360   4.200   1.738   6.832
 3487SOL    HW211361   4.115   1.606   6.788
 3488SOL     OW11362   5.084   6.158   5.426
 3488SOL    HW111363   5.110   6.101   5.348
 3488SOL    HW211364   5.000   6.121   5.467
 3489SOL     OW11365   3.540   6.173   0.956
 3489SOL    HW111366   3.466   6.238   0.945
 3489SOL    HW211367   3.618   6.201   0.900
 3490SOL     OW11368   4.753   7.018   0.587
 3490SOL    HW111369   4.820   6.952   0.553
 3490SOL    HW211370   4.714   6.984   0.673
 3491SOL     OW11371   4.884   4.484   5.429
 3491SOL    HW111372   4.947   4.406   5.428
 3491SOL    HW211373   4.840   4.490   5.518
 3492SOL     OW11374   5.629   3.790   3.385
 3492SOL    HW111375   5.689   3.865   3.415
 3492SOL    HW211376   5.572   3.761   3.461
 3493SOL     OW11377   0.676   4.078   6.046
 3493SOL    HW111378   0.773   4.099   6.036
 3493SOL    HW211379   0.648   4.015   5.974
 3494SOL     OW11380   4.554   1.042   2.771
 3494SOL    HW111381   4.460   1.059   2.800
 3494SOL    HW211382   4.561   1.053   2.672
 3495SOL     OW11383   1.843   3.956   3.692
 3495SOL    HW111384   1.859   3.857   3.691
 3495SOL    HW211385   1.767   3.977   3.753
 3496SOL     OW11386   6.427   5.624   1.145
 3496SOL    HW111387   6.355   5.652   1.082
 3496SOL    HW211388   6.516   5.636   1.100
 3497SOL     OW11389   3.200   0.458   1.563
 3497SOL    HW111390   3.141   0.439   1.642
 3497SOL    HW211391   3.269   0.386   1.555
 3498SOL     OW11392   2.965   2.170   1.397
 3498SOL    HW111393   3.034   2.100   1.376
 3498SOL    HW211394   2.877   2.143   1.358
 3499SOL     OW11395   5.657   7.003   4.950
 3499SOL    HW111396   5.733   0.011   4.892
 3499SOL    HW211397   5.599   0.062   4.969
 3500SOL     OW11398   2.960   2.210   3.747
 3500SOL    HW111399   3.054   2.196   3.778
 3500SOL    HW211400   2.952   2.181   3.652
 3501SOL     OW11401   1.447   6.936   6.231
 3501SOL    HW111402   1.499   6.911   6.314
 3501SOL    HW211403   1.361   6.885   6.230
 3502SOL     OW11404   5.288   2.378   2.372
 3502SOL    HW111405   5.205   2.342   2.415
 3502SOL    HW211406   5.342   2.302   2.335
 3503SOL     OW11407   0.626   6.160   6.460
 3503SOL    HW111408   0.725   6.173   6.467
 3503SOL    HW211409   0.592   6.204   6.376
 3504SOL     OW11410   2.196   0.958   6.820
 3504SOL    HW111411   2.251   1.040   6.808
 3504SOL    HW211412   2.100   0.983   6.829
 3505SOL     OW11413   5.246   2.644   5.042
 3505SOL    HW111414   5.189   2.571   5.004
 3505SOL    HW211415   5.214   2.666   5.135
 3506SOL     OW11416   4.095   4.978   4.833
 3506SOL    HW111417   4.055   4.986   4.925
 3506SOL    HW211418   4.028   5.007   4.765
 3507SOL     OW11419   2.920   1.685   1.608
 3507SOL    HW111420   2.839   1.715   1.557
 3507SOL    HW211421   2.976   1.765   1.630
 3508SOL     OW11422   3.667   1.061   6.694
 3508SOL    HW111423   3.727   0.981   6.694
 3508SOL    HW211424   3.635   1.079   6.601
 3509SOL     OW11425   4.697   5.949   0.037
 3509SOL    HW111426   4.704   6.048   0.025
 3509SOL    HW211427   4.632   5.912   6.990
 3510SOL     OW11428   2.372   1.039   1.506
 3510SOL    HW111429   2.323   1.101   1.445
 3510SOL    HW211430   2.377   1.079   1.597
 3511SOL     OW11431   2.782   4.980   1.962
 3511SOL    HW111432   2.806   4.891   1.923
 3511SOL    HW211433   2.760   4.969   2.058
 3512SOL     OW11434   6.618   5.455   6.297
 3512SOL    HW111435   6.611   5.369   6.246
 3512SOL    HW211436   6.653   5.436   6.388
 3513SOL     OW11437   4.962   1.655   0.329
 3513SOL    HW111438   5.025   1.732   0.320
 3513SOL    HW211439   4.990   1.581   0.268
 3514SOL     OW11440   3.678   1.822   2.549
 3514SOL    HW111441   3.643   1.771   2.470
 3514SOL    HW211442   3.770   1.790   2.571
 3515SOL     OW11443   0.699   4.483   3.960
 3515SOL    HW111444   0.743   4.553   3.904
 3515SOL    HW211445   0.690   4.399   3.906
 3516SOL     OW11446   4.287   0.582   1.382
 3516SOL    HW111447   4.322   0.591   1.289
 3516SOL    HW211448   4.363   0.565   1.445
 3517SOL     OW11449   4.914   1.691   2.268
 3517SOL    HW111450   4.974   1.743   2.329
 3517SOL    HW211451   4.883   1.608   2.315
 3518SOL     OW11452   6.208   1.635   5.522
 3518SOL    HW111453   6.185   1.720   5.475
 3518SOL    HW211454   6.126   1.579   5.533
 3519SOL     OW11455   3.298   1.496   1.628
 3519SOL    HW111456   3.323   1.529   1.537
 3519SOL    HW211457   3.248   1.568   1.677
 3520SOL     OW11458   2.605   6.003   4.010
 3520SOL    HW111459   2.510   5.981   3.986
 3520SOL    HW211460   2.661   5.921   4.001
 3521SOL     OW11461   2.270   2.539   5.621
 3521SOL    HW111462   2.188   2.519   5.673
 3521SOL    HW211463   2.256   2.624   5.569
 3522SOL     OW11464   0.814   5.997   6.805
 3522SOL    HW111465   0.859   5.953   6.727
 3522SOL    HW211466   0.860   6.083   6.826
 3523SOL     OW11467   3.659   5.768   0.036
 3523SOL    HW111468   3.618   5.685   0.074
 3523SOL    HW211469   3.705   5.746   6.970
 3524SOL     OW11470   4.570   1.434   4.498
 3524SOL    HW111471   4.595   1.410   4.592
 3524SOL    HW211472   4.480   1.396   4.476
 3525SOL     OW11473   0.495   3.008   3.591
 3525SOL    HW111474   0.588   3.042   3.603
 3525SOL    HW211475   0.471   2.948   3.667
 3526SOL     OW11476   6.956   6.852   1.536
 3526SOL    HW111477   6.880   6.794   1.567
 3526SOL    HW211478   0.020   6.823   1.581
 3527SOL     OW11479   6.482   2.798   0.257
 3527SOL    HW111480   6.569   2.838   0.229
 3527SOL    HW211481   6.492   2.700   0.270
 3528SOL     OW11482   2.250   5.441   5.065
 3528SOL    HW111483   2.255   5.478   4.973
 3528SOL    HW211484   2.284   5.347   5.065
 3529SOL     OW11485   4.650   4.166   0.287
 3529SOL    HW111486   4.623   4.239   0.225
 3529SOL    HW211487   4.735   4.191   0.334
 3530SOL     OW11488   6.588   0.485   0.573
 3530SOL    HW111489   6.532   0.567   0.559
 3530SOL    HW211490   6.600   0.469   0.671
 3531SOL     OW11491   4.379   2.235   0.534
 3531SOL    HW111492   4.359   2.245   0.632
 3531SOL    HW211493   4.391   2.325   0.493
 3532SOL     OW11494   2.126   0.911   1.501
 3532SOL    HW111495   2.126   0.847   1.424
 3532SOL    HW211496   2.209   0.899   1.555
 3533SOL     OW11497   1.776   2.892   3.022
 3533SOL    HW111498   1.827   2.944   2.953
 3533SOL    HW211499   1.770   2.796   2.993
 3534SOL     OW11500   0.435   1.244   0.894
 3534SOL    HW111501   0.375   1.219   0.819
 3534SOL    HW211502   0.521   1.193   0.887
 3535SOL     OW11503   4.217   6.937   3.625
 3535SOL    HW111504   4.288   7.006   3.637
 3535SOL    HW211505   4.128   6.977   3.644
 3536SOL     OW11506   4.186   1.692   4.024
 3536SOL    HW111507   4.172   1.791   4.020
 3536SOL    HW211508   4.161   1.659   4.115
 3537SOL     OW11509   1.488   6.116   2.658
 3537SOL    HW111510   1.531   6.122   2.748
 3537SOL    HW211511   1.538   6.174   2.593
 3538SOL     OW11512   3.228   5.818   1.467
 3538SOL    HW111513   3.166   5.858   1.400
 3538SOL    HW211514   3.180   5.805   1.554
 3539SOL     OW11515   3.500   3.996   4.386
 3539SOL    HW111516   3.539   4.053   4.458
 3539SOL    HW211517   3.408   3.968   4.412
 3540SOL     OW11518   1.857   2.189   3.047
 3540SOL    HW111519   1.767   2.232   3.048
 3540SOL    HW211520   1.893   2.184   3.140
 3541SOL     OW11521   3.818   4.003   4.708
 3541SOL    HW111522   3.758   4.060   4.653
 3541SOL    HW211523   3.901   3.982   4.656
 3542SOL     OW11524   6.760   5.901   0.937
 3542SOL    HW111525   6.856   5.927   0.940
 3542SOL    HW211526   6.704   5.979   0.967
 3543SOL     OW11527   4.714   1.888   4.644
 3543SOL    HW111528   4.694   1.974   4.599
 3543SOL    HW211529   4.720   1.815   4.576
 3544SOL     OW11530   3.564   0.189   6.593
 3544SOL    HW111531   3.645   0.224   6.546
 3544SOL    HW211532   3.591   0.144   6.678
 3545SOL     OW11533   2.816   5.171   0.179
 3545SOL    HW111534   2.751   5.244   0.199
 3545SOL    HW211535   2.906   5.210   0.161
 3546SOL     OW11536   1.185   4.694   2.631
 3546SOL    HW111537   1.206   4.708   2.534
 3546SOL    HW211538   1.087   4.704   2.646
 3547SOL     OW11539   4.929   4.893   4.328
 3547SOL    HW111540   4.862   4.820   4.312
 3547SOL    HW211541   4.906   4.941   4.413
 3548SOL     OW11542   6.010   3.412   5.616
 3548SOL    HW111543   5.992   3.352   5.694
 3548SOL    HW211544   5.935   3.407   5.551
 3549SOL     OW11545   5.274   3.542   1.911
 3549SOL    HW111546   5.258   3.639   1.925
 3549SOL    HW211547   5.352   3.513   1.967
 3550SOL     OW11548   5.000   1.810   4.003
 3550SOL    HW111549   4.952   1.725   4.026
 3550SOL    HW211550   5.057   1.795   3.922
 3551SOL     OW11551   2.087   0.366   2.491
 3551SOL    HW111552   2.096   0.273   2.527
 3551SOL    HW211553   2.176   0.396   2.455
 3552SOL     OW11554   6.850   4.202   3.002
 3552SOL    HW111555   6.753   4.178   3.010
 3552SOL    HW211556   6.863   4.258   2.920
 3553SOL     OW11557   5.895   1.716   3.376
 3553SOL    HW111558   5.915   1.662   3.295
 3553SOL    HW211559   5.974   1.773   3.398
 3554SOL     OW11560   3.636   5.599   6.716
 3554SOL    HW111561   3.553   5.641   6.751
 3554SOL    HW211562   3.653   5.513   6.766
 3555SOL     OW11563   1.029   2.249   4.016
 3555SOL    HW111564   0.964   2.302   4.070
 3555SOL    HW211565   1.118   2.247   4.063
 3556SOL     OW11566   4.114   1.288   6.305
 3556SOL    HW111567   4.178   1.249   6.239
 3556SOL    HW211568   4.149   1.377   6.336
 3557SOL     OW11569   1.484   0.909   3.970
 3557SOL    HW111570   1.433   0.899   4.056
 3557SOL    HW211571   1.422   0.939   3.898
 3558SOL     OW11572   0.493   0.087   1.244
 3558SOL    HW111573   0.490   0.078   1.144
 3558SOL    HW211574   0.400   0.102   1.278
 3559SOL     OW11575   0.828   0.317   6.090
 3559SOL    HW111576   0.838   0.230   6.138
 3559SOL    HW211577   0.832   0.301   5.991
 3560SOL     OW11578   6.453   0.187   1.564
 3560SOL    HW111579   6.546   0.190   1.599
 3560SOL    HW211580   6.389   0.182   1.641
 3561SOL     OW11581   5.764   5.192   3.841
 3561SOL    HW111582   5.807   5.111   3.801
 3561SOL    HW211583   5.736   5.254   3.768
 3562SOL     OW11584   4.155   2.085   2.424
 3562SOL    HW111585   4.062   2.052   2.409
 3562SOL    HW211586   4.156   2.152   2.498
 3563SOL     OW11587   3.780   6.196   1.829
 3563SOL    HW111588   3.792   6.138   1.748
 3563SOL    HW211589   3.712   6.156   1.889
 3564SOL     OW11590   6.425   4.218   1.980
 3564SOL    HW111591   6.372   4.260   1.906
 3564SOL    HW211592   6.497   4.281   2.009
 3565SOL     OW11593   0.596   0.794   5.320
 3565SOL    HW111594   0.676   0.816   5.375
 3565SOL    HW211595   0.545   0.878   5.300
 3566SOL     OW11596   0.765   4.751   5.742
 3566SOL    HW111597   0.742   4.734   5.838
 3566SOL    HW211598   0.777   4.664   5.695
 3567SOL     OW11599   6.525   2.083   1.409
 3567SOL    HW111600   6.586   2.104   1.485
 3567SOL    HW211601   6.430   2.101   1.435
 3568SOL     OW11602   4.988   4.176   3.978
 3568SOL    HW111603   4.939   4.090   3.963
 3568SOL    HW211604   5.081   4.156   4.008
 3569SOL     OW11605   4.153   3.491   3.190
 3569SOL    HW111606   4.177   3.396   3.207
 3569SOL    HW211607   4.196   3.549   3.259
 3570SOL     OW11608   0.400   2.570   5.634
 3570SOL    HW111609   0.421   2.521   5.550
 3570SOL    HW211610   0.484   2.612   5.670
 3571SOL     OW11611   3.182   6.924   4.258
 3571SOL    HW111612   3.271   6.969   4.260
 3571SOL    HW211613   3.149   6.910   4.352
 3572SOL     OW11614   4.578   4.371   2.848
 3572SOL    HW111615   4.646   4.300   2.826
 3572SOL    HW211616   4.516   4.383   2.771
 3573SOL     OW11617   0.446   4.768   3.478
 3573SOL    HW111618   0.545   4.777   3.483
 3573SOL    HW211619   0.404   4.857   3.460
 3574SOL     OW11620   2.314   1.816   6.298
 3574SOL    HW111621   2.354   1.908   6.292
 3574SOL    HW211622   2.351   1.759   6.225
 3575SOL     OW11623   4.798   0.187   6.020
 3575SOL    HW111624   4.761   0.094   6.020
 3575SOL    HW211625   4.737   0.247   5.969
 3576SOL     OW11626   0.982   2.768   0.332
 3576SOL    HW111627   1.081   2.758   0.334
 3576SOL    HW211628   0.953   2.829   0.407
 3577SOL     OW11629   2.084   3.736   4.387
 3577SOL    HW111630   2.146   3.781   4.323
 3577SOL    HW211631   1.990   3.746   4.354
 3578SOL     OW11632   4.746   2.252   0.838
 3578SOL    HW111633   4.795   2.287   0.758
 3578SOL    HW211634   4.685   2.177   0.809
 3579SOL     OW11635   0.537   3.520   2.520
 3579SOL    HW111636   0.617   3.580   2.515
 3579SOL    HW211637   0.480   3.547   2.598
 3580SOL     OW11638   6.562   3.885   2.179
 3580SOL    HW111639   6.637   3.951   2.186
 3580SOL    HW211640   6.585   3.817   2.110
 3581SOL     OW11641   1.670   0.577   2.793
 3581SOL    HW111642   1.623   0.631   2.723
 3581SOL    HW211643   1.756   0.542   2.757
 3582SOL     OW11644   4.457   6.342   6.962
 3582SOL    HW111645   4.394   6.356   0.018
 3582SOL    HW211646   4.542   6.301   6.996
 3583SOL     OW11647   2.185   6.313   0.598
 3583SOL    HW111648   2.263   6.375   0.592
 3583SOL    HW211649   2.215   6.224   0.632
 3584SOL     OW11650   5.521   5.113   4.726
 3584SOL    HW111651   5.557   5.050   4.795
 3584SOL    HW211652   5.455   5.175   4.769
 3585SOL     OW11653   4.315   2.015   3.497
 3585SOL    HW111654   4.250   1.959   3.446
 3585SOL    HW211655   4.408   1.994   3.467
 3586SOL     OW11656   0.099   2.986   5.062
 3586SOL    HW111657   0.067   2.893   5.044
 3586SOL    HW211658   0.033   3.051   5.025
 3587SOL     OW11659   2.352   0.621   5.802
 3587SOL    HW111660   2.439   0.622   5.753
 3587SOL    HW211661   2.309   0.531   5.792
 3588SOL     OW11662   5.739   3.978   3.980
 3588SOL    HW111663   5.772   3.903   4.038
 3588SOL    HW211664   5.641   3.991   3.996
 3589SOL     OW11665   0.497   1.516   5.868
 3589SOL    HW111666   0.568   1.447   5.851
 3589SOL    HW211667   0.418   1.473   5.911
 3590SOL     OW11668   6.241   5.077   5.900
 3590SOL    HW111669   6.302   5.152   5.873
 3590SOL    HW211670   6.213   5.026   5.819
 3591SOL     OW11671   4.981   1.166   1.113
 3591SOL    HW111672   4.891   1.149   1.074
 3591SOL    HW211673   5.046   1.098   1.080
 3592SOL     OW11674   0.595   6.068   1.585
 3592SOL    HW111675   0.505   6.047   1.624
 3592SOL    HW211676   0.634   6.147   1.633
 3593SOL     OW11677   4.175   3.397   5.905
 3593SOL    HW111678   4.117   3.343   5.844
 3593SOL    HW211679   4.118   3.442   5.975
 3594SOL     OW11680   4.474   4.547   5.278
 3594SOL    HW111681   4.459   4.480   5.351
 3594SOL    HW211682   4.404   4.536   5.208
 3595SOL     OW11683   4.820   6.791   5.465
 3595SOL    HW111684   4.905   6.820   5.421
 3595SOL    HW211685   4.757   6.756   5.396
 3596SOL     OW11686   3.469   1.615   2.034
 3596SOL    HW111687   3.520   1.530   2.048
 3596SOL    HW211688   3.407   1.605   1.956
 3597SOL     OW11689   4.195   4.758   5.132
 3597SOL    HW111690   4.268   4.815   5.095
 3597SOL    HW211691   4.206   4.664   5.099
 3598SOL     OW11692   6.388   5.211   4.287
 3598SOL    HW111693   6.373   5.128   4.233
 3598SOL    HW211694   6.480   5.209   4.327
 3599SOL     OW11695   1.906   1.177   5.528
 3599SOL    HW111696   1.871   1.085   5.542
 3599SOL    HW211697   1.896   1.202   5.431
 3600SOL     OW11698   2.235   4.143   1.209
 3600SOL    HW111699   2.255   4.047   1.190
 3600SOL    HW211700   2.235   4.158   1.308
 3601SOL     OW11701   2.957   0.331   5.345
 3601SOL    HW111702   3.045   0.358   5.384
 3601SOL    HW211703   2.971   0.293   5.253
 3602SOL     OW11704   1.425   2.447   0.784
 3602SOL    HW111705   1.492   2.504   0.736
 3602SOL    HW211706   1.333   2.477   0.761
 3603SOL     OW11707   1.481   6.844   5.740
 3603SOL    HW111708   1.422   6.794   5.803
 3603SOL    HW211709   1.508   6.931   5.780
 3604SOL     OW11710   6.607   1.168   4.793
 3604SOL    HW111711   6.632   1.140   4.700
 3604SOL    HW211712   6.511   1.147   4.810
 3605SOL     OW11713   0.700   0.039   5.055
 3605SOL    HW111714   0.616   0.024   5.002
 3605SOL    HW211715   0.737   6.972   5.085
 3606SOL     OW11716   1.966   0.459   2.852
 3606SOL    HW111717   1.968   0.530   2.923
 3606SOL    HW211718   1.991   0.500   2.764
 3607SOL     OW11719   5.742   1.526   4.283
 3607SOL    HW111720   5.711   1.542   4.377
 3607SOL    HW211721   5.755   1.614   4.237
 3608SOL     OW11722   4.113   1.807   5.602
 3608SOL    HW111723   4.092   1.845   5.512
 3608SOL    HW211724   4.211   1.786   5.607
 3609SOL     OW11725   2.965   6.618   4.779
 3609SOL    HW111726   2.960   6.714   4.805
 3609SOL    HW211727   3.059   6.595   4.753
 3610SOL     OW11728   1.028   0.056   5.851
 3610SOL    HW111729   0.999   0.151   5.840
 3610SOL    HW211730   1.002   0.003   5.770
 3611SOL     OW11731   5.545   2.981   2.881
 3611SOL    HW111732   5.518   2.923   2.957
 3611SOL    HW211733   5.612   3.049   2.912
 3612SOL     OW11734   5.224   1.328   1.126
 3612SOL    HW111735   5.142   1.275   1.147
 3612SOL    HW211736   5.267   1.292   1.044
 3613SOL     OW11737   4.239   1.008   2.783
 3613SOL    HW111738   4.213   1.103   2.765
 3613SOL    HW211739   4.236   0.991   2.881
 3614SOL     OW11740   3.263   5.780   0.073
 3614SOL    HW111741   3.202   5.703   0.092
 3614SOL    HW211742   3.328   5.790   0.149
 3615SOL     OW11743   5.348   2.871   4.923
 3615SOL    HW111744   5.282   2.796   4.923
 3615SOL    HW211745   5.432   2.842   4.878
 3616SOL     OW11746   2.142   0.867   1.133
 3616SOL    HW111747   2.114   0.948   1.185
 3616SOL    HW211748   2.086   0.858   1.051
 3617SOL     OW11749   4.053   5.416   5.132
 3617SOL    HW111750   4.135   5.365   5.159
 3617SOL    HW211751   4.050   5.426   5.033
 3618SOL     OW11752   0.958   5.557   4.183
 3618SOL    HW111753   0.994   5.554   4.276
 3618SOL    HW211754   0.887   5.487   4.173
 3619SOL     OW11755   0.130   1.649   2.113
 3619SOL    HW111756   0.226   1.661   2.134
 3619SOL    HW211757   0.118   1.637   2.014
 3620SOL     OW11758   4.802   6.448   5.519
 3620SOL    HW111759   4.758   6.422   5.604
 3620SOL    HW211760   4.823   6.546   5.521
 3621SOL     OW11761   3.222   3.201   2.957
 3621SOL    HW111762   3.211   3.115   3.006
 3621SOL    HW211763   3.288   3.259   3.006
 3622SOL     OW11764   1.941   6.167   6.186
 3622SOL    HW111765   1.900   6.090   6.234
 3622SOL    HW211766   1.898   6.252   6.216
 3623SOL     OW11767   1.940   6.087   5.553
 3623SOL    HW111768   1.850   6.131   5.548
 3623SOL    HW211769   1.937   6.014   5.621
 3624SOL     OW11770   2.780   1.756   2.577
 3624SOL    HW111771   2.834   1.679   2.543
 3624SOL    HW211772   2.793   1.835   2.517
 3625SOL     OW11773   6.218   1.776   1.778
 3625SOL    HW111774   6.308   1.733   1.773
 3625SOL    HW211775   6.169   1.741   1.858
 3626SOL     OW11776   0.745   3.248   5.612
 3626SOL    HW111777   0.819   3.187   5.638
 3626SOL    HW211778   0.748   3.264   5.513
 3627SOL     OW11779   3.122   1.344   2.776
 3627SOL    HW111780   3.107   1.394   2.861
 3627SOL    HW211781   3.077   1.255   2.782
 3628SOL     OW11782   6.850   1.260   1.297
 3628SOL    HW111783   6.801   1.174   1.312
 3628SOL    HW211784   6.931   1.243   1.241
 3629SOL     OW11785   1.631   0.811   4.379
 3629SOL    HW111786   1.612   0.844   4.472
 3629SOL    HW211787   1.720   0.844   4.349
 3630SOL     OW11788   6.916   1.563   2.795
 3630SOL    HW111789   6.930   1.640   2.858
 3630SOL    HW211790   6.900   1.479   2.848
 3631SOL     OW11791   2.332   5.383   2.429
 3631SOL    HW111792   2.266   5.374   2.354
 3631SOL    HW211793   2.362   5.292   2.458
 3632SOL     OW11794   4.928   3.500   2.743
 3632SOL    HW111795   4.879   3.584   2.722
 3632SOL    HW211796   4.887   3.456   2.823
 3633SOL     OW11797   4.562   4.863   5.779
 3633SOL    HW111798   4.489   4.800   5.753
 3633SOL    HW211799   4.649   4.831   5.742
 3634SOL     OW11800   2.512   5.195   6.593
 3634SOL    HW111801   2.475   5.183   6.502
 3634SOL    HW211802   2.591   5.257   6.589
 3635SOL     OW11803   1.402   6.783   2.878
 3635SOL    HW111804   1.404   6.689   2.911
 3635SOL    HW211805   1.459   6.840   2.937
 3636SOL     OW11806   6.745   6.358   4.161
 3636SOL    HW111807   6.780   6.334   4.070
 3636SOL    HW211808   6.817   6.347   4.229
 3637SOL     OW11809   4.885   1.783   7.013
 3637SOL    HW111810   4.913   1.873   6.981
 3637SOL    HW211811   4.942   1.713   6.969
 3638SOL     OW11812   0.630   2.798   4.028
 3638SOL    HW111813   0.603   2.887   3.991
 3638SOL    HW211814   0.612   2.727   3.960
 3639SOL     OW11815   3.588   3.095   3.790
 3639SOL    HW111816   3.545   3.136   3.870
 3639SOL    HW211817   3.646   3.163   3.745
 3640SOL     OW11818   4.556   1.810   2.427
 3640SOL    HW111819   4.579   1.735   2.489
 3640SOL    HW211820   4.561   1.897   2.477
 3641SOL     OW11821   0.204   3.164   1.582
 3641SOL    HW111822   0.177   3.182   1.487
 3641SOL    HW211823   0.213   3.250   1.631
 3642SOL     OW11824   3.922   4.605   6.603
 3642SOL    HW111825   4.018   4.602   6.574
 3642SOL    HW211826   3.865   4.640   6.528
 3643SOL     OW11827   4.414   4.942   5.067
 3643SOL    HW111828   4.458   4.855   5.044
 3643SOL    HW211829   4.483   5.007   5.098
 3644SOL     OW11830   3.202   1.662   1.836
 3644SOL    HW111831   3.122   1.683   1.891
 3644SOL    HW211832   3.269   1.736   1.843
 3645SOL     OW11833   1.398   3.835   3.713
 3645SOL    HW111834   1.389   3.935   3.714
 3645SOL    HW211835   1.354   3.797   3.794
 3646SOL     OW11836   2.595   5.285   5.101
 3646SOL    HW111837   2.510   5.233   5.089
 3646SOL    HW211838   2.659   5.260   5.028
 3647SOL     OW11839   3.402   0.769   0.844
 3647SOL    HW111840   3.501   0.775   0.856
 3647SOL    HW211841   3.357   0.785   0.932
 3648SOL     OW11842   5.812   5.722   4.052
 3648SOL    HW111843   5.754   5.651   4.012
 3648SOL    HW211844   5.778   5.747   4.143
 3649SOL     OW11845   5.331   3.211   0.188
 3649SOL    HW111846   5.293   3.173   0.104
 3649SOL    HW211847   5.304   3.155   0.266
 3650SOL     OW11848   5.372   6.057   0.120
 3650SOL    HW111849   5.364   6.129   0.051
 3650SOL    HW211850   5.286   6.049   0.171
 3651SOL     OW11851   0.625   1.546   5.537
 3651SOL    HW111852   0.565   1.467   5.550
 3651SOL    HW211853   0.611   1.610   5.613
 3652SOL     OW11854   5.849   2.126   2.490
 3652SOL    HW111855   5.910   2.072   2.431
 3652SOL    HW211856   5.788   2.180   2.433
 3653SOL     OW11857   2.322   1.586   0.823
 3653SOL    HW111858   2.382   1.665   0.833
 3653SOL    HW211859   2.310   1.541   0.912
 3654SOL     OW11860   4.626   5.868   1.007
 3654SOL    HW111861   4.713   5.853   0.961
 3654SOL    HW211862   4.554   5.816   0.960
 3655SOL     OW11863   1.496   6.959   3.953
 3655SOL    HW111864   1.463   0.019   3.904
 3655SOL    HW211865   1.593   6.946   3.937
 3656SOL     OW11866   0.827   0.653   0.921
 3656SOL    HW111867   0.888   0.726   0.889
 3656SOL    HW211868   0.734   0.673   0.892
 3657SOL     OW11869   6.958   4.561   6.646
 3657SOL    HW111870   0.019   4.592   6.696
 3657SOL    HW211871   6.933   4.469   6.678
 3658SOL     OW11872   2.218   4.461   5.454
 3658SOL    HW111873   2.285   4.399   5.497
 3658SOL    HW211874   2.212   4.545   5.508
 3659SOL     OW11875   0.676   2.299   0.232
 3659SOL    HW111876   0.702   2.377   0.289
 3659SOL    HW211877   0.755   2.267   0.181
 3660SOL     OW11878   4.377   4.676   4.085
 3660SOL    HW111879   4.305   4.665   4.016
 3660SOL    HW211880   4.455   4.619   4.061
 3661SOL     OW11881   0.513   0.724   5.048
 3661SOL    HW111882   0.427   0.772   5.067
 3661SOL    HW211883   0.574   0.733   5.126
 3662SOL     OW11884   3.641   3.018   5.294
 3662SOL    HW111885   3.630   2.926   5.330
 3662SOL    HW211886   3.728   3.025   5.246
 3663SOL     OW11887   1.623   2.594   5.979
 3663SOL    HW111888   1.598   2.497   5.984
 3663SOL    HW211889   1.721   2.604   5.993
 3664SOL     OW11890   2.030   2.641   0.845
 3664SOL    HW111891   1.956   2.688   0.892
 3664SOL    HW211892   2.118   2.670   0.884
 3665SOL     OW11893   6.726   6.272   5.144
 3665SOL    HW111894   6.708   6.206   5.217
 3665SOL    HW211895   6.816   6.314   5.159
 3666SOL     OW11896   2.211   3.869   4.593
 3666SOL    HW111897   2.145   3.831   4.528
 3666SOL    HW211898   2.190   3.837   4.685
 3667SOL     OW11899   2.366   6.456   1.210
 3667SOL    HW111900   2.358   6.535   1.271
 3667SOL    HW211901   2.277   6.438   1.167
 3668SOL     OW11902   4.791   0.892   0.738
 3668SOL    HW111903   4.858   0.925   0.672
 3668SOL    HW211904   4.729   0.966   0.761
 3669SOL     OW11905   6.763   1.154   2.444
 3669SOL    HW111906   6.810   1.079   2.491
 3669SOL    HW211907   6.731   1.221   2.511
 3670SOL     OW11908   1.943   6.073   1.744
 3670SOL    HW111909   1.945   6.041   1.839
 3670SOL    HW211910   1.997   6.011   1.687
 3671SOL     OW11911   0.564   0.506   5.375
 3671SOL    HW111912   0.659   0.491   5.403
 3671SOL    HW211913   0.552   0.602   5.350
 3672SOL     OW11914   2.771   0.240   2.796
 3672SOL    HW111915   2.788   0.184   2.714
 3672SOL    HW211916   2.858   0.262   2.839
 3673SOL     OW11917   3.847   1.644   1.944
 3673SOL    HW111918   3.807   1.675   2.031
 3673SOL    HW211919   3.870   1.723   1.888
 3674SOL     OW11920   0.028   6.017   6.183
 3674SOL    HW111921   0.062   6.104   6.220
 3674SOL    HW211922   6.966   6.034   6.129
 3675SOL     OW11923   5.631   0.479   5.822
 3675SOL    HW111924   5.574   0.497   5.902
 3675SOL    HW211925   5.668   0.386   5.828
 3676SOL     OW11926   2.577   0.493   6.453
 3676SOL    HW111927   2.490   0.466   6.411
 3676SOL    HW211928   2.564   0.507   6.551
 3677SOL     OW11929   0.850   6.824   5.074
 3677SOL    HW111930   0.871   6.777   4.988
 3677SOL    HW211931   0.845   6.756   5.147
 3678SOL     OW11932   2.832   0.992   3.378
 3678SOL    HW111933   2.741   1.029   3.361
 3678SOL    HW211934   2.836   0.956   3.471
 3679SOL     OW11935   3.312   1.080   1.365
 3679SOL    HW111936   3.399   1.048   1.401
 3679SOL    HW211937   3.237   1.034   1.413
 3680SOL     OW11938   4.712   0.842   3.926
 3680SOL    HW111939   4.644   0.910   3.954
 3680SOL    HW211940   4.794   0.889   3.892
 3681SOL     OW11941   1.254   5.314   3.653
 3681SOL    HW111942   1.350   5.339   3.638
 3681SOL    HW211943   1.235   5.226   3.609
 3682SOL     OW11944   5.254   0.980   1.993
 3682SOL    HW111945   5.354   0.980   1.985
 3682SOL    HW211946   5.228   0.998   2.088
 3683SOL     OW11947   6.018   2.526   1.834
 3683SOL    HW111948   5.947   2.478   1.781
 3683SOL    HW211949   6.101   2.532   1.779
 3684SOL     OW11950   2.327   6.403   5.222
 3684SOL    HW111951   2.329   6.454   5.308
 3684SOL    HW211952   2.410   6.348   5.214
 3685SOL     OW11953   1.440   6.486   2.923
 3685SOL    HW111954   1.534   6.511   2.897
 3685SOL    HW211955   1.443   6.405   2.982
 3686SOL     OW11956   1.146   5.075   0.957
 3686SOL    HW111957   1.156   4.980   0.929
 3686SOL    HW211958   1.122   5.079   1.054
 3687SOL     OW11959   6.864   4.611   4.316
 3687SOL    HW111960   6.938   4.649   4.372
 3687SOL    HW211961   6.885   4.625   4.219
 3688SOL     OW11962   0.397   2.433   1.407
 3688SOL    HW111963   0.387   2.334   1.399
 3688SOL    HW211964   0.471   2.454   1.471
 3689SOL     OW11965   3.074   2.339   5.627
 3689SOL    HW111966   3.114   2.407   5.689
 3689SOL    HW211967   3.077   2.374   5.534
 3690SOL     OW11968   0.105   5.441   2.247
 3690SOL    HW111969   0.145   5.403   2.331
 3690SOL    HW211970   0.026   5.498   2.270
 3691SOL     OW11971   2.947   1.922   6.913
 3691SOL    HW111972   3.023   1.986   6.912
 3691SOL    HW211973   2.956   1.858   6.836
 3692SOL     OW11974   0.958   2.735   5.701
 3692SOL    HW111975   0.880   2.680   5.671
 3692SOL    HW211976   0.944   2.831   5.675
 3693SOL     OW11977   1.096   1.064   3.147
 3693SOL    HW111978   1.017   1.046   3.205
 3693SOL    HW211979   1.140   1.149   3.174
 3694SOL     OW11980   6.851   5.866   2.066
 3694SOL    HW111981   6.869   5.964   2.072
 3694SOL    HW211982   6.817   5.833   2.154
 3695SOL     OW11983   5.731   3.629   4.483
 3695SOL    HW111984   5.778   3.546   4.511
 3695SOL    HW211985   5.786   3.709   4.505
 3696SOL     OW11986   4.153   7.014   4.247
 3696SOL    HW111987   4.107   0.027   4.329
 3696SOL    HW211988   4.110   6.930   4.215
 3697SOL     OW11989   6.846   5.058   2.704
 3697SOL    HW111990   6.864   5.071   2.801
 3697SOL    HW211991   6.787   5.131   2.670
 3698SOL     OW11992   1.397   0.322   3.370
 3698SOL    HW111993   1.370   0.263   3.294
 3698SOL    HW211994   1.456   0.395   3.336
 3699SOL     OW11995   3.098   1.767   3.011
 3699SOL    HW111996   3.027   1.710   2.970
 3699SOL    HW211997   3.095   1.758   3.111
 3700SOL     OW11998   1.132   4.952   4.533
 3700SOL    HW111999   1.063   4.888   4.566
 3700SOL    HW212000   1.087   5.031   4.492
 3701SOL     OW12001   6.520   0.148   2.493
 3701SOL    HW112002   6.430   0.185   2.517
 3701SOL    HW212003   6.537   0.160   2.395
 3702SOL     OW12004   7.014   4.634   3.629
 3702SOL    HW112005   0.059   4.709   3.643
 3702SOL    HW212006   0.041   4.546   3.640
 3703SOL     OW12007   1.326   1.657   3.330
 3703SOL    HW112008   1.256   1.682   3.397
 3703SOL    HW212009   1.397   1.728   3.328
 3704SOL     OW12010   6.178   6.787   0.864
 3704SOL    HW112011   6.216   6.707   0.912
 3704SOL    HW212012   6.167   6.862   0.929
 3705SOL     OW12013   6.771   4.299   3.888
 3705SOL    HW112014   6.807   4.226   3.946
 3705SOL    HW212015   6.745   4.260   3.799
 3706SOL     OW12016   0.072   6.548   6.601
 3706SOL    HW112017   0.002   6.476   6.604
 3706SOL    HW212018   0.027   6.637   6.599
 3707SOL     OW12019   6.443   4.211   3.531
 3707SOL    HW112020   6.458   4.309   3.517
 3707SOL    HW212021   6.370   4.180   3.471
 3708SOL     OW12022   0.631   5.614   0.299
 3708SOL    HW112023   0.687   5.691   0.269
 3708SOL    HW212024   0.629   5.610   0.399
 3709SOL     OW12025   0.711   1.610   1.279
 3709SOL    HW112026   0.622   1.572   1.251
 3709SOL    HW212027   0.773   1.535   1.302
 3710SOL     OW12028   1.700   3.539   5.230
 3710SOL    HW112029   1.763   3.608   5.195
 3710SOL    HW212030   1.727   3.449   5.196
 3711SOL     OW12031   1.153   4.826   6.100
 3711SOL    HW112032   1.105   4.904   6.141
 3711SOL    HW212033   1.086   4.764   6.059
 3712SOL     OW12034   3.824   4.873   3.210
 3712SOL    HW112035   3.845   4.856   3.114
 3712SOL    HW212036   3.908   4.901   3.257
 3713SOL     OW12037   6.019   1.108   6.373
 3713SOL    HW112038   6.099   1.052   6.352
 3713SOL    HW212039   5.957   1.057   6.432
 3714SOL     OW12040   0.023   5.071   0.473
 3714SOL    HW112041   0.015   5.008   0.550
 3714SOL    HW212042   6.952   5.102   0.445
 3715SOL     OW12043   5.730   4.383   2.091
 3715SOL    HW112044   5.638   4.366   2.056
 3715SOL    HW212045   5.797   4.360   2.021
 3716SOL     OW12046   5.595   4.997   5.440
 3716SOL    HW112047   5.553   4.934   5.376
 3716SOL    HW212048   5.688   5.018   5.411
 3717SOL     OW12049   4.211   6.853   1.272
 3717SOL    HW112050   4.183   6.925   1.209
 3717SOL    HW212051   4.130   6.808   1.311
 3718SOL     OW12052   5.384   6.067   6.286
 3718SOL    HW112053   5.323   6.140   6.256
 3718SOL    HW212054   5.444   6.040   6.211
 3719SOL     OW12055   2.786   3.975   0.430
 3719SOL    HW112056   2.853   3.901   0.437
 3719SOL    HW212057   2.789   4.030   0.514
 3720SOL     OW12058   0.778   2.028   0.334
 3720SOL    HW112059   0.867   2.016   0.378
 3720SOL    HW212060   0.773   1.969   0.253
 3721SOL     OW12061   6.396   0.401   5.915
 3721SOL    HW112062   6.419   0.459   5.993
 3721SOL    HW212063   6.398   0.305   5.944
 3722SOL     OW12064   4.718   6.294   1.846
 3722SOL    HW112065   4.620   6.284   1.827
 3722SOL    HW212066   4.733   6.376   1.901
 3723SOL     OW12067   4.083   4.275   6.596
 3723SOL    HW112068   4.169   4.304   6.552
 3723SOL    HW212069   4.062   4.337   6.671
 3724SOL     OW12070   5.871   3.887   4.552
 3724SOL    HW112071   5.883   3.924   4.460
 3724SOL    HW212072   5.955   3.899   4.605
 3725SOL     OW12073   6.917   6.292   1.349
 3725SOL    HW112074   6.931   6.193   1.337
 3725SOL    HW212075   6.958   6.341   1.273
 3726SOL     OW12076   6.257   3.869   5.072
 3726SOL    HW112077   6.288   3.782   5.109
 3726SOL    HW212078   6.259   3.866   4.973
 3727SOL     OW12079   6.274   1.632   3.827
 3727SOL    HW112080   6.225   1.550   3.799
 3727SOL    HW212081   6.210   1.706   3.844
 3728SOL     OW12082   1.904   4.268   0.476
 3728SOL    HW112083   1.864   4.218   0.398
 3728SOL    HW212084   1.966   4.207   0.526
 3729SOL     OW12085   6.829   6.862   6.104
 3729SOL    HW112086   6.793   6.838   6.013
 3729SOL    HW212087   6.843   6.961   6.109
 3730SOL     OW12088   6.029   4.042   4.864
 3730SOL    HW112089   5.955   4.105   4.841
 3730SOL    HW212090   5.998   3.980   4.936
 3731SOL     OW12091   5.973   1.277   2.057
 3731SOL    HW112092   6.058   1.236   2.088
 3731SOL    HW212093   5.922   1.211   2.001
 3732SOL     OW12094   4.449   2.273   6.640
 3732SOL    HW112095   4.369   2.331   6.621
 3732SOL    HW212096   4.487   2.297   6.729
 3733SOL     OW12097   2.199   1.118   3.094
 3733SOL    HW112098   2.244   1.124   3.183
 3733SOL    HW212099   2.114   1.170   3.096
 3734SOL     OW12100   4.834   1.313   2.125
 3734SOL    HW112101   4.736   1.332   2.129
 3734SOL    HW212102   4.885   1.396   2.144
 3735SOL     OW12103   4.050   0.960   2.366
 3735SOL    HW112104   3.964   0.945   2.317
 3735SOL    HW212105   4.059   1.057   2.388
 3736SOL     OW12106   0.680   0.954   6.494
 3736SOL    HW112107   0.593   1.003   6.484
 3736SOL    HW212108   0.750   0.999   6.438
 3737SOL     OW12109   5.232   1.897   4.538
 3737SOL    HW112110   5.147   1.933   4.500
 3737SOL    HW212111   5.236   1.798   4.523
 3738SOL     OW12112   0.486   0.908   0.601
 3738SOL    HW112113   0.428   0.903   0.520
 3738SOL    HW212114   0.577   0.874   0.579
 3739SOL     OW12115   3.326   6.032   6.927
 3739SOL    HW112116   3.305   5.966   7.000
 3739SOL    HW212117   3.246   6.042   6.868
 3740SOL     OW12118   6.972   0.089   6.559
 3740SOL    HW112119   0.037   0.113   6.607
 3740SOL    HW212120   6.986   0.099   6.460
 3741SOL     OW12121   5.850   4.412   0.640
 3741SOL    HW112122   5.754   4.389   0.627
 3741SOL    HW212123   5.858   4.505   0.677
 3742SOL     OW12124   4.642   4.915   1.129
 3742SOL    HW112125   4.663   4.915   1.227
 3742SOL    HW212126   4.692   4.840   1.084
 3743SOL     OW12127   2.716   4.080   1.704
 3743SOL    HW112128   2.652   4.143   1.749
 3743SOL    HW212129   2.754   4.125   1.622
 3744SOL     OW12130   6.576   5.637   2.502
 3744SOL    HW112131   6.568   5.650   2.601
 3744SOL    HW212132   6.485   5.623   2.463
 3745SOL     OW12133   6.192   1.070   3.262
 3745SOL    HW112134   6.236   1.061   3.173
 3745SOL    HW212135   6.245   1.022   3.331
 3746SOL     OW12136   5.446   0.252   5.489
 3746SOL    HW112137   5.517   0.194   5.531
 3746SOL    HW212138   5.447   0.238   5.390
 3747SOL     OW12139   2.067   4.635   5.735
 3747SOL    HW112140   2.002   4.623   5.660
 3747SOL    HW212141   2.020   4.618   5.822
 3748SOL     OW12142   5.015   1.371   3.156
 3748SOL    HW112143   4.948   1.443   3.171
 3748SOL    HW212144   5.050   1.339   3.244
 3749SOL     OW12145   5.796   5.430   0.867
 3749SOL    HW112146   5.706   5.438   0.911
 3749SOL    HW212147   5.820   5.518   0.825
 3750SOL     OW12148   6.927   4.370   1.611
 3750SOL    HW112149   6.875   4.293   1.573
 3750SOL    HW212150   7.011   4.383   1.558
 3751SOL     OW12151   2.127   4.704   0.981
 3751SOL    HW112152   2.189   4.679   0.906
 3751SOL    HW212153   2.140   4.642   1.058
 3752SOL     OW12154   1.198   6.559   6.352
 3752SOL    HW112155   1.165   6.547   6.445
 3752SOL    HW212156   1.201   6.657   6.330
 3753SOL     OW12157   0.396   1.582   5.235
 3753SOL    HW112158   0.440   1.562   5.147
 3753SOL    HW212159   0.432   1.668   5.271
 3754SOL     OW12160   6.466   6.654   0.737
 3754SOL    HW112161   6.377   6.629   0.698
 3754SOL    HW212162   6.535   6.589   0.704
 3755SOL     OW12163   4.672   2.460   2.946
 3755SOL    HW112164   4.756   2.406   2.954
 3755SOL    HW212165   4.624   2.434   2.862
 3756SOL     OW12166   3.274   0.122   0.402
 3756SOL    HW112167   3.352   0.089   0.349
 3756SOL    HW212168   3.281   0.088   0.496
 3757SOL     OW12169   2.916   3.452   5.868
 3757SOL    HW112170   2.908   3.438   5.967
 3757SOL    HW212171   2.834   3.416   5.823
 3758SOL     OW12172   0.642   0.923   1.204
 3758SOL    HW112173   0.617   0.855   1.136
 3758SOL    HW212174   0.656   1.011   1.159
 3759SOL     OW12175   5.825   4.005   0.966
 3759SOL    HW112176   5.790   4.066   0.895
 3759SOL    HW212177   5.791   4.035   1.055
 3760SOL     OW12178   2.117   1.307   6.313
 3760SOL    HW112179   2.120   1.234   6.382
 3760SOL    HW212180   2.101   1.266   6.223
 3761SOL     OW12181   6.501   6.603   4.370
 3761SOL    HW112182   6.572   6.633   4.434
 3761SOL    HW212183   6.424   6.565   4.421
 3762SOL     OW12184   0.329   3.948   1.334
 3762SOL    HW112185   0.408   3.887   1.328
 3762SOL    HW212186   0.337   4.006   1.415
 3763SOL     OW12187   0.649   2.347   5.085
 3763SOL    HW112188   0.709   2.424   5.065
 3763SOL    HW212189   0.596   2.323   5.004
 3764SOL     OW12190   2.400   0.588   3.203
 3764SOL    HW112191   2.350   0.612   3.286
 3764SOL    HW212192   2.443   0.670   3.166
 3765SOL     OW12193   6.313   1.377   3.572
 3765SOL    HW112194   6.239   1.348   3.632
 3765SOL    HW212195   6.386   1.310   3.573
 3766SOL     OW12196   1.944   1.225   4.722
 3766SOL    HW112197   1.912   1.165   4.795
 3766SOL    HW212198   2.011   1.290   4.758
 3767SOL     OW12199   6.489   4.471   1.558
 3767SOL    HW112200   6.453   4.536   1.491
 3767SOL    HW212201   6.496   4.515   1.647
 3768SOL     OW12202   4.488   6.672   1.240
 3768SOL    HW112203   4.413   6.607   1.227
 3768SOL    HW212204   4.532   6.655   1.328
 3769SOL     OW12205   4.099   6.707   4.647
 3769SOL    HW112206   4.127   6.791   4.693
 3769SOL    HW212207   4.119   6.714   4.549
 3770SOL     OW12208   1.187   2.989   0.652
 3770SOL    HW112209   1.254   2.923   0.620
 3770SOL    HW212210   1.234   3.071   0.685
 3771SOL     OW12211   5.010   1.681   5.101
 3771SOL    HW112212   5.094   1.699   5.049
 3771SOL    HW212213   5.034   1.637   5.188
 3772SOL     OW12214   5.083   0.905   2.956
 3772SOL    HW112215   5.114   0.895   3.051
 3772SOL    HW212216   5.070   0.814   2.916
 3773SOL     OW12217   6.341   2.660   1.379
 3773SOL    HW112218   6.297   2.571   1.387
 3773SOL    HW212219   6.391   2.666   1.293
 3774SOL     OW12220   2.156   1.006   1.859
 3774SOL    HW112221   2.089   0.960   1.801
 3774SOL    HW212222   2.130   0.995   1.955
 3775SOL     OW12223   5.318   2.865   3.731
 3775SOL    HW112224   5.260   2.848   3.651
 3775SOL    HW212225   5.408   2.898   3.701
 3776SOL     OW12226   3.019   1.845   0.380
 3776SOL    HW112227   3.005   1.774   0.311
 3776SOL    HW212228   3.112   1.880   0.374
 3777SOL     OW12229   1.421   4.150   3.448
 3777SOL    HW112230   1.362   4.114   3.520
 3777SOL    HW212231   1.516   4.150   3.479
 3778SOL     OW12232   2.059   0.338   1.644
 3778SOL    HW112233   2.022   0.299   1.560
 3778SOL    HW212234   2.140   0.393   1.623
 3779SOL     OW12235   2.025   3.750   0.289
 3779SOL    HW112236   1.987   3.694   0.215
 3779SOL    HW212237   1.968   3.832   0.301
 3780SOL     OW12238   2.580   0.470   4.166
 3780SOL    HW112239   2.678   0.458   4.184
 3780SOL    HW212240   2.535   0.505   4.248
 3781SOL     OW12241   3.329   4.998   4.914
 3781SOL    HW112242   3.339   4.974   5.011
 3781SOL    HW212243   3.418   5.022   4.876
 3782SOL     OW12244   2.970   0.840   2.245
 3782SOL    HW112245   2.915   0.765   2.283
 3782SOL    HW212246   3.050   0.802   2.199
 3783SOL     OW12247   5.227   4.401   5.668
 3783SOL    HW112248   5.225   4.487   5.618
 3783SOL    HW212249   5.322   4.370   5.678
 3784SOL     OW12250   5.077   2.869   4.660
 3784SOL    HW112251   5.018   2.835   4.587
 3784SOL    HW212252   5.124   2.792   4.703
 3785SOL     OW12253   0.081   0.656   1.587
 3785SOL    HW112254   0.142   0.582   1.557
 3785SOL    HW212255   0.100   0.679   1.682
 3786SOL     OW12256   2.797   5.951   1.239
 3786SOL    HW112257   2.759   6.042   1.259
 3786SOL    HW212258   2.784   5.891   1.317
 3787SOL     OW12259   3.736   1.372   3.569
 3787SOL    HW112260   3.741   1.291   3.628
 3787SOL    HW212261   3.793   1.357   3.488
 3788SOL     OW12262   0.274   2.938   2.892
 3788SOL    HW112263   0.330   2.876   2.948
 3788SOL    HW212264   0.201   2.886   2.848
 3789SOL     OW12265   1.945   5.115   2.111
 3789SOL    HW112266   1.935   5.159   2.201
 3789SOL    HW212267   1.942   5.185   2.040
 3790SOL     OW12268   2.003   3.486   2.732
 3790SOL    HW112269   2.050   3.482   2.820
 3790SOL    HW212270   2.000   3.581   2.700
 3791SOL     OW12271   6.650   0.386   2.247
 3791SOL    HW112272   6.717   0.404   2.175
 3791SOL    HW212273   6.582   0.459   2.248
 3792SOL     OW12274   1.376   5.325   5.994
 3792SOL    HW112275   1.384   5.408   6.049
 3792SOL    HW212276   1.456   5.316   5.935
 3793SOL     OW12277   6.275   5.966   2.609
 3793SOL    HW112278   6.371   5.950   2.631
 3793SOL    HW212279   6.260   5.953   2.511
 3794SOL     OW12280   4.377   0.331   4.694
 3794SOL    HW112281   4.324   0.387   4.758
 3794SOL    HW212282   4.344   0.345   4.601
 3795SOL     OW12283   5.443   0.620   0.378
 3795SOL    HW112284   5.413   0.652   0.288
 3795SOL    HW212285   5.389   0.665   0.449
 3796SOL     OW12286   0.290   2.175   1.551
 3796SOL    HW112287   0.383   2.177   1.588
 3796SOL    HW212288   0.244   2.091   1.580
 3797SOL     OW12289   6.268   5.971   2.305
 3797SOL    HW112290   6.245   5.920   2.222
 3797SOL    HW212291   6.359   6.011   2.294
 3798SOL     OW12292   1.365   4.637   0.116
 3798SOL    HW112293   1.361   4.571   0.042
 3798SOL    HW212294   1.339   4.592   0.202
 3799SOL     OW12295   0.349   0.922   5.467
 3799SOL    HW112296   0.370   0.943   5.563
 3799SOL    HW212297   0.326   0.825   5.459
 3800SOL     OW12298   4.516   2.427   5.222
 3800SOL    HW112299   4.594   2.366   5.236
 3800SOL    HW212300   4.545   2.522   5.235
 3801SOL     OW12301   6.902   0.771   5.671
 3801SOL    HW112302   6.840   0.727   5.736
 3801SOL    HW212303   6.854   0.787   5.585
 3802SOL     OW12304   1.701   2.118   5.039
 3802SOL    HW112305   1.607   2.145   5.016
 3802SOL    HW212306   1.715   2.022   5.016
 3803SOL     OW12307   4.501   1.112   1.322
 3803SOL    HW112308   4.565   1.171   1.371
 3803SOL    HW212309   4.407   1.141   1.341
 3804SOL     OW12310   4.999   4.184   4.682
 3804SOL    HW112311   4.906   4.159   4.656
 3804SOL    HW212312   5.047   4.103   4.715
 3805SOL     OW12313   2.212   2.837   1.422
 3805SOL    HW112314   2.213   2.934   1.396
 3805SOL    HW212315   2.143   2.789   1.368
 3806SOL     OW12316   4.273   0.464   0.883
 3806SOL    HW112317   4.226   0.493   0.799
 3806SOL    HW212318   4.255   0.367   0.900
 3807SOL     OW12319   1.641   0.095   2.803
 3807SOL    HW112320   1.732   0.131   2.784
 3807SOL    HW212321   1.609   0.042   2.725
 3808SOL     OW12322   3.680   1.040   0.868
 3808SOL    HW112323   3.725   1.077   0.786
 3808SOL    HW212324   3.687   0.940   0.867
 3809SOL     OW12325   3.585   1.014   0.425
 3809SOL    HW112326   3.556   1.008   0.521
 3809SOL    HW212327   3.684   1.002   0.419
 3810SOL     OW12328   0.965   3.196   6.706
 3810SOL    HW112329   0.922   3.224   6.792
 3810SOL    HW212330   1.039   3.260   6.683
 3811SOL     OW12331   6.542   0.941   5.430
 3811SOL    HW112332   6.557   1.026   5.378
 3811SOL    HW212333   6.461   0.894   5.395
 3812SOL     OW12334   4.195   7.013   5.761
 3812SOL    HW112335   4.106   6.973   5.783
 3812SOL    HW212336   4.215   6.998   5.664
 3813SOL     OW12337   3.624   4.994   1.863
 3813SOL    HW112338   3.616   4.894   1.865
 3813SOL    HW212339   3.719   5.019   1.883
 3814SOL     OW12340   1.391   0.070   1.508
 3814SOL    HW112341   1.470   0.016   1.480
 3814SOL    HW212342   1.389   0.077   1.608
 3815SOL     OW12343   4.978   1.989   2.291
 3815SOL    HW112344   4.943   2.000   2.385
 3815SOL    HW212345   4.904   2.009   2.226
 3816SOL     OW12346   0.072   5.423   0.746
 3816SOL    HW112347   0.098   5.340   0.795
 3816SOL    HW212348   0.155   5.468   0.712
 3817SOL     OW12349   5.603   1.895   5.058
 3817SOL    HW112350   5.656   1.840   4.994
 3817SOL    HW212351   5.573   1.979   5.013
 3818SOL     OW12352   3.711   0.128   2.927
 3818SOL    HW112353   3.750   0.105   3.016
 3818SOL    HW212354   3.635   0.066   2.907
 3819SOL     OW12355   5.819   3.496   6.355
 3819SOL    HW112356   5.806   3.398   6.371
 3819SOL    HW212357   5.821   3.544   6.443
 3820SOL     OW12358   3.941   6.597   3.512
 3820SOL    HW112359   3.939   6.503   3.478
 3820SOL    HW212360   4.021   6.644   3.477
 3821SOL     OW12361   1.470   4.284   1.701
 3821SOL    HW112362   1.405   4.358   1.683
 3821SOL    HW212363   1.435   4.199   1.663
 3822SOL     OW12364   1.054   3.581   1.720
 3822SOL    HW112365   1.067   3.526   1.638
 3822SOL    HW212366   0.969   3.554   1.766
 3823SOL     OW12367   2.013   3.594   5.123
 3823SOL    HW112368   2.065   3.672   5.157
 3823SOL    HW212369   2.072   3.514   5.115
 3824SOL     OW12370   0.351   3.353   6.255
 3824SOL    HW112371   0.269   3.301   6.228
 3824SOL    HW212372   0.410   3.296   6.311
 3825SOL     OW12373   0.536   6.055   6.704
 3825SOL    HW112374   0.629   6.045   6.739
 3825SOL    HW212375   0.538   6.081   6.608
 3826SOL     OW12376   0.130   1.289   1.517
 3826SOL    HW112377   0.113   1.373   1.466
 3826SOL    HW212378   0.044   1.252   1.552
 3827SOL     OW12379   4.303   1.899   1.672
 3827SOL    HW112380   4.397   1.899   1.705
 3827SOL    HW212381   4.303   1.912   1.573
 3828SOL     OW12382   3.757   1.451   0.626
 3828SOL    HW112383   3.664   1.487   0.616
 3828SOL    HW212384   3.805   1.500   0.698
 3829SOL     OW12385   0.963   5.257   3.756
 3829SOL    HW112386   0.994   5.169   3.793
 3829SOL    HW212387   1.039   5.304   3.711
 3830SOL     OW12388   1.946   6.954   5.873
 3830SOL    HW112389   1.895   7.004   5.943
 3830SOL    HW212390   1.965   6.862   5.905
 3831SOL     OW12391   4.838   2.471   2.259
 3831SOL    HW112392   4.914   2.452   2.197
 3831SOL    HW212393   4.755   2.426   2.224
 3832SOL     OW12394   6.319   6.923   2.462
 3832SOL    HW112395   6.351   6.878   2.545
 3832SOL    HW212396   6.371   7.008   2.447
 3833SOL     OW12397   1.021   6.512   1.869
 3833SOL    HW112398   1.106   6.549   1.833
 3833SOL    HW212399   0.993   6.433   1.815
 3834SOL     OW12400   3.011   2.513   0.365
 3834SOL    HW112401   2.957   2.504   0.449
 3834SOL    HW212402   2.958   2.480   0.288
 3835SOL     OW12403   3.814   4.871   2.945
 3835SOL    HW112404   3.883   4.854   2.874
 3835SOL    HW212405   3.750   4.941   2.913
 3836SOL     OW12406   1.626   2.423   6.500
 3836SOL    HW112407   1.679   2.365   6.438
 3836SOL    HW212408   1.583   2.496   6.447
 3837SOL     OW12409   3.804   4.419   6.957
 3837SOL    HW112410   3.748   4.344   6.922
 3837SOL    HW212411   3.768   4.506   6.922
 3838SOL     OW12412   0.265   3.484   5.456
 3838SOL    HW112413   0.279   3.408   5.520
 3838SOL    HW212414   0.175   3.524   5.472
 3839SOL     OW12415   0.291   6.411   6.943
 3839SOL    HW112416   0.344   6.328   6.928
 3839SOL    HW212417   0.268   6.419   0.020
 3840SOL     OW12418   3.744   1.820   3.322
 3840SOL    HW112419   3.660   1.777   3.290
 3840SOL    HW212420   3.819   1.754   3.318
 3841SOL     OW12421   1.902   3.042   3.932
 3841SOL    HW112422   1.805   3.055   3.948
 3841SOL    HW212423   1.918   3.025   3.835
 3842SOL     OW12424   1.459   4.945   0.334
 3842SOL    HW112425   1.447   4.933   0.235
 3842SOL    HW212426   1.467   4.856   0.377
 3843SOL     OW12427   6.820   4.926   0.214
 3843SOL    HW112428   6.883   4.999   0.189
 3843SOL    HW212429   6.771   4.951   0.298
 3844SOL     OW12430   2.811   4.413   5.751
 3844SOL    HW112431   2.783   4.484   5.687
 3844SOL    HW212432   2.777   4.325   5.719
 3845SOL     OW12433   3.318   3.952   4.927
 3845SOL    HW112434   3.251   3.953   4.853
 3845SOL    HW212435   3.410   3.961   4.890
 3846SOL     OW12436   6.952   4.367   4.123
 3846SOL    HW112437   6.880   4.343   4.058
 3846SOL    HW212438   6.945   4.308   4.204
 3847SOL     OW12439   0.974   6.381   1.131
 3847SOL    HW112440   1.055   6.394   1.074
 3847SOL    HW212441   0.929   6.468   1.146
 3848SOL     OW12442   2.289   6.147   2.274
 3848SOL    HW112443   2.364   6.192   2.322
 3848SOL    HW212444   2.300   6.159   2.175
 3849SOL     OW12445   2.405   1.070   4.603
 3849SOL    HW112446   2.431   1.088   4.698
 3849SOL    HW212447   2.354   0.985   4.598
 3850SOL     OW12448   1.855   2.677   1.951
 3850SOL    HW112449   1.951   2.705   1.945
 3850SOL    HW212450   1.826   2.677   2.046
 3851SOL     OW12451   2.494   2.902   0.194
 3851SOL    HW112452   2.436   2.971   0.151
 3851SOL    HW212453   2.482   2.814   0.147
 3852SOL     OW12454   4.550   1.095   5.589
 3852SOL    HW112455   4.497   1.149   5.524
 3852SOL    HW212456   4.496   1.017   5.618
 3853SOL     OW12457   0.252   3.495   1.909
 3853SOL    HW112458   0.239   3.466   1.815
 3853SOL    HW212459   0.284   3.418   1.964
 3854SOL     OW12460   1.414   4.143   4.002
 3854SOL    HW112461   1.360   4.196   4.068
 3854SOL    HW212462   1.397   4.046   4.015
 3855SOL     OW12463   6.597   2.455   4.972
 3855SOL    HW112464   6.538   2.535   4.981
 3855SOL    HW212465   6.574   2.405   4.888
 3856SOL     OW12466   1.047   6.318   5.946
 3856SOL    HW112467   0.973   6.385   5.939
 3856SOL    HW212468   1.054   6.267   5.860
 3857SOL     OW12469   0.353   0.480   6.488
 3857SOL    HW112470   0.390   0.557   6.436
 3857SOL    HW212471   0.400   0.396   6.462
 3858SOL     OW12472   3.426   5.216   6.474
 3858SOL    HW112473   3.498   5.198   6.541
 3858SOL    HW212474   3.408   5.314   6.471
 3859SOL     OW12475   0.561   2.560   2.752
 3859SOL    HW112476   0.554   2.540   2.654
 3859SOL    HW212477   0.568   2.475   2.804
 3860SOL     OW12478   2.563   6.015   4.523
 3860SOL    HW112479   2.579   5.997   4.620
 3860SOL    HW212480   2.499   6.091   4.514
 3861SOL     OW12481   3.447   3.965   0.186
 3861SOL    HW112482   3.442   4.040   0.252
 3861SOL    HW212483   3.382   3.894   0.211
 3862SOL     OW12484   0.356   6.379   5.410
 3862SOL    HW112485   0.392   6.323   5.335
 3862SOL    HW212486   0.295   6.323   5.466
 3863SOL     OW12487   2.075   3.082   0.917
 3863SOL    HW112488   2.154   3.036   0.877
 3863SOL    HW212489   2.072   3.065   1.015
 3864SOL     OW12490   3.382   1.890   2.038
 3864SOL    HW112491   3.408   1.794   2.050
 3864SOL    HW212492   3.437   1.931   1.965
 3865SOL     OW12493   4.590   1.063   1.953
 3865SOL    HW112494   4.688   1.053   1.933
 3865SOL    HW212495   4.553   1.141   1.903
 3866SOL     OW12496   4.588   6.536   6.019
 3866SOL    HW112497   4.596   6.482   5.935
 3866SOL    HW212498   4.529   6.614   6.003
 3867SOL     OW12499   2.603   5.420   2.840
 3867SOL    HW112500   2.535   5.478   2.885
 3867SOL    HW212501   2.558   5.341   2.799
 3868SOL     OW12502   2.807   5.411   2.395
 3868SOL    HW112503   2.730   5.466   2.361
 3868SOL    HW212504   2.827   5.436   2.489
 3869SOL     OW12505   1.663   1.479   3.381
 3869SOL    HW112506   1.744   1.535   3.365
 3869SOL    HW212507   1.665   1.400   3.320
 3870SOL     OW12508   3.762   3.753   0.461
 3870SOL    HW112509   3.700   3.797   0.527
 3870SOL    HW212510   3.856   3.780   0.481
 3871SOL     OW12511   2.132   0.432   5.280
 3871SOL    HW112512   2.092   0.470   5.364
 3871SOL    HW212513   2.215   0.483   5.257
 3872SOL     OW12514   4.817   4.106   6.863
 3872SOL    HW112515   4.774   4.020   6.892
 3872SOL    HW212516   4.910   4.087   6.832
 3873SOL     OW12517   6.016   5.266   1.803
 3873SOL    HW112518   6.016   5.168   1.822
 3873SOL    HW212519   6.080   5.312   1.864
 3874SOL     OW12520   5.669   6.349   5.302
 3874SOL    HW112521   5.654   6.309   5.392
 3874SOL    HW212522   5.756   6.399   5.302
 3875SOL     OW12523   3.137   3.252   0.568
 3875SOL    HW112524   3.146   3.153   0.554
 3875SOL    HW212525   3.221   3.288   0.608
 3876SOL     OW12526   5.262   4.550   3.305
 3876SOL    HW112527   5.244   4.523   3.210
 3876SOL    HW212528   5.182   4.527   3.361
 3877SOL     OW12529   5.034   2.482   2.065
 3877SOL    HW112530   5.096   2.541   2.117
 3877SOL    HW212531   5.031   2.512   1.970
 3878SOL     OW12532   6.353   5.126   5.146
 3878SOL    HW112533   6.292   5.160   5.074
 3878SOL    HW212534   6.414   5.056   5.108
 3879SOL     OW12535   1.900   6.654   0.715
 3879SOL    HW112536   1.904   6.709   0.799
 3879SOL    HW212537   1.974   6.683   0.654
 3880SOL     OW12538   5.499   1.971   4.438
 3880SOL    HW112539   5.416   1.922   4.465
 3880SOL    HW212540   5.561   1.977   4.516
 3881SOL     OW12541   0.166   6.414   5.905
 3881SOL    HW112542   0.242   6.383   5.848
 3881SOL    HW212543   0.147   6.346   5.976
 3882SOL     OW12544   6.986   5.502   0.130
 3882SOL    HW112545   6.891   5.523   0.106
 3882SOL    HW212546   7.003   5.528   0.225
 3883SOL     OW12547   4.097   2.143   0.804
 3883SOL    HW112548   4.168   2.080   0.834
 3883SOL    HW212549   4.088   2.218   0.870
 3884SOL     OW12550   3.081   6.301   6.180
 3884SOL    HW112551   3.027   6.385   6.169
 3884SOL    HW212552   3.085   6.253   6.092
 3885SOL     OW12553   1.151   1.611   4.225
 3885SOL    HW112554   1.091   1.615   4.305
 3885SOL    HW212555   1.215   1.534   4.234
 3886SOL     OW12556   6.762   5.726   4.597
 3886SOL    HW112557   6.751   5.805   4.657
 3886SOL    HW212558   6.809   5.754   4.514
 3887SOL     OW12559   0.653   2.736   4.903
 3887SOL    HW112560   0.678   2.824   4.862
 3887SOL    HW212561   0.613   2.678   4.833
 3888SOL     OW12562   4.556   2.083   3.350
 3888SOL    HW112563   4.637   2.138   3.368
 3888SOL    HW212564   4.517   2.108   3.261
 3889SOL     OW12565   6.205   5.439   0.224
 3889SOL    HW112566   6.211   5.531   0.183
 3889SOL    HW212567   6.109   5.416   0.239
 3890SOL     OW12568   5.870   2.958   3.866
 3890SOL    HW112569   5.858   2.880   3.804
 3890SOL    HW212570   5.781   2.998   3.888
 3891SOL     OW12571   3.571   4.615   6.434
 3891SOL    HW112572   3.592   4.713   6.428
 3891SOL    HW212573   3.568   4.576   6.342
 3892SOL     OW12574   5.205   5.642   4.482
 3892SOL    HW112575   5.228   5.663   4.387
 3892SOL    HW212576   5.133   5.704   4.514
 3893SOL     OW12577   2.778   6.226   4.928
 3893SOL    HW112578   2.739   6.162   4.994
 3893SOL    HW212579   2.804   6.177   4.844
 3894SOL     OW12580   5.595   4.944   6.384
 3894SOL    HW112581   5.590   5.025   6.441
 3894SOL    HW212582   5.691   4.920   6.369
 3895SOL     OW12583   1.472   1.686   5.079
 3895SOL    HW112584   1.424   1.620   5.138
 3895SOL    HW212585   1.407   1.749   5.038
 3896SOL     OW12586   6.064   3.252   1.615
 3896SOL    HW112587   6.123   3.201   1.553
 3896SOL    HW212588   6.118   3.284   1.694
 3897SOL     OW12589   2.525   0.631   2.847
 3897SOL    HW112590   2.604   0.606   2.791
 3897SOL    HW212591   2.445   0.640   2.788
 3898SOL     OW12592   3.458   3.935   2.520
 3898SOL    HW112593   3.378   3.985   2.489
 3898SOL    HW212594   3.538   3.995   2.520
 3899SOL     OW12595   4.254   1.025   6.413
 3899SOL    HW112596   4.171   1.006   6.360
 3899SOL    HW212597   4.232   1.090   6.485
 3900SOL     OW12598   1.411   1.829   3.942
 3900SOL    HW112599   1.443   1.908   3.889
 3900SOL    HW212600   1.335   1.786   3.894
 3901SOL     OW12601   4.319   6.760   4.443
 3901SOL    HW112602   4.383   6.683   4.443
 3901SOL    HW212603   4.337   6.819   4.521
 3902SOL     OW12604   3.356   4.922   3.367
 3902SOL    HW112605   3.282   4.922   3.299
 3902SOL    HW212606   3.378   5.016   3.392
 3903SOL     OW12607   2.654   4.050   5.834
 3903SOL    HW112608   2.605   3.963   5.840
 3903SOL    HW212609   2.698   4.056   5.745
 3904SOL     OW12610   1.850   6.089   0.778
 3904SOL    HW112611   1.795   6.008   0.756
 3904SOL    HW212612   1.936   6.084   0.728
 3905SOL     OW12613   4.861   6.532   4.858
 3905SOL    HW112614   4.942   6.554   4.913
 3905SOL    HW212615   4.875   6.565   4.765
 3906SOL     OW12616   6.758   5.712   3.758
 3906SOL    HW112617   6.673   5.679   3.799
 3906SOL    HW212618   6.820   5.743   3.830
 3907SOL     OW12619   1.357   0.661   4.644
 3907SOL    HW112620   1.307   0.637   4.561
 3907SOL    HW212621   1.350   0.587   4.710
 3908SOL     OW12622   2.527   1.749   4.590
 3908SOL    HW112623   2.571   1.812   4.654
 3908SOL    HW212624   2.596   1.699   4.539
 3909SOL     OW12625   6.448   2.851   2.573
 3909SOL    HW112626   6.527   2.801   2.610
 3909SOL    HW212627   6.436   2.936   2.624
 3910SOL     OW12628   1.591   2.258   0.160
 3910SOL    HW112629   1.606   2.161   0.181
 3910SOL    HW212630   1.586   2.270   0.061
 3911SOL     OW12631   6.363   0.868   1.915
 3911SOL    HW112632   6.325   0.859   2.007
 3911SOL    HW212633   6.288   0.870   1.848
 3912SOL     OW12634   4.851   4.475   0.534
 3912SOL    HW112635   4.934   4.518   0.571
 3912SOL    HW212636   4.858   4.469   0.435
 3913SOL     OW12637   3.964   4.290   0.708
 3913SOL    HW112638   4.054   4.322   0.678
 3913SOL    HW212639   3.922   4.235   0.635
 3914SOL     OW12640   0.633   0.525   0.560
 3914SOL    HW112641   0.698   0.599   0.576
 3914SOL    HW212642   0.572   0.548   0.484
 3915SOL     OW12643   5.418   0.168   3.867
 3915SOL    HW112644   5.485   0.238   3.893
 3915SOL    HW212645   5.326   0.208   3.865
 3916SOL     OW12646   1.750   2.693   2.201
 3916SOL    HW112647   1.676   2.753   2.229
 3916SOL    HW212648   1.832   2.712   2.256
 3917SOL     OW12649   2.622   5.453   1.681
 3917SOL    HW112650   2.560   5.521   1.720
 3917SOL    HW212651   2.667   5.403   1.755
 3918SOL     OW12652   3.913   6.761   6.811
 3918SOL    HW112653   3.841   6.771   6.879
 3918SOL    HW212654   3.940   6.665   6.805
 3919SOL     OW12655   4.921   4.570   3.396
 3919SOL    HW112656   4.967   4.606   3.477
 3919SOL    HW212657   4.842   4.627   3.374
 3920SOL     OW12658   4.441   0.417   5.509
 3920SOL    HW112659   4.390   0.375   5.584
 3920SOL    HW212660   4.535   0.436   5.539
 3921SOL     OW12661   1.300   4.163   5.700
 3921SOL    HW112662   1.305   4.108   5.616
 3921SOL    HW212663   1.336   4.110   5.776
 3922SOL     OW12664   5.218   1.374   3.935
 3922SOL    HW112665   5.313   1.342   3.934
 3922SOL    HW212666   5.172   1.339   4.016
 3923SOL     OW12667   5.815   1.155   1.374
 3923SOL    HW112668   5.804   1.056   1.364
 3923SOL    HW212669   5.753   1.189   1.445
 3924SOL     OW12670   5.650   4.813   3.996
 3924SOL    HW112671   5.667   4.784   3.902
 3924SOL    HW212672   5.723   4.876   4.024
 3925SOL     OW12673   3.410   4.798   1.709
 3925SOL    HW112674   3.463   4.767   1.788
 3925SOL    HW212675   3.326   4.744   1.702
 3926SOL     OW12676   0.767   6.101   5.056
 3926SOL    HW112677   0.814   6.016   5.034
 3926SOL    HW212678   0.668   6.084   5.058
 3927SOL     OW12679   6.606   6.072   5.380
 3927SOL    HW112680   6.674   6.031   5.320
 3927SOL    HW212681   6.515   6.067   5.337
 3928SOL     OW12682   4.275   5.243   1.890
 3928SOL    HW112683   4.366   5.277   1.913
 3928SOL    HW212684   4.206   5.302   1.932
 3929SOL     OW12685   1.994   0.520   5.499
 3929SOL    HW112686   2.015   0.456   5.573
 3929SOL    HW212687   1.895   0.524   5.486
 3930SOL     OW12688   1.739   5.582   4.501
 3930SOL    HW112689   1.684   5.620   4.427
 3930SOL    HW212690   1.734   5.482   4.497
 3931SOL     OW12691   0.097   2.215   0.530
 3931SOL    HW112692   0.061   2.295   0.578
 3931SOL    HW212693   0.197   2.221   0.526
 3932SOL     OW12694   1.767   4.578   2.865
 3932SOL    HW112695   1.850   4.594   2.811
 3932SOL    HW212696   1.753   4.480   2.877
 3933SOL     OW12697   0.698   6.927   1.246
 3933SOL    HW112698   0.747   6.970   1.170
 3933SOL    HW212699   0.610   6.973   1.258
 3934SOL     OW12700   0.519   6.684   1.779
 3934SOL    HW112701   0.607   6.673   1.827
 3934SOL    HW212702   0.529   6.653   1.684
 3935SOL     OW12703   6.785   1.526   5.140
 3935SOL    HW112704   6.875   1.509   5.098
 3935SOL    HW212705   6.771   1.624   5.151
 3936SOL     OW12706   6.672   4.666   4.644
 3936SOL    HW112707   6.669   4.745   4.705
 3936SOL    HW212708   6.616   4.592   4.683
 3937SOL     OW12709   1.403   5.883   6.823
 3937SOL    HW112710   1.377   5.787   6.813
 3937SOL    HW212711   1.475   5.891   6.892
 3938SOL     OW12712   1.127   4.488   6.723
 3938SOL    HW112713   1.093   4.520   6.635
 3938SOL    HW212714   1.161   4.394   6.713
 3939SOL     OW12715   1.307   5.556   4.364
 3939SOL    HW112716   1.324   5.460   4.341
 3939SOL    HW212717   1.213   5.566   4.395
 3940SOL     OW12718   2.374   6.187   6.726
 3940SOL    HW112719   2.333   6.096   6.725
 3940SOL    HW212720   2.302   6.256   6.711
 3941SOL     OW12721   5.831   4.933   3.314
 3941SOL    HW112722   5.927   4.937   3.342
 3941SOL    HW212723   5.808   4.840   3.286
 3942SOL     OW12724   0.710   0.003   0.247
 3942SOL    HW112725   0.677   6.937   0.209
 3942SOL    HW212726   0.719   0.072   0.175
 3943SOL     OW12727   0.914   4.557   0.743
 3943SOL    HW112728   0.855   4.476   0.746
 3943SOL    HW212729   0.857   4.640   0.746
 3944SOL     OW12730   6.065   2.773   0.651
 3944SOL    HW112731   6.050   2.681   0.689
 3944SOL    HW212732   6.061   2.841   0.724
 3945SOL     OW12733   0.844   0.642   3.057
 3945SOL    HW112734   0.829   0.670   2.962
 3945SOL    HW212735   0.756   0.624   3.101
 3946SOL     OW12736   4.729   1.157   0.970
 3946SOL    HW112737   4.686   1.074   1.006
 3946SOL    HW212738   4.667   1.235   0.983
 3947SOL     OW12739   5.212   0.709   0.932
 3947SOL    HW112740   5.136   0.644   0.920
 3947SOL    HW212741   5.264   0.715   0.848
 3948SOL     OW12742   1.798   1.472   3.652
 3948SOL    HW112743   1.733   1.439   3.721
 3948SOL    HW212744   1.757   1.465   3.562
 3949SOL     OW12745   6.059   6.631   2.391
 3949SOL    HW112746   6.028   6.554   2.334
 3949SOL    HW212747   6.023   6.716   2.354
 3950SOL     OW12748   2.352   4.736   1.547
 3950SOL    HW112749   2.283   4.727   1.619
 3950SOL    HW212750   2.417   4.808   1.572
 3951SOL     OW12751   6.939   3.342   2.986
 3951SOL    HW112752   7.009   3.274   2.967
 3951SOL    HW212753   6.978   3.434   2.977
 3952SOL     OW12754   5.716   5.559   7.015
 3952SOL    HW112755   5.630   5.532   0.037
 3952SOL    HW212756   5.726   5.514   6.926
 3953SOL     OW12757   3.521   3.190   4.740
 3953SOL    HW112758   3.430   3.160   4.769
 3953SOL    HW212759   3.521   3.289   4.726
 3954SOL     OW12760   0.716   5.650   6.562
 3954SOL    HW112761   0.680   5.662   6.470
 3954SOL    HW212762   0.754   5.558   6.572
 3955SOL     OW12763   6.120   3.119   0.253
 3955SOL    HW112764   6.108   3.027   0.217
 3955SOL    HW212765   6.201   3.121   0.312
 3956SOL     OW12766   6.975   3.709   4.557
 3956SOL    HW112767   6.888   3.703   4.606
 3956SOL    HW212768   0.030   3.703   4.622
 3957SOL     OW12769   1.719   2.407   1.589
 3957SOL    HW112770   1.791   2.407   1.520
 3957SOL    HW212771   1.719   2.494   1.638
 3958SOL     OW12772   4.908   4.861   0.762
 3958SOL    HW112773   4.820   4.840   0.805
 3958SOL    HW212774   4.926   4.795   0.689
 3959SOL     OW12775   2.114   5.190   0.053
 3959SOL    HW112776   2.019   5.180   0.024
 3959SOL    HW212777   2.116   5.212   0.151
 3960SOL     OW12778   5.562   3.469   1.573
 3960SOL    HW112779   5.615   3.481   1.489
 3960SOL    HW212780   5.547   3.559   1.615
 3961SOL     OW12781   0.392   1.726   2.181
 3961SOL    HW112782   0.365   1.820   2.202
 3961SOL    HW212783   0.444   1.726   2.095
 3962SOL     OW12784   0.083   0.006   0.008
 3962SOL    HW112785   0.075   0.003   0.107
 3962SOL    HW212786   7.011   0.017   6.987
 3963SOL     OW12787   6.431   3.207   4.971
 3963SOL    HW112788   6.345   3.164   4.998
 3963SOL    HW212789   6.423   3.244   4.878
 3964SOL     OW12790   5.937   4.853   6.500
 3964SOL    HW112791   5.887   4.890   6.578
 3964SOL    HW212792   6.009   4.918   6.473
 3965SOL     OW12793   2.391   5.030   1.969
 3965SOL    HW112794   2.436   4.976   1.898
 3965SOL    HW212795   2.408   5.127   1.953
 3966SOL     OW12796   6.938   4.316   5.940
 3966SOL    HW112797   6.969   4.237   5.886
 3966SOL    HW212798   6.870   4.367   5.888
 3967SOL     OW12799   3.075   0.687   0.979
 3967SOL    HW112800   2.996   0.631   1.005
 3967SOL    HW212801   3.145   0.679   1.049
 3968SOL     OW12802   4.924   2.291   0.619
 3968SOL    HW112803   4.895   2.378   0.578
 3968SOL    HW212804   4.946   2.226   0.546
 3969SOL     OW12805   6.428   6.970   1.449
 3969SOL    HW112806   6.328   6.971   1.446
 3969SOL    HW212807   6.462   0.042   1.468
 3970SOL     OW12808   5.898   3.633   3.221
 3970SOL    HW112809   5.995   3.636   3.197
 3970SOL    HW212810   5.873   3.716   3.270
 3971SOL     OW12811   0.023   5.581   4.010
 3971SOL    HW112812   0.025   5.567   4.109
 3971SOL    HW212813   0.026   5.492   3.964
 3972SOL     OW12814   0.638   1.202   6.244
 3972SOL    HW112815   0.604   1.159   6.328
 3972SOL    HW212816   0.691   1.135   6.192
 3973SOL     OW12817   3.924   2.947   1.286
 3973SOL    HW112818   3.945   3.036   1.247
 3973SOL    HW212819   3.867   2.895   1.222
 3974SOL     OW12820   5.693   0.534   6.484
 3974SOL    HW112821   5.625   0.563   6.417
 3974SOL    HW212822   5.785   0.554   6.449
 3975SOL     OW12823   6.958   6.283   3.464
 3975SOL    HW112824   7.006   6.198   3.488
 3975SOL    HW212825   6.872   6.261   3.418
 3976SOL     OW12826   0.934   2.870   5.025
 3976SOL    HW112827   0.882   2.914   5.099
 3976SOL    HW212828   0.879   2.868   4.942
 3977SOL     OW12829   2.271   5.072   5.966
 3977SOL    HW112830   2.206   5.001   5.938
 3977SOL    HW212831   2.323   5.103   5.886
 3978SOL     OW12832   4.021   3.294   6.422
 3978SOL    HW112833   3.962   3.301   6.341
 3978SOL    HW212834   4.016   3.379   6.474
 3979SOL     OW12835   0.461   5.800   3.065
 3979SOL    HW112836   0.376   5.814   3.115
 3979SOL    HW212837   0.482   5.702   3.062
 3980SOL     OW12838   5.459   3.981   3.792
 3980SOL    HW112839   5.436   3.979   3.890
 3980SOL    HW212840   5.377   3.958   3.739
 3981SOL     OW12841   6.564   1.302   6.720
 3981SOL    HW112842   6.478   1.269   6.758
 3981SOL    HW212843   6.601   1.234   6.657
 3982SOL     OW12844   2.030   2.697   3.673
 3982SOL    HW112845   2.052   2.599   3.671
 3982SOL    HW212846   2.079   2.741   3.748
 3983SOL     OW12847   2.105   1.532   3.529
 3983SOL    HW112848   2.060   1.462   3.584
 3983SOL    HW212849   2.144   1.602   3.589
 3984SOL     OW12850   1.284   6.254   2.796
 3984SOL    HW112851   1.347   6.329   2.815
 3984SOL    HW212852   1.328   6.186   2.738
 3985SOL     OW12853   1.002   2.019   1.196
 3985SOL    HW112854   1.097   2.038   1.171
 3985SOL    HW212855   0.996   2.007   1.295
 3986SOL     OW12856   1.017   0.451   3.088
 3986SOL    HW112857   0.959   0.531   3.075
 3986SOL    HW212858   1.004   0.415   3.180
 3987SOL     OW12859   1.457   4.543   5.563
 3987SOL    HW112860   1.492   4.565   5.654
 3987SOL    HW212861   1.531   4.505   5.507
 3988SOL     OW12862   4.714   5.257   2.213
 3988SOL    HW112863   4.710   5.191   2.288
 3988SOL    HW212864   4.802   5.249   2.166
 3989SOL     OW12865   4.513   0.940   6.458
 3989SOL    HW112866   4.544   0.885   6.535
 3989SOL    HW212867   4.417   0.967   6.471
 3990SOL     OW12868   6.156   5.901   3.723
 3990SOL    HW112869   6.062   5.924   3.750
 3990SOL    HW212870   6.188   5.966   3.654
 3991SOL     OW12871   0.523   2.256   4.864
 3991SOL    HW112872   0.547   2.289   4.773
 3991SOL    HW212873   0.505   2.158   4.859
 3992SOL     OW12874   6.237   3.555   5.658
 3992SOL    HW112875   6.215   3.651   5.675
 3992SOL    HW212876   6.155   3.507   5.625
 3993SOL     OW12877   1.350   0.839   4.207
 3993SOL    HW112878   1.410   0.785   4.266
 3993SOL    HW212879   1.299   0.779   4.146
 3994SOL     OW12880   3.003   1.896   3.249
 3994SOL    HW112881   2.923   1.889   3.189
 3994SOL    HW212882   2.991   1.836   3.328
 3995SOL     OW12883   2.205   4.239   1.799
 3995SOL    HW112884   2.237   4.156   1.754
 3995SOL    HW212885   2.127   4.276   1.749
 3996SOL     OW12886   0.404   5.739   5.474
 3996SOL    HW112887   0.412   5.795   5.392
 3996SOL    HW212888   0.466   5.660   5.466
 3997SOL     OW12889   5.872   3.532   5.166
 3997SOL    HW112890   5.809   3.475   5.218
 3997SOL    HW212891   5.929   3.584   5.228
 3998SOL     OW12892   4.476   2.089   3.070
 3998SOL    HW112893   4.398   2.027   3.065
 3998SOL    HW212894   4.443   2.182   3.086
 3999SOL     OW12895   4.760   3.781   1.061
 3999SOL    HW112896   4.819   3.703   1.083
 3999SOL    HW212897   4.813   3.850   1.013
 4000SOL     OW12898   2.852   4.745   2.643
 4000SOL    HW112899   2.910   4.777   2.568
 4000SOL    HW212900   2.778   4.689   2.606
 4001SOL     OW12901   0.598   5.643   4.152
 4001SOL    HW112902   0.643   5.687   4.074
 4001SOL    HW212903   0.655   5.569   4.186
 4002SOL     OW12904   3.494   3.720   4.697
 4002SOL    HW112905   3.505   3.636   4.751
 4002SOL    HW212906   3.397   3.734   4.676
 4003SOL     OW12907   3.308   1.490   4.439
 4003SOL    HW112908   3.398   1.489   4.482
 4003SOL    HW212909   3.314   1.537   4.351
 4004SOL     OW12910   2.094   3.731   4.808
 4004SOL    HW112911   2.094   3.748   4.906
 4004SOL    HW212912   2.005   3.694   4.780
 4005SOL     OW12913   5.881   1.946   1.849
 4005SOL    HW112914   5.861   1.848   1.853
 4005SOL    HW212915   5.938   1.965   1.768
 4006SOL     OW12916   6.894   5.451   1.976
 4006SOL    HW112917   6.925   5.546   1.972
 4006SOL    HW212918   6.973   5.392   1.997
 4007SOL     OW12919   0.659   1.223   1.715
 4007SOL    HW112920   0.605   1.241   1.632
 4007SOL    HW212921   0.746   1.272   1.708
 4008SOL     OW12922   4.154   0.217   1.777
 4008SOL    HW112923   4.131   0.313   1.792
 4008SOL    HW212924   4.188   0.205   1.684
 4009SOL     OW12925   3.573   2.507   1.460
 4009SOL    HW112926   3.638   2.431   1.471
 4009SOL    HW212927   3.615   2.578   1.404
 4010SOL     OW12928   1.127   5.341   0.900
 4010SOL    HW112929   1.124   5.242   0.912
 4010SOL    HW212930   1.139   5.385   0.988
 4011SOL     OW12931   5.659   6.553   6.210
 4011SOL    HW112932   5.684   6.527   6.304
 4011SOL    HW212933   5.566   6.523   6.190
 4012SOL     OW12934   5.879   4.217   1.873
 4012SOL    HW112935   5.978   4.222   1.887
 4012SOL    HW212936   5.847   4.124   1.891
 4013SOL     OW12937   0.215   2.004   6.848
 4013SOL    HW112938   0.256   1.955   6.770
 4013SOL    HW212939   0.251   1.966   6.933
 4014SOL     OW12940   4.157   6.451   2.852
 4014SOL    HW112941   4.151   6.529   2.791
 4014SOL    HW212942   4.179   6.369   2.800
 4015SOL     OW12943   3.299   6.350   5.059
 4015SOL    HW112944   3.205   6.317   5.062
 4015SOL    HW212945   3.300   6.446   5.031
 4016SOL     OW12946   4.467   5.242   3.963
 4016SOL    HW112947   4.426   5.163   3.916
 4016SOL    HW212948   4.557   5.261   3.922
 4017SOL     OW12949   1.648   6.177   6.369
 4017SOL    HW112950   1.682   6.083   6.362
 4017SOL    HW212951   1.558   6.183   6.326
 4018SOL     OW12952   5.505   5.570   0.180
 4018SOL    HW112953   5.524   5.566   0.278
 4018SOL    HW212954   5.408   5.551   0.164
 4019SOL     OW12955   0.942   2.047   3.174
 4019SOL    HW112956   1.023   2.098   3.202
 4019SOL    HW212957   0.963   1.949   3.171
 4020SOL     OW12958   6.603   5.871   4.976
 4020SOL    HW112959   6.556   5.808   5.038
 4020SOL    HW212960   6.548   5.883   4.893
 4021SOL     OW12961   4.949   5.617   6.010
 4021SOL    HW112962   4.859   5.610   6.053
 4021SOL    HW212963   4.953   5.701   5.955
 4022SOL     OW12964   3.877   0.404   1.457
 4022SOL    HW112965   3.810   0.450   1.516
 4022SOL    HW212966   3.964   0.397   1.504
 4023SOL     OW12967   1.620   1.724   3.656
 4023SOL    HW112968   1.712   1.738   3.693
 4023SOL    HW212969   1.600   1.626   3.654
 4024SOL     OW12970   1.183   6.460   6.619
 4024SOL    HW112971   1.203   6.525   6.691
 4024SOL    HW212972   1.268   6.429   6.577
 4025SOL     OW12973   1.284   4.623   4.699
 4025SOL    HW112974   1.308   4.702   4.642
 4025SOL    HW212975   1.271   4.653   4.794
 4026SOL     OW12976   0.267   6.397   4.204
 4026SOL    HW112977   0.309   6.465   4.264
 4026SOL    HW212978   0.250   6.437   4.114
 4027SOL     OW12979   3.405   5.482   4.887
 4027SOL    HW112980   3.341   5.518   4.954
 4027SOL    HW212981   3.433   5.555   4.825
 4028SOL     OW12982   4.661   1.619   4.739
 4028SOL    HW112983   4.561   1.612   4.739
 4028SOL    HW212984   4.687   1.715   4.729
 4029SOL     OW12985   1.933   6.808   0.952
 4029SOL    HW112986   1.989   6.747   1.007
 4029SOL    HW212987   1.849   6.830   1.002
 4030SOL     OW12988   0.402   1.386   1.846
 4030SOL    HW112989   0.404   1.326   1.765
 4030SOL    HW212990   0.350   1.342   1.919
 4031SOL     OW12991   6.005   6.198   0.844
 4031SOL    HW112992   6.001   6.189   0.744
 4031SOL    HW212993   6.059   6.279   0.867
 4032SOL     OW12994   4.743   2.080   2.138
 4032SOL    HW112995   4.741   2.103   2.235
 4032SOL    HW212996   4.670   2.130   2.091
 4033SOL     OW12997   1.068   4.429   3.267
 4033SOL    HW112998   1.161   4.428   3.304
 4033SOL    HW212999   1.025   4.341   3.283
 4034SOL     OW13000   3.035   1.602   4.392
 4034SOL    HW113001   3.079   1.690   4.406
 4034SOL    HW213002   3.104   1.529   4.399
 4035SOL     OW13003   3.558   2.348   1.167
 4035SOL    HW113004   3.476   2.400   1.194
 4035SOL    HW213005   3.538   2.250   1.173
 4036SOL     OW13006   4.182   0.386   3.140
 4036SOL    HW113007   4.226   0.297   3.130
 4036SOL    HW213008   4.083   0.375   3.143
 4037SOL     OW13009   1.552   0.843   5.853
 4037SOL    HW113010   1.561   0.763   5.794
 4037SOL    HW213011   1.643   0.879   5.873
 4038SOL     OW13012   3.963   5.316   5.788
 4038SOL    HW113013   3.882   5.299   5.845
 4038SOL    HW213014   3.937   5.371   5.709
 4039SOL     OW13015   6.271   4.531   2.164
 4039SOL    HW113016   6.245   4.542   2.068
 4039SOL    HW213017   6.234   4.445   2.198
 4040SOL     OW13018   1.998   6.620   5.323
 4040SOL    HW113019   2.009   6.585   5.230
 4040SOL    HW213020   2.036   6.712   5.329
 4041SOL     OW13021   1.024   6.295   1.398
 4041SOL    HW113022   0.993   6.321   1.307
 4041SOL    HW213023   1.123   6.280   1.397
 4042SOL     OW13024   1.537   1.594   4.781
 4042SOL    HW113025   1.609   1.544   4.732
 4042SOL    HW213026   1.548   1.580   4.880
 4043SOL     OW13027   3.845   2.885   5.758
 4043SOL    HW113028   3.840   2.906   5.661
 4043SOL    HW213029   3.874   2.966   5.809
 4044SOL     OW13030   4.731   4.121   3.728
 4044SOL    HW113031   4.746   4.049   3.660
 4044SOL    HW213032   4.753   4.085   3.819
 4045SOL     OW13033   4.398   1.760   4.707
 4045SOL    HW113034   4.418   1.853   4.676
 4045SOL    HW213035   4.359   1.708   4.631
 4046SOL     OW13036   5.311   0.766   4.128
 4046SOL    HW113037   5.234   0.769   4.192
 4046SOL    HW213038   5.386   0.822   4.163
 4047SOL     OW13039   2.478   2.751   6.600
 4047SOL    HW113040   2.527   2.779   6.518
 4047SOL    HW213041   2.542   2.715   6.667
 4048SOL     OW13042   5.005   2.235   3.217
 4048SOL    HW113043   5.070   2.287   3.161
 4048SOL    HW213044   5.049   2.209   3.303
 4049SOL     OW13045   3.955   3.926   2.462
 4049SOL    HW113046   4.035   3.917   2.522
 4049SOL    HW213047   3.985   3.933   2.367
 4050SOL     OW13048   0.092   4.802   2.749
 4050SOL    HW113049   0.073   4.898   2.732
 4050SOL    HW213050   0.170   4.773   2.693
 4051SOL     OW13051   5.636   0.313   3.402
 4051SOL    HW113052   5.545   0.353   3.392
 4051SOL    HW213053   5.677   0.299   3.311
 4052SOL     OW13054   4.129   1.084   5.044
 4052SOL    HW113055   4.036   1.121   5.051
 4052SOL    HW213056   4.191   1.138   5.102
 4053SOL     OW13057   0.930   4.738   2.736
 4053SOL    HW113058   0.885   4.665   2.685
 4053SOL    HW213059   0.880   4.753   2.822
 4054SOL     OW13060   5.363   3.934   1.548
 4054SOL    HW113061   5.274   3.899   1.518
 4054SOL    HW213062   5.403   3.870   1.614
 4055SOL     OW13063   6.913   4.057   0.079
 4055SOL    HW113064   6.832   4.053   0.138
 4055SOL    HW213065   6.941   4.153   0.069
 4056SOL     OW13066   4.934   4.480   0.224
 4056SOL    HW113067   5.000   4.439   0.287
 4056SOL    HW213068   4.921   4.419   0.146
 4057SOL     OW13069   6.993   5.064   5.308
 4057SOL    HW113070   6.943   5.133   5.257
 4057SOL    HW213071   6.933   5.026   5.379
 4058SOL     OW13072   3.142   0.836   3.842
 4058SOL    HW113073   3.199   0.764   3.802
 4058SOL    HW213074   3.128   0.908   3.774
 4059SOL     OW13075   2.082   1.045   3.520
 4059SOL    HW113076   2.010   1.007   3.462
 4059SOL    HW213077   2.122   0.972   3.576
 4060SOL     OW13078   6.789   6.570   3.724
 4060SOL    HW113079   6.861   6.597   3.660
 4060SOL    HW213080   6.826   6.504   3.789
 4061SOL     OW13081   1.465   3.843   2.439
 4061SOL    HW113082   1.410   3.921   2.408
 4061SOL    HW213083   1.550   3.839   2.388
 4062SOL     OW13084   2.597   3.756   0.386
 4062SOL    HW113085   2.522   3.773   0.323
 4062SOL    HW213086   2.649   3.840   0.401
 4063SOL     OW13087   3.687   0.851   1.237
 4063SOL    HW113088   3.598   0.880   1.201
 4063SOL    HW213089   3.760   0.885   1.177
 4064SOL     OW13090   2.479   6.823   4.741
 4064SOL    HW113091   2.507   6.880   4.664
 4064SOL    HW213092   2.384   6.794   4.728
 4065SOL     OW13093   2.380   1.129   1.779
 4065SOL    HW113094   2.300   1.072   1.797
 4065SOL    HW213095   2.368   1.218   1.823
 4066SOL     OW13096   0.255   4.201   5.134
 4066SOL    HW113097   0.195   4.175   5.209
 4066SOL    HW213098   0.275   4.299   5.140
 4067SOL     OW13099   5.847   4.097   1.405
 4067SOL    HW113100   5.844   4.146   1.492
 4067SOL    HW213101   5.888   4.156   1.335
 4068SOL     OW13102   2.380   2.674   5.849
 4068SOL    HW113103   2.466   2.672   5.899
 4068SOL    HW213104   2.381   2.605   5.777
 4069SOL     OW13105   4.165   0.569   6.042
 4069SOL    HW113106   4.187   0.616   6.128
 4069SOL    HW213107   4.221   0.606   5.968
 4070SOL     OW13108   1.964   4.075   4.455
 4070SOL    HW113109   1.915   4.072   4.542
 4070SOL    HW213110   2.058   4.106   4.471
 4071SOL     OW13111   0.910   0.535   4.976
 4071SOL    HW113112   0.841   0.464   4.986
 4071SOL    HW213113   0.959   0.522   4.889
 4072SOL     OW13114   2.728   6.212   2.188
 4072SOL    HW113115   2.783   6.296   2.183
 4072SOL    HW213116   2.763   6.154   2.262
 4073SOL     OW13117   5.092   5.063   6.936
 4073SOL    HW113118   5.107   5.158   6.907
 4073SOL    HW213119   5.122   5.001   6.863
 4074SOL     OW13120   1.345   5.482   1.826
 4074SOL    HW113121   1.373   5.574   1.854
 4074SOL    HW213122   1.246   5.481   1.809
 4075SOL     OW13123   5.487   0.200   6.398
 4075SOL    HW113124   5.452   0.196   6.305
 4075SOL    HW213125   5.452   0.123   6.451
 4076SOL     OW13126   2.287   5.277   3.496
 4076SOL    HW113127   2.267   5.350   3.561
 4076SOL    HW213128   2.204   5.253   3.446
 4077SOL     OW13129   2.793   1.629   1.223
 4077SOL    HW113130   2.833   1.538   1.220
 4077SOL    HW213131   2.746   1.642   1.311
 4078SOL     OW13132   4.445   4.722   1.746
 4078SOL    HW113133   4.513   4.793   1.728
 4078SOL    HW213134   4.487   4.632   1.741
 4079SOL     OW13135   0.600   3.056   3.879
 4079SOL    HW113136   0.561   3.131   3.933
 4079SOL    HW213137   0.677   3.090   3.826
 4080SOL     OW13138   6.451   2.332   4.784
 4080SOL    HW113139   6.487   2.390   4.711
 4080SOL    HW213140   6.382   2.270   4.747
 4081SOL     OW13141   6.121   3.629   2.196
 4081SOL    HW113142   6.108   3.545   2.250
 4081SOL    HW213143   6.202   3.619   2.139
 4082SOL     OW13144   0.574   3.487   1.318
 4082SOL    HW113145   0.588   3.388   1.329
 4082SOL    HW213146   0.508   3.503   1.244
 4083SOL     OW13147   0.058   3.785   5.809
 4083SOL    HW113148   6.984   3.758   5.828
 4083SOL    HW213149   0.120   3.729   5.865
 4084SOL     OW13150   4.554   0.451   3.889
 4084SOL    HW113151   4.454   0.459   3.886
 4084SOL    HW213152   4.579   0.381   3.956
 4085SOL     OW13153   2.395   5.217   6.315
 4085SOL    HW113154   2.479   5.199   6.263
 4085SOL    HW213155   2.316   5.187   6.262
 4086SOL     OW13156   6.987   1.911   2.229
 4086SOL    HW113157   6.957   1.898   2.135
 4086SOL    HW213158   0.035   1.841   2.253
 4087SOL     OW13159   1.157   0.702   3.178
 4087SOL    HW113160   1.086   0.634   3.163
 4087SOL    HW213161   1.151   0.738   3.271
 4088SOL     OW13162   0.357   3.021   6.304
 4088SOL    HW113163   0.435   3.056   6.355
 4088SOL    HW213164   0.332   2.931   6.339
 4089SOL     OW13165   0.529   2.325   5.548
 4089SOL    HW113166   0.612   2.279   5.578
 4089SOL    HW213167   0.451   2.294   5.602
 4090SOL     OW13168   3.121   5.372   6.358
 4090SOL    HW113169   3.199   5.392   6.298
 4090SOL    HW213170   3.146   5.394   6.452
 4091SOL     OW13171   4.082   5.989   1.316
 4091SOL    HW113172   4.120   5.995   1.224
 4091SOL    HW213173   3.987   5.958   1.310
 4092SOL     OW13174   1.085   1.090   3.893
 4092SOL    HW113175   1.049   1.167   3.841
 4092SOL    HW213176   1.158   1.046   3.841
 4093SOL     OW13177   4.468   6.657   3.433
 4093SOL    HW113178   4.422   6.744   3.451
 4093SOL    HW213179   4.488   6.611   3.520
 4094SOL     OW13180   3.113   2.740   6.315
 4094SOL    HW113181   3.178   2.678   6.271
 4094SOL    HW213182   3.129   2.834   6.283
 4095SOL     OW13183   2.302   3.989   5.777
 4095SOL    HW113184   2.237   3.948   5.714
 4095SOL    HW213185   2.254   4.048   5.843
 4096SOL     OW13186   4.529   4.633   1.376
 4096SOL    HW113187   4.544   4.608   1.471
 4096SOL    HW213188   4.618   4.647   1.331
 4097SOL     OW13189   3.480   3.695   3.152
 4097SOL    HW113190   3.566   3.744   3.161
 4097SOL    HW213191   3.462   3.644   3.235
 4098SOL     OW13192   1.435   3.085   2.227
 4098SOL    HW113193   1.374   3.091   2.147
 4098SOL    HW213194   1.530   3.080   2.196
 4099SOL     OW13195   2.560   6.101   1.371
 4099SOL    HW113196   2.469   6.135   1.351
 4099SOL    HW213197   2.555   6.003   1.392
 4100SOL     OW13198   3.653   0.247   2.440
 4100SOL    HW113199   3.648   0.180   2.514
 4100SOL    HW213200   3.748   0.276   2.427
 4101SOL     OW13201   4.837   1.318   6.522
 4101SOL    HW113202   4.878   1.367   6.445
 4101SOL    HW213203   4.738   1.309   6.507
 4102SOL     OW13204   5.067   2.014   5.916
 4102SOL    HW113205   5.146   1.993   5.859
 4102SOL    HW213206   5.003   1.936   5.916
 4103SOL     OW13207   6.842   0.390   1.741
 4103SOL    HW113208   6.935   0.399   1.777
 4103SOL    HW213209   6.815   0.476   1.697
 4104SOL     OW13210   2.284   4.489   2.184
 4104SOL    HW113211   2.206   4.495   2.247
 4104SOL    HW213212   2.349   4.562   2.204
 4105SOL     OW13213   6.260   4.841   0.583
 4105SOL    HW113214   6.355   4.866   0.602
 4105SOL    HW213215   6.248   4.743   0.595
 4106SOL     OW13216   0.243   3.195   3.922
 4106SOL    HW113217   0.341   3.215   3.932
 4106SOL    HW213218   0.192   3.281   3.923
 4107SOL     OW13219   6.998   0.552   1.185
 4107SOL    HW113220   0.041   0.514   1.117
 4107SOL    HW213221   6.961   0.639   1.151
 4108SOL     OW13222   6.424   2.645   4.982
 4108SOL    HW113223   6.425   2.745   4.987
 4108SOL    HW213224   6.330   2.614   4.964
 4109SOL     OW13225   2.123   6.369   3.905
 4109SOL    HW113226   2.047   6.432   3.887
 4109SOL    HW213227   2.132   6.355   4.003
 4110SOL     OW13228   4.983   3.479   5.198
 4110SOL    HW113229   4.915   3.537   5.152
 4110SOL    HW213230   4.973   3.488   5.297
 4111SOL     OW13231   4.016   3.589   6.833
 4111SOL    HW113232   4.028   3.616   6.928
 4111SOL    HW213233   4.032   3.667   6.773
 4112SOL     OW13234   3.732   0.753   5.954
 4112SOL    HW113235   3.716   0.772   5.857
 4112SOL    HW213236   3.705   0.659   5.974
 4113SOL     OW13237   3.533   6.022   4.118
 4113SOL    HW113238   3.554   6.119   4.109
 4113SOL    HW213239   3.576   5.971   4.044
 4114SOL     OW13240   3.510   0.965   3.455
 4114SOL    HW113241   3.606   0.951   3.481
 4114SOL    HW213242   3.505   0.978   3.356
 4115SOL     OW13243   4.837   3.922   3.174
 4115SOL    HW113244   4.798   4.009   3.206
 4115SOL    HW213245   4.846   3.859   3.251
 4116SOL     OW13246   2.654   1.415   1.881
 4116SOL    HW113247   2.698   1.503   1.900
 4116SOL    HW213248   2.724   1.349   1.852
 4117SOL     OW13249   1.139   6.008   2.102
 4117SOL    HW113250   1.102   5.992   2.010
 4117SOL    HW213251   1.080   6.072   2.151
 4118SOL     OW13252   1.542   0.789   6.170
 4118SOL    HW113253   1.545   0.883   6.204
 4118SOL    HW213254   1.580   0.727   6.239
 4119SOL     OW13255   5.435   1.341   3.143
 4119SOL    HW113256   5.379   1.364   3.063
 4119SOL    HW213257   5.532   1.350   3.120
 4120SOL     OW13258   5.658   0.740   1.797
 4120SOL    HW113259   5.585   0.688   1.754
 4120SOL    HW213260   5.740   0.736   1.741
 4121SOL     OW13261   5.194   2.643   3.834
 4121SOL    HW113262   5.138   2.608   3.758
 4121SOL    HW213263   5.242   2.725   3.803
 4122SOL     OW13264   2.184   4.923   0.047
 4122SOL    HW113265   2.189   5.022   0.049
 4122SOL    HW213266   2.092   4.894   0.024
 4123SOL     OW13267   3.698   3.714   5.190
 4123SOL    HW113268   3.698   3.811   5.214
 4123SOL    HW213269   3.783   3.672   5.220
 4124SOL     OW13270   4.717   6.028   2.778
 4124SOL    HW113271   4.723   6.127   2.764
 4124SOL    HW213272   4.809   5.988   2.776
 4125SOL     OW13273   4.656   2.150   1.711
 4125SOL    HW113274   4.592   2.197   1.650
 4125SOL    HW213275   4.637   2.052   1.709
 4126SOL     OW13276   1.678   3.770   4.724
 4126SOL    HW113277   1.767   3.742   4.758
 4126SOL    HW213278   1.675   3.759   4.625
 4127SOL     OW13279   5.431   4.964   3.809
 4127SOL    HW113280   5.411   4.877   3.855
 4127SOL    HW213281   5.448   5.035   3.878
 4128SOL     OW13282   6.900   1.450   1.813
 4128SOL    HW113283   6.843   1.501   1.748
 4128SOL    HW213284   6.841   1.396   1.873
 4129SOL     OW13285   0.083   3.067   0.269
 4129SOL    HW113286   0.183   3.071   0.261
 4129SOL    HW213287   0.051   2.976   0.243
 4130SOL     OW13288   6.204   2.385   1.445
 4130SOL    HW113289   6.181   2.448   1.519
 4130SOL    HW213290   6.234   2.298   1.483
 4131SOL     OW13291   6.765   3.878   3.647
 4131SOL    HW113292   6.742   3.850   3.554
 4131SOL    HW213293   6.753   3.801   3.710
 4132SOL     OW13294   5.000   1.273   4.421
 4132SOL    HW113295   5.083   1.237   4.462
 4132SOL    HW213296   4.995   1.372   4.436
 4133SOL     OW13297   2.411   2.999   0.538
 4133SOL    HW113298   2.485   2.949   0.493
 4133SOL    HW213299   2.323   2.962   0.507
 4134SOL     OW13300   2.260   1.585   6.991
 4134SOL    HW113301   2.348   1.543   7.015
 4134SOL    HW213302   2.272   1.641   6.909
 4135SOL     OW13303   1.485   0.298   0.881
 4135SOL    HW113304   1.439   0.229   0.936
 4135SOL    HW213305   1.420   0.339   0.817
 4136SOL     OW13306   1.834   2.026   3.452
 4136SOL    HW113307   1.847   1.932   3.420
 4136SOL    HW213308   1.851   2.030   3.551
 4137SOL     OW13309   3.939   3.088   5.256
 4137SOL    HW113310   3.929   3.021   5.183
 4137SOL    HW213311   4.037   3.103   5.273
 4138SOL     OW13312   5.035   5.096   1.148
 4138SOL    HW113313   5.010   5.004   1.178
 4138SOL    HW213314   4.953   5.150   1.133
 4139SOL     OW13315   3.349   1.783   6.909
 4139SOL    HW113316   3.309   1.725   6.980
 4139SOL    HW213317   3.449   1.780   6.916
 4140SOL     OW13318   4.499   2.265   4.714
 4140SOL    HW113319   4.430   2.300   4.651
 4140SOL    HW213320   4.481   2.301   4.806
 4141SOL     OW13321   4.944   6.006   1.021
 4141SOL    HW113322   4.912   5.927   0.968
 4141SOL    HW213323   4.977   6.077   0.959
 4142SOL     OW13324   5.879   2.896   2.118
 4142SOL    HW113325   5.917   2.903   2.210
 4142SOL    HW213326   5.783   2.924   2.120
 4143SOL     OW13327   2.011   2.434   1.967
 4143SOL    HW113328   2.078   2.455   1.896
 4143SOL    HW213329   1.929   2.489   1.953
 4144SOL     OW13330   4.425   0.847   2.064
 4144SOL    HW113331   4.471   0.812   2.146
 4144SOL    HW213332   4.486   0.908   2.014
 4145SOL     OW13333   3.121   0.400   3.408
 4145SOL    HW113334   3.195   0.435   3.465
 4145SOL    HW213335   3.041   0.458   3.418
 4146SOL     OW13336   5.035   4.645   0.614
 4146SOL    HW113337   5.062   4.694   0.531
 4146SOL    HW213338   5.116   4.629   0.671
 4147SOL     OW13339   2.820   1.449   5.869
 4147SOL    HW113340   2.875   1.385   5.816
 4147SOL    HW213341   2.800   1.409   5.959
 4148SOL     OW13342   6.718   6.642   2.164
 4148SOL    HW113343   6.797   6.583   2.152
 4148SOL    HW213344   6.670   6.618   2.248
 4149SOL     OW13345   4.503   4.466   2.190
 4149SOL    HW113346   4.509   4.400   2.114
 4149SOL    HW213347   4.446   4.428   2.263
 4150SOL     OW13348   3.389   0.340   4.259
 4150SOL    HW113349   3.290   0.350   4.265
 4150SOL    HW213350   3.433   0.425   4.287
 4151SOL     OW13351   0.261   5.480   0.400
 4151SOL    HW113352   0.271   5.381   0.386
 4151SOL    HW213353   0.302   5.529   0.323
 4152SOL     OW13354   3.582   4.158   0.948
 4152SOL    HW113355   3.502   4.130   1.001
 4152SOL    HW213356   3.665   4.119   0.990
 4153SOL     OW13357   5.999   6.023   6.534
 4153SOL    HW113358   6.042   6.030   6.444
 4153SOL    HW213359   6.015   6.107   6.585
 4154SOL     OW13360   4.353   2.426   4.570
 4154SOL    HW113361   4.297   2.424   4.488
 4154SOL    HW213362   4.432   2.486   4.556
 4155SOL     OW13363   1.439   3.276   0.991
 4155SOL    HW113364   1.348   3.277   1.033
 4155SOL    HW213365   1.507   3.304   1.059
 4156SOL     OW13366   5.890   1.384   5.326
 4156SOL    HW113367   5.964   1.343   5.273
 4156SOL    HW213368   5.844   1.453   5.271
 4157SOL     OW13369   3.733   1.110   3.725
 4157SOL    HW113370   3.737   1.026   3.780
 4157SOL    HW213371   3.742   1.087   3.628
 4158SOL     OW13372   0.617   0.267   3.261
 4158SOL    HW113373   0.666   0.327   3.324
 4158SOL    HW213374   0.676   0.244   3.184
 4159SOL     OW13375   1.152   4.972   5.396
 4159SOL    HW113376   1.107   4.936   5.314
 4159SOL    HW213377   1.251   4.973   5.382
 4160SOL     OW13378   6.072   0.927   1.492
 4160SOL    HW113379   5.993   0.903   1.436
 4160SOL    HW213380   6.116   1.008   1.455
 4161SOL     OW13381   6.324   1.252   1.841
 4161SOL    HW113382   6.392   1.187   1.875
 4161SOL    HW213383   6.235   1.208   1.833
 4162SOL     OW13384   0.295   0.178   4.571
 4162SOL    HW113385   0.303   0.192   4.670
 4162SOL    HW213386   0.211   0.128   4.551
 4163SOL     OW13387   0.857   2.040   5.475
 4163SOL    HW113388   0.928   2.073   5.413
 4163SOL    HW213389   0.792   1.984   5.424
 4164SOL     OW13390   2.116   0.137   5.468
 4164SOL    HW113391   2.142   0.173   5.558
 4164SOL    HW213392   2.182   0.168   5.400
 4165SOL     OW13393   0.826   5.898   1.590
 4165SOL    HW113394   0.815   5.843   1.673
 4165SOL    HW213395   0.748   5.960   1.581
 4166SOL     OW13396   6.474   1.880   2.796
 4166SOL    HW113397   6.449   1.824   2.717
 4166SOL    HW213398   6.447   1.833   2.880
 4167SOL     OW13399   1.328   2.821   1.139
 4167SOL    HW113400   1.364   2.729   1.123
 4167SOL    HW213401   1.233   2.825   1.108
 4168SOL     OW13402   2.251   5.910   0.834
 4168SOL    HW113403   2.194   5.873   0.907
 4168SOL    HW213404   2.301   5.836   0.789
 4169SOL     OW13405   6.279   3.128   6.834
 4169SOL    HW113406   6.229   3.207   6.868
 4169SOL    HW213407   6.277   3.127   6.734
 4170SOL     OW13408   3.255   0.946   5.527
 4170SOL    HW113409   3.319   1.005   5.478
 4170SOL    HW213410   3.261   0.964   5.625
 4171SOL     OW13411   6.770   2.995   1.917
 4171SOL    HW113412   6.788   3.014   1.821
 4171SOL    HW213413   6.683   2.948   1.927
 4172SOL     OW13414   2.614   0.421   0.952
 4172SOL    HW113415   2.518   0.414   0.927
 4172SOL    HW213416   2.665   0.346   0.910
 4173SOL     OW13417   4.274   4.241   5.514
 4173SOL    HW113418   4.257   4.160   5.569
 4173SOL    HW213419   4.231   4.231   5.424
 4174SOL     OW13420   4.400   0.978   3.714
 4174SOL    HW113421   4.366   0.951   3.624
 4174SOL    HW213422   4.458   1.059   3.705
 4175SOL     OW13423   2.638   1.041   2.076
 4175SOL    HW113424   2.628   1.114   2.143
 4175SOL    HW213425   2.587   1.065   1.993
 4176SOL     OW13426   5.580   4.833   2.849
 4176SOL    HW113427   5.574   4.757   2.784
 4176SOL    HW213428   5.510   4.901   2.827
 4177SOL     OW13429   0.479   6.073   3.128
 4177SOL    HW113430   0.538   6.121   3.063
 4177SOL    HW213431   0.470   5.978   3.102
 4178SOL     OW13432   3.994   2.745   5.339
 4178SOL    HW113433   3.903   2.727   5.375
 4178SOL    HW213434   4.026   2.667   5.286
 4179SOL     OW13435   0.213   1.902   0.107
 4179SOL    HW113436   0.184   1.996   0.127
 4179SOL    HW213437   0.135   1.840   0.119
 4180SOL     OW13438   6.147   3.976   1.701
 4180SOL    HW113439   6.155   3.992   1.603
 4180SOL    HW213440   6.209   3.901   1.727
 4181SOL     OW13441   5.628   0.867   6.889
 4181SOL    HW113442   5.606   0.964   6.897
 4181SOL    HW213443   5.614   0.836   6.795
 4182SOL     OW13444   6.071   0.827   3.998
 4182SOL    HW113445   6.047   0.770   4.077
 4182SOL    HW213446   6.068   0.923   4.025
 4183SOL     OW13447   0.652   0.865   1.733
 4183SOL    HW113448   0.626   0.947   1.785
 4183SOL    HW213449   0.584   0.846   1.663
 4184SOL     OW13450   4.162   4.890   6.299
 4184SOL    HW113451   4.100   4.844   6.235
 4184SOL    HW213452   4.123   4.979   6.324
 4185SOL     OW13453   0.162   1.272   4.529
 4185SOL    HW113454   0.193   1.367   4.528
 4185SOL    HW213455   0.191   1.228   4.614
 4186SOL     OW13456   3.111   3.356   1.789
 4186SOL    HW113457   3.184   3.419   1.763
 4186SOL    HW213458   3.023   3.402   1.779
 4187SOL     OW13459   4.731   5.045   5.637
 4187SOL    HW113460   4.759   4.981   5.566
 4187SOL    HW213461   4.763   5.137   5.613
 4188SOL     OW13462   5.468   5.839   2.809
 4188SOL    HW113463   5.485   5.799   2.718
 4188SOL    HW213464   5.395   5.908   2.802
 4189SOL     OW13465   1.410   3.596   3.103
 4189SOL    HW113466   1.507   3.593   3.077
 4189SOL    HW213467   1.372   3.504   3.099
 4190SOL     OW13468   2.202   6.193   1.646
 4190SOL    HW113469   2.232   6.113   1.595
 4190SOL    HW213470   2.103   6.187   1.663
 4191SOL     OW13471   0.511   1.817   3.999
 4191SOL    HW113472   0.584   1.884   4.015
 4191SOL    HW213473   0.444   1.855   3.935
 4192SOL     OW13474   5.891   6.032   3.814
 4192SOL    HW113475   5.935   6.052   3.902
 4192SOL    HW213476   5.809   6.088   3.804
 4193SOL     OW13477   1.286   6.603   3.702
 4193SOL    HW113478   1.269   6.663   3.780
 4193SOL    HW213479   1.362   6.639   3.649
 4194SOL     OW13480   4.656   0.017   3.250
 4194SOL    HW113481   4.588   6.981   3.202
 4194SOL    HW213482   4.656   0.109   3.210
 4195SOL     OW13483   4.468   0.420   3.297
 4195SOL    HW113484   4.557   0.466   3.294
 4195SOL    HW213485   4.462   0.354   3.222
 4196SOL     OW13486   5.235   2.595   3.470
 4196SOL    HW113487   5.242   2.499   3.442
 4196SOL    HW213488   5.300   2.613   3.544
 4197SOL     OW13489   5.608   4.460   4.855
 4197SOL    HW113490   5.601   4.436   4.758
 4197SOL    HW213491   5.609   4.377   4.910
 4198SOL     OW13492   6.457   3.635   6.030
 4198SOL    HW113493   6.462   3.572   5.952
 4198SOL    HW213494   6.549   3.650   6.066
 4199SOL     OW13495   2.813   4.404   6.044
 4199SOL    HW113496   2.804   4.485   6.101
 4199SOL    HW213497   2.784   4.426   5.951
 4200SOL     OW13498   2.570   0.237   5.028
 4200SOL    HW113499   2.560   0.224   5.126
 4200SOL    HW213500   2.527   0.323   5.001
 4201SOL     OW13501   6.227   6.906   4.721
 4201SOL    HW113502   6.141   6.952   4.698
 4201SOL    HW213503   6.237   6.902   4.821
 4202SOL     OW13504   5.903   3.636   4.802
 4202SOL    HW113505   5.984   3.685   4.836
 4202SOL    HW213506   5.833   3.702   4.776
 4203SOL     OW13507   3.368   5.654   4.532
 4203SOL    HW113508   3.286   5.601   4.510
 4203SOL    HW213509   3.345   5.723   4.601
 4204SOL     OW13510   1.698   3.981   0.069
 4204SOL    HW113511   1.641   4.027   0.002
 4204SOL    HW213512   1.685   3.882   0.063
 4205SOL     OW13513   2.426   7.004   3.733
 4205SOL    HW113514   2.451   0.077   3.760
 4205SOL    HW213515   2.338   6.980   3.773
 4206SOL     OW13516   4.513   6.178   3.019
 4206SOL    HW113517   4.602   6.132   3.017
 4206SOL    HW213518   4.507   6.237   3.100
 4207SOL     OW13519   2.095   6.407   6.842
 4207SOL    HW113520   2.063   6.312   6.843
 4207SOL    HW213521   2.083   6.447   6.933
 4208SOL     OW13522   1.042   1.503   2.160
 4208SOL    HW113523   0.983   1.517   2.239
 4208SOL    HW213524   1.073   1.408   2.158
 4209SOL     OW13525   2.010   0.672   5.889
 4209SOL    HW113526   2.021   0.579   5.852
 4209SOL    HW213527   2.100   0.714   5.899
 4210SOL     OW13528   3.437   3.228   0.620
 4210SOL    HW113529   3.506   3.300   0.610
 4210SOL    HW213530   3.476   3.140   0.598
 4211SOL     OW13531   6.720   3.350   4.245
 4211SOL    HW113532   6.802   3.358   4.302
 4211SOL    HW213533   6.742   3.376   4.151
 4212SOL     OW13534   5.633   6.571   1.685
 4212SOL    HW113535   5.713   6.629   1.669
 4212SOL    HW213536   5.568   6.619   1.743
 4213SOL     OW13537   1.430   0.614   1.173
 4213SOL    HW113538   1.398   0.528   1.212
 4213SOL    HW213539   1.404   0.689   1.233
 4214SOL     OW13540   3.500   5.150   3.713
 4214SOL    HW113541   3.579   5.203   3.683
 4214SOL    HW213542   3.452   5.199   3.785
 4215SOL     OW13543   1.931   5.887   0.198
 4215SOL    HW113544   1.896   5.962   0.142
 4215SOL    HW213545   2.008   5.920   0.252
 4216SOL     OW13546   2.311   2.695   5.352
 4216SOL    HW113547   2.233   2.747   5.317
 4216SOL    HW213548   2.389   2.756   5.365
 4217SOL     OW13549   5.970   0.431   4.579
 4217SOL    HW113550   5.978   0.344   4.530
 4217SOL    HW213551   6.054   0.483   4.568
 4218SOL     OW13552   3.115   5.912   2.441
 4218SOL    HW113553   3.188   5.980   2.436
 4218SOL    HW213554   3.130   5.852   2.520
 4219SOL     OW13555   5.325   0.692   2.620
 4219SOL    HW113556   5.269   0.609   2.617
 4219SOL    HW213557   5.337   0.721   2.715
 4220SOL     OW13558   1.163   4.942   2.949
 4220SOL    HW113559   1.225   4.942   3.028
 4220SOL    HW213560   1.087   4.879   2.966
 4221SOL     OW13561   5.452   6.085   5.779
 4221SOL    HW113562   5.538   6.120   5.743
 4221SOL    HW213563   5.394   6.055   5.704
 4222SOL     OW13564   2.290   3.254   0.179
 4222SOL    HW113565   2.359   3.232   0.110
 4222SOL    HW213566   2.223   3.180   0.182
 4223SOL     OW13567   3.611   4.116   2.770
 4223SOL    HW113568   3.568   4.195   2.726
 4223SOL    HW213569   3.613   4.129   2.869
 4224SOL     OW13570   3.380   2.194   5.309
 4224SOL    HW113571   3.313   2.245   5.254
 4224SOL    HW213572   3.332   2.135   5.373
 4225SOL     OW13573   5.160   6.260   4.591
 4225SOL    HW113574   5.085   6.207   4.552
 4225SOL    HW213575   5.159   6.253   4.691
 4226SOL     OW13576   2.436   2.259   1.961
 4226SOL    HW113577   2.459   2.356   1.967
 4226SOL    HW213578   2.520   2.205   1.949
 4227SOL     OW13579   6.020   3.607   0.294
 4227SOL    HW113580   6.081   3.633   0.219
 4227SOL    HW213581   6.008   3.508   0.295
 4228SOL     OW13582   4.237   5.574   2.768
 4228SOL    HW113583   4.307   5.541   2.704
 4228SOL    HW213584   4.187   5.649   2.727
 4229SOL     OW13585   4.192   4.792   4.501
 4229SOL    HW113586   4.194   4.774   4.599
 4229SOL    HW213587   4.252   4.727   4.453
 4230SOL     OW13588   1.674   1.177   5.072
 4230SOL    HW113589   1.704   1.094   5.024
 4230SOL    HW213590   1.631   1.151   5.158
 4231SOL     OW13591   3.807   6.804   6.478
 4231SOL    HW113592   3.866   6.723   6.467
 4231SOL    HW213593   3.838   6.855   6.558
 4232SOL     OW13594   2.259   3.986   1.748
 4232SOL    HW113595   2.350   3.949   1.768
 4232SOL    HW213596   2.212   3.927   1.683
 4233SOL     OW13597   4.688   4.747   0.897
 4233SOL    HW113598   4.730   4.660   0.873
 4233SOL    HW213599   4.599   4.755   0.851
 4234SOL     OW13600   3.535   4.083   6.013
 4234SOL    HW113601   3.490   4.166   5.978
 4234SOL    HW213602   3.630   4.081   5.980
 4235SOL     OW13603   0.264   3.951   4.686
 4235SOL    HW113604   0.287   3.998   4.772
 4235SOL    HW213605   0.172   3.979   4.657
 4236SOL     OW13606   1.091   3.366   3.999
 4236SOL    HW113607   1.116   3.460   3.975
 4236SOL    HW213608   1.156   3.330   4.066
 4237SOL     OW13609   5.253   3.816   5.240
 4237SOL    HW113610   5.171   3.779   5.197
 4237SOL    HW213611   5.274   3.906   5.201
 4238SOL     OW13612   5.217   4.788   4.853
 4238SOL    HW113613   5.232   4.740   4.939
 4238SOL    HW213614   5.179   4.879   4.871
 4239SOL     OW13615   5.870   4.548   5.328
 4239SOL    HW113616   5.847   4.629   5.275
 4239SOL    HW213617   5.970   4.543   5.340
 4240SOL     OW13618   2.491   4.334   5.559
 4240SOL    HW113619   2.469   4.243   5.596
 4240SOL    HW213620   2.501   4.328   5.460
 4241SOL     OW13621   3.360   2.649   0.293
 4241SOL    HW113622   3.407   2.570   0.332
 4241SOL    HW213623   3.308   2.696   0.364
 4242SOL     OW13624   2.650   0.260   1.784
 4242SOL    HW113625   2.703   0.338   1.752
 4242SOL    HW213626   2.675   0.179   1.731
 4243SOL     OW13627   2.119   1.921   2.005
 4243SOL    HW113628   2.115   1.846   1.940
 4243SOL    HW213629   2.061   1.900   2.084
 4244SOL     OW13630   2.478   0.089   0.578
 4244SOL    HW113631   2.420   0.075   0.658
 4244SOL    HW213632   2.424   0.129   0.504
 4245SOL     OW13633   6.919   1.222   1.644
 4245SOL    HW113634   6.965   1.235   1.733
 4245SOL    HW213635   6.836   1.278   1.641
 4246SOL     OW13636   3.622   2.156   3.134
 4246SOL    HW113637   3.714   2.164   3.095
 4246SOL    HW213638   3.558   2.126   3.063
 4247SOL     OW13639   2.250   4.928   6.316
 4247SOL    HW113640   2.274   4.904   6.410
 4247SOL    HW213641   2.334   4.933   6.261
 4248SOL     OW13642   3.091   6.245   1.524
 4248SOL    HW113643   2.995   6.260   1.499
 4248SOL    HW213644   3.128   6.326   1.568
 4249SOL     OW13645   6.090   1.334   5.121
 4249SOL    HW113646   6.120   1.429   5.111
 4249SOL    HW213647   6.057   1.300   5.033
 4250SOL     OW13648   0.966   5.415   4.679
 4250SOL    HW113649   0.872   5.381   4.678
 4250SOL    HW213650   1.029   5.337   4.673
 4251SOL     OW13651   4.391   1.771   5.610
 4251SOL    HW113652   4.423   1.738   5.521
 4251SOL    HW213653   4.416   1.705   5.681
 4252SOL     OW13654   0.613   6.418   6.923
 4252SOL    HW113655   0.598   6.476   7.003
 4252SOL    HW213656   0.617   6.476   6.841
 4253SOL     OW13657   3.293   0.007   2.499
 4253SOL    HW113658   3.365   6.958   2.512
 4253SOL    HW213659   3.216   7.005   2.559
 4254SOL     OW13660   0.811   0.834   4.405
 4254SOL    HW113661   0.768   0.773   4.339
 4254SOL    HW213662   0.786   0.806   4.498
 4255SOL     OW13663   1.912   2.880   4.540
 4255SOL    HW113664   1.990   2.870   4.478
 4255SOL    HW213665   1.835   2.920   4.491
 4256SOL     OW13666   5.840   6.412   1.021
 4256SOL    HW113667   5.927   6.422   0.974
 4256SOL    HW213668   5.843   6.331   1.080
 4257SOL     OW13669   0.376   1.528   2.704
 4257SOL    HW113670   0.324   1.443   2.711
 4257SOL    HW213671   0.327   1.601   2.752
 4258SOL     OW13672   2.331   6.728   0.931
 4258SOL    HW113673   2.400   6.767   0.993
 4258SOL    HW213674   2.361   6.638   0.900
 4259SOL     OW13675   1.429   0.679   0.688
 4259SOL    HW113676   1.413   0.591   0.734
 4259SOL    HW213677   1.424   0.666   0.589
 4260SOL     OW13678   0.113   0.610   5.472
 4260SOL    HW113679   0.161   0.615   5.560
 4260SOL    HW213680   0.068   0.522   5.463
 4261SOL     OW13681   1.828   6.855   2.806
 4261SOL    HW113682   1.843   6.940   2.857
 4261SOL    HW213683   1.741   6.862   2.756
 4262SOL     OW13684   1.262   3.699   5.020
 4262SOL    HW113685   1.335   3.698   4.952
 4262SOL    HW213686   1.232   3.794   5.035
 4263SOL     OW13687   3.178   0.968   2.591
 4263SOL    HW113688   3.200   1.021   2.509
 4263SOL    HW213689   3.242   0.892   2.599
 4264SOL     OW13690   4.349   2.287   6.345
 4264SOL    HW113691   4.368   2.227   6.422
 4264SOL    HW213692   4.250   2.293   6.331
 4265SOL     OW13693   3.689   5.917   6.145
 4265SOL    HW113694   3.693   5.973   6.228
 4265SOL    HW213695   3.594   5.896   6.124
 4266SOL     OW13696   1.321   3.626   2.353
 4266SOL    HW113697   1.370   3.707   2.385
 4266SOL    HW213698   1.378   3.578   2.286
 4267SOL     OW13699   1.613   3.297   3.645
 4267SOL    HW113700   1.605   3.199   3.662
 4267SOL    HW213701   1.604   3.347   3.731
 4268SOL     OW13702   1.296   4.450   5.155
 4268SOL    HW113703   1.350   4.386   5.100
 4268SOL    HW213704   1.266   4.405   5.239
 4269SOL     OW13705   2.769   1.949   4.373
 4269SOL    HW113706   2.811   1.988   4.455
 4269SOL    HW213707   2.729   1.860   4.396
 4270SOL     OW13708   3.982   4.301   1.018
 4270SOL    HW113709   3.934   4.222   1.056
 4270SOL    HW213710   3.951   4.317   0.924
 4271SOL     OW13711   6.029   6.722   6.897
 4271SOL    HW113712   6.065   6.813   6.920
 4271SOL    HW213713   6.014   6.670   6.982
 4272SOL     OW13714   6.537   2.201   5.488
 4272SOL    HW113715   6.494   2.277   5.439
 4272SOL    HW213716   6.637   2.208   5.479
 4273SOL     OW13717   3.420   6.359   3.223
 4273SOL    HW113718   3.375   6.305   3.294
 4273SOL    HW213719   3.397   6.322   3.133
 4274SOL     OW13720   5.815   0.840   2.140
 4274SOL    HW113721   5.792   0.932   2.172
 4274SOL    HW213722   5.818   0.777   2.218
 4275SOL     OW13723   5.793   1.792   4.194
 4275SOL    HW113724   5.805   1.844   4.278
 4275SOL    HW213725   5.881   1.777   4.151
 4276SOL     OW13726   2.468   0.797   3.067
 4276SOL    HW113727   2.530   0.874   3.052
 4276SOL    HW213728   2.464   0.741   2.984
 4277SOL     OW13729   6.291   4.832   2.989
 4277SOL    HW113730   6.294   4.813   3.087
 4277SOL    HW213731   6.313   4.749   2.937
 4278SOL     OW13732   0.251   0.035   1.664
 4278SOL    HW113733   0.203   6.969   1.683
 4278SOL    HW213734   0.215   0.075   1.580
 4279SOL     OW13735   1.381   3.759   2.696
 4279SOL    HW113736   1.464   3.741   2.749
 4279SOL    HW213737   1.406   3.794   2.605
 4280SOL     OW13738   2.268   0.299   5.694
 4280SOL    HW113739   2.366   0.309   5.713
 4280SOL    HW213740   2.236   0.213   5.732
 4281SOL     OW13741   6.596   6.783   2.535
 4281SOL    HW113742   6.558   6.782   2.443
 4281SOL    HW213743   6.661   6.707   2.546
 4282SOL     OW13744   5.148   4.753   2.210
 4282SOL    HW113745   5.222   4.789   2.153
 4282SOL    HW213746   5.131   4.658   2.185
 4283SOL     OW13747   0.194   2.275   5.537
 4283SOL    HW113748   0.230   2.311   5.451
 4283SOL    HW213749   0.120   2.335   5.569
 4284SOL     OW13750   4.699   6.207   0.012
 4284SOL    HW113751   4.727   6.234   0.105
 4284SOL    HW213752   4.744   6.267   6.965
 4285SOL     OW13753   3.181   1.296   5.934
 4285SOL    HW113754   3.152   1.353   6.011
 4285SOL    HW213755   3.104   1.241   5.902
 4286SOL     OW13756   4.917   6.870   6.458
 4286SOL    HW113757   4.970   6.911   6.383
 4286SOL    HW213758   4.853   6.938   6.494
 4287SOL     OW13759   4.781   0.362   0.837
 4287SOL    HW113760   4.845   0.292   0.805
 4287SOL    HW213761   4.688   0.335   0.813
 4288SOL     OW13762   6.068   6.311   2.649
 4288SOL    HW113763   6.066   6.339   2.745
 4288SOL    HW213764   6.076   6.212   2.642
 4289SOL     OW13765   0.436   5.180   5.850
 4289SOL    HW113766   0.516   5.121   5.841
 4289SOL    HW213767   0.366   5.133   5.903
 4290SOL     OW13768   6.959   0.936   2.828
 4290SOL    HW113769   6.976   0.954   2.925
 4290SOL    HW213770   6.898   0.857   2.819
 4291SOL     OW13771   4.793   4.838   5.475
 4291SOL    HW113772   4.813   4.784   5.557
 4291SOL    HW213773   4.878   4.852   5.423
 4292SOL     OW13774   6.386   0.632   0.165
 4292SOL    HW113775   6.335   0.625   0.251
 4292SOL    HW213776   6.363   0.719   0.120
 4293SOL     OW13777   4.173   2.051   6.032
 4293SOL    HW113778   4.267   2.020   6.050
 4293SOL    HW213779   4.108   1.984   6.066
 4294SOL     OW13780   2.961   2.107   0.264
 4294SOL    HW113781   3.006   2.017   0.269
 4294SOL    HW213782   2.869   2.095   0.228
 4295SOL     OW13783   4.127   6.987   2.709
 4295SOL    HW113784   4.180   6.979   2.624
 4295SOL    HW213785   4.119   0.064   2.734
 4296SOL     OW13786   1.770   5.308   1.918
 4296SOL    HW113787   1.677   5.290   1.947
 4296SOL    HW213788   1.771   5.383   1.851
 4297SOL     OW13789   5.164   4.174   7.017
 4297SOL    HW113790   5.125   4.202   6.930
 4297SOL    HW213791   5.095   4.124   0.050
 4298SOL     OW13792   1.459   6.184   0.815
 4298SOL    HW113793   1.499   6.275   0.827
 4298SOL    HW213794   1.433   6.171   0.719
 4299SOL     OW13795   0.368   3.832   0.170
 4299SOL    HW113796   0.354   3.875   0.259
 4299SOL    HW213797   0.465   3.808   0.160
 4300SOL     OW13798   3.682   0.676   2.335
 4300SOL    HW113799   3.725   0.767   2.335
 4300SOL    HW213800   3.588   0.684   2.369
 4301SOL     OW13801   2.232   5.467   3.875
 4301SOL    HW113802   2.327   5.492   3.894
 4301SOL    HW213803   2.173   5.509   3.943
 4302SOL     OW13804   3.587   4.452   6.660
 4302SOL    HW113805   3.620   4.539   6.695
 4302SOL    HW213806   3.528   4.467   6.581
 4303SOL     OW13807   4.543   5.339   3.325
 4303SOL    HW113808   4.607   5.416   3.333
 4303SOL    HW213809   4.547   5.302   3.233
 4304SOL     OW13810   2.668   4.269   1.273
 4304SOL    HW113811   2.730   4.258   1.350
 4304SOL    HW213812   2.706   4.334   1.208
 4305SOL     OW13813   0.975   6.703   6.007
 4305SOL    HW113814   1.047   6.769   6.030
 4305SOL    HW213815   0.945   6.718   5.913
 4306SOL     OW13816   6.734   4.361   5.068
 4306SOL    HW113817   6.737   4.325   4.975
 4306SOL    HW213818   6.649   4.412   5.082
 4307SOL     OW13819   6.761   2.144   4.143
 4307SOL    HW113820   6.770   2.045   4.142
 4307SOL    HW213821   6.665   2.169   4.158
 4308SOL     OW13822   4.828   5.748   6.449
 4308SOL    HW113823   4.911   5.738   6.505
 4308SOL    HW213824   4.747   5.737   6.507
 4309SOL     OW13825   2.255   2.026   0.417
 4309SOL    HW113826   2.337   1.970   0.418
 4309SOL    HW213827   2.225   2.043   0.511
 4310SOL     OW13828   6.025   1.231   4.884
 4310SOL    HW113829   6.008   1.134   4.900
 4310SOL    HW213830   6.086   1.243   4.805
 4311SOL     OW13831   0.835   6.736   0.817
 4311SOL    HW113832   0.915   6.693   0.775
 4311SOL    HW213833   0.756   6.724   0.757
 4312SOL     OW13834   0.458   3.108   3.324
 4312SOL    HW113835   0.533   3.174   3.331
 4312SOL    HW213836   0.415   3.097   3.414
 4313SOL     OW13837   0.625   3.330   0.646
 4313SOL    HW113838   0.612   3.345   0.744
 4313SOL    HW213839   0.538   3.301   0.604
 4314SOL     OW13840   2.503   1.890   5.926
 4314SOL    HW113841   2.512   1.948   5.846
 4314SOL    HW213842   2.512   1.794   5.899
 4315SOL     OW13843   2.933   2.115   5.666
 4315SOL    HW113844   2.970   2.207   5.674
 4315SOL    HW213845   3.008   2.048   5.673
 4316SOL     OW13846   4.945   4.296   1.408
 4316SOL    HW113847   4.861   4.343   1.438
 4316SOL    HW213848   4.922   4.231   1.336
 4317SOL     OW13849   4.739   0.247   3.086
 4317SOL    HW113850   4.821   0.299   3.109
 4317SOL    HW213851   4.739   0.227   2.988
 4318SOL     OW13852   2.465   5.865   3.582
 4318SOL    HW113853   2.491   5.954   3.620
 4318SOL    HW213854   2.526   5.795   3.619
 4319SOL     OW13855   2.491   4.916   0.407
 4319SOL    HW113856   2.395   4.904   0.382
 4319SOL    HW213857   2.497   4.970   0.491
 4320SOL     OW13858   4.645   1.577   1.842
 4320SOL    HW113859   4.682   1.654   1.895
 4320SOL    HW213860   4.720   1.528   1.798
 4321SOL     OW13861   6.842   5.965   3.669
 4321SOL    HW113862   6.773   6.036   3.684
 4321SOL    HW213863   6.815   5.881   3.715
 4322SOL     OW13864   2.912   1.873   3.591
 4322SOL    HW113865   2.985   1.823   3.638
 4322SOL    HW213866   2.949   1.957   3.552
 4323SOL     OW13867   5.929   3.939   1.842
 4323SOL    HW113868   5.946   3.886   1.925
 4323SOL    HW213869   6.015   3.954   1.793
 4324SOL     OW13870   6.260   4.072   5.287
 4324SOL    HW113871   6.278   3.991   5.342
 4324SOL    HW213872   6.252   4.046   5.191
 4325SOL     OW13873   1.336   0.130   0.523
 4325SOL    HW113874   1.433   0.114   0.502
 4325SOL    HW213875   1.302   0.205   0.467
 4326SOL     OW13876   5.247   2.865   2.585
 4326SOL    HW113877   5.182   2.846   2.512
 4326SOL    HW213878   5.329   2.808   2.571
 4327SOL     OW13879   3.167   6.586   4.100
 4327SOL    HW113880   3.185   6.560   4.195
 4327SOL    HW213881   3.253   6.590   4.049
 4328SOL     OW13882   5.539   0.194   1.657
 4328SOL    HW113883   5.466   0.261   1.642
 4328SOL    HW213884   5.627   0.235   1.632
 4329SOL     OW13885   6.591   3.789   0.634
 4329SOL    HW113886   6.607   3.695   0.603
 4329SOL    HW213887   6.666   3.817   0.695
 4330SOL     OW13888   2.677   6.444   5.227
 4330SOL    HW113889   2.712   6.473   5.138
 4330SOL    HW213890   2.614   6.367   5.214
 4331SOL     OW13891   6.395   1.583   2.955
 4331SOL    HW113892   6.368   1.487   2.966
 4331SOL    HW213893   6.396   1.606   2.857
 4332SOL     OW13894   6.659   6.369   1.389
 4332SOL    HW113895   6.615   6.386   1.301
 4332SOL    HW213896   6.758   6.367   1.377
 4333SOL     OW13897   3.742   3.314   5.993
 4333SOL    HW113898   3.752   3.402   5.946
 4333SOL    HW213899   3.660   3.268   5.959
 4334SOL     OW13900   0.744   1.977   4.041
 4334SOL    HW113901   0.817   1.966   3.975
 4334SOL    HW213902   0.778   2.026   4.121
 4335SOL     OW13903   2.406   2.590   1.435
 4335SOL    HW113904   2.478   2.556   1.495
 4335SOL    HW213905   2.324   2.533   1.446
 4336SOL     OW13906   2.126   5.719   5.352
 4336SOL    HW113907   2.107   5.682   5.262
 4336SOL    HW213908   2.040   5.736   5.400
 4337SOL     OW13909   0.193   4.362   3.975
 4337SOL    HW113910   0.105   4.351   4.021
 4337SOL    HW213911   0.221   4.274   3.937
 4338SOL     OW13912   3.284   3.142   4.915
 4338SOL    HW113913   3.308   3.233   4.950
 4338SOL    HW213914   3.184   3.135   4.905
 4339SOL     OW13915   3.670   3.707   4.925
 4339SOL    HW113916   3.763   3.744   4.915
 4339SOL    HW213917   3.639   3.720   5.019
 4340SOL     OW13918   0.040   4.022   0.419
 4340SOL    HW113919   0.011   4.118   0.412
 4340SOL    HW213920   6.994   3.964   0.372
 4341SOL     OW13921   5.755   6.804   1.579
 4341SOL    HW113922   5.667   6.844   1.602
 4341SOL    HW213923   5.765   6.798   1.480
 4342SOL     OW13924   5.177   3.766   2.354
 4342SOL    HW113925   5.243   3.714   2.299
 4342SOL    HW213926   5.087   3.722   2.347
 4343SOL     OW13927   4.747   6.678   6.352
 4343SOL    HW113928   4.701   6.736   6.284
 4343SOL    HW213929   4.828   6.725   6.386
 4344SOL     OW13930   1.515   4.397   2.453
 4344SOL    HW113931   1.526   4.471   2.386
 4344SOL    HW213932   1.439   4.338   2.425
 4345SOL     OW13933   3.772   3.734   2.388
 4345SOL    HW113934   3.834   3.810   2.407
 4345SOL    HW213935   3.822   3.661   2.342
 4346SOL     OW13936   1.191   2.834   1.622
 4346SOL    HW113937   1.195   2.735   1.607
 4346SOL    HW213938   1.183   2.881   1.534
 4347SOL     OW13939   5.753   6.094   0.762
 4347SOL    HW113940   5.771   5.997   0.774
 4347SOL    HW213941   5.807   6.147   0.827
 4348SOL     OW13942   6.846   4.268   6.181
 4348SOL    HW113943   6.786   4.347   6.170
 4348SOL    HW213944   6.902   4.257   6.099
 4349SOL     OW13945   0.752   3.883   3.682
 4349SOL    HW113946   0.709   3.956   3.628
 4349SOL    HW213947   0.804   3.923   3.757
 4350SOL     OW13948   4.782   0.036   4.002
 4350SOL    HW113949   4.775   6.979   4.064
 4350SOL    HW213950   4.724   0.111   4.034
 4351SOL     OW13951   0.172   6.794   1.632
 4351SOL    HW113952   0.220   6.771   1.547
 4351SOL    HW213953   0.205   6.736   1.706
 4352SOL     OW13954   4.431   4.394   1.260
 4352SOL    HW113955   4.410   4.480   1.306
 4352SOL    HW213956   4.347   4.356   1.220
 4353SOL     OW13957   2.117   3.557   0.034
 4353SOL    HW113958   2.210   3.554   0.071
 4353SOL    HW213959   2.106   3.484   6.986
 4354SOL     OW13960   6.584   4.105   2.926
 4354SOL    HW113961   6.522   4.183   2.920
 4354SOL    HW213962   6.591   4.062   2.836
 4355SOL     OW13963   2.149   4.949   4.067
 4355SOL    HW113964   2.183   4.940   4.160
 4355SOL    HW213965   2.226   4.965   4.005
 4356SOL     OW13966   5.754   1.610   5.237
 4356SOL    HW113967   5.707   1.618   5.325
 4356SOL    HW213968   5.688   1.590   5.165
 4357SOL     OW13969   5.116   5.695   2.656
 4357SOL    HW113970   5.147   5.604   2.681
 4357SOL    HW213971   5.143   5.760   2.728
 4358SOL     OW13972   3.526   0.432   1.308
 4358SOL    HW113973   3.538   0.478   1.220
 4358SOL    HW213974   3.542   0.496   1.382
 4359SOL     OW13975   2.858   4.219   1.474
 4359SOL    HW113976   2.887   4.312   1.494
 4359SOL    HW213977   2.938   4.163   1.450
 4360SOL     OW13978   3.113   6.733   3.787
 4360SOL    HW113979   3.047   6.670   3.826
 4360SOL    HW213980   3.070   6.785   3.713
 4361SOL     OW13981   1.841   0.050   6.591
 4361SOL    HW113982   1.762   0.097   6.630
 4361SOL    HW213983   1.810   6.995   6.532
 4362SOL     OW13984   5.812   5.383   1.999
 4362SOL    HW113985   5.874   5.328   1.943
 4362SOL    HW213986   5.796   5.337   2.086
 4363SOL     OW13987   4.484   0.656   2.282
 4363SOL    HW113988   4.541   0.713   2.341
 4363SOL    HW213989   4.398   0.635   2.328
 4364SOL     OW13990   3.615   3.173   2.961
 4364SOL    HW113991   3.662   3.124   3.034
 4364SOL    HW213992   3.561   3.109   2.907
 4365SOL     OW13993   2.103   1.300   1.024
 4365SOL    HW113994   2.176   1.279   0.959
 4365SOL    HW213995   2.023   1.243   1.005
 4366SOL     OW13996   4.666   5.311   4.981
 4366SOL    HW113997   4.748   5.359   4.950
 4366SOL    HW213998   4.612   5.283   4.902
 4367SOL     OW13999   1.383   0.136   1.780
 4367SOL    HW114000   1.291   0.161   1.749
 4367SOL    HW214001   1.414   0.201   1.849
 4368SOL     OW14002   5.174   5.361   4.204
 4368SOL    HW114003   5.113   5.439   4.216
 4368SOL    HW214004   5.213   5.336   4.293
 4369SOL     OW14005   6.707   4.161   3.661
 4369SOL    HW114006   6.721   4.063   3.650
 4369SOL    HW214007   6.633   4.191   3.600
 4370SOL     OW14008   5.643   4.352   1.355
 4370SOL    HW114009   5.633   4.283   1.426
 4370SOL    HW214010   5.585   4.431   1.376
 4371SOL     OW14011   3.309   0.561   3.559
 4371SOL    HW114012   3.400   0.542   3.597
 4371SOL    HW214013   3.305   0.655   3.527
 4372SOL     OW14014   1.873   4.329   5.557
 4372SOL    HW114015   1.883   4.423   5.527
 4372SOL    HW214016   1.895   4.323   5.655
 4373SOL     OW14017   4.175   0.574   0.609
 4373SOL    HW114018   4.086   0.573   0.654
 4373SOL    HW214019   4.192   0.485   0.566
 4374SOL     OW14020   1.988   6.059   0.427
 4374SOL    HW114021   2.065   6.121   0.446
 4374SOL    HW214022   1.903   6.112   0.420
 4375SOL     OW14023   4.466   0.721   5.357
 4375SOL    HW114024   4.516   0.688   5.278
 4375SOL    HW214025   4.404   0.794   5.329
 4376SOL     OW14026   1.916   4.609   6.724
 4376SOL    HW114027   2.013   4.585   6.737
 4376SOL    HW214028   1.902   4.704   6.749
 4377SOL     OW14029   5.663   6.143   0.051
 4377SOL    HW114030   5.579   6.198   0.053
 4377SOL    HW214031   5.644   6.051   0.084
 4378SOL     OW14032   2.830   5.183   1.000
 4378SOL    HW114033   2.799   5.194   1.094
 4378SOL    HW214034   2.785   5.104   0.959
 4379SOL     OW14035   5.680   6.920   1.036
 4379SOL    HW114036   5.635   6.838   1.000
 4379SOL    HW214037   5.665   6.996   0.973
 4380SOL     OW14038   1.705   6.002   4.711
 4380SOL    HW114039   1.702   6.009   4.611
 4380SOL    HW214040   1.798   6.021   4.743
 4381SOL     OW14041   3.642   6.022   5.112
 4381SOL    HW114042   3.550   5.984   5.112
 4381SOL    HW214043   3.707   5.953   5.080
 4382SOL     OW14044   5.779   3.452   3.368
 4382SOL    HW114045   5.683   3.436   3.344
 4382SOL    HW214046   5.815   3.527   3.313
 4383SOL     OW14047   1.048   6.928   6.811
 4383SOL    HW114048   1.098   6.998   6.863
 4383SOL    HW214049   1.039   6.957   6.716
 4384SOL     OW14050   3.822   0.162   1.625
 4384SOL    HW114051   3.909   0.181   1.669
 4384SOL    HW214052   3.798   0.066   1.638
 4385SOL     OW14053   5.684   2.697   4.510
 4385SOL    HW114054   5.701   2.616   4.455
 4385SOL    HW214055   5.630   2.763   4.458
 4386SOL     OW14056   1.894   5.402   0.336
 4386SOL    HW114057   1.908   5.465   0.259
 4386SOL    HW214058   1.951   5.431   0.413
 4387SOL     OW14059   6.568   2.731   1.107
 4387SOL    HW114060   6.619   2.686   1.181
 4387SOL    HW214061   6.561   2.829   1.126
 4388SOL     OW14062   3.874   0.881   5.611
 4388SOL    HW114063   3.958   0.903   5.662
 4388SOL    HW214064   3.858   0.951   5.541
 4389SOL     OW14065   1.217   2.970   2.648
 4389SOL    HW114066   1.121   2.947   2.632
 4389SOL    HW214067   1.271   2.942   2.569
 4390SOL     OW14068   5.140   3.886   1.192
 4390SOL    HW114069   5.221   3.943   1.210
 4390SOL    HW214070   5.154   3.796   1.233
 4391SOL     OW14071   0.668   5.580   1.567
 4391SOL    HW114072   0.723   5.599   1.486
 4391SOL    HW214073   0.579   5.625   1.559
 4392SOL     OW14074   5.341   5.533   4.694
 4392SOL    HW114075   5.436   5.564   4.692
 4392SOL    HW214076   5.295   5.562   4.610
 4393SOL     OW14077   5.287   0.001   2.746
 4393SOL    HW114078   5.342   0.045   2.816
 4393SOL    HW214079   5.346   6.985   2.674
 4394SOL     OW14080   4.877   1.115   3.092
 4394SOL    HW114081   4.943   1.051   3.052
 4394SOL    HW214082   4.923   1.174   3.157
 4395SOL     OW14083   5.391   2.772   1.397
 4395SOL    HW114084   5.362   2.686   1.440
 4395SOL    HW214085   5.314   2.835   1.393
 4396SOL     OW14086   2.196   0.822   2.383
 4396SOL    HW114087   2.239   0.886   2.319
 4396SOL    HW214088   2.103   0.802   2.352
 4397SOL     OW14089   4.153   2.032   0.525
 4397SOL    HW114090   4.132   2.088   0.605
 4397SOL    HW214091   4.246   2.050   0.495
 4398SOL     OW14092   0.847   5.254   5.054
 4398SOL    HW114093   0.847   5.271   5.152
 4398SOL    HW214094   0.759   5.280   5.015
 4399SOL     OW14095   2.742   0.043   1.613
 4399SOL    HW114096   2.821   7.006   1.590
 4399SOL    HW214097   2.730   0.112   1.541
 4400SOL     OW14098   3.944   5.110   2.452
 4400SOL    HW114099   3.989   5.021   2.439
 4400SOL    HW214100   3.934   5.127   2.550
 4401SOL     OW14101   4.684   6.789   4.580
 4401SOL    HW114102   4.614   6.799   4.650
 4401SOL    HW214103   4.658   6.716   4.517
 4402SOL     OW14104   0.318   6.354   0.799
 4402SOL    HW114105   0.328   6.308   0.711
 4402SOL    HW214106   0.287   6.289   0.868
 4403SOL     OW14107   6.482   1.730   3.325
 4403SOL    HW114108   6.560   1.760   3.379
 4403SOL    HW214109   6.473   1.787   3.244
 4404SOL     OW14110   1.621   3.692   2.812
 4404SOL    HW114111   1.644   3.610   2.863
 4404SOL    HW214112   1.669   3.692   2.724
 4405SOL     OW14113   3.263   3.949   6.827
 4405SOL    HW114114   3.304   4.024   6.879
 4405SOL    HW214115   3.250   3.870   6.887
 4406SOL     OW14116   6.528   2.505   3.146
 4406SOL    HW114117   6.455   2.563   3.181
 4406SOL    HW214118   6.505   2.409   3.161
 4407SOL     OW14119   0.741   0.854   0.534
 4407SOL    HW114120   0.755   0.946   0.497
 4407SOL    HW214121   0.829   0.810   0.548
 4408SOL     OW14122   4.858   6.190   1.221
 4408SOL    HW114123   4.847   6.117   1.152
 4408SOL    HW214124   4.884   6.275   1.175
 4409SOL     OW14125   3.906   1.347   3.351
 4409SOL    HW114126   3.984   1.325   3.292
 4409SOL    HW214127   3.833   1.388   3.296
 4410SOL     OW14128   1.961   5.556   0.533
 4410SOL    HW114129   1.900   5.634   0.517
 4410SOL    HW214130   2.039   5.586   0.587
 4411SOL     OW14131   3.527   3.320   1.652
 4411SOL    HW114132   3.458   3.247   1.655
 4411SOL    HW214133   3.572   3.320   1.563
 4412SOL     OW14134   2.965   1.163   6.733
 4412SOL    HW114135   3.053   1.208   6.746
 4412SOL    HW214136   2.933   1.179   6.639
 4413SOL     OW14137   3.910   6.054   4.227
 4413SOL    HW114138   3.959   6.121   4.281
 4413SOL    HW214139   3.881   6.095   4.141
 4414SOL     OW14140   3.551   4.598   1.442
 4414SOL    HW114141   3.604   4.586   1.526
 4414SOL    HW214142   3.580   4.530   1.374
 4415SOL     OW14143   4.971   1.499   1.931
 4415SOL    HW114144   5.037   1.429   1.956
 4415SOL    HW214145   4.911   1.463   1.859
 4416SOL     OW14146   2.813   2.123   5.205
 4416SOL    HW114147   2.903   2.140   5.244
 4416SOL    HW214148   2.821   2.101   5.108
 4417SOL     OW14149   4.916   1.062   1.373
 4417SOL    HW114150   4.896   0.964   1.372
 4417SOL    HW214151   4.932   1.094   1.279
 4418SOL     OW14152   4.135   0.548   2.879
 4418SOL    HW114153   4.212   0.494   2.845
 4418SOL    HW214154   4.100   0.508   2.963
 4419SOL     OW14155   6.368   5.308   6.427
 4419SOL    HW114156   6.303   5.241   6.390
 4419SOL    HW214157   6.319   5.370   6.489
 4420SOL     OW14158   5.338   1.485   0.662
 4420SOL    HW114159   5.309   1.547   0.735
 4420SOL    HW214160   5.438   1.473   0.666
 4421SOL     OW14161   0.855   1.505   3.304
 4421SOL    HW114162   0.931   1.477   3.363
 4421SOL    HW214163   0.872   1.597   3.268
 4422SOL     OW14164   1.661   4.131   5.573
 4422SOL    HW114165   1.711   4.215   5.552
 4422SOL    HW214166   1.726   4.059   5.597
 4423SOL     OW14167   6.888   2.177   6.300
 4423SOL    HW114168   6.884   2.179   6.200
 4423SOL    HW214169   6.983   2.182   6.330
 4424SOL     OW14170   2.074   5.397   3.136
 4424SOL    HW114171   2.073   5.490   3.099
 4424SOL    HW214172   1.983   5.357   3.128
 4425SOL     OW14173   5.732   4.142   2.776
 4425SOL    HW114174   5.680   4.224   2.800
 4425SOL    HW214175   5.672   4.077   2.729
 4426SOL     OW14176   0.333   6.500   6.698
 4426SOL    HW114177   0.251   6.544   6.661
 4426SOL    HW214178   0.313   6.465   6.790
 4427SOL     OW14179   0.390   4.925   4.039
 4427SOL    HW114180   0.355   4.832   4.040
 4427SOL    HW214181   0.334   4.981   3.977
 4428SOL     OW14182   1.613   0.086   2.347
 4428SOL    HW114183   1.526   0.118   2.309
 4428SOL    HW214184   1.638   0.144   2.425
 4429SOL     OW14185   1.987   6.856   1.260
 4429SOL    HW114186   1.943   6.945   1.245
 4429SOL    HW214187   1.974   6.828   1.355
 4430SOL     OW14188   1.829   0.231   2.245
 4430SOL    HW114189   1.771   0.150   2.250
 4430SOL    HW214190   1.778   0.311   2.278
 4431SOL     OW14191   2.307   1.699   2.443
 4431SOL    HW114192   2.325   1.793   2.473
 4431SOL    HW214193   2.210   1.690   2.419
 4432SOL     OW14194   3.717   3.768   4.501
 4432SOL    HW114195   3.624   3.750   4.533
 4432SOL    HW214196   3.734   3.866   4.498
 4433SOL     OW14197   5.617   0.103   1.227
 4433SOL    HW114198   5.647   0.178   1.167
 4433SOL    HW214199   5.628   0.016   1.180
 4434SOL     OW14200   5.785   2.134   5.737
 4434SOL    HW114201   5.764   2.228   5.763
 4434SOL    HW214202   5.738   2.071   5.799
 4435SOL     OW14203   3.702   2.597   1.775
 4435SOL    HW114204   3.698   2.654   1.857
 4435SOL    HW214205   3.682   2.502   1.799
 4436SOL     OW14206   5.813   6.931   0.060
 4436SOL    HW114207   5.755   6.883   7.014
 4436SOL    HW214208   5.891   6.972   0.012
 4437SOL     OW14209   2.736   7.016   5.700
 4437SOL    HW114210   2.768   6.922   5.689
 4437SOL    HW214211   2.815   0.059   5.699
 4438SOL     OW14212   3.837   2.339   6.747
 4438SOL    HW114213   3.737   2.333   6.739
 4438SOL    HW214214   3.861   2.424   6.793
 4439SOL     OW14215   1.023   5.562   2.875
 4439SOL    HW114216   1.052   5.467   2.863
 4439SOL    HW214217   1.099   5.623   2.853
 4440SOL     OW14218   6.250   1.444   0.252
 4440SOL    HW114219   6.288   1.501   0.325
 4440SOL    HW214220   6.158   1.476   0.228
 4441SOL     OW14221   5.888   0.970   4.254
 4441SOL    HW114222   5.830   0.889   4.258
 4441SOL    HW214223   5.832   1.052   4.270
 4442SOL     OW14224   1.765   6.095   1.539
 4442SOL    HW114225   1.790   6.035   1.463
 4442SOL    HW214226   1.830   6.083   1.614
 4443SOL     OW14227   1.688   1.143   1.211
 4443SOL    HW114228   1.781   1.114   1.188
 4443SOL    HW214229   1.633   1.146   1.128
 4444SOL     OW14230   5.203   2.017   2.948
 4444SOL    HW114231   5.123   1.977   2.993
 4444SOL    HW214232   5.201   1.995   2.850
 4445SOL     OW14233   1.100   2.034   6.138
 4445SOL    HW114234   1.080   2.115   6.083
 4445SOL    HW214235   1.110   1.954   6.079
 4446SOL     OW14236   6.391   5.673   4.494
 4446SOL    HW114237   6.432   5.732   4.425
 4446SOL    HW214238   6.460   5.609   4.527
 4447SOL     OW14239   4.913   3.814   4.788
 4447SOL    HW114240   4.935   3.759   4.868
 4447SOL    HW214241   4.865   3.897   4.817
 4448SOL     OW14242   2.439   3.166   6.632
 4448SOL    HW114243   2.441   3.116   6.546
 4448SOL    HW214244   2.514   3.135   6.690
 4449SOL     OW14245   0.393   1.851   5.624
 4449SOL    HW114246   0.296   1.847   5.650
 4449SOL    HW214247   0.450   1.831   5.704
 4450SOL     OW14248   4.139   3.364   2.784
 4450SOL    HW114249   4.137   3.303   2.862
 4450SOL    HW214250   4.127   3.312   2.700
 4451SOL     OW14251   0.501   5.578   1.146
 4451SOL    HW114252   0.446   5.622   1.075
 4451SOL    HW214253   0.475   5.614   1.235
 4452SOL     OW14254   1.060   3.837   6.682
 4452SOL    HW114255   1.080   3.857   6.586
 4452SOL    HW214256   0.976   3.784   6.688
 4453SOL     OW14257   5.514   1.064   0.633
 4453SOL    HW114258   5.540   1.027   0.544
 4453SOL    HW214259   5.414   1.072   0.638
 4454SOL     OW14260   5.886   3.362   2.137
 4454SOL    HW114261   5.842   3.427   2.075
 4454SOL    HW214262   5.906   3.277   2.088
 4455SOL     OW14263   4.908   2.489   2.519
 4455SOL    HW114264   4.889   2.479   2.421
 4455SOL    HW214265   4.979   2.558   2.533
 4456SOL     OW14266   6.711   5.723   2.791
 4456SOL    HW114267   6.692   5.666   2.871
 4456SOL    HW214268   6.768   5.671   2.727
 4457SOL     OW14269   4.967   2.664   6.380
 4457SOL    HW114270   5.012   2.743   6.338
 4457SOL    HW214271   5.008   2.580   6.345
 4458SOL     OW14272   4.537   2.088   1.287
 4458SOL    HW114273   4.549   2.157   1.359
 4458SOL    HW214274   4.471   2.019   1.318
 4459SOL     OW14275   6.677   5.286   6.511
 4459SOL    HW114276   6.690   5.206   6.570
 4459SOL    HW214277   6.584   5.285   6.473
 4460SOL     OW14278   1.737   6.975   0.190
 4460SOL    HW114279   1.836   6.972   0.207
 4460SOL    HW214280   1.694   6.896   0.234
 4461SOL     OW14281   2.236   0.041   3.362
 4461SOL    HW114282   2.248   0.062   3.266
 4461SOL    HW214283   2.320   7.020   3.398
 4462SOL     OW14284   0.610   2.878   1.463
 4462SOL    HW114285   0.517   2.909   1.439
 4462SOL    HW214286   0.625   2.787   1.426
 4463SOL     OW14287   0.542   3.608   6.485
 4463SOL    HW114288   0.558   3.662   6.568
 4463SOL    HW214289   0.583   3.518   6.496
 4464SOL     OW14290   6.998   3.420   0.989
 4464SOL    HW114291   7.014   3.373   0.903
 4464SOL    HW214292   0.003   3.517   0.979
 4465SOL     OW14293   5.897   4.462   1.270
 4465SOL    HW114294   5.947   4.542   1.303
 4465SOL    HW214295   5.799   4.473   1.290
 4466SOL     OW14296   0.138   2.925   3.869
 4466SOL    HW114297   0.042   2.913   3.894
 4466SOL    HW214298   0.153   3.019   3.839
 4467SOL     OW14299   1.543   0.262   4.401
 4467SOL    HW114300   1.617   0.205   4.436
 4467SOL    HW214301   1.456   0.213   4.412
 4468SOL     OW14302   0.810   1.119   0.402
 4468SOL    HW114303   0.762   1.206   0.414
 4468SOL    HW214304   0.908   1.135   0.400
 4469SOL     OW14305   4.731   6.684   0.459
 4469SOL    HW114306   4.644   6.639   0.477
 4469SOL    HW214307   4.780   6.634   0.388
 4470SOL     OW14308   4.665   4.356   1.394
 4470SOL    HW114309   4.662   4.259   1.417
 4470SOL    HW214310   4.595   4.376   1.325
 4471SOL     OW14311   6.403   2.275   1.787
 4471SOL    HW114312   6.428   2.298   1.880
 4471SOL    HW214313   6.381   2.177   1.781
 4472SOL     OW14314   2.260   5.261   1.498
 4472SOL    HW114315   2.231   5.350   1.533
 4472SOL    HW214316   2.359   5.253   1.507
 4473SOL     OW14317   5.311   0.950   0.244
 4473SOL    HW114318   5.390   0.987   0.292
 4473SOL    HW214319   5.229   1.003   0.267
 4474SOL     OW14320   6.895   1.758   5.034
 4474SOL    HW114321   6.849   1.845   5.016
 4474SOL    HW214322   6.930   1.757   5.127
 4475SOL     OW14323   1.399   3.197   0.749
 4475SOL    HW114324   1.429   3.246   0.831
 4475SOL    HW214325   1.458   3.117   0.735
 4476SOL     OW14326   3.218   6.323   2.512
 4476SOL    HW114327   3.196   6.393   2.581
 4476SOL    HW214328   3.212   6.233   2.554
 4477SOL     OW14329   1.258   1.998   1.125
 4477SOL    HW114330   1.259   1.993   1.025
 4477SOL    HW214331   1.268   1.906   1.162
 4478SOL     OW14332   1.331   4.335   0.596
 4478SOL    HW114333   1.386   4.277   0.656
 4478SOL    HW214334   1.256   4.375   0.649
 4479SOL     OW14335   0.916   5.703   6.316
 4479SOL    HW114336   0.820   5.679   6.304
 4479SOL    HW214337   0.928   5.748   6.405
 4480SOL     OW14338   6.733   3.128   3.113
 4480SOL    HW114339   6.819   3.177   3.094
 4480SOL    HW214340   6.692   3.098   3.028
 4481SOL     OW14341   0.549   0.871   3.859
 4481SOL    HW114342   0.634   0.924   3.857
 4481SOL    HW214343   0.569   0.777   3.888
 4482SOL     OW14344   0.467   4.074   3.845
 4482SOL    HW114345   0.484   4.019   3.764
 4482SOL    HW214346   0.370   4.098   3.850
 4483SOL     OW14347   6.662   4.297   1.058
 4483SOL    HW114348   6.737   4.319   0.996
 4483SOL    HW214349   6.632   4.202   1.042
 4484SOL     OW14350   3.784   3.841   6.501
 4484SOL    HW114351   3.825   3.892   6.576
 4484SOL    HW214352   3.811   3.882   6.414
 4485SOL     OW14353   4.479   6.505   5.442
 4485SOL    HW114354   4.566   6.547   5.417
 4485SOL    HW214355   4.428   6.482   5.360
 4486SOL     OW14356   6.024   3.590   4.294
 4486SOL    HW114357   6.007   3.597   4.392
 4486SOL    HW214358   5.954   3.532   4.252
 4487SOL     OW14359   3.758   2.790   6.136
 4487SOL    HW114360   3.718   2.826   6.052
 4487SOL    HW214361   3.841   2.841   6.158
 4488SOL     OW14362   7.004   2.671   6.693
 4488SOL    HW114363   6.978   2.576   6.712
 4488SOL    HW214364   7.000   2.687   6.595
 4489SOL     OW14365   0.801   2.151   4.246
 4489SOL    HW114366   0.822   2.247   4.229
 4489SOL    HW214367   0.885   2.100   4.258
 4490SOL     OW14368   0.082   1.982   3.666
 4490SOL    HW114369   0.059   1.888   3.639
 4490SOL    HW214370   0.171   2.007   3.627
 4491SOL     OW14371   2.199   5.347   2.181
 4491SOL    HW114372   2.252   5.265   2.162
 4491SOL    HW214373   2.143   5.370   2.102
 4492SOL     OW14374   5.710   3.725   5.055
 4492SOL    HW114375   5.769   3.655   5.096
 4492SOL    HW214376   5.751   3.758   4.970
 4493SOL     OW14377   6.156   4.748   3.670
 4493SOL    HW114378   6.087   4.694   3.718
 4493SOL    HW214379   6.201   4.810   3.735
 4494SOL     OW14380   5.087   3.283   2.055
 4494SOL    HW114381   5.125   3.348   2.121
 4494SOL    HW214382   5.013   3.232   2.098
 4495SOL     OW14383   5.685   4.486   2.336
 4495SOL    HW114384   5.715   4.440   2.253
 4495SOL    HW214385   5.674   4.419   2.410
 4496SOL     OW14386   6.166   3.495   6.173
 4496SOL    HW114387   6.224   3.575   6.184
 4496SOL    HW214388   6.078   3.522   6.133
 4497SOL     OW14389   5.902   0.231   0.722
 4497SOL    HW114390   5.991   0.205   0.759
 4497SOL    HW214391   5.916   0.289   0.641
 4498SOL     OW14392   1.375   4.759   6.287
 4498SOL    HW114393   1.301   4.789   6.226
 4498SOL    HW214394   1.454   4.819   6.274
 4499SOL     OW14395   5.700   3.972   0.261
 4499SOL    HW114396   5.730   3.877   0.257
 4499SOL    HW214397   5.605   3.979   0.229
 4500SOL     OW14398   3.361   3.902   1.781
 4500SOL    HW114399   3.440   3.841   1.778
 4500SOL    HW214400   3.311   3.888   1.866
 4501SOL     OW14401   1.302   5.434   4.740
 4501SOL    HW114402   1.336   5.437   4.834
 4501SOL    HW214403   1.233   5.361   4.733
 4502SOL     OW14404   5.854   2.824   0.437
 4502SOL    HW114405   5.903   2.787   0.516
 4502SOL    HW214406   5.757   2.804   0.445
 4503SOL     OW14407   1.026   3.949   2.628
 4503SOL    HW114408   1.072   3.896   2.557
 4503SOL    HW214409   1.088   3.962   2.706
 4504SOL     OW14410   4.514   2.178   4.208
 4504SOL    HW114411   4.463   2.253   4.252
 4504SOL    HW214412   4.574   2.136   4.276
 4505SOL     OW14413   2.685   5.605   6.897
 4505SOL    HW114414   2.663   5.604   6.994
 4505SOL    HW214415   2.758   5.671   6.879
 4506SOL     OW14416   3.500   6.295   6.021
 4506SOL    HW114417   3.473   6.209   5.977
 4506SOL    HW214418   3.436   6.317   6.095
 4507SOL     OW14419   6.629   4.037   2.663
 4507SOL    HW114420   6.627   3.979   2.582
 4507SOL    HW214421   6.711   4.094   2.662
 4508SOL     OW14422   1.844   4.534   1.201
 4508SOL    HW114423   1.771   4.515   1.136
 4508SOL    HW214424   1.805   4.565   1.288
 4509SOL     OW14425   0.866   2.372   3.734
 4509SOL    HW114426   0.837   2.342   3.824
 4509SOL    HW214427   0.901   2.294   3.682
 4510SOL     OW14428   2.842   0.239   0.046
 4510SOL    HW114429   2.843   0.327   0.000
 4510SOL    HW214430   2.915   0.236   0.115
 4511SOL     OW14431   0.375   2.285   0.515
 4511SOL    HW114432   0.418   2.372   0.493
 4511SOL    HW214433   0.409   2.214   0.453
 4512SOL     OW14434   2.167   3.843   0.496
 4512SOL    HW114435   2.139   3.812   0.405
 4512SOL    HW214436   2.260   3.812   0.515
 4513SOL     OW14437   6.388   1.876   2.406
 4513SOL    HW114438   6.430   1.786   2.391
 4513SOL    HW214439   6.454   1.947   2.381
 4514SOL     OW14440   1.700   0.168   4.627
 4514SOL    HW114441   1.788   0.121   4.623
 4514SOL    HW214442   1.713   0.262   4.657
 4515SOL     OW14443   0.492   4.222   0.580
 4515SOL    HW114444   0.589   4.200   0.588
 4515SOL    HW214445   0.466   4.220   0.483
 4516SOL     OW14446   6.875   0.427   3.825
 4516SOL    HW114447   6.877   0.465   3.918
 4516SOL    HW214448   6.841   0.495   3.761
 4517SOL     OW14449   2.538   0.856   0.480
 4517SOL    HW114450   2.567   0.821   0.392
 4517SOL    HW214451   2.587   0.809   0.553
 4518SOL     OW14452   0.716   1.164   3.522
 4518SOL    HW114453   0.724   1.191   3.618
 4518SOL    HW214454   0.644   1.095   3.512
 4519SOL     OW14455   0.366   2.470   4.478
 4519SOL    HW114456   0.369   2.453   4.380
 4519SOL    HW214457   0.272   2.461   4.511
 4520SOL     OW14458   6.881   3.943   3.374
 4520SOL    HW114459   6.834   3.856   3.362
 4520SOL    HW214460   6.880   3.968   3.471
 4521SOL     OW14461   4.938   1.468   6.325
 4521SOL    HW114462   4.933   1.567   6.319
 4521SOL    HW214463   5.032   1.438   6.310
 4522SOL     OW14464   4.985   6.717   3.288
 4522SOL    HW114465   4.893   6.719   3.328
 4522SOL    HW214466   5.013   6.810   3.266
 4523SOL     OW14467   4.894   1.773   5.896
 4523SOL    HW114468   4.856   1.730   5.813
 4523SOL    HW214469   4.820   1.814   5.948
 4524SOL     OW14470   5.899   1.933   5.175
 4524SOL    HW114471   5.806   1.934   5.137
 4524SOL    HW214472   5.957   1.875   5.118
 4525SOL     OW14473   0.212   1.454   4.129
 4525SOL    HW114474   0.206   1.356   4.147
 4525SOL    HW214475   0.124   1.497   4.150
 4526SOL     OW14476   2.206   2.197   1.043
 4526SOL    HW114477   2.144   2.274   1.032
 4526SOL    HW214478   2.296   2.221   1.005
 4527SOL     OW14479   4.670   0.122   2.851
 4527SOL    HW114480   4.699   0.029   2.830
 4527SOL    HW214481   4.573   0.132   2.830
 4528SOL     OW14482   4.436   7.014   6.340
 4528SOL    HW114483   4.340   6.989   6.353
 4528SOL    HW214484   4.448   0.092   6.357
 4529SOL     OW14485   2.762   6.819   4.011
 4529SOL    HW114486   2.773   6.901   3.954
 4529SOL    HW214487   2.831   6.819   4.083
 4530SOL     OW14488   6.519   2.125   4.412
 4530SOL    HW114489   6.515   2.131   4.312
 4530SOL    HW214490   6.561   2.208   4.449
 4531SOL     OW14491   6.874   4.222   3.273
 4531SOL    HW114492   6.887   4.204   3.176
 4531SOL    HW214493   6.874   4.136   3.324
 4532SOL     OW14494   0.479   1.968   0.773
 4532SOL    HW114495   0.398   1.953   0.830
 4532SOL    HW214496   0.546   1.896   0.790
 4533SOL     OW14497   3.657   6.381   1.550
 4533SOL    HW114498   3.709   6.299   1.528
 4533SOL    HW214499   3.575   6.356   1.600
 4534SOL     OW14500   6.279   4.556   6.458
 4534SOL    HW114501   6.245   4.563   6.364
 4534SOL    HW214502   6.212   4.509   6.514
 4535SOL     OW14503   4.759   1.663   2.602
 4535SOL    HW114504   4.686   1.649   2.669
 4535SOL    HW214505   4.770   1.579   2.548
 4536SOL     OW14506   6.723   0.150   3.556
 4536SOL    HW114507   6.813   0.173   3.592
 4536SOL    HW214508   6.734   0.082   3.482
 4537SOL     OW14509   5.009   3.147   5.343
 4537SOL    HW114510   5.081   3.203   5.301
 4537SOL    HW214511   4.927   3.152   5.287
 4538SOL     OW14512   3.361   1.961   1.453
 4538SOL    HW114513   3.458   1.944   1.470
 4538SOL    HW214514   3.326   2.026   1.520
 4539SOL     OW14515   2.330   4.121   0.772
 4539SOL    HW114516   2.393   4.043   0.765
 4539SOL    HW214517   2.340   4.164   0.861
 4540SOL     OW14518   3.814   3.270   4.003
 4540SOL    HW114519   3.808   3.240   3.907
 4540SOL    HW214520   3.722   3.286   4.038
 4541SOL     OW14521   5.806   1.013   1.680
 4541SOL    HW114522   5.816   0.928   1.628
 4541SOL    HW214523   5.753   1.079   1.627
 4542SOL     OW14524   5.394   6.150   3.458
 4542SOL    HW114525   5.361   6.071   3.510
 4542SOL    HW214526   5.334   6.228   3.473
 4543SOL     OW14527   4.919   2.877   2.700
 4543SOL    HW114528   4.921   2.847   2.604
 4543SOL    HW214529   4.958   2.969   2.707
 4544SOL     OW14530   5.591   4.595   0.385
 4544SOL    HW114531   5.593   4.495   0.374
 4544SOL    HW214532   5.496   4.625   0.392
 4545SOL     OW14533   4.811   3.602   0.655
 4545SOL    HW114534   4.884   3.613   0.723
 4545SOL    HW214535   4.849   3.559   0.573
 4546SOL     OW14536   0.829   6.001   0.637
 4546SOL    HW114537   0.882   5.954   0.708
 4546SOL    HW214538   0.883   6.077   0.600
 4547SOL     OW14539   4.473   1.522   2.676
 4547SOL    HW114540   4.474   1.439   2.620
 4547SOL    HW214541   4.381   1.562   2.674
 4548SOL     OW14542   1.304   3.253   4.118
 4548SOL    HW114543   1.317   3.155   4.107
 4548SOL    HW214544   1.303   3.276   4.215
 4549SOL     OW14545   5.961   1.586   2.816
 4549SOL    HW114546   6.051   1.554   2.786
 4549SOL    HW214547   5.967   1.620   2.909
 4550SOL     OW14548   1.868   5.245   5.728
 4550SOL    HW114549   1.894   5.233   5.633
 4550SOL    HW214550   1.950   5.259   5.784
 4551SOL     OW14551   6.455   3.277   0.902
 4551SOL    HW114552   6.387   3.286   0.830
 4551SOL    HW214553   6.452   3.184   0.940
 4552SOL     OW14554   0.270   3.790   5.392
 4552SOL    HW114555   0.209   3.714   5.410
 4552SOL    HW214556   0.236   3.872   5.438
 4553SOL     OW14557   5.240   5.461   0.193
 4553SOL    HW114558   5.171   5.531   0.211
 4553SOL    HW214559   5.208   5.373   0.228
 4554SOL     OW14560   6.434   5.896   4.047
 4554SOL    HW114561   6.391   5.978   4.084
 4554SOL    HW214562   6.372   5.853   3.982
 4555SOL     OW14563   4.144   2.638   6.966
 4555SOL    HW114564   4.183   2.674   0.031
 4555SOL    HW214565   4.203   2.662   6.889
 4556SOL     OW14566   3.715   0.633   4.711
 4556SOL    HW114567   3.796   0.607   4.764
 4556SOL    HW214568   3.660   0.552   4.691
 4557SOL     OW14569   5.260   0.708   3.490
 4557SOL    HW114570   5.216   0.735   3.575
 4557SOL    HW214571   5.319   0.783   3.458
 4558SOL     OW14572   0.638   4.118   0.188
 4558SOL    HW114573   0.701   4.043   0.206
 4558SOL    HW214574   0.677   4.179   0.119
 4559SOL     OW14575   1.532   6.715   1.239
 4559SOL    HW114576   1.602   6.760   1.184
 4559SOL    HW214577   1.546   6.737   1.336
 4560SOL     OW14578   6.071   2.103   4.174
 4560SOL    HW114579   6.128   2.184   4.183
 4560SOL    HW214580   6.000   2.119   4.105
 4561SOL     OW14581   2.432   6.222   6.460
 4561SOL    HW114582   2.408   6.194   6.553
 4561SOL    HW214583   2.529   6.202   6.444
 4562SOL     OW14584   3.403   4.118   5.254
 4562SOL    HW114585   3.339   4.114   5.177
 4562SOL    HW214586   3.370   4.057   5.327
 4563SOL     OW14587   5.373   2.806   6.721
 4563SOL    HW114588   5.316   2.844   6.648
 4563SOL    HW214589   5.334   2.829   6.810
 4564SOL     OW14590   6.458   5.378   0.393
 4564SOL    HW114591   6.538   5.390   0.334
 4564SOL    HW214592   6.380   5.349   0.337
 4565SOL     OW14593   4.682   0.704   4.172
 4565SOL    HW114594   4.678   0.761   4.090
 4565SOL    HW214595   4.596   0.654   4.183
 4566SOL     OW14596   1.856   0.523   1.651
 4566SOL    HW114597   1.929   0.455   1.665
 4566SOL    HW214598   1.811   0.506   1.563
 4567SOL     OW14599   6.026   2.544   0.342
 4567SOL    HW114600   6.113   2.517   0.383
 4567SOL    HW214601   6.033   2.639   0.310
 4568SOL     OW14602   4.294   4.782   3.586
 4568SOL    HW114603   4.382   4.739   3.606
 4568SOL    HW214604   4.223   4.741   3.644
 4569SOL     OW14605   2.257   1.167   3.344
 4569SOL    HW114606   2.337   1.210   3.387
 4569SOL    HW214607   2.211   1.109   3.410
 4570SOL     OW14608   5.210   6.329   4.908
 4570SOL    HW114609   5.213   6.410   4.850
 4570SOL    HW214610   5.230   6.356   5.003
 4571SOL     OW14611   4.038   3.285   3.742
 4571SOL    HW114612   4.047   3.236   3.829
 4571SOL    HW214613   4.057   3.382   3.756
 4572SOL     OW14614   2.550   5.052   1.223
 4572SOL    HW114615   2.515   4.993   1.150
 4572SOL    HW214616   2.570   4.997   1.304
 4573SOL     OW14617   5.132   6.667   1.732
 4573SOL    HW114618   5.150   6.686   1.636
 4573SOL    HW214619   5.117   6.569   1.744
 4574SOL     OW14620   0.057   4.839   2.044
 4574SOL    HW114621   6.995   4.845   2.102
 4574SOL    HW214622   0.030   4.836   1.948
 4575SOL     OW14623   6.140   5.804   1.521
 4575SOL    HW114624   6.207   5.776   1.452
 4575SOL    HW214625   6.176   5.882   1.572
 4576SOL     OW14626   3.675   5.982   4.703
 4576SOL    HW114627   3.677   5.998   4.604
 4576SOL    HW214628   3.649   6.067   4.749
 4577SOL     OW14629   2.410   4.902   3.436
 4577SOL    HW114630   2.434   4.972   3.368
 4577SOL    HW214631   2.486   4.837   3.444
 4578SOL     OW14632   6.042   6.267   3.626
 4578SOL    HW114633   6.089   6.185   3.593
 4578SOL    HW214634   5.966   6.239   3.686
 4579SOL     OW14635   4.775   1.544   3.227
 4579SOL    HW114636   4.676   1.541   3.220
 4579SOL    HW214637   4.802   1.588   3.312
 4580SOL     OW14638   0.728   4.743   0.692
 4580SOL    HW114639   0.732   4.840   0.713
 4580SOL    HW214640   0.633   4.712   0.694
 4581SOL     OW14641   2.855   5.343   4.516
 4581SOL    HW114642   2.843   5.252   4.476
 4581SOL    HW214643   2.868   5.410   4.443
 4582SOL     OW14644   5.047   5.850   2.377
 4582SOL    HW114645   5.052   5.779   2.447
 4582SOL    HW214646   4.992   5.927   2.411
 4583SOL     OW14647   3.872   6.876   5.155
 4583SOL    HW114648   3.910   6.965   5.129
 4583SOL    HW214649   3.789   6.890   5.209
 4584SOL     OW14650   0.172   5.381   5.308
 4584SOL    HW114651   0.081   5.361   5.270
 4584SOL    HW214652   0.167   5.463   5.365
 4585SOL     OW14653   3.390   6.895   2.146
 4585SOL    HW114654   3.304   6.920   2.190
 4585SOL    HW214655   3.466   6.938   2.195
 4586SOL     OW14656   1.308   6.130   1.699
 4586SOL    HW114657   1.318   6.212   1.641
 4586SOL    HW214658   1.371   6.136   1.776
 4587SOL     OW14659   3.457   4.826   1.270
 4587SOL    HW114660   3.492   4.767   1.343
 4587SOL    HW214661   3.503   4.804   1.184
 4588SOL     OW14662   3.563   3.995   4.844
 4588SOL    HW114663   3.657   4.030   4.840
 4588SOL    HW214664   3.564   3.896   4.832
 4589SOL     OW14665   2.112   1.969   3.912
 4589SOL    HW114666   2.195   1.928   3.950
 4589SOL    HW214667   2.125   1.986   3.815
 4590SOL     OW14668   4.006   6.713   2.456
 4590SOL    HW114669   3.910   6.688   2.442
 4590SOL    HW214670   4.042   6.756   2.373
 4591SOL     OW14671   4.836   5.641   4.776
 4591SOL    HW114672   4.752   5.607   4.734
 4591SOL    HW214673   4.868   5.575   4.844
 4592SOL     OW14674   3.545   2.395   6.433
 4592SOL    HW114675   3.583   2.309   6.397
 4592SOL    HW214676   3.597   2.472   6.398
 4593SOL     OW14677   4.992   5.152   1.574
 4593SOL    HW114678   5.049   5.231   1.554
 4593SOL    HW214679   4.895   5.178   1.567
 4594SOL     OW14680   4.577   2.036   2.590
 4594SOL    HW114681   4.652   2.081   2.639
 4594SOL    HW214682   4.496   2.034   2.648
 4595SOL     OW14683   4.198   3.157   5.332
 4595SOL    HW114684   4.205   3.242   5.279
 4595SOL    HW214685   4.271   3.155   5.400
 4596SOL     OW14686   4.763   1.064   2.278
 4596SOL    HW114687   4.750   0.981   2.223
 4596SOL    HW214688   4.801   1.137   2.220
 4597SOL     OW14689   6.892   3.432   6.393
 4597SOL    HW114690   6.931   3.435   6.486
 4597SOL    HW214691   6.843   3.345   6.381
 4598SOL     OW14692   2.380   3.883   0.220
 4598SOL    HW114693   2.368   3.972   0.265
 4598SOL    HW214694   2.401   3.897   0.123
 4599SOL     OW14695   3.186   4.471   0.870
 4599SOL    HW114696   3.177   4.559   0.918
 4599SOL    HW214697   3.099   4.449   0.826
 4600SOL     OW14698   2.369   3.622   0.800
 4600SOL    HW114699   2.399   3.680   0.725
 4600SOL    HW214700   2.375   3.526   0.773
 4601SOL     OW14701   2.193   5.507   3.597
 4601SOL    HW114702   2.214   5.478   3.690
 4601SOL    HW214703   2.094   5.510   3.584
 4602SOL     OW14704   1.105   0.384   1.630
 4602SOL    HW114705   1.130   0.403   1.535
 4602SOL    HW214706   1.117   0.286   1.648
 4603SOL     OW14707   2.563   1.494   1.627
 4603SOL    HW114708   2.574   1.419   1.562
 4603SOL    HW214709   2.612   1.472   1.712
 4604SOL     OW14710   0.978   6.702   3.153
 4604SOL    HW114711   0.979   6.646   3.069
 4604SOL    HW214712   0.959   6.797   3.130
 4605SOL     OW14713   5.272   6.820   5.622
 4605SOL    HW114714   5.246   6.745   5.683
 4605SOL    HW214715   5.322   6.890   5.674
 4606SOL     OW14716   6.051   6.158   4.458
 4606SOL    HW114717   6.061   6.105   4.542
 4606SOL    HW214718   5.974   6.222   4.468
 4607SOL     OW14719   2.672   3.328   0.181
 4607SOL    HW114720   2.715   3.406   0.135
 4607SOL    HW214721   2.612   3.362   0.254
 4608SOL     OW14722   1.656   3.797   6.247
 4608SOL    HW114723   1.665   3.701   6.223
 4608SOL    HW214724   1.746   3.835   6.267
 4609SOL     OW14725   3.447   0.096   0.153
 4609SOL    HW114726   3.372   0.153   0.120
 4609SOL    HW214727   3.423   7.019   0.141
 4610SOL     OW14728   6.720   3.388   0.713
 4610SOL    HW114729   6.683   3.450   0.782
 4610SOL    HW214730   6.674   3.299   0.721
 4611SOL     OW14731   1.532   4.834   5.531
 4611SOL    HW114732   1.628   4.862   5.534
 4611SOL    HW214733   1.526   4.735   5.534
 4612SOL     OW14734   1.239   0.447   6.707
 4612SOL    HW114735   1.251   0.387   6.787
 4612SOL    HW214736   1.176   0.403   6.643
 4613SOL     OW14737   3.978   4.744   1.287
 4613SOL    HW114738   3.910   4.813   1.312
 4613SOL    HW214739   4.066   4.767   1.329
 4614SOL     OW14740   1.855   3.582   0.852
 4614SOL    HW114741   1.896   3.539   0.933
 4614SOL    HW214742   1.919   3.648   0.813
 4615SOL     OW14743   5.819   2.979   6.554
 4615SOL    HW114744   5.724   2.949   6.548
 4615SOL    HW214745   5.879   2.899   6.551
 4616SOL     OW14746   5.353   0.594   6.668
 4616SOL    HW114747   5.337   0.531   6.744
 4616SOL    HW214748   5.354   0.544   6.582
 4617SOL     OW14749   0.422   4.255   2.121
 4617SOL    HW114750   0.432   4.335   2.062
 4617SOL    HW214751   0.513   4.223   2.150
 4618SOL     OW14752   1.567   2.439   6.754
 4618SOL    HW114753   1.587   2.434   6.656
 4618SOL    HW214754   1.552   2.534   6.780
 4619SOL     OW14755   4.603   0.944   4.331
 4619SOL    HW114756   4.508   0.964   4.309
 4619SOL    HW214757   4.639   0.877   4.266
 4620SOL     OW14758   1.545   5.478   0.864
 4620SOL    HW114759   1.522   5.388   0.901
 4620SOL    HW214760   1.494   5.493   0.779
 4621SOL     OW14761   6.391   0.983   0.312
 4621SOL    HW114762   6.390   0.917   0.387
 4621SOL    HW214763   6.329   1.059   0.333
 4622SOL     OW14764   1.645   4.259   0.761
 4622SOL    HW114765   1.621   4.356   0.756
 4622SOL    HW214766   1.737   4.249   0.798
 4623SOL     OW14767   6.710   3.745   4.660
 4623SOL    HW114768   6.705   3.834   4.615
 4623SOL    HW214769   6.664   3.676   4.604
 4624SOL     OW14770   4.422   6.395   5.802
 4624SOL    HW114771   4.355   6.469   5.790
 4624SOL    HW214772   4.374   6.308   5.806
 4625SOL     OW14773   0.418   4.393   6.355
 4625SOL    HW114774   0.450   4.424   6.445
 4625SOL    HW214775   0.474   4.316   6.325
 4626SOL     OW14776   6.501   4.676   2.190
 4626SOL    HW114777   6.514   4.747   2.259
 4626SOL    HW214778   6.410   4.636   2.199
 4627SOL     OW14779   2.058   6.882   4.451
 4627SOL    HW114780   2.081   6.896   4.355
 4627SOL    HW214781   2.043   6.785   4.468
 4628SOL     OW14782   6.380   2.692   2.020
 4628SOL    HW114783   6.399   2.594   2.005
 4628SOL    HW214784   6.290   2.702   2.062
 4629SOL     OW14785   4.809   5.522   4.075
 4629SOL    HW114786   4.763   5.434   4.090
 4629SOL    HW214787   4.747   5.596   4.102
 4630SOL     OW14788   2.562   6.039   2.487
 4630SOL    HW114789   2.660   6.059   2.501
 4630SOL    HW214790   2.551   5.988   2.402
 4631SOL     OW14791   1.696   0.453   2.311
 4631SOL    HW114792   1.606   0.479   2.345
 4631SOL    HW214793   1.720   0.510   2.233
 4632SOL     OW14794   5.941   5.932   4.321
 4632SOL    HW114795   5.842   5.938   4.320
 4632SOL    HW214796   5.979   6.008   4.374
 4633SOL     OW14797   4.488   3.132   6.143
 4633SOL    HW114798   4.566   3.088   6.186
 4633SOL    HW214799   4.436   3.182   6.212
 4634SOL     OW14800   2.391   3.586   0.116
 4634SOL    HW114801   2.385   3.679   0.150
 4634SOL    HW214802   2.439   3.528   0.182
 4635SOL     OW14803   4.700   2.984   1.199
 4635SOL    HW114804   4.746   3.016   1.282
 4635SOL    HW214805   4.609   2.950   1.223
 4636SOL     OW14806   0.839   5.222   1.517
 4636SOL    HW114807   0.835   5.123   1.533
 4636SOL    HW214808   0.913   5.242   1.452
 4637SOL     OW14809   0.423   1.002   5.736
 4637SOL    HW114810   0.511   0.962   5.761
 4637SOL    HW214811   0.349   0.952   5.782
 4638SOL     OW14812   4.461   5.251   5.784
 4638SOL    HW114813   4.369   5.256   5.822
 4638SOL    HW214814   4.525   5.298   5.845
 4639SOL     OW14815   6.831   2.555   5.435
 4639SOL    HW114816   6.863   2.624   5.370
 4639SOL    HW214817   6.853   2.584   5.528
 4640SOL     OW14818   0.946   5.555   3.488
 4640SOL    HW114819   0.863   5.597   3.526
 4640SOL    HW214820   1.026   5.601   3.526
 4641SOL     OW14821   2.069   3.857   5.116
 4641SOL    HW114822   2.052   3.950   5.083
 4641SOL    HW214823   2.164   3.851   5.149
 4642SOL     OW14824   6.021   5.350   4.664
 4642SOL    HW114825   5.937   5.297   4.672
 4642SOL    HW214826   6.067   5.326   4.578
 4643SOL     OW14827   4.348   3.766   0.864
 4643SOL    HW114828   4.433   3.714   0.858
 4643SOL    HW214829   4.364   3.859   0.832
 4644SOL     OW14830   3.528   4.962   5.481
 4644SOL    HW114831   3.442   5.009   5.461
 4644SOL    HW214832   3.510   4.865   5.494
 4645SOL     OW14833   1.816   5.752   4.713
 4645SOL    HW114834   1.772   5.842   4.706
 4645SOL    HW214835   1.786   5.695   4.637
 4646SOL     OW14836   3.604   1.312   0.876
 4646SOL    HW114837   3.655   1.348   0.797
 4646SOL    HW214838   3.629   1.217   0.891
 4647SOL     OW14839   6.186   0.511   5.286
 4647SOL    HW114840   6.112   0.507   5.352
 4647SOL    HW214841   6.227   0.421   5.275
 4648SOL     OW14842   2.258   6.530   3.495
 4648SOL    HW114843   2.322   6.566   3.563
 4648SOL    HW214844   2.171   6.578   3.502
 4649SOL     OW14845   5.424   4.950   6.140
 4649SOL    HW114846   5.393   5.035   6.098
 4649SOL    HW214847   5.483   4.971   6.218
 4650SOL     OW14848   6.365   5.058   1.833
 4650SOL    HW114849   6.451   5.079   1.879
 4650SOL    HW214850   6.295   5.124   1.862
 4651SOL     OW14851   6.236   1.659   1.036
 4651SOL    HW114852   6.199   1.677   1.127
 4651SOL    HW214853   6.169   1.607   0.983
 4652SOL     OW14854   0.396   6.318   5.767
 4652SOL    HW114855   0.325   6.281   5.707
 4652SOL    HW214856   0.474   6.255   5.769
 4653SOL     OW14857   1.979   4.680   0.426
 4653SOL    HW114858   1.981   4.740   0.506
 4653SOL    HW214859   1.952   4.733   0.346
 4654SOL     OW14860   1.832   1.604   0.218
 4654SOL    HW114861   1.740   1.626   0.248
 4654SOL    HW214862   1.838   1.611   0.118
 4655SOL     OW14863   0.373   4.834   5.096
 4655SOL    HW114864   0.384   4.781   5.180
 4655SOL    HW214865   0.278   4.826   5.064
 4656SOL     OW14866   2.303   0.143   2.668
 4656SOL    HW114867   2.344   0.105   2.585
 4656SOL    HW214868   2.368   0.206   2.711
 4657SOL     OW14869   6.241   1.270   5.571
 4657SOL    HW114870   6.287   1.275   5.482
 4657SOL    HW214871   6.172   1.342   5.577
 4658SOL     OW14872   5.303   6.845   3.489
 4658SOL    HW114873   5.376   6.783   3.459
 4658SOL    HW214874   5.334   6.895   3.571
 4659SOL     OW14875   2.148   3.103   3.647
 4659SOL    HW114876   2.096   3.130   3.566
 4659SOL    HW214877   2.101   3.029   3.694
 4660SOL     OW14878   6.681   1.410   5.365
 4660SOL    HW114879   6.727   1.447   5.284
 4660SOL    HW214880   6.626   1.481   5.407
 4661SOL     OW14881   3.419   2.932   3.660
 4661SOL    HW114882   3.433   2.930   3.561
 4661SOL    HW214883   3.483   2.997   3.702
 4662SOL     OW14884   6.699   0.020   4.614
 4662SOL    HW114885   6.738   7.018   4.703
 4662SOL    HW214886   6.771   0.053   4.553
 4663SOL     OW14887   0.620   1.588   2.810
 4663SOL    HW114888   0.638   1.545   2.899
 4663SOL    HW214889   0.530   1.559   2.778
 4664SOL     OW14890   3.825   5.103   0.188
 4664SOL    HW114891   3.760   5.107   0.112
 4664SOL    HW214892   3.789   5.043   0.260
 4665SOL     OW14893   5.675   1.053   6.278
 4665SOL    HW114894   5.700   0.980   6.215
 4665SOL    HW214895   5.578   1.074   6.270
 4666SOL     OW14896   1.736   1.106   0.549
 4666SOL    HW114897   1.698   1.177   0.489
 4666SOL    HW214898   1.826   1.135   0.581
 4667SOL     OW14899   0.107   6.035   3.915
 4667SOL    HW114900   0.140   6.047   3.821
 4667SOL    HW214901   0.185   6.017   3.975
 4668SOL     OW14902   5.769   1.081   5.008
 4668SOL    HW114903   5.829   1.021   4.956
 4668SOL    HW214904   5.797   1.081   5.105
 4669SOL     OW14905   2.459   2.306   2.350
 4669SOL    HW114906   2.406   2.294   2.266
 4669SOL    HW214907   2.552   2.336   2.327
 4670SOL     OW14908   2.811   2.342   4.884
 4670SOL    HW114909   2.773   2.407   4.819
 4670SOL    HW214910   2.904   2.369   4.908
 4671SOL     OW14911   6.785   2.306   3.132
 4671SOL    HW114912   6.810   2.364   3.055
 4671SOL    HW214913   6.702   2.341   3.175
 4672SOL     OW14914   3.082   2.451   5.368
 4672SOL    HW114915   2.983   2.446   5.384
 4672SOL    HW214916   3.106   2.390   5.292
 4673SOL     OW14917   5.547   0.667   2.424
 4673SOL    HW114918   5.508   0.633   2.338
 4673SOL    HW214919   5.473   0.687   2.489
 4674SOL     OW14920   4.492   6.910   5.860
 4674SOL    HW114921   4.573   6.879   5.909
 4674SOL    HW214922   4.520   6.957   5.776
 4675SOL     OW14923   0.712   4.396   6.074
 4675SOL    HW114924   0.644   4.455   6.117
 4675SOL    HW214925   0.803   4.416   6.110
 4676SOL     OW14926   1.200   4.521   3.652
 4676SOL    HW114927   1.101   4.529   3.640
 4676SOL    HW214928   1.236   4.606   3.690
 4677SOL     OW14929   1.499   3.638   1.148
 4677SOL    HW114930   1.553   3.705   1.200
 4677SOL    HW214931   1.521   3.646   1.050
 4678SOL     OW14932   0.990   1.725   1.138
 4678SOL    HW114933   0.920   1.730   1.067
 4678SOL    HW214934   0.991   1.810   1.190
 4679SOL     OW14935   4.820   6.713   1.790
 4679SOL    HW114936   4.878   6.639   1.823
 4679SOL    HW214937   4.779   6.761   1.868
 4680SOL     OW14938   2.938   1.024   0.352
 4680SOL    HW114939   2.878   1.085   0.403
 4680SOL    HW214940   3.008   1.078   0.305
 4681SOL     OW14941   4.990   5.251   2.141
 4681SOL    HW114942   5.061   5.321   2.152
 4681SOL    HW214943   5.010   5.197   2.059
 4682SOL     OW14944   3.605   3.448   6.675
 4682SOL    HW114945   3.557   3.384   6.735
 4682SOL    HW214946   3.651   3.518   6.731
 4683SOL     OW14947   6.845   4.075   4.010
 4683SOL    HW114948   6.908   4.002   3.985
 4683SOL    HW214949   6.783   4.043   4.081
 4684SOL     OW14950   4.921   0.441   5.706
 4684SOL    HW114951   4.871   0.497   5.772
 4684SOL    HW214952   4.865   0.363   5.679
 4685SOL     OW14953   2.987   3.707   4.289
 4685SOL    HW114954   3.024   3.755   4.210
 4685SOL    HW214955   3.036   3.621   4.302
 4686SOL     OW14956   1.700   6.704   5.908
 4686SOL    HW114957   1.671   6.776   5.845
 4686SOL    HW214958   1.799   6.702   5.915
 4687SOL     OW14959   1.345   6.976   2.448
 4687SOL    HW114960   1.343   0.044   2.399
 4687SOL    HW214961   1.258   6.961   2.494
 4688SOL     OW14962   4.762   2.258   4.668
 4688SOL    HW114963   4.792   2.289   4.578
 4688SOL    HW214964   4.663   2.253   4.671
 4689SOL     OW14965   6.432   1.108   1.198
 4689SOL    HW114966   6.381   1.189   1.169
 4689SOL    HW214967   6.462   1.119   1.292
 4690SOL     OW14968   3.581   2.072   1.161
 4690SOL    HW114969   3.630   2.066   1.073
 4690SOL    HW214970   3.523   1.992   1.172
 4691SOL     OW14971   6.012   2.807   1.881
 4691SOL    HW114972   6.000   2.843   1.974
 4691SOL    HW214973   5.998   2.708   1.882
 4692SOL     OW14974   6.693   2.611   3.333
 4692SOL    HW114975   6.641   2.553   3.270
 4692SOL    HW214976   6.686   2.706   3.303
 4693SOL     OW14977   0.080   0.780   3.743
 4693SOL    HW114978   0.084   0.692   3.791
 4693SOL    HW214979   0.167   0.796   3.697
 4694SOL     OW14980   1.369   6.441   5.673
 4694SOL    HW114981   1.381   6.472   5.579
 4694SOL    HW214982   1.288   6.382   5.678
 4695SOL     OW14983   1.427   4.653   1.863
 4695SOL    HW114984   1.427   4.720   1.789
 4695SOL    HW214985   1.520   4.625   1.884
 4696SOL     OW14986   2.252   6.311   5.981
 4696SOL    HW114987   2.158   6.277   5.980
 4696SOL    HW214988   2.266   6.368   6.062
 4697SOL     OW14989   4.550   5.607   1.234
 4697SOL    HW114990   4.480   5.542   1.205
 4697SOL    HW214991   4.540   5.692   1.182
 4698SOL     OW14992   5.899   1.356   4.637
 4698SOL    HW114993   5.994   1.330   4.621
 4698SOL    HW214994   5.840   1.276   4.625
 4699SOL     OW14995   0.843   1.794   2.901
 4699SOL    HW114996   0.880   1.840   2.820
 4699SOL    HW214997   0.768   1.734   2.874
 4700SOL     OW14998   6.706   2.054   3.600
 4700SOL    HW114999   6.714   1.990   3.523
 4700SOL    HW215000   6.707   2.148   3.565
 4701SOL     OW15001   2.417   2.767   1.807
 4701SOL    HW115002   2.494   2.703   1.806
 4701SOL    HW215003   2.420   2.824   1.724
 4702SOL     OW15004   6.077   4.748   1.287
 4702SOL    HW115005   6.039   4.830   1.243
 4702SOL    HW215006   6.063   4.753   1.386
 4703SOL     OW15007   6.647   5.583   4.145
 4703SOL    HW115008   6.613   5.592   4.052
 4703SOL    HW215009   6.612   5.658   4.201
 4704SOL     OW15010   1.599   4.625   3.810
 4704SOL    HW115011   1.607   4.612   3.909
 4704SOL    HW215012   1.615   4.721   3.788
 4705SOL     OW15013   3.359   2.522   1.280
 4705SOL    HW115014   3.274   2.481   1.313
 4705SOL    HW215015   3.434   2.496   1.341
 4706SOL     OW15016   2.255   1.521   1.081
 4706SOL    HW115017   2.183   1.452   1.086
 4706SOL    HW215018   2.321   1.507   1.156
 4707SOL     OW15019   1.977   5.824   1.921
 4707SOL    HW115020   2.030   5.869   1.848
 4707SOL    HW215021   2.003   5.864   2.009
 4708SOL     OW15022   1.947   3.135   6.437
 4708SOL    HW115023   1.931   3.042   6.468
 4708SOL    HW215024   2.030   3.171   6.481
 4709SOL     OW15025   6.060   3.599   4.572
 4709SOL    HW115026   5.994   3.541   4.619
 4709SOL    HW215027   6.058   3.691   4.611
 4710SOL     OW15028   6.211   4.617   5.632
 4710SOL    HW115029   6.276   4.544   5.608
 4710SOL    HW215030   6.122   4.576   5.652
 4711SOL     OW15031   4.891   4.494   3.119
 4711SOL    HW115032   4.943   4.536   3.193
 4711SOL    HW215033   4.934   4.518   3.031
 4712SOL     OW15034   4.200   4.903   5.873
 4712SOL    HW115035   4.111   4.861   5.857
 4712SOL    HW215036   4.272   4.836   5.856
 4713SOL     OW15037   6.059   4.388   1.614
 4713SOL    HW115038   6.067   4.472   1.667
 4713SOL    HW215039   5.966   4.352   1.623
 4714SOL     OW15040   5.023   2.144   5.618
 4714SOL    HW115041   4.940   2.090   5.632
 4714SOL    HW215042   5.087   2.127   5.693
 4715SOL     OW15043   0.310   0.952   1.814
 4715SOL    HW115044   0.222   0.998   1.827
 4715SOL    HW215045   0.376   0.989   1.880
 4716SOL     OW15046   3.886   4.335   5.391
 4716SOL    HW115047   3.957   4.325   5.321
 4716SOL    HW215048   3.801   4.292   5.359
 4717SOL     OW15049   1.267   4.476   6.238
 4717SOL    HW115050   1.327   4.443   6.165
 4717SOL    HW215051   1.297   4.567   6.266
 4718SOL     OW15052   4.924   3.663   2.283
 4718SOL    HW115053   4.928   3.668   2.183
 4718SOL    HW215054   4.901   3.570   2.311
 4719SOL     OW15055   5.596   4.135   3.589
 4719SOL    HW115056   5.555   4.065   3.649
 4719SOL    HW215057   5.540   4.145   3.507
 4720SOL     OW15058   1.133   1.633   5.902
 4720SOL    HW115059   1.065   1.583   5.849
 4720SOL    HW215060   1.214   1.575   5.915
 4721SOL     OW15061   0.720   2.784   2.499
 4721SOL    HW115062   0.660   2.864   2.496
 4721SOL    HW215063   0.667   2.701   2.482
 4722SOL     OW15064   1.336   5.541   6.130
 4722SOL    HW115065   1.371   5.631   6.156
 4722SOL    HW215066   1.242   5.531   6.162
 4723SOL     OW15067   3.123   4.449   6.018
 4723SOL    HW115068   3.027   4.422   6.004
 4723SOL    HW215069   3.140   4.536   5.972
 4724SOL     OW15070   0.345   0.470   3.974
 4724SOL    HW115071   0.362   0.381   4.015
 4724SOL    HW215072   0.362   0.542   4.042
 4725SOL     OW15073   5.071   5.959   1.259
 4725SOL    HW115074   5.163   5.931   1.288
 4725SOL    HW215075   5.059   5.938   1.162
 4726SOL     OW15076   1.926   2.532   6.344
 4726SOL    HW115077   1.864   2.609   6.329
 4726SOL    HW215078   1.873   2.447   6.351
 4727SOL     OW15079   6.617   5.276   1.873
 4727SOL    HW115080   6.607   5.281   1.973
 4727SOL    HW215081   6.633   5.367   1.837
 4728SOL     OW15082   3.908   0.809   3.668
 4728SOL    HW115083   3.973   0.880   3.695
 4728SOL    HW215084   3.924   0.727   3.723
 4729SOL     OW15085   0.613   0.825   3.127
 4729SOL    HW115086   0.547   0.891   3.164
 4729SOL    HW215087   0.576   0.733   3.133
 4730SOL     OW15088   2.916   1.301   3.222
 4730SOL    HW115089   2.826   1.279   3.184
 4730SOL    HW215090   2.967   1.356   3.156
 4731SOL     OW15091   3.465   6.675   2.538
 4731SOL    HW115092   3.494   6.766   2.567
 4731SOL    HW215093   3.485   6.609   2.610
 4732SOL     OW15094   0.442   4.811   4.290
 4732SOL    HW115095   0.421   4.871   4.213
 4732SOL    HW215096   0.506   4.740   4.261
 4733SOL     OW15097   2.382   4.329   3.324
 4733SOL    HW115098   2.415   4.408   3.375
 4733SOL    HW215099   2.293   4.300   3.360
 4734SOL     OW15100   4.341   4.550   6.024
 4734SOL    HW115101   4.326   4.561   5.926
 4734SOL    HW215102   4.436   4.524   6.041
 4735SOL     OW15103   0.001   0.983   5.276
 4735SOL    HW115104   7.004   1.030   5.362
 4735SOL    HW215105   6.937   0.979   5.222
 4736SOL     OW15106   6.017   0.258   4.239
 4736SOL    HW115107   6.111   0.239   4.268
 4736SOL    HW215108   6.018   0.322   4.162
 4737SOL     OW15109   1.768   4.877   0.280
 4737SOL    HW115110   1.835   4.947   0.304
 4737SOL    HW215111   1.676   4.908   0.306
 4738SOL     OW15112   0.251   6.092   3.675
 4738SOL    HW115113   0.264   6.181   3.633
 4738SOL    HW215114   0.336   6.040   3.671
 4739SOL     OW15115   5.866   3.564   2.744
 4739SOL    HW115116   5.794   3.495   2.758
 4739SOL    HW215117   5.859   3.634   2.815
 4740SOL     OW15118   1.773   6.198   0.460
 4740SOL    HW115119   1.723   6.220   0.543
 4740SOL    HW215120   1.789   6.282   0.407
 4741SOL     OW15121   5.749   4.307   2.551
 4741SOL    HW115122   5.820   4.255   2.503
 4741SOL    HW215123   5.793   4.374   2.611
 4742SOL     OW15124   2.373   5.607   1.822
 4742SOL    HW115125   2.400   5.696   1.786
 4742SOL    HW215126   2.350   5.616   1.919
 4743SOL     OW15127   2.878   3.214   0.601
 4743SOL    HW115128   2.975   3.238   0.615
 4743SOL    HW215129   2.855   3.137   0.659
 4744SOL     OW15130   2.902   1.691   5.990
 4744SOL    HW115131   2.942   1.755   5.924
 4744SOL    HW215132   2.874   1.607   5.942
 4745SOL     OW15133   4.604   5.972   4.330
 4745SOL    HW115134   4.529   6.037   4.316
 4745SOL    HW215135   4.588   5.919   4.413
 4746SOL     OW15136   5.597   1.459   1.206
 4746SOL    HW115137   5.637   1.541   1.248
 4746SOL    HW215138   5.549   1.407   1.277
 4747SOL     OW15139   0.876   2.954   2.122
 4747SOL    HW115140   0.893   3.010   2.041
 4747SOL    HW215141   0.933   2.985   2.198
 4748SOL     OW15142   1.709   6.607   0.507
 4748SOL    HW115143   1.626   6.556   0.530
 4748SOL    HW215144   1.763   6.621   0.590
 4749SOL     OW15145   4.153   0.946   0.176
 4749SOL    HW115146   4.212   1.027   0.178
 4749SOL    HW215147   4.061   0.973   0.150
 4750SOL     OW15148   1.225   2.253   5.158
 4750SOL    HW115149   1.155   2.236   5.089
 4750SOL    HW215150   1.229   2.351   5.177
 4751SOL     OW15151   1.472   4.005   6.355
 4751SOL    HW115152   1.489   3.916   6.313
 4751SOL    HW215153   1.559   4.043   6.388
 4752SOL     OW15154   1.972   5.794   0.955
 4752SOL    HW115155   1.983   5.782   0.857
 4752SOL    HW215156   1.891   5.743   0.986
 4753SOL     OW15157   7.001   1.351   6.829
 4753SOL    HW115158   0.015   1.445   6.843
 4753SOL    HW215159   6.934   1.329   6.899
 4754SOL     OW15160   1.477   0.408   6.599
 4754SOL    HW115161   1.526   0.494   6.605
 4754SOL    HW215162   1.385   0.419   6.639
 4755SOL     OW15163   2.906   6.731   2.996
 4755SOL    HW115164   2.823   6.786   3.006
 4755SOL    HW215165   2.986   6.790   2.996
 4756SOL     OW15166   5.413   2.665   1.138
 4756SOL    HW115167   5.435   2.572   1.166
 4756SOL    HW215168   5.398   2.722   1.219
 4757SOL     OW15169   2.098   3.350   0.828
 4757SOL    HW115170   2.110   3.252   0.849
 4757SOL    HW215171   2.122   3.404   0.908
 4758SOL     OW15172   6.499   3.802   6.396
 4758SOL    HW115173   6.556   3.883   6.386
 4758SOL    HW215174   6.556   3.720   6.380
 4759SOL     OW15175   6.773   3.911   6.758
 4759SOL    HW115176   6.755   3.905   6.856
 4759SOL    HW215177   6.720   3.986   6.719
 4760SOL     OW15178   0.875   2.567   6.907
 4760SOL    HW115179   0.899   2.562   6.811
 4760SOL    HW215180   0.950   2.531   6.962
 4761SOL     OW15181   2.928   6.137   6.997
 4761SOL    HW115182   2.967   6.191   6.923
 4761SOL    HW215183   2.833   6.115   6.976
 4762SOL     OW15184   3.318   0.791   3.019
 4762SOL    HW115185   3.388   0.728   2.986
 4762SOL    HW215186   3.256   0.813   2.944
 4763SOL     OW15187   5.182   4.885   4.574
 4763SOL    HW115188   5.242   4.955   4.612
 4763SOL    HW215189   5.157   4.908   4.480
 4764SOL     OW15190   3.218   3.613   3.989
 4764SOL    HW115191   3.240   3.578   3.898
 4764SOL    HW215192   3.302   3.637   4.037
 4765SOL     OW15193   6.888   5.381   6.848
 4765SOL    HW115194   6.933   5.361   6.761
 4765SOL    HW215195   6.877   5.297   6.900
 4766SOL     OW15196   3.543   1.730   3.136
 4766SOL    HW115197   3.544   1.729   3.036
 4766SOL    HW215198   3.474   1.795   3.167
 4767SOL     OW15199   4.719   0.231   6.292
 4767SOL    HW115200   4.756   0.323   6.305
 4767SOL    HW215201   4.727   0.204   6.196
 4768SOL     OW15202   2.226   0.193   5.220
 4768SOL    HW115203   2.187   0.152   5.137
 4768SOL    HW215204   2.219   0.292   5.215
 4769SOL     OW15205   4.751   0.823   2.083
 4769SOL    HW115206   4.807   0.888   2.032
 4769SOL    HW215207   4.703   0.762   2.020
 4770SOL     OW15208   3.033   1.479   3.694
 4770SOL    HW115209   3.079   1.482   3.606
 4770SOL    HW215210   2.941   1.443   3.683
 4771SOL     OW15211   3.790   4.897   6.646
 4771SOL    HW115212   3.810   4.865   6.554
 4771SOL    HW215213   3.753   4.822   6.700
 4772SOL     OW15214   4.037   2.316   0.084
 4772SOL    HW115215   4.026   2.345   7.009
 4772SOL    HW215216   4.111   2.368   0.127
 4773SOL     OW15217   0.074   4.837   4.047
 4773SOL    HW115218   7.013   4.778   4.046
 4773SOL    HW215219   0.156   4.782   4.041
 4774SOL     OW15220   2.103   4.260   0.082
 4774SOL    HW115221   2.122   4.337   0.022
 4774SOL    HW215222   2.037   4.199   0.039
 4775SOL     OW15223   1.793   3.026   2.438
 4775SOL    HW115224   1.770   3.096   2.505
 4775SOL    HW215225   1.762   2.937   2.471
 4776SOL     OW15226   4.802   5.235   1.119
 4776SOL    HW115227   4.711   5.197   1.101
 4776SOL    HW215228   4.795   5.309   1.185
 4777SOL     OW15229   1.681   3.960   1.555
 4777SOL    HW115230   1.701   4.041   1.610
 4777SOL    HW215231   1.737   3.883   1.586
 4778SOL     OW15232   5.712   3.334   2.793
 4778SOL    HW115233   5.626   3.380   2.815
 4778SOL    HW215234   5.713   3.244   2.837
 4779SOL     OW15235   6.366   1.655   2.677
 4779SOL    HW115236   6.339   1.558   2.673
 4779SOL    HW215237   6.286   1.712   2.657
 4780SOL     OW15238   1.346   1.200   5.297
 4780SOL    HW115239   1.273   1.138   5.323
 4780SOL    HW215240   1.435   1.159   5.320
 4781SOL     OW15241   2.523   5.852   3.077
 4781SOL    HW115242   2.457   5.913   3.033
 4781SOL    HW215243   2.476   5.793   3.143
 4782SOL     OW15244   6.219   6.503   6.680
 4782SOL    HW115245   6.255   6.471   6.767
 4782SOL    HW215246   6.231   6.602   6.673
 4783SOL     OW15247   5.568   4.938   3.330
 4783SOL    HW115248   5.665   4.933   3.309
 4783SOL    HW215249   5.525   5.010   3.275
 4784SOL     OW15250   4.770   4.123   4.515
 4784SOL    HW115251   4.684   4.075   4.531
 4784SOL    HW215252   4.816   4.085   4.435
 4785SOL     OW15253   5.875   6.129   0.352
 4785SOL    HW115254   5.831   6.181   0.425
 4785SOL    HW215255   5.825   6.043   0.339
 4786SOL     OW15256   1.405   4.614   3.294
 4786SOL    HW115257   1.383   4.523   3.328
 4786SOL    HW215258   1.497   4.613   3.255
 4787SOL     OW15259   3.992   1.966   2.807
 4787SOL    HW115260   3.900   1.928   2.820
 4787SOL    HW215261   3.985   2.051   2.756
 4788SOL     OW15262   2.240   0.831   4.574
 4788SOL    HW115263   2.182   0.777   4.513
 4788SOL    HW215264   2.220   0.807   4.669
 4789SOL     OW15265   4.606   5.692   6.631
 4789SOL    HW115266   4.570   5.668   6.541
 4789SOL    HW215267   4.565   5.632   6.700
 4790SOL     OW15268   5.463   6.807   6.487
 4790SOL    HW115269   5.550   6.852   6.508
 4790SOL    HW215270   5.463   6.777   6.392
 4791SOL     OW15271   4.785   2.307   3.358
 4791SOL    HW115272   4.698   2.338   3.321
 4791SOL    HW215273   4.850   2.293   3.284
 4792SOL     OW15274   3.245   3.012   0.232
 4792SOL    HW115275   3.293   2.971   0.155
 4792SOL    HW215276   3.149   2.983   0.232
 4793SOL     OW15277   0.672   0.932   6.861
 4793SOL    HW115278   0.704   0.933   6.767
 4793SOL    HW215279   0.592   0.991   6.870
 4794SOL     OW15280   5.732   1.407   1.909
 4794SOL    HW115281   5.761   1.313   1.927
 4794SOL    HW215282   5.634   1.415   1.925
 4795SOL     OW15283   6.601   1.864   4.455
 4795SOL    HW115284   6.546   1.803   4.398
 4795SOL    HW215285   6.581   1.959   4.430
 4796SOL     OW15286   4.779   3.722   0.390
 4796SOL    HW115287   4.760   3.733   0.488
 4796SOL    HW215288   4.729   3.791   0.339
 4797SOL     OW15289   1.434   5.678   4.604
 4797SOL    HW115290   1.384   5.611   4.659
 4797SOL    HW215291   1.416   5.661   4.507
 4798SOL     OW15292   0.265   5.742   6.544
 4798SOL    HW115293   0.241   5.742   6.641
 4798SOL    HW215294   0.330   5.815   6.526
 4799SOL     OW15295   5.104   1.287   5.018
 4799SOL    HW115296   5.194   1.301   5.059
 4799SOL    HW215297   5.048   1.232   5.079
 4800SOL     OW15298   1.689   3.103   4.135
 4800SOL    HW115299   1.783   3.129   4.156
 4800SOL    HW215300   1.650   3.052   4.212
 4801SOL     OW15301   6.982   1.695   0.917
 4801SOL    HW115302   6.947   1.603   0.900
 4801SOL    HW215303   6.907   1.754   0.948
 4802SOL     OW15304   1.446   6.918   1.942
 4802SOL    HW115305   1.374   6.893   2.008
 4802SOL    HW215306   1.406   6.973   1.869
 4803SOL     OW15307   0.300   6.730   1.405
 4803SOL    HW115308   0.384   6.726   1.352
 4803SOL    HW215309   0.221   6.724   1.344
 4804SOL     OW15310   4.425   4.649   6.828
 4804SOL    HW115311   4.518   4.618   6.846
 4804SOL    HW215312   4.422   4.699   6.742
 4805SOL     OW15313   6.591   6.761   1.386
 4805SOL    HW115314   6.533   6.838   1.411
 4805SOL    HW215315   6.659   6.746   1.459
 4806SOL     OW15316   0.472   2.240   4.334
 4806SOL    HW115317   0.538   2.179   4.378
 4806SOL    HW215318   0.473   2.225   4.235
 4807SOL     OW15319   1.114   6.921   2.573
 4807SOL    HW115320   1.055   6.841   2.571
 4807SOL    HW215321   1.130   6.949   2.668
 4808SOL     OW15322   6.352   1.252   0.514
 4808SOL    HW115323   6.411   1.192   0.459
 4808SOL    HW215324   6.409   1.319   0.562
 4809SOL     OW15325   4.523   6.926   1.107
 4809SOL    HW115326   4.493   6.893   1.018
 4809SOL    HW215327   4.526   6.850   1.172
 4810SOL     OW15328   1.669   0.057   5.309
 4810SOL    HW115329   1.575   0.065   5.340
 4810SOL    HW215330   1.727   0.028   5.385
 4811SOL     OW15331   5.009   4.360   4.246
 4811SOL    HW115332   5.069   4.360   4.326
 4811SOL    HW215333   5.012   4.270   4.203
 4812SOL     OW15334   6.663   4.904   3.384
 4812SOL    HW115335   6.704   4.968   3.319
 4812SOL    HW215336   6.604   4.840   3.335
 4813SOL     OW15337   5.874   3.475   2.492
 4813SOL    HW115338   5.796   3.511   2.442
 4813SOL    HW215339   5.864   3.496   2.589
 4814SOL     OW15340   0.200   2.790   1.548
 4814SOL    HW115341   0.244   2.776   1.459
 4814SOL    HW215342   0.255   2.853   1.603
 4815SOL     OW15343   4.836   1.306   3.534
 4815SOL    HW115344   4.850   1.278   3.629
 4815SOL    HW215345   4.921   1.295   3.483
 4816SOL     OW15346   6.322   3.881   4.254
 4816SOL    HW115347   6.235   3.871   4.207
 4816SOL    HW215348   6.321   3.965   4.309
 4817SOL     OW15349   5.554   1.586   6.817
 4817SOL    HW115350   5.622   1.513   6.806
 4817SOL    HW215351   5.553   1.644   6.736
 4818SOL     OW15352   6.829   6.438   3.099
 4818SOL    HW115353   6.846   6.397   3.188
 4818SOL    HW215354   6.914   6.475   3.062
 4819SOL     OW15355   0.796   2.773   0.865
 4819SOL    HW115356   0.722   2.787   0.800
 4819SOL    HW215357   0.847   2.858   0.876
 4820SOL     OW15358   5.945   3.130   1.898
 4820SOL    HW115359   5.982   3.038   1.907
 4820SOL    HW215360   5.882   3.133   1.820
 4821SOL     OW15361   0.169   5.619   3.517
 4821SOL    HW115362   0.252   5.655   3.473
 4821SOL    HW215363   0.163   5.655   3.610
 4822SOL     OW15364   3.294   5.839   4.727
 4822SOL    HW115365   3.286   5.915   4.662
 4822SOL    HW215366   3.262   5.868   4.817
 4823SOL     OW15367   1.194   1.695   0.412
 4823SOL    HW115368   1.173   1.617   0.353
 4823SOL    HW215369   1.247   1.763   0.362
 4824SOL     OW15370   6.361   2.047   6.878
 4824SOL    HW115371   6.275   2.007   6.848
 4824SOL    HW215372   6.402   1.989   6.948
 4825SOL     OW15373   1.175   5.576   3.648
 4825SOL    HW115374   1.207   5.483   3.629
 4825SOL    HW215375   1.239   5.622   3.709
 4826SOL     OW15376   4.481   6.551   0.493
 4826SOL    HW115377   4.434   6.600   0.419
 4826SOL    HW215378   4.449   6.585   0.581
 4827SOL     OW15379   5.451   1.194   2.031
 4827SOL    HW115380   5.452   1.262   1.957
 4827SOL    HW215381   5.490   1.234   2.114
 4828SOL     OW15382   5.409   1.390   6.154
 4828SOL    HW115383   5.448   1.301   6.130
 4828SOL    HW215384   5.481   1.449   6.192
 4829SOL     OW15385   4.599   5.701   5.183
 4829SOL    HW115386   4.586   5.795   5.149
 4829SOL    HW215387   4.656   5.703   5.265
 4830SOL     OW15388   1.739   6.583   2.909
 4830SOL    HW115389   1.769   6.495   2.873
 4830SOL    HW215390   1.746   6.653   2.837
 4831SOL     OW15391   2.511   4.485   6.040
 4831SOL    HW115392   2.473   4.484   6.132
 4831SOL    HW215393   2.524   4.391   6.008
 4832SOL     OW15394   3.805   3.575   3.631
 4832SOL    HW115395   3.900   3.602   3.618
 4832SOL    HW215396   3.756   3.582   3.543
 4833SOL     OW15397   5.697   2.434   5.264
 4833SOL    HW115398   5.759   2.374   5.214
 4833SOL    HW215399   5.623   2.464   5.203
 4834SOL     OW15400   1.160   3.904   1.108
 4834SOL    HW115401   1.120   3.813   1.104
 4834SOL    HW215402   1.259   3.898   1.097
 4835SOL     OW15403   0.944   3.764   6.354
 4835SOL    HW115404   0.941   3.668   6.328
 4835SOL    HW215405   1.003   3.814   6.290
 4836SOL     OW15406   3.872   0.175   5.653
 4836SOL    HW115407   3.838   0.118   5.578
 4836SOL    HW215408   3.850   0.130   5.740
 4837SOL     OW15409   1.728   3.717   4.455
 4837SOL    HW115410   1.769   3.752   4.371
 4837SOL    HW215411   1.770   3.630   4.479
 4838SOL     OW15412   1.468   4.644   6.577
 4838SOL    HW115413   1.406   4.681   6.646
 4838SOL    HW215414   1.438   4.552   6.550
 4839SOL     OW15415   2.906   1.004   2.067
 4839SOL    HW115416   2.915   0.936   2.140
 4839SOL    HW215417   2.828   0.980   2.009
 4840SOL     OW15418   5.420   2.256   3.693
 4840SOL    HW115419   5.426   2.326   3.764
 4840SOL    HW215420   5.511   2.239   3.655
 4841SOL     OW15421   2.921   5.153   3.389
 4841SOL    HW115422   3.015   5.179   3.411
 4841SOL    HW215423   2.914   5.054   3.383
 4842SOL     OW15424   4.086   5.047   3.655
 4842SOL    HW115425   4.025   5.035   3.577
 4842SOL    HW215426   4.079   4.967   3.716
 4843SOL     OW15427   5.978   2.478   6.653
 4843SOL    HW115428   5.951   2.569   6.622
 4843SOL    HW215429   6.049   2.442   6.593
 4844SOL     OW15430   0.959   4.824   6.551
 4844SOL    HW115431   0.907   4.824   6.637
 4844SOL    HW215432   1.055   4.842   6.570
 4845SOL     OW15433   5.779   4.380   5.563
 4845SOL    HW115434   5.681   4.380   5.581
 4845SOL    HW215435   5.795   4.406   5.467
 4846SOL     OW15436   6.081   3.811   4.156
 4846SOL    HW115437   6.065   3.722   4.198
 4846SOL    HW215438   6.091   3.799   4.057
 4847SOL     OW15439   1.909   6.882   6.414
 4847SOL    HW115440   1.979   6.872   6.485
 4847SOL    HW215441   1.953   6.899   6.326
 4848SOL     OW15442   5.136   1.318   3.413
 4848SOL    HW115443   5.209   1.266   3.458
 4848SOL    HW215444   5.150   1.416   3.429
 4849SOL     OW15445   1.063   5.535   1.476
 4849SOL    HW115446   1.077   5.629   1.446
 4849SOL    HW215447   1.085   5.527   1.573
 4850SOL     OW15448   3.401   0.274   2.327
 4850SOL    HW115449   3.332   0.216   2.371
 4850SOL    HW215450   3.491   0.252   2.364
 4851SOL     OW15451   4.725   4.548   6.787
 4851SOL    HW115452   4.809   4.550   6.733
 4851SOL    HW215453   4.732   4.613   6.863
 4852SOL     OW15454   4.193   4.245   5.942
 4852SOL    HW115455   4.115   4.224   6.000
 4852SOL    HW215456   4.182   4.202   5.853
 4853SOL     OW15457   4.438   0.368   2.324
 4853SOL    HW115458   4.504   0.359   2.399
 4853SOL    HW215459   4.486   0.386   2.239
 4854SOL     OW15460   3.710   6.941   1.706
 4854SOL    HW115461   3.748   6.853   1.678
 4854SOL    HW215462   3.651   6.928   1.786
 4855SOL     OW15463   4.275   4.998   5.610
 4855SOL    HW115464   4.245   4.903   5.603
 4855SOL    HW215465   4.226   5.054   5.542
 4856SOL     OW15466   0.693   2.948   3.326
 4856SOL    HW115467   0.766   3.008   3.293
 4856SOL    HW215468   0.607   2.999   3.330
 4857SOL     OW15469   2.546   1.129   5.815
 4857SOL    HW115470   2.567   1.131   5.717
 4857SOL    HW215471   2.623   1.087   5.864
 4858SOL     OW15472   2.835   5.495   5.262
 4858SOL    HW115473   2.787   5.410   5.282
 4858SOL    HW215474   2.931   5.476   5.246
 4859SOL     OW15475   0.091   5.564   3.149
 4859SOL    HW115476   0.184   5.532   3.169
 4859SOL    HW215477   0.063   5.631   3.218
 4860SOL     OW15478   3.762   5.495   0.605
 4860SOL    HW115479   3.794   5.405   0.578
 4860SOL    HW215480   3.681   5.486   0.663
 4861SOL     OW15481   4.899   5.042   4.559
 4861SOL    HW115482   4.974   5.005   4.615
 4861SOL    HW215483   4.811   5.014   4.598
 4862SOL     OW15484   1.593   5.149   3.875
 4862SOL    HW115485   1.671   5.205   3.846
 4862SOL    HW215486   1.524   5.207   3.917
 4863SOL     OW15487   5.833   1.471   2.168
 4863SOL    HW115488   5.892   1.396   2.135
 4863SOL    HW215489   5.794   1.518   2.089
 4864SOL     OW15490   2.582   3.095   1.646
 4864SOL    HW115491   2.636   3.147   1.580
 4864SOL    HW215492   2.557   3.006   1.608
 4865SOL     OW15493   3.468   0.057   4.943
 4865SOL    HW115494   3.532   0.042   4.868
 4865SOL    HW215495   3.423   0.146   4.931
 4866SOL     OW15496   1.277   4.952   1.640
 4866SOL    HW115497   1.269   4.903   1.554
 4866SOL    HW215498   1.271   5.051   1.623
 4867SOL     OW15499   5.713   4.680   6.145
 4867SOL    HW115500   5.633   4.619   6.144
 4867SOL    HW215501   5.788   4.636   6.195
 4868SOL     OW15502   1.631   6.032   2.147
 4868SOL    HW115503   1.683   6.112   2.117
 4868SOL    HW215504   1.652   5.954   2.089
 4869SOL     OW15505   0.790   1.921   1.725
 4869SOL    HW115506   0.751   1.831   1.709
 4869SOL    HW215507   0.828   1.925   1.817
 4870SOL     OW15508   6.012   1.479   1.850
 4870SOL    HW115509   6.000   1.419   1.930
 4870SOL    HW215510   5.990   1.428   1.767
 4871SOL     OW15511   1.558   2.282   5.692
 4871SOL    HW115512   1.462   2.307   5.703
 4871SOL    HW215513   1.608   2.357   5.649
 4872SOL     OW15514   2.316   2.644   2.910
 4872SOL    HW115515   2.393   2.609   2.964
 4872SOL    HW215516   2.231   2.607   2.947
 4873SOL     OW15517   1.111   6.582   5.692
 4873SOL    HW115518   1.077   6.494   5.657
 4873SOL    HW215519   1.188   6.565   5.753
 4874SOL     OW15520   6.264   1.868   4.625
 4874SOL    HW115521   6.268   1.968   4.623
 4874SOL    HW215522   6.353   1.830   4.602
 4875SOL     OW15523   0.212   3.281   0.761
 4875SOL    HW115524   0.244   3.361   0.811
 4875SOL    HW215525   0.216   3.200   0.820
 4876SOL     OW15526   6.709   1.306   6.967
 4876SOL    HW115527   6.640   1.276   6.901
 4876SOL    HW215528   6.755   1.226   7.005
 4877SOL     OW15529   4.364   2.170   2.292
 4877SOL    HW115530   4.403   2.108   2.224
 4877SOL    HW215531   4.295   2.121   2.345
 4878SOL     OW15532   1.271   2.554   2.860
 4878SOL    HW115533   1.313   2.548   2.769
 4878SOL    HW215534   1.322   2.496   2.924
 4879SOL     OW15535   3.226   6.513   2.739
 4879SOL    HW115536   3.205   6.592   2.680
 4879SOL    HW215537   3.217   6.540   2.835
 4880SOL     OW15538   0.055   2.427   6.274
 4880SOL    HW115539   0.073   2.494   6.203
 4880SOL    HW215540   0.117   2.348   6.263
 4881SOL     OW15541   3.078   6.569   5.828
 4881SOL    HW115542   2.981   6.552   5.816
 4881SOL    HW215543   3.097   6.592   5.923
 4882SOL     OW15544   5.412   6.237   6.533
 4882SOL    HW115545   5.430   6.320   6.481
 4882SOL    HW215546   5.399   6.160   6.471
 4883SOL     OW15547   6.212   5.675   0.094
 4883SOL    HW115548   6.113   5.678   0.080
 4883SOL    HW215549   6.243   5.761   0.132
 4884SOL     OW15550   4.357   6.217   2.099
 4884SOL    HW115551   4.331   6.312   2.079
 4884SOL    HW215552   4.435   6.217   2.162
 4885SOL     OW15553   0.745   0.074   1.809
 4885SOL    HW115554   0.786   7.003   1.813
 4885SOL    HW215555   0.664   0.071   1.751
 4886SOL     OW15556   6.009   1.411   5.569
 4886SOL    HW115557   5.971   1.385   5.658
 4886SOL    HW215558   5.950   1.377   5.496
 4887SOL     OW15559   0.230   2.796   5.690
 4887SOL    HW115560   0.281   2.710   5.686
 4887SOL    HW215561   0.254   2.852   5.610
 4888SOL     OW15562   4.873   5.788   0.875
 4888SOL    HW115563   4.944   5.754   0.814
 4888SOL    HW215564   4.816   5.712   0.905
 4889SOL     OW15565   1.288   3.148   6.033
 4889SOL    HW115566   1.213   3.106   5.982
 4889SOL    HW215567   1.372   3.097   6.016
 4890SOL     OW15568   6.070   0.410   4.022
 4890SOL    HW115569   6.167   0.429   4.003
 4890SOL    HW215570   6.017   0.417   3.938
 4891SOL     OW15571   0.483   5.001   0.673
 4891SOL    HW115572   0.449   5.095   0.677
 4891SOL    HW215573   0.427   4.943   0.732
 4892SOL     OW15574   1.992   5.529   1.816
 4892SOL    HW115575   1.904   5.516   1.770
 4892SOL    HW215576   1.993   5.619   1.860
 4893SOL     OW15577   6.864   4.308   6.815
 4893SOL    HW115578   6.779   4.267   6.782
 4893SOL    HW215579   6.942   4.254   6.781
 4894SOL     OW15580   0.067   0.016   3.439
 4894SOL    HW115581   0.116   6.987   3.367
 4894SOL    HW215582   0.127   0.028   3.518
 4895SOL     OW15583   6.531   3.724   6.757
 4895SOL    HW115584   6.599   3.684   6.696
 4895SOL    HW215585   6.574   3.747   6.845
 4896SOL     OW15586   4.340   1.510   5.438
 4896SOL    HW115587   4.415   1.569   5.406
 4896SOL    HW215588   4.361   1.415   5.415
 4897SOL     OW15589   2.714   5.777   0.389
 4897SOL    HW115590   2.759   5.689   0.375
 4897SOL    HW215591   2.716   5.830   0.304
 4898SOL     OW15592   4.747   2.797   4.520
 4898SOL    HW115593   4.748   2.895   4.502
 4898SOL    HW215594   4.816   2.752   4.464
 4899SOL     OW15595   0.514   3.243   4.295
 4899SOL    HW115596   0.540   3.151   4.326
 4899SOL    HW215597   0.415   3.248   4.284
 4900SOL     OW15598   0.125   6.529   6.338
 4900SOL    HW115599   0.125   6.525   6.438
 4900SOL    HW215600   0.173   6.611   6.308
 4901SOL     OW15601   6.369   6.479   2.947
 4901SOL    HW115602   6.360   6.574   2.979
 4901SOL    HW215603   6.420   6.478   2.861
 4902SOL     OW15604   3.074   6.115   0.219
 4902SOL    HW115605   3.011   6.155   0.152
 4902SOL    HW215606   3.110   6.028   0.183
 4903SOL     OW15607   5.974   4.662   6.673
 4903SOL    HW115608   6.033   4.582   6.662
 4903SOL    HW215609   5.982   4.720   6.593
 4904SOL     OW15610   2.895   0.941   3.639
 4904SOL    HW115611   2.917   1.019   3.698
 4904SOL    HW215612   2.942   0.859   3.673
 4905SOL     OW15613   5.892   4.352   3.167
 4905SOL    HW115614   5.792   4.345   3.171
 4905SOL    HW215615   5.924   4.321   3.078
 4906SOL     OW15616   5.445   0.510   1.815
 4906SOL    HW115617   5.415   0.560   1.896
 4906SOL    HW215618   5.473   0.418   1.842
 4907SOL     OW15619   3.127   2.608   1.156
 4907SOL    HW115620   3.223   2.586   1.175
 4907SOL    HW215621   3.075   2.523   1.145
 4908SOL     OW15622   5.161   4.428   6.085
 4908SOL    HW115623   5.179   4.490   6.161
 4908SOL    HW215624   5.081   4.372   6.105
 4909SOL     OW15625   6.211   6.724   5.399
 4909SOL    HW115626   6.138   6.698   5.335
 4909SOL    HW215627   6.249   6.812   5.371
 4910SOL     OW15628   5.244   0.008   5.229
 4910SOL    HW115629   5.216   6.991   5.140
 4910SOL    HW215630   5.342   7.014   5.243
 4911SOL     OW15631   0.136   3.694   0.126
 4911SOL    HW115632   0.086   3.745   0.056
 4911SOL    HW215633   0.217   3.746   0.153
 4912SOL     OW15634   1.395   3.018   1.719
 4912SOL    HW115635   1.322   2.963   1.680
 4912SOL    HW215636   1.433   2.971   1.798
 4913SOL     OW15637   2.857   3.442   1.978
 4913SOL    HW115638   2.877   3.412   2.071
 4913SOL    HW215639   2.848   3.542   1.976
 4914SOL     OW15640   1.299   0.097   2.821
 4914SOL    HW115641   1.251   0.010   2.829
 4914SOL    HW215642   1.362   0.093   2.743
 4915SOL     OW15643   4.181   6.675   3.719
 4915SOL    HW115644   4.201   6.765   3.681
 4915SOL    HW215645   4.264   6.619   3.718
 4916SOL     OW15646   1.709   1.439   1.755
 4916SOL    HW115647   1.664   1.355   1.786
 4916SOL    HW215648   1.769   1.418   1.678
 4917SOL     OW15649   0.797   5.691   6.820
 4917SOL    HW115650   0.732   5.728   6.886
 4917SOL    HW215651   0.759   5.700   6.728
 4918SOL     OW15652   2.385   6.409   3.856
 4918SOL    HW115653   2.297   6.370   3.883
 4918SOL    HW215654   2.369   6.487   3.795
 4919SOL     OW15655   2.418   2.793   1.221
 4919SOL    HW115656   2.350   2.815   1.291
 4919SOL    HW215657   2.455   2.702   1.240
 4920SOL     OW15658   4.078   2.298   6.288
 4920SOL    HW115659   4.124   2.344   6.212
 4920SOL    HW215660   4.036   2.366   6.348
 4921SOL     OW15661   6.546   4.565   1.831
 4921SOL    HW115662   6.586   4.509   1.904
 4921SOL    HW215663   6.506   4.648   1.870
 4922SOL     OW15664   1.648   3.720   5.850
 4922SOL    HW115665   1.645   3.665   5.933
 4922SOL    HW215666   1.569   3.780   5.847
 4923SOL     OW15667   3.769   1.956   0.240
 4923SOL    HW115668   3.847   1.919   0.189
 4923SOL    HW215669   3.799   2.036   0.292
 4924SOL     OW15670   1.174   3.064   4.459
 4924SOL    HW115671   1.262   3.059   4.412
 4924SOL    HW215672   1.149   3.160   4.473
 4925SOL     OW15673   5.038   4.994   4.918
 4925SOL    HW115674   5.034   5.091   4.894
 4925SOL    HW215675   4.953   4.967   4.963
 4926SOL     OW15676   4.275   3.499   0.601
 4926SOL    HW115677   4.306   3.428   0.663
 4926SOL    HW215678   4.185   3.474   0.564
 4927SOL     OW15679   2.957   3.145   2.183
 4927SOL    HW115680   2.979   3.158   2.086
 4927SOL    HW215681   2.939   3.048   2.200
 4928SOL     OW15682   6.808   1.829   5.958
 4928SOL    HW115683   6.793   1.730   5.956
 4928SOL    HW215684   6.794   1.863   6.051
 4929SOL     OW15685   1.361   4.425   3.989
 4929SOL    HW115686   1.334   4.354   4.053
 4929SOL    HW215687   1.387   4.383   3.902
 4930SOL     OW15688   0.755   3.186   0.346
 4930SOL    HW115689   0.803   3.188   0.433
 4930SOL    HW215690   0.697   3.267   0.338
 4931SOL     OW15691   5.461   6.865   0.710
 4931SOL    HW115692   5.559   6.850   0.705
 4931SOL    HW215693   5.425   6.881   0.618
 4932SOL     OW15694   2.937   1.979   0.874
 4932SOL    HW115695   2.896   1.975   0.783
 4932SOL    HW215696   2.874   2.025   0.937
 4933SOL     OW15697   2.533   0.051   4.571
 4933SOL    HW115698   2.596   0.050   4.494
 4933SOL    HW215699   2.584   0.066   4.656
 4934SOL     OW15700   1.701   6.250   5.453
 4934SOL    HW115701   1.715   6.329   5.513
 4934SOL    HW215702   1.751   6.263   5.368
 4935SOL     OW15703   0.931   2.614   1.061
 4935SOL    HW115704   0.863   2.660   1.004
 4935SOL    HW215705   0.960   2.529   1.017
 4936SOL     OW15706   6.506   3.710   1.410
 4936SOL    HW115707   6.533   3.623   1.451
 4936SOL    HW215708   6.415   3.735   1.443
 4937SOL     OW15709   0.898   3.736   5.166
 4937SOL    HW115710   0.833   3.665   5.194
 4937SOL    HW215711   0.974   3.739   5.232
 4938SOL     OW15712   2.951   3.828   0.963
 4938SOL    HW115713   2.990   3.736   0.962
 4938SOL    HW215714   2.851   3.822   0.958
 4939SOL     OW15715   0.959   1.299   1.684
 4939SOL    HW115716   1.048   1.322   1.723
 4939SOL    HW215717   0.972   1.235   1.608
 4940SOL     OW15718   1.929   1.698   5.190
 4940SOL    HW115719   1.956   1.779   5.138
 4940SOL    HW215720   1.932   1.618   5.130
 4941SOL     OW15721   3.265   2.110   6.145
 4941SOL    HW115722   3.236   2.075   6.234
 4941SOL    HW215723   3.354   2.071   6.122
 4942SOL     OW15724   0.550   0.808   2.689
 4942SOL    HW115725   0.608   0.859   2.753
 4942SOL    HW215726   0.512   0.872   2.621
 4943SOL     OW15727   5.378   2.039   6.927
 4943SOL    HW115728   5.379   2.110   6.856
 4943SOL    HW215729   5.470   2.005   6.942
 4944SOL     OW15730   1.344   4.440   0.330
 4944SOL    HW115731   1.348   4.410   0.425
 4944SOL    HW215732   1.257   4.413   0.289
 4945SOL     OW15733   2.781   0.367   6.765
 4945SOL    HW115734   2.690   0.352   6.728
 4945SOL    HW215735   2.783   0.454   6.814
 4946SOL     OW15736   2.043   6.134   6.870
 4946SOL    HW115737   1.990   6.158   6.951
 4946SOL    HW215738   2.102   6.056   6.891
 4947SOL     OW15739   1.166   6.923   1.091
 4947SOL    HW115740   1.226   7.003   1.085
 4947SOL    HW215741   1.148   6.903   1.188
 4948SOL     OW15742   1.534   3.567   2.190
 4948SOL    HW115743   1.522   3.646   2.131
 4948SOL    HW215744   1.555   3.486   2.134
 4949SOL     OW15745   6.256   5.002   6.578
 4949SOL    HW115746   6.232   4.984   6.674
 4949SOL    HW215747   6.355   4.992   6.566
 4950SOL     OW15748   3.972   3.943   5.958
 4950SOL    HW115749   3.895   4.006   5.954
 4950SOL    HW215750   4.000   3.931   6.053
 4951SOL     OW15751   4.413   5.232   3.627
 4951SOL    HW115752   4.495   5.276   3.663
 4951SOL    HW215753   4.417   5.134   3.647
 4952SOL     OW15754   0.708   0.567   6.299
 4952SOL    HW115755   0.804   0.541   6.291
 4952SOL    HW215756   0.657   0.530   6.221
 4953SOL     OW15757   0.986   1.138   5.822
 4953SOL    HW115758   1.037   1.194   5.888
 4953SOL    HW215759   0.910   1.191   5.785
 4954SOL     OW15760   3.373   3.720   5.669
 4954SOL    HW115761   3.327   3.692   5.585
 4954SOL    HW215762   3.311   3.705   5.747
 4955SOL     OW15763   3.919   6.201   0.060
 4955SOL    HW115764   3.904   6.240   0.151
 4955SOL    HW215765   3.974   6.265   0.006
 4956SOL     OW15766   2.379   0.276   3.378
 4956SOL    HW115767   2.428   0.326   3.449
 4956SOL    HW215768   2.290   0.245   3.414
 4957SOL     OW15769   6.048   5.651   0.375
 4957SOL    HW115770   6.068   5.699   0.290
 4957SOL    HW215771   6.107   5.571   0.384
 4958SOL     OW15772   2.895   5.186   0.681
 4958SOL    HW115773   2.990   5.161   0.663
 4958SOL    HW215774   2.890   5.240   0.765
 4959SOL     OW15775   2.189   1.258   2.417
 4959SOL    HW115776   2.154   1.351   2.429
 4959SOL    HW215777   2.112   1.195   2.408
 4960SOL     OW15778   5.383   4.207   4.702
 4960SOL    HW115779   5.307   4.144   4.688
 4960SOL    HW215780   5.458   4.184   4.640
 4961SOL     OW15781   4.045   3.564   2.596
 4961SOL    HW115782   3.960   3.617   2.597
 4961SOL    HW215783   4.043   3.498   2.671
 4962SOL     OW15784   1.524   2.707   0.700
 4962SOL    HW115785   1.541   2.787   0.757
 4962SOL    HW215786   1.451   2.728   0.635
 4963SOL     OW15787   0.619   3.764   6.725
 4963SOL    HW115788   0.523   3.777   6.750
 4963SOL    HW215789   0.658   3.851   6.695
 4964SOL     OW15790   1.568   5.184   3.441
 4964SOL    HW115791   1.501   5.155   3.374
 4964SOL    HW215792   1.534   5.264   3.490
 4965SOL     OW15793   2.449   6.990   2.897
 4965SOL    HW115794   2.430   0.054   2.847
 4965SOL    HW215795   2.371   6.968   2.956
 4966SOL     OW15796   4.128   6.768   5.513
 4966SOL    HW115797   4.129   6.740   5.417
 4966SOL    HW215798   4.137   6.868   5.519
 4967SOL     OW15799   4.402   4.695   3.059
 4967SOL    HW115800   4.372   4.674   3.152
 4967SOL    HW215801   4.500   4.677   3.050
 4968SOL     OW15802   6.622   2.987   3.503
 4968SOL    HW115803   6.671   3.067   3.469
 4968SOL    HW215804   6.556   2.956   3.435
 4969SOL     OW15805   1.484   5.587   3.829
 4969SOL    HW115806   1.459   5.662   3.890
 4969SOL    HW215807   1.561   5.536   3.868
 4970SOL     OW15808   2.647   0.674   0.668
 4970SOL    HW115809   2.735   0.639   0.636
 4970SOL    HW215810   2.584   0.598   0.684
 4971SOL     OW15811   0.545   6.051   2.277
 4971SOL    HW115812   0.577   6.135   2.319
 4971SOL    HW215813   0.610   5.977   2.295
 4972SOL     OW15814   0.606   3.426   0.908
 4972SOL    HW115815   0.540   3.473   0.967
 4972SOL    HW215816   0.647   3.350   0.957
 4973SOL     OW15817   5.270   2.598   0.351
 4973SOL    HW115818   5.299   2.505   0.330
 4973SOL    HW215819   5.330   2.663   0.305
 4974SOL     OW15820   3.192   0.475   5.411
 4974SOL    HW115821   3.275   0.456   5.463
 4974SOL    HW215822   3.210   0.458   5.314
 4975SOL     OW15823   6.289   4.057   1.145
 4975SOL    HW115824   6.233   4.059   1.062
 4975SOL    HW215825   6.292   4.148   1.186
 4976SOL     OW15826   1.739   0.074   4.038
 4976SOL    HW115827   1.674   0.142   4.072
 4976SOL    HW215828   1.787   0.112   3.958
 4977SOL     OW15829   1.491   3.760   4.234
 4977SOL    HW115830   1.434   3.683   4.262
 4977SOL    HW215831   1.485   3.833   4.303
 4978SOL     OW15832   6.457   5.313   4.634
 4978SOL    HW115833   6.518   5.392   4.629
 4978SOL    HW215834   6.374   5.337   4.685
 4979SOL     OW15835   3.259   0.009   5.728
 4979SOL    HW115836   3.269   0.005   5.628
 4979SOL    HW215837   3.338   6.984   5.770
 4980SOL     OW15838   5.957   2.804   4.362
 4980SOL    HW115839   5.931   2.780   4.269
 4980SOL    HW215840   5.941   2.902   4.377
 4981SOL     OW15841   3.051   6.920   2.604
 4981SOL    HW115842   3.098   6.836   2.577
 4981SOL    HW215843   2.952   6.906   2.597
 4982SOL     OW15844   3.569   2.031   5.257
 4982SOL    HW115845   3.505   2.106   5.273
 4982SOL    HW215846   3.648   2.042   5.317
 4983SOL     OW15847   5.229   3.754   3.083
 4983SOL    HW115848   5.234   3.853   3.072
 4983SOL    HW215849   5.316   3.721   3.121
 4984SOL     OW15850   4.984   3.818   5.150
 4984SOL    HW115851   4.947   3.911   5.147
 4984SOL    HW215852   4.926   3.758   5.095
 4985SOL     OW15853   4.653   0.354   2.467
 4985SOL    HW115854   4.712   0.389   2.395
 4985SOL    HW215855   4.666   0.409   2.550
 4986SOL     OW15856   1.331   5.632   1.307
 4986SOL    HW115857   1.367   5.613   1.216
 4986SOL    HW215858   1.286   5.551   1.343
 4987SOL     OW15859   2.143   4.129   2.062
 4987SOL    HW115860   2.163   4.178   1.977
 4987SOL    HW215861   2.083   4.185   2.119
 4988SOL     OW15862   6.452   4.868   4.045
 4988SOL    HW115863   6.522   4.932   4.076
 4988SOL    HW215864   6.400   4.834   4.123
 4989SOL     OW15865   6.841   0.327   4.546
 4989SOL    HW115866   6.760   0.375   4.512
 4989SOL    HW215867   6.856   0.244   4.492
 4990SOL     OW15868   4.519   1.303   6.020
 4990SOL    HW115869   4.580   1.304   5.940
 4990SOL    HW215870   4.573   1.290   6.103
 4991SOL     OW15871   2.206   5.206   5.355
 4991SOL    HW115872   2.217   5.306   5.349
 4991SOL    HW215873   2.296   5.163   5.356
 4992SOL     OW15874   3.117   2.709   5.393
 4992SOL    HW115875   3.109   2.612   5.372
 4992SOL    HW215876   3.042   2.737   5.453
 4993SOL     OW15877   2.483   5.111   3.666
 4993SOL    HW115878   2.438   5.130   3.578
 4993SOL    HW215879   2.565   5.056   3.650
 4994SOL     OW15880   3.502   4.774   6.060
 4994SOL    HW115881   3.490   4.729   5.972
 4994SOL    HW215882   3.414   4.810   6.092
 4995SOL     OW15883   0.419   2.148   6.286
 4995SOL    HW115884   0.353   2.117   6.354
 4995SOL    HW215885   0.435   2.075   6.219
 4996SOL     OW15886   0.066   0.815   4.710
 4996SOL    HW115887   0.163   0.791   4.711
 4996SOL    HW215888   0.042   0.860   4.796
 4997SOL     OW15889   3.593   1.764   0.949
 4997SOL    HW115890   3.543   1.678   0.940
 4997SOL    HW215891   3.563   1.812   1.032
 4998SOL     OW15892   1.051   4.158   3.275
 4998SOL    HW115893   1.057   4.122   3.368
 4998SOL    HW215894   1.122   4.117   3.218
 4999SOL     OW15895   6.699   2.861   3.195
 4999SOL    HW115896   6.783   2.813   3.171
 4999SOL    HW215897   6.711   2.959   3.178
 5000SOL     OW15898   2.302   6.478   2.596
 5000SOL    HW115899   2.215   6.456   2.639
 5000SOL    HW215900   2.332   6.569   2.625
 5001SOL     OW15901   0.279   6.262   3.211
 5001SOL    HW115902   0.338   6.340   3.193
 5001SOL    HW215903   0.300   6.188   3.148
 5002SOL     OW15904   1.365   5.282   3.948
 5002SOL    HW115905   1.341   5.261   3.853
 5002SOL    HW215906   1.299   5.346   3.986
 5003SOL     OW15907   4.048   1.574   1.267
 5003SOL    HW115908   4.011   1.624   1.345
 5003SOL    HW215909   4.142   1.548   1.285
 5004SOL     OW15910   3.646   5.923   0.486
 5004SOL    HW115911   3.706   5.936   0.565
 5004SOL    HW215912   3.630   6.012   0.441
 5005SOL     OW15913   4.694   3.007   0.828
 5005SOL    HW115914   4.638   2.959   0.896
 5005SOL    HW215915   4.676   2.969   0.737
 5006SOL     OW15916   4.581   1.083   2.484
 5006SOL    HW115917   4.507   1.030   2.443
 5006SOL    HW215918   4.652   1.101   2.415
 5007SOL     OW15919   6.827   5.397   3.099
 5007SOL    HW115920   6.924   5.418   3.092
 5007SOL    HW215921   6.814   5.321   3.164
 5008SOL     OW15922   4.247   0.299   3.869
 5008SOL    HW115923   4.238   0.370   3.938
 5008SOL    HW215924   4.209   0.332   3.782
 5009SOL     OW15925   1.003   1.714   6.140
 5009SOL    HW115926   1.065   1.751   6.209
 5009SOL    HW215927   1.051   1.705   6.052
 5010SOL     OW15928   5.449   4.636   1.030
 5010SOL    HW115929   5.424   4.540   1.019
 5010SOL    HW215930   5.527   4.657   0.971
 5011SOL     OW15931   1.627   2.051   5.852
 5011SOL    HW115932   1.648   1.971   5.797
 5011SOL    HW215933   1.611   2.130   5.792
 5012SOL     OW15934   5.550   2.724   5.524
 5012SOL    HW115935   5.572   2.713   5.427
 5012SOL    HW215936   5.481   2.656   5.550
 5013SOL     OW15937   6.261   6.028   5.667
 5013SOL    HW115938   6.263   6.097   5.740
 5013SOL    HW215939   6.344   5.972   5.672
 5014SOL     OW15940   6.376   3.028   0.375
 5014SOL    HW115941   6.373   3.003   0.472
 5014SOL    HW215942   6.401   2.948   0.321
 5015SOL     OW15943   6.569   4.927   4.746
 5015SOL    HW115944   6.536   4.960   4.658
 5015SOL    HW215945   6.628   4.996   4.788
 5016SOL     OW15946   1.264   1.970   6.677
 5016SOL    HW115947   1.344   1.911   6.682
 5016SOL    HW215948   1.250   2.000   6.583
 5017SOL     OW15949   1.228   2.613   2.040
 5017SOL    HW115950   1.308   2.616   2.101
 5017SOL    HW215951   1.233   2.532   1.983
 5018SOL     OW15952   0.451   0.366   0.691
 5018SOL    HW115953   0.394   0.398   0.767
 5018SOL    HW215954   0.535   0.420   0.686
 5019SOL     OW15955   1.957   4.149   4.095
 5019SOL    HW115956   1.908   4.222   4.143
 5019SOL    HW215957   1.948   4.064   4.146
 5020SOL     OW15958   1.674   0.248   2.553
 5020SOL    HW115959   1.729   0.331   2.562
 5020SOL    HW215960   1.590   0.257   2.608
 5021SOL     OW15961   2.577   0.536   1.200
 5021SOL    HW115962   2.546   0.629   1.182
 5021SOL    HW215963   2.589   0.488   1.113
 5022SOL     OW15964   0.213   3.439   1.647
 5022SOL    HW115965   0.134   3.478   1.601
 5022SOL    HW215966   0.297   3.480   1.611
 5023SOL     OW15967   0.447   2.050   3.328
 5023SOL    HW115968   0.534   2.093   3.354
 5023SOL    HW215969   0.371   2.100   3.371
 5024SOL     OW15970   4.286   3.962   0.245
 5024SOL    HW115971   4.332   4.045   0.275
 5024SOL    HW215972   4.324   3.883   0.293
 5025SOL     OW15973   4.313   2.073   4.419
 5025SOL    HW115974   4.258   2.133   4.362
 5025SOL    HW215975   4.271   2.065   4.510
 5026SOL     OW15976   5.286   6.067   4.890
 5026SOL    HW115977   5.262   6.162   4.912
 5026SOL    HW215978   5.204   6.018   4.860
 5027SOL     OW15979   5.511   6.384   1.480
 5027SOL    HW115980   5.552   6.413   1.394
 5027SOL    HW215981   5.566   6.419   1.557
 5028SOL     OW15982   0.365   2.175   2.578
 5028SOL    HW115983   0.420   2.094   2.597
 5028SOL    HW215984   0.392   2.249   2.639
 5029SOL     OW15985   6.074   2.889   3.124
 5029SOL    HW115986   5.989   2.890   3.071
 5029SOL    HW215987   6.056   2.854   3.216
 5030SOL     OW15988   0.603   3.056   0.921
 5030SOL    HW115989   0.511   3.087   0.947
 5030SOL    HW215990   0.595   2.977   0.860
 5031SOL     OW15991   5.917   0.653   6.395
 5031SOL    HW115992   5.941   0.694   6.307
 5031SOL    HW215993   5.960   0.705   6.469
 5032SOL     OW15994   1.986   4.450   6.483
 5032SOL    HW115995   2.045   4.474   6.405
 5032SOL    HW215996   1.958   4.532   6.531
 5033SOL     OW15997   2.231   6.870   3.874
 5033SOL    HW115998   2.151   6.897   3.820
 5033SOL    HW215999   2.202   6.817   3.953
 5034SOL     OW16000   4.199   6.114   3.593
 5034SOL    HW116001   4.273   6.066   3.545
 5034SOL    HW216002   4.111   6.074   3.568
 5035SOL     OW16003   1.993   4.173   3.830
 5035SOL    HW116004   1.966   4.165   3.926
 5035SOL    HW216005   1.959   4.094   3.780
 5036SOL     OW16006   1.401   2.779   4.384
 5036SOL    HW116007   1.326   2.785   4.449
 5036SOL    HW216008   1.448   2.692   4.394
 5037SOL     OW16009   5.256   4.672   1.470
 5037SOL    HW116010   5.251   4.629   1.560
 5037SOL    HW216011   5.203   4.757   1.471
 5038SOL     OW16012   2.895   3.853   4.874
 5038SOL    HW116013   2.901   3.754   4.889
 5038SOL    HW216014   2.890   3.900   4.963
 5039SOL     OW16015   0.327   2.817   6.481
 5039SOL    HW116016   0.292   2.743   6.539
 5039SOL    HW216017   0.356   2.894   6.538
 5040SOL     OW16018   1.064   1.371   5.053
 5040SOL    HW116019   1.137   1.351   4.987
 5040SOL    HW216020   1.004   1.292   5.061
 5041SOL     OW16021   6.482   2.416   1.292
 5041SOL    HW116022   6.501   2.450   1.384
 5041SOL    HW216023   6.566   2.377   1.254
 5042SOL     OW16024   1.042   1.602   5.510
 5042SOL    HW116025   1.043   1.699   5.486
 5042SOL    HW216026   1.131   1.576   5.549
 5043SOL     OW16027   2.295   0.197   1.412
 5043SOL    HW116028   2.334   0.148   1.334
 5043SOL    HW216029   2.353   0.275   1.434
 5044SOL     OW16030   6.918   6.040   1.183
 5044SOL    HW116031   6.828   6.075   1.157
 5044SOL    HW216032   6.958   5.991   1.106
 5045SOL     OW16033   5.854   2.721   2.451
 5045SOL    HW116034   5.945   2.727   2.410
 5045SOL    HW216035   5.827   2.810   2.485
 5046SOL     OW16036   4.304   3.150   1.758
 5046SOL    HW116037   4.234   3.124   1.824
 5046SOL    HW216038   4.324   3.248   1.767
 5047SOL     OW16039   2.295   4.698   3.599
 5047SOL    HW116040   2.363   4.625   3.611
 5047SOL    HW216041   2.340   4.778   3.558
 5048SOL     OW16042   1.655   6.819   5.532
 5048SOL    HW116043   1.746   6.822   5.574
 5048SOL    HW216044   1.586   6.835   5.602
 5049SOL     OW16045   3.998   1.773   6.432
 5049SOL    HW116046   3.935   1.700   6.460
 5049SOL    HW216047   3.976   1.857   6.480
 5050SOL     OW16048   1.188   0.194   0.910
 5050SOL    HW116049   1.138   0.153   0.834
 5050SOL    HW216050   1.260   0.133   0.941
 5051SOL     OW16051   4.224   4.066   1.029
 5051SOL    HW116052   4.227   4.148   1.086
 5051SOL    HW216053   4.195   3.988   1.084
 5052SOL     OW16054   1.856   3.833   4.249
 5052SOL    HW116055   1.846   3.822   4.150
 5052SOL    HW216056   1.796   3.907   4.280
 5053SOL     OW16057   6.996   0.945   0.415
 5053SOL    HW116058   6.972   0.869   0.354
 5053SOL    HW216059   0.028   1.014   0.364
 5054SOL     OW16060   4.078   5.459   3.092
 5054SOL    HW116061   4.092   5.504   3.181
 5054SOL    HW216062   4.166   5.425   3.058
 5055SOL     OW16063   5.983   4.488   5.688
 5055SOL    HW116064   5.905   4.435   5.655
 5055SOL    HW216065   6.039   4.430   5.749
 5056SOL     OW16066   6.734   5.134   3.162
 5056SOL    HW116067   6.777   5.138   3.252
 5056SOL    HW216068   6.639   5.165   3.170
 5057SOL     OW16069   6.756   6.547   2.579
 5057SOL    HW116070   6.789   6.600   2.658
 5057SOL    HW216071   6.828   6.487   2.546
 5058SOL     OW16072   2.704   5.707   5.744
 5058SOL    HW116073   2.661   5.793   5.773
 5058SOL    HW216074   2.753   5.723   5.658
 5059SOL     OW16075   6.503   6.487   2.699
 5059SOL    HW116076   6.580   6.522   2.646
 5059SOL    HW216077   6.421   6.485   2.642
 5060SOL     OW16078   6.721   2.927   0.191
 5060SOL    HW116079   6.662   3.008   0.196
 5060SOL    HW216080   6.778   2.932   0.109
 5061SOL     OW16081   5.638   3.307   0.828
 5061SOL    HW116082   5.647   3.392   0.777
 5061SOL    HW216083   5.542   3.287   0.844
 5062SOL     OW16084   6.624   0.290   6.757
 5062SOL    HW116085   6.658   0.244   6.674
 5062SOL    HW216086   6.598   0.384   6.734
 5063SOL     OW16087   1.129   6.373   2.394
 5063SOL    HW116088   1.140   6.411   2.302
 5063SOL    HW216089   1.123   6.448   2.461
 5064SOL     OW16090   5.169   4.518   6.901
 5064SOL    HW116091   5.152   4.424   6.874
 5064SOL    HW216092   5.236   4.559   6.839
 5065SOL     OW16093   1.913   6.843   5.647
 5065SOL    HW116094   1.941   6.896   5.727
 5065SOL    HW216095   1.970   6.760   5.641
 5066SOL     OW16096   5.096   4.825   0.393
 5066SOL    HW116097   5.114   4.861   0.301
 5066SOL    HW216098   5.006   4.855   0.423
 5067SOL     OW16099   5.457   1.037   6.617
 5067SOL    HW116100   5.499   1.127   6.629
 5067SOL    HW216101   5.401   1.037   6.535
 5068SOL     OW16102   3.377   5.217   1.625
 5068SOL    HW116103   3.452   5.152   1.636
 5068SOL    HW216104   3.293   5.178   1.662
 5069SOL     OW16105   0.199   5.290   2.981
 5069SOL    HW116106   0.193   5.304   3.080
 5069SOL    HW216107   0.251   5.207   2.962
 5070SOL     OW16108   5.293   2.332   3.406
 5070SOL    HW116109   5.354   2.324   3.328
 5070SOL    HW216110   5.337   2.294   3.487
 5071SOL     OW16111   5.134   1.282   1.975
 5071SOL    HW116112   5.220   1.237   1.999
 5071SOL    HW216113   5.081   1.221   1.916
 5072SOL     OW16114   0.874   4.050   2.429
 5072SOL    HW116115   0.844   3.992   2.353
 5072SOL    HW216116   0.916   3.994   2.500
 5073SOL     OW16117   4.489   2.462   3.450
 5073SOL    HW116118   4.503   2.503   3.360
 5073SOL    HW216119   4.429   2.383   3.441
 5074SOL     OW16120   4.070   3.490   5.046
 5074SOL    HW116121   4.020   3.524   5.125
 5074SOL    HW216122   4.090   3.566   4.984
 5075SOL     OW16123   6.512   0.225   4.159
 5075SOL    HW116124   6.565   0.305   4.129
 5075SOL    HW216125   6.460   0.188   4.081
 5076SOL     OW16126   5.322   0.405   0.202
 5076SOL    HW116127   5.321   0.503   0.185
 5076SOL    HW216128   5.299   0.386   0.297
 5077SOL     OW16129   0.207   1.322   2.701
 5077SOL    HW116130   0.126   1.322   2.642
 5077SOL    HW216131   0.189   1.266   2.782
 5078SOL     OW16132   0.435   2.006   4.774
 5078SOL    HW116133   0.432   1.918   4.822
 5078SOL    HW216134   0.404   1.994   4.680
 5079SOL     OW16135   5.016   5.270   4.811
 5079SOL    HW116136   4.977   5.308   4.895
 5079SOL    HW216137   4.967   5.305   4.732
 5080SOL     OW16138   4.683   0.284   5.689
 5080SOL    HW116139   4.693   0.185   5.681
 5080SOL    HW216140   4.628   0.305   5.770
 5081SOL     OW16141   2.979   3.513   3.077
 5081SOL    HW116142   2.957   3.530   3.173
 5081SOL    HW216143   3.009   3.598   3.034
 5082SOL     OW16144   1.084   1.635   5.098
 5082SOL    HW116145   1.092   1.535   5.090
 5082SOL    HW216146   1.156   1.678   5.044
 5083SOL     OW16147   0.979   3.507   2.485
 5083SOL    HW116148   0.885   3.497   2.516
 5083SOL    HW216149   1.011   3.600   2.502
 5084SOL     OW16150   1.544   5.616   2.522
 5084SOL    HW116151   1.471   5.662   2.472
 5084SOL    HW216152   1.570   5.533   2.473
 5085SOL     OW16153   6.876   2.598   0.832
 5085SOL    HW116154   6.922   2.639   0.911
 5085SOL    HW216155   6.816   2.524   0.864
 5086SOL     OW16156   6.576   4.693   5.050
 5086SOL    HW116157   6.671   4.711   5.025
 5086SOL    HW216158   6.546   4.608   5.006
 5087SOL     OW16159   5.479   5.320   5.788
 5087SOL    HW116160   5.577   5.339   5.789
 5087SOL    HW216161   5.461   5.237   5.736
 5088SOL     OW16162   5.775   1.400   6.588
 5088SOL    HW116163   5.873   1.398   6.607
 5088SOL    HW216164   5.758   1.356   6.500
 5089SOL     OW16165   5.437   2.840   4.287
 5089SOL    HW116166   5.387   2.884   4.362
 5089SOL    HW216167   5.424   2.741   4.293
 5090SOL     OW16168   1.003   4.736   0.108
 5090SOL    HW116169   0.982   4.670   0.036
 5090SOL    HW216170   0.999   4.690   0.197
 5091SOL     OW16171   0.728   5.886   3.967
 5091SOL    HW116172   0.827   5.884   3.954
 5091SOL    HW216173   0.704   5.969   4.018
 5092SOL     OW16174   3.546   2.976   0.521
 5092SOL    HW116175   3.585   3.038   0.453
 5092SOL    HW216176   3.470   2.926   0.479
 5093SOL     OW16177   0.815   0.939   2.477
 5093SOL    HW116178   0.740   0.893   2.430
 5093SOL    HW216179   0.786   0.963   2.570
 5094SOL     OW16180   1.071   6.988   6.112
 5094SOL    HW116181   1.082   0.005   6.020
 5094SOL    HW216182   0.987   0.004   6.152
 5095SOL     OW16183   3.202   6.588   4.673
 5095SOL    HW116184   3.257   6.647   4.614
 5095SOL    HW216185   3.231   6.493   4.663
 5096SOL     OW16186   3.346   6.030   2.167
 5096SOL    HW116187   3.348   5.969   2.087
 5096SOL    HW216188   3.384   5.982   2.246
 5097SOL     OW16189   0.886   2.129   6.799
 5097SOL    HW116190   0.880   2.185   6.716
 5097SOL    HW216191   0.862   2.185   6.878
 5098SOL     OW16192   1.497   2.887   2.805
 5098SOL    HW116193   1.554   2.968   2.820
 5098SOL    HW216194   1.413   2.895   2.859
 5099SOL     OW16195   0.932   1.600   4.414
 5099SOL    HW116196   0.860   1.533   4.393
 5099SOL    HW216197   0.890   1.680   4.457
 5100SOL     OW16198   4.908   4.643   5.221
 5100SOL    HW116199   4.936   4.732   5.257
 5100SOL    HW216200   4.897   4.578   5.296
 5101SOL     OW16201   5.708   6.221   0.521
 5101SOL    HW116202   5.619   6.202   0.480
 5101SOL    HW216203   5.710   6.186   0.615
 5102SOL     OW16204   3.764   5.883   3.349
 5102SOL    HW116205   3.735   5.969   3.306
 5102SOL    HW216206   3.823   5.832   3.286
 5103SOL     OW16207   1.898   2.222   3.713
 5103SOL    HW116208   1.876   2.134   3.754
 5103SOL    HW216209   1.944   2.280   3.780
 5104SOL     OW16210   0.980   0.388   0.768
 5104SOL    HW116211   1.025   0.306   0.732
 5104SOL    HW216212   0.926   0.364   0.848
 5105SOL     OW16213   1.511   3.394   0.538
 5105SOL    HW116214   1.476   3.304   0.512
 5105SOL    HW216215   1.548   3.389   0.631
 5106SOL     OW16216   2.175   6.695   1.824
 5106SOL    HW116217   2.262   6.713   1.869
 5106SOL    HW216218   2.105   6.677   1.893
 5107SOL     OW16219   1.495   0.011   5.942
 5107SOL    HW116220   1.457   7.005   6.031
 5107SOL    HW216221   1.576   0.067   5.955
 5108SOL     OW16222   4.039   3.439   4.619
 5108SOL    HW116223   4.014   3.525   4.662
 5108SOL    HW216224   4.049   3.368   4.690
 5109SOL     OW16225   0.912   2.302   2.224
 5109SOL    HW116226   0.883   2.265   2.136
 5109SOL    HW216227   0.952   2.393   2.210
 5110SOL     OW16228   1.343   5.999   5.211
 5110SOL    HW116229   1.440   5.995   5.237
 5110SOL    HW216230   1.294   5.924   5.253
 5111SOL     OW16231   1.138   0.972   6.682
 5111SOL    HW116232   1.083   1.031   6.742
 5111SOL    HW216233   1.097   0.881   6.680
 5112SOL     OW16234   0.465   7.006   3.472
 5112SOL    HW116235   0.421   0.054   3.413
 5112SOL    HW216236   0.551   6.975   3.430
 5113SOL     OW16237   0.570   1.943   6.534
 5113SOL    HW116238   0.574   1.998   6.617
 5113SOL    HW216239   0.605   1.996   6.457
 5114SOL     OW16240   5.175   4.916   6.589
 5114SOL    HW116241   5.118   4.844   6.549
 5114SOL    HW216242   5.123   5.002   6.592
 5115SOL     OW16243   2.671   3.894   5.289
 5115SOL    HW116244   2.651   3.796   5.294
 5115SOL    HW216245   2.596   3.941   5.243
 5116SOL     OW16246   6.736   4.195   1.525
 5116SOL    HW116247   6.721   4.109   1.477
 5116SOL    HW216248   6.650   4.229   1.561
 5117SOL     OW16249   2.564   5.922   2.233
 5117SOL    HW116250   2.494   5.982   2.195
 5117SOL    HW216251   2.612   5.875   2.158
 5118SOL     OW16252   4.428   6.891   1.600
 5118SOL    HW116253   4.415   6.948   1.519
 5118SOL    HW216254   4.412   6.945   1.682
 5119SOL     OW16255   6.563   1.100   3.317
 5119SOL    HW116256   6.640   1.037   3.322
 5119SOL    HW216257   6.576   1.164   3.241
 5120SOL     OW16258   3.669   1.364   1.176
 5120SOL    HW116259   3.761   1.327   1.192
 5120SOL    HW216260   3.656   1.382   1.078
 5121SOL     OW16261   0.914   3.866   4.376
 5121SOL    HW116262   0.941   3.886   4.470
 5121SOL    HW216263   0.995   3.861   4.318
 5122SOL     OW16264   2.728   5.760   2.910
 5122SOL    HW116265   2.745   5.666   2.941
 5122SOL    HW216266   2.653   5.799   2.964
 5123SOL     OW16267   6.359   3.083   1.955
 5123SOL    HW116268   6.403   3.004   1.912
 5123SOL    HW216269   6.409   3.107   2.038
 5124SOL     OW16270   3.448   6.749   6.721
 5124SOL    HW116271   3.420   6.793   6.636
 5124SOL    HW216272   3.367   6.720   6.772
 5125SOL     OW16273   0.889   2.057   6.315
 5125SOL    HW116274   0.956   2.053   6.241
 5125SOL    HW216275   0.893   1.972   6.368
 5126SOL     OW16276   3.995   1.386   0.427
 5126SOL    HW116277   4.081   1.431   0.452
 5126SOL    HW216278   3.918   1.438   0.464
 5127SOL     OW16279   4.748   3.679   5.730
 5127SOL    HW116280   4.830   3.626   5.750
 5127SOL    HW216281   4.669   3.618   5.728
 5128SOL     OW16282   0.526   0.600   0.040
 5128SOL    HW116283   0.480   0.565   6.978
 5128SOL    HW216284   0.485   0.687   0.067
 5129SOL     OW16285   4.526   2.569   4.275
 5129SOL    HW116286   4.596   2.603   4.212
 5129SOL    HW216287   4.560   2.575   4.369
 5130SOL     OW16288   1.715   6.596   4.754
 5130SOL    HW116289   1.637   6.642   4.711
 5130SOL    HW216290   1.759   6.537   4.687
 5131SOL     OW16291   3.646   5.034   2.814
 5131SOL    HW116292   3.622   4.991   2.727
 5131SOL    HW216293   3.568   5.031   2.876
 5132SOL     OW16294   3.500   1.679   6.292
 5132SOL    HW116295   3.586   1.711   6.331
 5132SOL    HW216296   3.466   1.601   6.344
 5133SOL     OW16297   2.687   3.985   6.364
 5133SOL    HW116298   2.622   3.933   6.309
 5133SOL    HW216299   2.767   4.007   6.309
 5134SOL     OW16300   5.330   5.993   1.642
 5134SOL    HW116301   5.371   5.908   1.610
 5134SOL    HW216302   5.397   6.067   1.634
 5135SOL     OW16303   1.286   2.653   2.357
 5135SOL    HW116304   1.188   2.640   2.347
 5135SOL    HW216305   1.307   2.750   2.363
 5136SOL     OW16306   0.119   0.261   5.230
 5136SOL    HW116307   0.184   0.206   5.178
 5136SOL    HW216308   0.113   0.352   5.189
 5137SOL     OW16309   5.461   0.933   3.413
 5137SOL    HW116310   5.403   0.994   3.358
 5137SOL    HW216311   5.528   0.889   3.353
 5138SOL     OW16312   3.438   3.741   2.752
 5138SOL    HW116313   3.479   3.801   2.683
 5138SOL    HW216314   3.503   3.671   2.780
 5139SOL     OW16315   5.301   0.690   4.861
 5139SOL    HW116316   5.204   0.710   4.872
 5139SOL    HW216317   5.332   0.631   4.936
 5140SOL     OW16318   2.803   3.438   5.347
 5140SOL    HW116319   2.849   3.463   5.432
 5140SOL    HW216320   2.741   3.361   5.364
 5141SOL     OW16321   0.879   2.457   1.876
 5141SOL    HW116322   0.780   2.459   1.885
 5141SOL    HW216323   0.906   2.378   1.821
 5142SOL     OW16324   6.875   6.283   2.801
 5142SOL    HW116325   6.896   6.206   2.861
 5142SOL    HW216326   6.830   6.355   2.854
 5143SOL     OW16327   5.945   5.734   2.480
 5143SOL    HW116328   5.978   5.693   2.395
 5143SOL    HW216329   6.017   5.728   2.549
 5144SOL     OW16330   1.514   2.655   5.159
 5144SOL    HW116331   1.432   2.711   5.175
 5144SOL    HW216332   1.590   2.692   5.213
 5145SOL     OW16333   0.993   5.173   6.485
 5145SOL    HW116334   1.053   5.106   6.529
 5145SOL    HW216335   1.045   5.256   6.466
 5146SOL     OW16336   5.294   5.780   6.511
 5146SOL    HW116337   5.367   5.763   6.578
 5146SOL    HW216338   5.332   5.778   6.419
 5147SOL     OW16339   3.805   1.002   3.459
 5147SOL    HW116340   3.863   0.928   3.494
 5147SOL    HW216341   3.816   1.009   3.360
 5148SOL     OW16342   6.265   1.202   0.848
 5148SOL    HW116343   6.247   1.280   0.788
 5148SOL    HW216344   6.351   1.159   0.822
 5149SOL     OW16345   3.026   6.978   3.217
 5149SOL    HW116346   2.950   0.023   3.221
 5149SOL    HW216347   3.109   0.001   3.252
 5150SOL     OW16348   6.750   1.122   4.561
 5150SOL    HW116349   6.800   1.205   4.537
 5150SOL    HW216350   6.705   1.086   4.479
 5151SOL     OW16351   5.173   4.870   1.907
 5151SOL    HW116352   5.249   4.839   1.964
 5151SOL    HW216353   5.208   4.901   1.819
 5152SOL     OW16354   2.243   1.078   0.618
 5152SOL    HW116355   2.217   1.015   0.544
 5152SOL    HW216356   2.275   1.025   0.697
 5153SOL     OW16357   2.266   2.004   6.984
 5153SOL    HW116358   2.365   2.010   6.995
 5153SOL    HW216359   2.225   2.094   7.001
 5154SOL     OW16360   0.811   3.091   6.412
 5154SOL    HW116361   0.886   3.135   6.460
 5154SOL    HW216362   0.757   3.036   6.476
 5155SOL     OW16363   1.437   0.607   0.419
 5155SOL    HW116364   1.528   0.610   0.378
 5155SOL    HW216365   1.367   0.608   0.347
 5156SOL     OW16366   5.146   3.582   5.655
 5156SOL    HW116367   5.187   3.666   5.619
 5156SOL    HW216368   5.198   3.503   5.622
 5157SOL     OW16369   3.421   0.765   2.369
 5157SOL    HW116370   3.393   0.688   2.311
 5157SOL    HW216371   3.438   0.845   2.311
 5158SOL     OW16372   1.151   2.879   1.877
 5158SOL    HW116373   1.158   2.892   1.778
 5158SOL    HW216374   1.203   2.797   1.903
 5159SOL     OW16375   6.339   3.282   6.000
 5159SOL    HW116376   6.343   3.208   6.066
 5159SOL    HW216377   6.332   3.370   6.047
 5160SOL     OW16378   6.053   1.324   3.277
 5160SOL    HW116379   6.126   1.366   3.332
 5160SOL    HW216380   6.078   1.230   3.256
 5161SOL     OW16381   1.486   1.821   6.730
 5161SOL    HW116382   1.570   1.767   6.726
 5161SOL    HW216383   1.489   1.882   6.810
 5162SOL     OW16384   0.402   0.645   6.270
 5162SOL    HW116385   0.354   0.718   6.222
 5162SOL    HW216386   0.449   0.587   6.203
 5163SOL     OW16387   3.625   1.822   1.481
 5163SOL    HW116388   3.583   1.731   1.478
 5163SOL    HW216389   3.675   1.833   1.567
 5164SOL     OW16390   2.224   2.762   0.125
 5164SOL    HW116391   2.175   2.733   0.042
 5164SOL    HW216392   2.226   2.686   0.190
 5165SOL     OW16393   1.187   5.767   5.191
 5165SOL    HW116394   1.231   5.678   5.194
 5165SOL    HW216395   1.208   5.811   5.103
 5166SOL     OW16396   6.337   5.995   6.199
 5166SOL    HW116397   6.412   5.971   6.261
 5166SOL    HW216398   6.320   6.094   6.205
 5167SOL     OW16399   5.856   3.279   5.808
 5167SOL    HW116400   5.830   3.207   5.744
 5167SOL    HW216401   5.933   3.248   5.863
 5168SOL     OW16402   5.858   0.755   3.638
 5168SOL    HW116403   5.955   0.771   3.660
 5168SOL    HW216404   5.852   0.716   3.546
 5169SOL     OW16405   4.934   5.814   4.604
 5169SOL    HW116406   4.903   5.760   4.682
 5169SOL    HW216407   4.884   5.786   4.522
 5170SOL     OW16408   2.713   2.980   6.509
 5170SOL    HW116409   2.642   3.025   6.455
 5170SOL    HW216410   2.790   2.956   6.450
 5171SOL     OW16411   1.348   6.625   5.864
 5171SOL    HW116412   1.326   6.588   5.955
 5171SOL    HW216413   1.404   6.558   5.814
 5172SOL     OW16414   4.945   5.153   5.925
 5172SOL    HW116415   4.848   5.127   5.918
 5172SOL    HW216416   4.962   5.235   5.870
 5173SOL     OW16417   4.587   6.325   4.018
 5173SOL    HW116418   4.540   6.237   4.020
 5173SOL    HW216419   4.684   6.311   3.995
 5174SOL     OW16420   0.966   5.737   3.787
 5174SOL    HW116421   1.004   5.829   3.798
 5174SOL    HW216422   1.037   5.676   3.751
 5175SOL     OW16423   2.881   2.109   6.123
 5175SOL    HW116424   2.949   2.058   6.175
 5175SOL    HW216425   2.913   2.202   6.107
 5176SOL     OW16426   5.606   6.734   5.689
 5176SOL    HW116427   5.625   6.813   5.747
 5176SOL    HW216428   5.566   6.764   5.602
 5177SOL     OW16429   5.009   4.806   1.240
 5177SOL    HW116430   5.087   4.773   1.186
 5177SOL    HW216431   5.025   4.787   1.337
 5178SOL     OW16432   0.870   3.758   1.437
 5178SOL    HW116433   0.923   3.840   1.416
 5178SOL    HW216434   0.895   3.685   1.373
 5179SOL     OW16435   3.897   5.652   2.578
 5179SOL    HW116436   3.879   5.562   2.539
 5179SOL    HW216437   3.962   5.701   2.519
 5180SOL     OW16438   2.965   5.212   2.418
 5180SOL    HW116439   2.899   5.282   2.390
 5180SOL    HW216440   2.991   5.158   2.339
 5181SOL     OW16441   6.675   1.818   5.333
 5181SOL    HW116442   6.773   1.822   5.318
 5181SOL    HW216443   6.654   1.851   5.426
 5182SOL     OW16444   2.284   6.150   1.978
 5182SOL    HW116445   2.266   6.088   1.902
 5182SOL    HW216446   2.379   6.179   1.976
 5183SOL     OW16447   5.197   2.039   3.363
 5183SOL    HW116448   5.149   1.952   3.353
 5183SOL    HW216449   5.295   2.022   3.369
 5184SOL     OW16450   3.338   1.336   2.094
 5184SOL    HW116451   3.262   1.401   2.103
 5184SOL    HW216452   3.302   1.243   2.097
 5185SOL     OW16453   6.390   0.663   0.945
 5185SOL    HW116454   6.416   0.729   1.015
 5185SOL    HW216455   6.299   0.628   0.964
 5186SOL     OW16456   6.436   2.355   6.587
 5186SOL    HW116457   6.478   2.442   6.563
 5186SOL    HW216458   6.501   2.280   6.573
 5187SOL     OW16459   1.286   4.667   4.970
 5187SOL    HW116460   1.382   4.692   4.957
 5187SOL    HW216461   1.280   4.594   5.037
 5188SOL     OW16462   6.656   0.507   1.491
 5188SOL    HW116463   6.647   0.568   1.412
 5188SOL    HW216464   6.735   0.448   1.478
 5189SOL     OW16465   5.540   6.011   6.032
 5189SOL    HW116466   5.505   6.039   5.942
 5189SOL    HW216467   5.581   5.920   6.024
 5190SOL     OW16468   1.440   5.228   0.941
 5190SOL    HW116469   1.376   5.155   0.918
 5190SOL    HW216470   1.524   5.187   0.977
 5191SOL     OW16471   3.270   4.018   0.932
 5191SOL    HW116472   3.206   3.944   0.953
 5191SOL    HW216473   3.297   4.063   1.017
 5192SOL     OW16474   0.764   4.529   2.628
 5192SOL    HW116475   0.808   4.440   2.614
 5192SOL    HW216476   0.685   4.517   2.688
 5193SOL     OW16477   3.960   0.607   4.846
 5193SOL    HW116478   3.988   0.700   4.868
 5193SOL    HW216479   4.008   0.542   4.905
 5194SOL     OW16480   3.970   1.562   5.565
 5194SOL    HW116481   3.995   1.658   5.575
 5194SOL    HW216482   3.912   1.551   5.484
 5195SOL     OW16483   1.946   1.104   5.012
 5195SOL    HW116484   2.044   1.098   4.998
 5195SOL    HW216485   1.906   1.012   5.010
 5196SOL     OW16486   6.214   6.041   3.020
 5196SOL    HW116487   6.308   6.062   2.993
 5196SOL    HW216488   6.151   6.065   2.946
 5197SOL     OW16489   2.591   3.651   5.651
 5197SOL    HW116490   2.611   3.699   5.565
 5197SOL    HW216491   2.670   3.658   5.712
 5198SOL     OW16492   6.729   5.622   3.506
 5198SOL    HW116493   6.770   5.637   3.596
 5198SOL    HW216494   6.654   5.556   3.514
 5199SOL     OW16495   0.582   5.324   1.147
 5199SOL    HW116496   0.605   5.305   1.242
 5199SOL    HW216497   0.546   5.417   1.139
 5200SOL     OW16498   0.164   4.478   6.015
 5200SOL    HW116499   0.119   4.438   5.936
 5200SOL    HW216500   0.095   4.508   6.081
 5201SOL     OW16501   1.041   5.575   4.457
 5201SOL    HW116502   1.043   5.666   4.498
 5201SOL    HW216503   1.033   5.506   4.529
 5202SOL     OW16504   0.010   5.056   1.606
 5202SOL    HW116505   0.020   5.138   1.663
 5202SOL    HW216506   0.092   5.000   1.615
 5203SOL     OW16507   6.677   3.237   0.093
 5203SOL    HW116508   6.657   3.317   0.036
 5203SOL    HW216509   6.632   3.246   0.181
 5204SOL     OW16510   5.360   5.377   6.423
 5204SOL    HW116511   5.337   5.379   6.326
 5204SOL    HW216512   5.277   5.388   6.478
 5205SOL     OW16513   2.631   6.121   0.358
 5205SOL    HW116514   2.576   6.201   0.336
 5205SOL    HW216515   2.632   6.059   0.279
 5206SOL     OW16516   0.180   4.284   4.736
 5206SOL    HW116517   0.158   4.280   4.638
 5206SOL    HW216518   0.248   4.356   4.751
 5207SOL     OW16519   1.504   6.665   2.032
 5207SOL    HW116520   1.495   6.677   2.130
 5207SOL    HW216521   1.519   6.754   1.988
 5208SOL     OW16522   4.344   2.069   0.314
 5208SOL    HW116523   4.377   1.976   0.330
 5208SOL    HW216524   4.382   2.130   0.383
 5209SOL     OW16525   6.513   5.465   3.346
 5209SOL    HW116526   6.449   5.539   3.363
 5209SOL    HW216527   6.521   5.408   3.428
 5210SOL     OW16528   5.190   3.482   3.666
 5210SOL    HW116529   5.096   3.448   3.660
 5210SOL    HW216530   5.231   3.481   3.575
 5211SOL     OW16531   2.949   4.456   1.640
 5211SOL    HW116532   2.889   4.478   1.717
 5211SOL    HW216533   2.911   4.493   1.556
 5212SOL     OW16534   0.311   6.818   6.200
 5212SOL    HW116535   0.358   6.750   6.255
 5212SOL    HW216536   0.212   6.806   6.210
 5213SOL     OW16537   4.933   2.013   6.660
 5213SOL    HW116538   4.896   2.093   6.612
 5213SOL    HW216539   4.963   1.945   6.594
 5214SOL     OW16540   4.685   2.015   6.832
 5214SOL    HW116541   4.663   1.918   6.844
 5214SOL    HW216542   4.760   2.024   6.766
 5215SOL     OW16543   5.932   5.628   4.583
 5215SOL    HW116544   5.979   5.550   4.624
 5215SOL    HW216545   5.993   5.707   4.581
 5216SOL     OW16546   2.703   6.613   1.111
 5216SOL    HW116547   2.627   6.549   1.096
 5216SOL    HW216548   2.779   6.590   1.051
 5217SOL     OW16549   3.166   5.629   3.722
 5217SOL    HW116550   3.131   5.578   3.800
 5217SOL    HW216551   3.101   5.701   3.697
 5218SOL     OW16552   0.907   0.384   3.678
 5218SOL    HW116553   0.988   0.436   3.651
 5218SOL    HW216554   0.871   0.420   3.765
 5219SOL     OW16555   2.844   6.878   0.870
 5219SOL    HW116556   2.835   6.894   0.968
 5219SOL    HW216557   2.840   6.780   0.852
 5220SOL     OW16558   0.772   6.650   1.936
 5220SOL    HW116559   0.728   6.626   2.022
 5220SOL    HW216560   0.860   6.603   1.928
 5221SOL     OW16561   4.684   0.853   0.137
 5221SOL    HW116562   4.679   0.757   0.165
 5221SOL    HW216563   4.752   0.864   0.065
 5222SOL     OW16564   6.346   5.305   2.257
 5222SOL    HW116565   6.297   5.259   2.331
 5222SOL    HW216566   6.345   5.403   2.273
 5223SOL     OW16567   4.007   6.701   1.425
 5223SOL    HW116568   3.945   6.635   1.382
 5223SOL    HW216569   4.076   6.651   1.479
 5224SOL     OW16570   5.364   0.309   3.105
 5224SOL    HW116571   5.370   0.350   3.196
 5224SOL    HW216572   5.268   0.301   3.079
 5225SOL     OW16573   6.969   0.142   6.010
 5225SOL    HW116574   6.995   0.237   6.028
 5225SOL    HW216575   0.028   0.093   5.973
 5226SOL     OW16576   2.342   0.862   3.337
 5226SOL    HW116577   2.250   0.863   3.297
 5226SOL    HW216578   2.408   0.893   3.268
 5227SOL     OW16579   5.479   4.261   4.342
 5227SOL    HW116580   5.444   4.170   4.364
 5227SOL    HW216581   5.450   4.287   4.250
 5228SOL     OW16582   5.123   6.991   2.514
 5228SOL    HW116583   5.139   6.991   2.613
 5228SOL    HW216584   5.162   6.907   2.475
 5229SOL     OW16585   0.889   3.880   3.939
 5229SOL    HW116586   0.849   3.789   3.951
 5229SOL    HW216587   0.880   3.932   4.023
 5230SOL     OW16588   0.566   1.599   6.500
 5230SOL    HW116589   0.568   1.697   6.523
 5230SOL    HW216590   0.642   1.578   6.439
 5231SOL     OW16591   3.246   3.761   3.443
 5231SOL    HW116592   3.244   3.676   3.390
 5231SOL    HW216593   3.163   3.768   3.498
 5232SOL     OW16594   5.227   2.656   4.735
 5232SOL    HW116595   5.306   2.629   4.679
 5232SOL    HW216596   5.225   2.599   4.818
 5233SOL     OW16597   0.701   6.906   2.595
 5233SOL    HW116598   0.677   6.954   2.511
 5233SOL    HW216599   0.756   6.965   2.654
 5234SOL     OW16600   3.431   4.161   1.400
 5234SOL    HW116601   3.380   4.134   1.481
 5234SOL    HW216602   3.528   4.169   1.422
 5235SOL     OW16603   0.964   1.569   1.891
 5235SOL    HW116604   1.024   1.489   1.890
 5235SOL    HW216605   0.936   1.587   1.985
 5236SOL     OW16606   6.978   2.986   1.175
 5236SOL    HW116607   6.987   2.953   1.269
 5236SOL    HW216608   6.884   3.015   1.158
 5237SOL     OW16609   1.764   2.154   2.669
 5237SOL    HW116610   1.856   2.130   2.700
 5237SOL    HW216611   1.696   2.115   2.730
 5238SOL     OW16612   1.896   3.523   1.602
 5238SOL    HW116613   1.838   3.441   1.599
 5238SOL    HW216614   1.979   3.503   1.655
 5239SOL     OW16615   2.973   3.138   5.058
 5239SOL    HW116616   3.032   3.060   5.079
 5239SOL    HW216617   2.958   3.142   4.959
 5240SOL     OW16618   4.383   2.403   3.714
 5240SOL    HW116619   4.440   2.434   3.790
 5240SOL    HW216620   4.424   2.432   3.628
 5241SOL     OW16621   4.582   5.935   5.039
 5241SOL    HW116622   4.658   5.936   4.974
 5241SOL    HW216623   4.515   6.004   5.013
 5242SOL     OW16624   2.936   0.567   6.276
 5242SOL    HW116625   2.869   0.641   6.269
 5242SOL    HW216626   2.895   0.489   6.322
 5243SOL     OW16627   1.770   3.515   6.655
 5243SOL    HW116628   1.760   3.548   6.749
 5243SOL    HW216629   1.866   3.512   6.630
 5244SOL     OW16630   6.233   2.867   6.855
 5244SOL    HW116631   6.240   2.966   6.855
 5244SOL    HW216632   6.266   2.831   6.943
 5245SOL     OW16633   4.126   4.532   5.824
 5245SOL    HW116634   4.164   4.471   5.894
 5245SOL    HW216635   4.107   4.481   5.741
 5246SOL     OW16636   1.509   3.653   3.360
 5246SOL    HW116637   1.429   3.703   3.391
 5246SOL    HW216638   1.497   3.626   3.264
 5247SOL     OW16639   0.800   4.140   6.951
 5247SOL    HW116640   0.884   4.136   6.897
 5247SOL    HW216641   0.761   4.048   6.958
 5248SOL     OW16642   4.681   1.456   0.764
 5248SOL    HW116643   4.750   1.468   0.836
 5248SOL    HW216644   4.721   1.479   0.675
 5249SOL     OW16645   0.797   5.131   0.197
 5249SOL    HW116646   0.799   5.230   0.206
 5249SOL    HW216647   0.776   5.090   0.286
 5250SOL     OW16648   1.302   1.557   5.640
 5250SOL    HW116649   1.316   1.508   5.726
 5250SOL    HW216650   1.361   1.638   5.638
 5251SOL     OW16651   0.807   2.189   1.988
 5251SOL    HW116652   0.860   2.124   1.933
 5251SOL    HW216653   0.739   2.233   1.930
 5252SOL     OW16654   5.423   5.508   1.405
 5252SOL    HW116655   5.500   5.508   1.341
 5252SOL    HW216656   5.406   5.415   1.436
 5253SOL     OW16657   5.849   3.044   4.414
 5253SOL    HW116658   5.901   3.118   4.456
 5253SOL    HW216659   5.752   3.055   4.433
 5254SOL     OW16660   5.329   0.515   5.104
 5254SOL    HW116661   5.313   0.599   5.155
 5254SOL    HW216662   5.242   0.479   5.071
 5255SOL     OW16663   1.811   5.430   2.199
 5255SOL    HW116664   1.818   5.424   2.099
 5255SOL    HW216665   1.885   5.377   2.240
 5256SOL     OW16666   4.843   6.012   2.515
 5256SOL    HW116667   4.804   5.920   2.522
 5256SOL    HW216668   4.773   6.076   2.483
 5257SOL     OW16669   2.276   1.532   2.117
 5257SOL    HW116670   2.265   1.630   2.132
 5257SOL    HW216671   2.194   1.484   2.146
 5258SOL     OW16672   5.528   2.138   1.562
 5258SOL    HW116673   5.497   2.069   1.627
 5258SOL    HW216674   5.530   2.099   1.470
 5259SOL     OW16675   5.790   4.932   0.941
 5259SOL    HW116676   5.809   4.943   0.843
 5259SOL    HW216677   5.873   4.951   0.993
 5260SOL     OW16678   5.202   3.300   1.755
 5260SOL    HW116679   5.185   3.219   1.811
 5260SOL    HW216680   5.239   3.373   1.813
 5261SOL     OW16681   2.290   2.743   5.018
 5261SOL    HW116682   2.313   2.838   5.036
 5261SOL    HW216683   2.371   2.694   4.987
 5262SOL     OW16684   1.275   0.634   2.215
 5262SOL    HW116685   1.253   0.550   2.165
 5262SOL    HW216686   1.328   0.695   2.156
 5263SOL     OW16687   1.558   6.525   6.416
 5263SOL    HW116688   1.479   6.586   6.428
 5263SOL    HW216689   1.635   6.560   6.469
 5264SOL     OW16690   1.183   0.958   0.952
 5264SOL    HW116691   1.114   0.916   0.892
 5264SOL    HW216692   1.137   1.011   1.023
 5265SOL     OW16693   5.036   5.039   3.794
 5265SOL    HW116694   5.042   5.127   3.842
 5265SOL    HW216695   5.096   5.040   3.714
 5266SOL     OW16696   0.868   6.639   1.255
 5266SOL    HW116697   0.921   6.693   1.190
 5266SOL    HW216698   0.782   6.610   1.212
 5267SOL     OW16699   3.546   3.470   4.506
 5267SOL    HW116700   3.562   3.505   4.599
 5267SOL    HW216701   3.631   3.430   4.471
 5268SOL     OW16702   5.751   4.338   6.482
 5268SOL    HW116703   5.703   4.259   6.521
 5268SOL    HW216704   5.699   4.421   6.502
 5269SOL     OW16705   2.844   5.225   5.422
 5269SOL    HW116706   2.819   5.128   5.417
 5269SOL    HW216707   2.820   5.260   5.513
 5270SOL     OW16708   0.145   1.165   2.949
 5270SOL    HW116709   0.197   1.204   3.025
 5270SOL    HW216710   0.170   1.069   2.938
 5271SOL     OW16711   5.742   3.885   4.796
 5271SOL    HW116712   5.717   3.978   4.822
 5271SOL    HW216713   5.774   3.884   4.701
 5272SOL     OW16714   2.311   2.476   3.730
 5272SOL    HW116715   2.358   2.552   3.685
 5272SOL    HW216716   2.214   2.477   3.703
 5273SOL     OW16717   6.937   1.139   5.487
 5273SOL    HW116718   0.003   1.112   5.529
 5273SOL    HW216719   6.868   1.156   5.557
 5274SOL     OW16720   0.620   4.943   4.894
 5274SOL    HW116721   0.628   4.917   4.990
 5274SOL    HW216722   0.704   4.988   4.864
 5275SOL     OW16723   2.241   6.465   6.512
 5275SOL    HW116724   2.261   6.546   6.457
 5275SOL    HW216725   2.207   6.392   6.452
 5276SOL     OW16726   6.900   1.193   6.619
 5276SOL    HW116727   6.844   1.120   6.658
 5276SOL    HW216728   6.942   1.246   6.693
 5277SOL     OW16729   1.017   0.576   1.138
 5277SOL    HW116730   0.945   0.606   1.075
 5277SOL    HW216731   1.045   0.484   1.114
 5278SOL     OW16732   6.970   4.917   6.873
 5278SOL    HW116733   7.014   4.883   6.956
 5278SOL    HW216734   7.010   4.871   6.793
 5279SOL     OW16735   2.485   6.420   0.181
 5279SOL    HW116736   2.560   6.484   0.163
 5279SOL    HW216737   2.479   6.354   0.106
 5280SOL     OW16738   4.825   6.173   6.114
 5280SOL    HW116739   4.777   6.228   6.183
 5280SOL    HW216740   4.835   6.079   6.146
 5281SOL     OW16741   2.061   6.487   4.757
 5281SOL    HW116742   2.037   6.472   4.853
 5281SOL    HW216743   2.095   6.401   4.717
 5282SOL     OW16744   6.373   6.097   1.161
 5282SOL    HW116745   6.422   6.182   1.142
 5282SOL    HW216746   6.344   6.055   1.075
 5283SOL     OW16747   1.539   0.245   4.120
 5283SOL    HW116748   1.453   0.274   4.078
 5283SOL    HW216749   1.535   0.263   4.219
 5284SOL     OW16750   4.892   3.382   1.842
 5284SOL    HW116751   4.845   3.294   1.850
 5284SOL    HW216752   4.988   3.371   1.868
 5285SOL     OW16753   2.235   1.497   3.927
 5285SOL    HW116754   2.245   1.495   4.027
 5285SOL    HW216755   2.287   1.574   3.890
 5286SOL     OW16756   0.645   2.594   1.841
 5286SOL    HW116757   0.560   2.645   1.859
 5286SOL    HW216758   0.722   2.645   1.880
 5287SOL     OW16759   0.222   5.583   2.031
 5287SOL    HW116760   0.151   5.650   2.013
 5287SOL    HW216761   0.197   5.528   2.112
 5288SOL     OW16762   4.223   0.751   1.779
 5288SOL    HW116763   4.134   0.713   1.754
 5288SOL    HW216764   4.258   0.705   1.860
 5289SOL     OW16765   1.384   5.614   6.699
 5289SOL    HW116766   1.480   5.640   6.706
 5289SOL    HW216767   1.360   5.552   6.774
 5290SOL     OW16768   1.804   2.149   5.468
 5290SOL    HW116769   1.863   2.144   5.549
 5290SOL    HW216770   1.855   2.119   5.388
 5291SOL     OW16771   2.929   6.521   4.507
 5291SOL    HW116772   2.936   6.566   4.596
 5291SOL    HW216773   3.017   6.477   4.484
 5292SOL     OW16774   0.932   4.045   4.140
 5292SOL    HW116775   0.859   4.081   4.199
 5292SOL    HW216776   1.014   4.027   4.194
 5293SOL     OW16777   2.390   0.673   3.534
 5293SOL    HW116778   2.381   0.725   3.450
 5293SOL    HW216779   2.313   0.693   3.594
 5294SOL     OW16780   4.945   0.145   4.251
 5294SOL    HW116781   5.022   0.128   4.189
 5294SOL    HW216782   4.863   0.098   4.217
 5295SOL     OW16783   2.132   0.244   1.132
 5295SOL    HW116784   2.208   0.200   1.181
 5295SOL    HW216785   2.119   0.199   1.044
 5296SOL     OW16786   4.635   5.002   1.859
 5296SOL    HW116787   4.729   4.978   1.882
 5296SOL    HW216788   4.629   5.100   1.843
 5297SOL     OW16789   3.860   5.060   5.584
 5297SOL    HW116790   3.881   5.122   5.508
 5297SOL    HW216791   3.809   5.109   5.654
 5298SOL     OW16792   3.437   1.072   6.809
 5298SOL    HW116793   3.530   1.057   6.775
 5298SOL    HW216794   3.409   0.995   6.866
 5299SOL     OW16795   1.558   0.085   1.227
 5299SOL    HW116796   1.547   0.183   1.248
 5299SOL    HW216797   1.541   0.032   1.310
 5300SOL     OW16798   2.923   4.903   6.336
 5300SOL    HW116799   2.874   4.919   6.250
 5300SOL    HW216800   2.960   4.990   6.370
 5301SOL     OW16801   6.171   0.154   5.834
 5301SOL    HW116802   6.263   0.120   5.814
 5301SOL    HW216803   6.155   0.151   5.933
 5302SOL     OW16804   4.692   5.603   3.339
 5302SOL    HW116805   4.728   5.605   3.432
 5302SOL    HW216806   4.653   5.692   3.316
 5303SOL     OW16807   1.635   6.033   5.107
 5303SOL    HW116808   1.566   6.080   5.052
 5303SOL    HW216809   1.704   5.992   5.046
 5304SOL     OW16810   0.272   0.112   3.170
 5304SOL    HW116811   0.270   0.159   3.082
 5304SOL    HW216812   0.195   0.049   3.177
 5305SOL     OW16813   6.236   5.396   4.810
 5305SOL    HW116814   6.220   5.342   4.892
 5305SOL    HW216815   6.150   5.412   4.762
 5306SOL     OW16816   0.787   1.735   6.726
 5306SOL    HW116817   0.711   1.766   6.783
 5306SOL    HW216818   0.812   1.808   6.662
 5307SOL     OW16819   1.262   1.254   1.516
 5307SOL    HW116820   1.263   1.352   1.537
 5307SOL    HW216821   1.233   1.202   1.596
 5308SOL     OW16822   2.026   4.306   3.282
 5308SOL    HW116823   1.943   4.250   3.291
 5308SOL    HW216824   2.049   4.345   3.371
 5309SOL     OW16825   6.077   6.049   2.770
 5309SOL    HW116826   5.999   5.989   2.754
 5309SOL    HW216827   6.159   6.008   2.730
 5310SOL     OW16828   6.160   2.103   3.804
 5310SOL    HW116829   6.143   2.093   3.705
 5310SOL    HW216830   6.103   2.037   3.854
 5311SOL     OW16831   5.845   0.322   0.056
 5311SOL    HW116832   5.893   0.294   0.139
 5311SOL    HW216833   5.756   0.360   0.080
 5312SOL     OW16834   5.229   6.632   1.121
 5312SOL    HW116835   5.275   6.652   1.034
 5312SOL    HW216836   5.175   6.711   1.149
 5313SOL     OW16837   0.733   6.527   5.508
 5313SOL    HW116838   0.639   6.553   5.487
 5313SOL    HW216839   0.733   6.436   5.551
 5314SOL     OW16840   5.691   1.827   2.517
 5314SOL    HW116841   5.725   1.733   2.503
 5314SOL    HW216842   5.756   1.891   2.478
 5315SOL     OW16843   4.115   1.687   3.622
 5315SOL    HW116844   4.206   1.700   3.660
 5315SOL    HW216845   4.053   1.757   3.657
 5316SOL     OW16846   0.204   2.953   5.462
 5316SOL    HW116847   0.230   2.886   5.392
 5316SOL    HW216848   0.268   3.029   5.460
 5317SOL     OW16849   5.523   2.706   1.784
 5317SOL    HW116850   5.602   2.762   1.762
 5317SOL    HW216851   5.440   2.749   1.748
 5318SOL     OW16852   6.807   4.527   6.383
 5318SOL    HW116853   6.831   4.430   6.377
 5318SOL    HW216854   6.857   4.569   6.459
 5319SOL     OW16855   4.187   5.621   2.332
 5319SOL    HW116856   4.165   5.645   2.238
 5319SOL    HW216857   4.262   5.555   2.334
 5320SOL     OW16858   4.774   5.928   0.335
 5320SOL    HW116859   4.812   5.837   0.316
 5320SOL    HW216860   4.735   5.966   0.252
 5321SOL     OW16861   1.431   3.980   5.515
 5321SOL    HW116862   1.521   4.020   5.531
 5321SOL    HW216863   1.409   3.987   5.417
 5322SOL     OW16864   4.231   5.636   1.709
 5322SOL    HW116865   4.262   5.703   1.777
 5322SOL    HW216866   4.165   5.678   1.647
 5323SOL     OW16867   4.171   6.975   6.370
 5323SOL    HW116868   4.132   6.884   6.355
 5323SOL    HW216869   4.099   0.018   6.400
 5324SOL     OW16870   0.890   0.996   1.838
 5324SOL    HW116871   0.831   0.973   1.760
 5324SOL    HW216872   0.854   1.079   1.882
 5325SOL     OW16873   2.119   2.879   4.335
 5325SOL    HW116874   2.081   2.841   4.251
 5325SOL    HW216875   2.216   2.860   4.340
 5326SOL     OW16876   5.876   0.395   0.947
 5326SOL    HW116877   5.806   0.353   1.005
 5326SOL    HW216878   5.885   0.343   0.862
 5327SOL     OW16879   0.254   1.997   6.433
 5327SOL    HW116880   0.222   1.948   6.352
 5327SOL    HW216881   0.246   1.938   6.513
 5328SOL     OW16882   3.756   4.932   0.400
 5328SOL    HW116883   3.827   4.864   0.380
 5328SOL    HW216884   3.767   4.964   0.494
 5329SOL     OW16885   2.461   5.799   6.257
 5329SOL    HW116886   2.541   5.859   6.261
 5329SOL    HW216887   2.396   5.836   6.191
 5330SOL     OW16888   2.253   5.294   0.597
 5330SOL    HW116889   2.238   5.361   0.670
 5330SOL    HW216890   2.350   5.293   0.572
 5331SOL     OW16891   6.195   1.506   6.903
 5331SOL    HW116892   6.270   1.560   6.865
 5331SOL    HW216893   6.120   1.567   6.929
 5332SOL     OW16894   1.010   4.980   2.649
 5332SOL    HW116895   1.090   5.021   2.691
 5332SOL    HW216896   0.990   4.893   2.694
 5333SOL     OW16897   0.656   6.315   4.319
 5333SOL    HW116898   0.636   6.412   4.330
 5333SOL    HW216899   0.684   6.276   4.407
 5334SOL     OW16900   3.063   6.821   5.050
 5334SOL    HW116901   3.109   6.733   5.062
 5334SOL    HW216902   2.965   6.810   5.063
 5335SOL     OW16903   5.906   6.792   0.768
 5335SOL    HW116904   5.846   6.733   0.822
 5335SOL    HW216905   5.998   6.790   0.806
 5336SOL     OW16906   1.177   3.804   1.538
 5336SOL    HW116907   1.156   3.761   1.626
 5336SOL    HW216908   1.255   3.757   1.496
 5337SOL     OW16909   5.607   4.878   1.684
 5337SOL    HW116910   5.628   4.955   1.744
 5337SOL    HW216911   5.653   4.892   1.596
 5338SOL     OW16912   5.645   2.770   1.045
 5338SOL    HW116913   5.560   2.729   1.078
 5338SOL    HW216914   5.635   2.869   1.043
 5339SOL     OW16915   6.263   0.757   2.160
 5339SOL    HW116916   6.203   0.781   2.236
 5339SOL    HW216917   6.208   0.736   2.079
 5340SOL     OW16918   5.113   2.272   0.140
 5340SOL    HW116919   5.181   2.290   0.068
 5340SOL    HW216920   5.086   2.359   0.182
 5341SOL     OW16921   4.059   0.742   1.443
 5341SOL    HW116922   4.134   0.678   1.427
 5341SOL    HW216923   4.045   0.797   1.361
 5342SOL     OW16924   1.863   0.298   5.644
 5342SOL    HW116925   1.860   0.211   5.595
 5342SOL    HW216926   1.790   0.357   5.611
 5343SOL     OW16927   3.076   4.070   1.317
 5343SOL    HW116928   3.175   4.084   1.310
 5343SOL    HW216929   3.039   4.048   1.227
 5344SOL     OW16930   2.000   2.657   3.022
 5344SOL    HW116931   1.995   2.557   3.019
 5344SOL    HW216932   2.018   2.692   2.931
 5345SOL     OW16933   4.978   0.510   3.100
 5345SOL    HW116934   5.019   0.438   3.044
 5345SOL    HW216935   5.007   0.499   3.195
 5346SOL     OW16936   3.844   0.836   4.235
 5346SOL    HW116937   3.772   0.904   4.229
 5346SOL    HW216938   3.840   0.791   4.325
 5347SOL     OW16939   6.747   1.338   2.230
 5347SOL    HW116940   6.759   1.269   2.301
 5347SOL    HW216941   6.813   1.412   2.243
 5348SOL     OW16942   6.280   1.891   0.369
 5348SOL    HW116943   6.369   1.909   0.412
 5348SOL    HW216944   6.292   1.826   0.294
 5349SOL     OW16945   4.947   0.887   0.521
 5349SOL    HW116946   4.992   0.935   0.445
 5349SOL    HW216947   4.861   0.848   0.489
 5350SOL     OW16948   2.653   0.716   0.022
 5350SOL    HW116949   2.668   0.804   0.069
 5350SOL    HW216950   2.556   0.708   7.019
 5351SOL     OW16951   4.543   1.397   2.286
 5351SOL    HW116952   4.489   1.379   2.369
 5351SOL    HW216953   4.564   1.494   2.280
 5352SOL     OW16954   4.039   0.938   4.095
 5352SOL    HW116955   3.968   0.884   4.141
 5352SOL    HW216956   4.010   0.960   4.002
 5353SOL     OW16957   6.315   0.329   6.257
 5353SOL    HW116958   6.304   0.282   6.169
 5353SOL    HW216959   6.269   0.418   6.254
 5354SOL     OW16960   0.780   2.581   1.568
 5354SOL    HW116961   0.737   2.616   1.651
 5354SOL    HW216962   0.750   2.636   1.489
 5355SOL     OW16963   4.668   1.349   5.305
 5355SOL    HW116964   4.634   1.428   5.253
 5355SOL    HW216965   4.591   1.305   5.351
 5356SOL     OW16966   6.476   3.805   1.706
 5356SOL    HW116967   6.514   3.885   1.752
 5356SOL    HW216968   6.533   3.725   1.725
 5357SOL     OW16969   4.248   5.529   0.142
 5357SOL    HW116970   4.174   5.596   0.139
 5357SOL    HW216971   4.220   5.447   0.091
 5358SOL     OW16972   5.553   4.366   1.705
 5358SOL    HW116973   5.485   4.307   1.662
 5358SOL    HW216974   5.539   4.461   1.676
 5359SOL     OW16975   3.212   0.596   5.750
 5359SOL    HW116976   3.192   0.503   5.780
 5359SOL    HW216977   3.148   0.622   5.677
 5360SOL     OW16978   4.204   2.442   0.262
 5360SOL    HW116979   4.171   2.534   0.241
 5360SOL    HW216980   4.232   2.438   0.358
 5361SOL     OW16981   0.542   1.301   6.846
 5361SOL    HW116982   0.496   1.384   6.814
 5361SOL    HW216983   0.484   1.222   6.830
 5362SOL     OW16984   4.408   6.102   4.005
 5362SOL    HW116985   4.347   6.150   3.941
 5362SOL    HW216986   4.467   6.039   3.954
 5363SOL     OW16987   0.542   5.934   4.652
 5363SOL    HW116988   0.458   5.988   4.643
 5363SOL    HW216989   0.525   5.840   4.623
 5364SOL     OW16990   1.059   5.715   6.813
 5364SOL    HW116991   0.959   5.703   6.813
 5364SOL    HW216992   1.090   5.736   6.720
 5365SOL     OW16993   4.366   2.658   6.225
 5365SOL    HW116994   4.403   2.703   6.143
 5365SOL    HW216995   4.381   2.560   6.219
 5366SOL     OW16996   4.119   4.018   5.741
 5366SOL    HW116997   4.073   3.998   5.828
 5366SOL    HW216998   4.051   4.045   5.673
 5367SOL     OW16999   0.471   3.607   1.104
 5367SOL    HW117000   0.538   3.657   1.159
 5367SOL    HW217001   0.379   3.630   1.135
 5368SOL     OW17002   0.435   6.815   3.701
 5368SOL    HW117003   0.457   6.886   3.634
 5368SOL    HW217004   0.419   6.855   3.790
 5369SOL     OW17005   1.695   3.501   2.427
 5369SOL    HW117006   1.618   3.524   2.368
 5369SOL    HW217007   1.720   3.580   2.483
 5370SOL     OW17008   3.509   2.796   1.902
 5370SOL    HW117009   3.556   2.884   1.893
 5370SOL    HW217010   3.467   2.790   1.993
 5371SOL     OW17011   2.266   4.305   5.056
 5371SOL    HW117012   2.178   4.316   5.103
 5371SOL    HW217013   2.293   4.209   5.057
 5372SOL     OW17014   3.514   6.244   2.362
 5372SOL    HW117015   3.474   6.326   2.321
 5372SOL    HW217016   3.598   6.220   2.313
 5373SOL     OW17017   2.906   4.961   3.835
 5373SOL    HW117018   2.856   4.950   3.749
 5373SOL    HW217019   3.000   4.989   3.816
 5374SOL     OW17020   3.225   2.406   0.863
 5374SOL    HW117021   3.181   2.481   0.814
 5374SOL    HW217022   3.155   2.346   0.902
 5375SOL     OW17023   1.654   4.392   4.398
 5375SOL    HW117024   1.606   4.377   4.485
 5375SOL    HW217025   1.630   4.320   4.333
 5376SOL     OW17026   3.105   4.883   5.947
 5376SOL    HW117027   3.062   4.808   5.897
 5376SOL    HW217028   3.175   4.846   6.009
 5377SOL     OW17029   1.572   2.188   1.731
 5377SOL    HW117030   1.613   2.212   1.819
 5377SOL    HW217031   1.487   2.137   1.747
 5378SOL     OW17032   5.190   6.847   6.722
 5378SOL    HW117033   5.095   6.817   6.722
 5378SOL    HW217034   5.250   6.767   6.713
 5379SOL     OW17035   0.157   0.452   0.027
 5379SOL    HW117036   0.144   0.390   0.105
 5379SOL    HW217037   0.237   0.510   0.044
 5380SOL     OW17038   2.266   1.692   5.132
 5380SOL    HW117039   2.276   1.778   5.083
 5380SOL    HW217040   2.196   1.701   5.202
 5381SOL     OW17041   5.889   3.752   2.076
 5381SOL    HW117042   5.822   3.789   2.141
 5381SOL    HW217043   5.970   3.721   2.125
 5382SOL     OW17044   2.110   6.405   1.418
 5382SOL    HW117045   2.080   6.310   1.411
 5382SOL    HW217046   2.084   6.442   1.507
 5383SOL     OW17047   2.736   2.078   4.918
 5383SOL    HW117048   2.649   2.049   4.956
 5383SOL    HW217049   2.734   2.176   4.898
 5384SOL     OW17050   5.488   6.521   4.971
 5384SOL    HW117051   5.442   6.600   4.929
 5384SOL    HW217052   5.506   6.452   4.901
 5385SOL     OW17053   3.395   4.026   2.188
 5385SOL    HW117054   3.326   3.983   2.129
 5385SOL    HW217055   3.351   4.061   2.271
 5386SOL     OW17056   5.657   6.317   5.564
 5386SOL    HW117057   5.675   6.227   5.604
 5386SOL    HW217058   5.729   6.381   5.593
 5387SOL     OW17059   4.119   5.095   0.486
 5387SOL    HW117060   4.078   5.004   0.477
 5387SOL    HW217061   4.180   5.112   0.409
 5388SOL     OW17062   6.049   5.791   3.140
 5388SOL    HW117063   6.068   5.829   3.231
 5388SOL    HW217064   6.068   5.861   3.071
 5389SOL     OW17065   5.771   3.136   1.436
 5389SOL    HW117066   5.696   3.083   1.398
 5389SOL    HW217067   5.858   3.089   1.417
 5390SOL     OW17068   6.741   4.700   6.778
 5390SOL    HW117069   6.663   4.670   6.723
 5390SOL    HW217070   6.826   4.663   6.739
 5391SOL     OW17071   3.339   4.913   6.770
 5391SOL    HW117072   3.287   4.938   6.688
 5391SOL    HW217073   3.276   4.888   6.843
 5392SOL     OW17074   0.698   2.464   3.312
 5392SOL    HW117075   0.715   2.369   3.340
 5392SOL    HW217076   0.781   2.519   3.327
 5393SOL     OW17077   6.557   0.390   6.429
 5393SOL    HW117078   6.475   0.377   6.373
 5393SOL    HW217079   6.613   0.307   6.426
 5394SOL     OW17080   2.370   3.493   6.218
 5394SOL    HW117081   2.361   3.426   6.145
 5394SOL    HW217082   2.391   3.583   6.179
 5395SOL     OW17083   4.823   0.448   1.763
 5395SOL    HW117084   4.857   0.395   1.686
 5395SOL    HW217085   4.891   0.447   1.837
 5396SOL     OW17086   4.390   2.253   0.804
 5396SOL    HW117087   4.433   2.163   0.794
 5396SOL    HW217088   4.389   2.278   0.901
 5397SOL     OW17089   1.589   2.283   2.056
 5397SOL    HW117090   1.489   2.284   2.054
 5397SOL    HW217091   1.622   2.306   2.148
 5398SOL     OW17092   2.873   3.633   2.234
 5398SOL    HW117093   2.816   3.676   2.305
 5398SOL    HW217094   2.886   3.537   2.256
 5399SOL     OW17095   0.667   4.849   0.232
 5399SOL    HW117096   0.696   4.893   0.148
 5399SOL    HW217097   0.719   4.886   0.309
 5400SOL     OW17098   2.470   3.895   6.986
 5400SOL    HW117099   2.440   3.825   6.921
 5400SOL    HW217100   2.565   3.918   6.968
 5401SOL     OW17101   5.969   1.783   1.102
 5401SOL    HW117102   5.929   1.724   1.172
 5401SOL    HW217103   5.932   1.758   1.013
 5402SOL     OW17104   0.505   6.065   1.999
 5402SOL    HW117105   0.524   6.062   2.097
 5402SOL    HW217106   0.513   5.973   1.961
 5403SOL     OW17107   0.646   2.297   6.196
 5403SOL    HW117108   0.573   2.246   6.242
 5403SOL    HW217109   0.706   2.338   6.264
 5404SOL     OW17110   0.490   2.746   3.052
 5404SOL    HW117111   0.584   2.732   3.021
 5404SOL    HW217112   0.487   2.744   3.152
 5405SOL     OW17113   6.458   4.058   5.044
 5405SOL    HW117114   6.382   4.098   4.993
 5405SOL    HW217115   6.431   3.969   5.080
 5406SOL     OW17116   2.222   0.121   3.102
 5406SOL    HW117117   2.286   0.197   3.087
 5406SOL    HW217118   2.170   0.103   3.019
 5407SOL     OW17119   4.215   2.696   6.692
 5407SOL    HW117120   4.122   2.733   6.686
 5407SOL    HW217121   4.260   2.704   6.603
 5408SOL     OW17122   4.405   1.310   6.743
 5408SOL    HW117123   4.447   1.335   6.830
 5408SOL    HW217124   4.340   1.236   6.757
 5409SOL     OW17125   4.627   0.643   1.894
 5409SOL    HW117126   4.704   0.607   1.842
 5409SOL    HW217127   4.549   0.657   1.834
 5410SOL     OW17128   1.860   2.633   2.592
 5410SOL    HW117129   1.923   2.674   2.658
 5410SOL    HW217130   1.894   2.648   2.499
 5411SOL     OW17131   2.934   5.011   5.018
 5411SOL    HW117132   2.903   4.953   5.094
 5411SOL    HW217133   2.964   4.953   4.943
 5412SOL     OW17134   6.984   1.557   2.526
 5412SOL    HW117135   0.047   1.609   2.506
 5412SOL    HW217136   6.951   1.579   2.617
 5413SOL     OW17137   1.321   6.685   2.335
 5413SOL    HW117138   1.317   6.674   2.434
 5413SOL    HW217139   1.386   6.756   2.311
 5414SOL     OW17140   4.533   6.804   6.168
 5414SOL    HW117141   4.462   6.739   6.195
 5414SOL    HW217142   4.505   6.897   6.192
 5415SOL     OW17143   6.175   3.588   3.078
 5415SOL    HW117144   6.202   3.500   3.038
 5415SOL    HW217145   6.143   3.649   3.006
 5416SOL     OW17146   4.244   5.088   4.534
 5416SOL    HW117147   4.194   5.171   4.507
 5416SOL    HW217148   4.183   5.009   4.527
 5417SOL     OW17149   2.600   0.169   5.893
 5417SOL    HW117150   2.637   0.119   5.815
 5417SOL    HW217151   2.523   0.119   5.931
 5418SOL     OW17152   3.490   1.503   3.652
 5418SOL    HW117153   3.559   1.473   3.587
 5418SOL    HW217154   3.440   1.582   3.615
 5419SOL     OW17155   3.056   4.251   0.038
 5419SOL    HW117156   3.019   4.237   0.129
 5419SOL    HW217157   3.033   4.173   6.999
 5420SOL     OW17158   1.411   2.228   2.674
 5420SOL    HW117159   1.426   2.326   2.669
 5420SOL    HW217160   1.415   2.188   2.582
 5421SOL     OW17161   2.577   3.259   0.565
 5421SOL    HW117162   2.546   3.164   0.557
 5421SOL    HW217163   2.676   3.261   0.580
 5422SOL     OW17164   0.450   3.327   0.250
 5422SOL    HW117165   0.408   3.244   0.286
 5422SOL    HW217166   0.428   3.404   0.310
 5423SOL     OW17167   4.022   3.659   5.525
 5423SOL    HW117168   3.990   3.679   5.617
 5423SOL    HW217169   4.078   3.576   5.526
 5424SOL     OW17170   5.676   3.367   5.267
 5424SOL    HW117171   5.714   3.377   5.359
 5424SOL    HW217172   5.577   3.355   5.273
 5425SOL     OW17173   5.251   1.551   4.834
 5425SOL    HW117174   5.349   1.565   4.848
 5425SOL    HW217175   5.211   1.509   4.916
 5426SOL     OW17176   0.239   0.482   4.376
 5426SOL    HW117177   0.183   0.508   4.455
 5426SOL    HW217178   0.211   0.391   4.345
 5427SOL     OW17179   4.159   6.520   0.367
 5427SOL    HW117180   4.223   6.596   0.352
 5427SOL    HW217181   4.068   6.556   0.385
 5428SOL     OW17182   1.749   0.007   0.499
 5428SOL    HW117183   1.709   0.082   0.553
 5428SOL    HW217184   1.685   6.949   0.498
 5429SOL     OW17185   1.069   2.295   5.962
 5429SOL    HW117186   0.972   2.319   5.957
 5429SOL    HW217187   1.112   2.344   6.039
 5430SOL     OW17188   2.383   2.424   5.284
 5430SOL    HW117189   2.368   2.520   5.310
 5430SOL    HW217190   2.469   2.417   5.234
 5431SOL     OW17191   3.267   5.172   4.002
 5431SOL    HW117192   3.272   5.091   4.060
 5431SOL    HW217193   3.241   5.251   4.057
 5432SOL     OW17194   6.198   4.069   0.676
 5432SOL    HW117195   6.268   4.137   0.698
 5432SOL    HW217196   6.241   3.981   0.657
 5433SOL     OW17197   2.007   1.810   3.394
 5433SOL    HW117198   1.986   1.718   3.363
 5433SOL    HW217199   2.086   1.808   3.454
 5434SOL     OW17200   2.068   6.287   5.055
 5434SOL    HW117201   2.021   6.371   5.082
 5434SOL    HW217202   2.132   6.260   5.127
 5435SOL     OW17203   4.520   2.226   1.986
 5435SOL    HW117204   4.500   2.323   1.976
 5435SOL    HW217205   4.526   2.184   1.895
 5436SOL     OW17206   5.157   4.206   3.423
 5436SOL    HW117207   5.128   4.120   3.466
 5436SOL    HW217208   5.076   4.261   3.401
 5437SOL     OW17209   3.343   5.263   5.912
 5437SOL    HW117210   3.248   5.244   5.938
 5437SOL    HW217211   3.400   5.183   5.931
 5438SOL     OW17212   6.155   1.139   0.296
 5438SOL    HW117213   6.083   1.153   0.227
 5438SOL    HW217214   6.139   1.202   0.373
 5439SOL     OW17215   1.504   2.170   0.703
 5439SOL    HW117216   1.529   2.264   0.727
 5439SOL    HW217217   1.551   2.145   0.618
 5440SOL     OW17218   1.987   0.471   1.028
 5440SOL    HW117219   2.056   0.532   1.066
 5440SOL    HW217220   2.016   0.376   1.038
 5441SOL     OW17221   3.464   2.011   5.536
 5441SOL    HW117222   3.498   1.997   5.443
 5441SOL    HW217223   3.523   2.076   5.584
 5442SOL     OW17224   3.927   1.172   1.793
 5442SOL    HW117225   4.004   1.108   1.787
 5442SOL    HW217226   3.945   1.250   1.732
 5443SOL     OW17227   0.864   5.748   5.487
 5443SOL    HW117228   0.939   5.712   5.543
 5443SOL    HW217229   0.902   5.806   5.415
 5444SOL     OW17230   0.287   0.825   3.578
 5444SOL    HW117231   0.313   0.809   3.483
 5444SOL    HW217232   0.273   0.923   3.593
 5445SOL     OW17233   5.523   3.432   1.990
 5445SOL    HW117234   5.610   3.480   1.980
 5445SOL    HW217235   5.530   3.364   2.063
 5446SOL     OW17236   6.487   6.941   5.764
 5446SOL    HW117237   6.441   6.858   5.733
 5446SOL    HW217238   6.539   6.981   5.688
 5447SOL     OW17239   3.370   2.835   1.049
 5447SOL    HW117240   3.378   2.840   1.149
 5447SOL    HW217241   3.383   2.926   1.010
 5448SOL     OW17242   5.173   1.777   6.436
 5448SOL    HW117243   5.216   1.820   6.515
 5448SOL    HW217244   5.238   1.774   6.360
 5449SOL     OW17245   0.154   2.974   6.906
 5449SOL    HW117246   0.108   2.920   6.977
 5449SOL    HW217247   0.223   3.033   6.949
 5450SOL     OW17248   1.705   5.878   0.682
 5450SOL    HW117249   1.753   5.814   0.742
 5450SOL    HW217250   1.611   5.889   0.714
 5451SOL     OW17251   2.601   0.182   2.359
 5451SOL    HW117252   2.549   0.100   2.384
 5451SOL    HW217253   2.598   0.194   2.260
 5452SOL     OW17254   2.551   3.835   6.134
 5452SOL    HW117255   2.533   3.823   6.037
 5452SOL    HW217256   2.634   3.785   6.159
 5453SOL     OW17257   0.148   5.600   5.442
 5453SOL    HW117258   0.234   5.652   5.449
 5453SOL    HW217259   0.087   5.626   5.517
 5454SOL     OW17260   1.337   3.749   6.111
 5454SOL    HW117261   1.326   3.671   6.050
 5454SOL    HW217262   1.351   3.717   6.204
 5455SOL     OW17263   5.984   1.580   1.307
 5455SOL    HW117264   5.950   1.530   1.227
 5455SOL    HW217265   6.024   1.516   1.372
 5456SOL     OW17266   4.020   0.156   1.374
 5456SOL    HW117267   3.963   0.238   1.367
 5456SOL    HW217268   3.966   0.080   1.411
 5457SOL     OW17269   6.503   3.055   1.388
 5457SOL    HW117270   6.521   3.040   1.485
 5457SOL    HW217271   6.584   3.094   1.344
 5458SOL     OW17272   1.532   4.305   5.781
 5458SOL    HW117273   1.609   4.246   5.756
 5458SOL    HW217274   1.447   4.267   5.743
 5459SOL     OW17275   1.926   4.603   5.984
 5459SOL    HW117276   1.997   4.656   6.031
 5459SOL    HW217277   1.858   4.573   6.051
 5460SOL     OW17278   4.417   0.606   4.596
 5460SOL    HW117279   4.464   0.519   4.586
 5460SOL    HW217280   4.354   0.601   4.673
 5461SOL     OW17281   3.845   6.574   4.647
 5461SOL    HW117282   3.918   6.642   4.654
 5461SOL    HW217283   3.786   6.580   4.728
 5462SOL     OW17284   0.165   1.116   2.272
 5462SOL    HW117285   0.105   1.129   2.193
 5462SOL    HW217286   0.196   1.205   2.305
 5463SOL     OW17287   6.729   3.226   1.366
 5463SOL    HW117288   6.790   3.239   1.443
 5463SOL    HW217289   6.755   3.287   1.291
 5464SOL     OW17290   1.561   6.524   4.258
 5464SOL    HW117291   1.558   6.590   4.183
 5464SOL    HW217292   1.641   6.542   4.315
 5465SOL     OW17293   2.657   6.093   5.995
 5465SOL    HW117294   2.649   6.065   6.091
 5465SOL    HW217295   2.694   6.186   5.990
 5466SOL     OW17296   4.373   6.483   3.684
 5466SOL    HW117297   4.376   6.385   3.706
 5466SOL    HW217298   4.421   6.534   3.756
 5467SOL     OW17299   6.403   1.364   1.603
 5467SOL    HW117300   6.389   1.339   1.698
 5467SOL    HW217301   6.498   1.345   1.577
 5468SOL     OW17302   4.447   1.602   6.280
 5468SOL    HW117303   4.497   1.630   6.361
 5468SOL    HW217304   4.354   1.574   6.305
 5469SOL     OW17305   5.010   4.526   1.047
 5469SOL    HW117306   5.045   4.493   1.134
 5469SOL    HW217307   5.033   4.622   1.036
 5470SOL     OW17308   0.561   4.718   3.102
 5470SOL    HW117309   0.616   4.688   3.180
 5470SOL    HW217310   0.507   4.641   3.068
 5471SOL     OW17311   6.399   3.046   2.763
 5471SOL    HW117312   6.328   3.009   2.823
 5471SOL    HW217313   6.377   3.140   2.739
 5472SOL     OW17314   3.606   5.462   5.273
 5472SOL    HW117315   3.651   5.469   5.184
 5472SOL    HW217316   3.611   5.368   5.306
 5473SOL     OW17317   2.523   4.532   3.649
 5473SOL    HW117318   2.467   4.461   3.692
 5473SOL    HW217319   2.593   4.563   3.714
 5474SOL     OW17320   1.465   6.274   3.118
 5474SOL    HW117321   1.376   6.229   3.126
 5474SOL    HW217322   1.471   6.348   3.185
 5475SOL     OW17323   3.140   1.850   2.146
 5475SOL    HW117324   3.227   1.877   2.104
 5475SOL    HW217325   3.079   1.815   2.075
 5476SOL     OW17326   2.063   3.321   6.871
 5476SOL    HW117327   1.983   3.315   6.810
 5476SOL    HW217328   2.115   3.236   6.864
 5477SOL     OW17329   2.259   2.183   2.525
 5477SOL    HW117330   2.288   2.139   2.610
 5477SOL    HW217331   2.338   2.225   2.480
 5478SOL     OW17332   0.563   5.357   4.981
 5478SOL    HW117333   0.495   5.305   4.930
 5478SOL    HW217334   0.533   5.367   5.076
 5479SOL     OW17335   4.331   6.866   4.917
 5479SOL    HW117336   4.374   6.950   4.950
 5479SOL    HW217337   4.332   6.797   4.990
 5480SOL     OW17338   0.156   2.195   6.071
 5480SOL    HW117339   0.091   2.208   5.996
 5480SOL    HW217340   0.249   2.208   6.038
 5481SOL     OW17341   4.597   6.554   2.963
 5481SOL    HW117342   4.565   6.472   2.915
 5481SOL    HW217343   4.649   6.611   2.899
 5482SOL     OW17344   1.540   6.191   1.854
 5482SOL    HW117345   1.475   6.238   1.913
 5482SOL    HW217346   1.630   6.189   1.899
 5483SOL     OW17347   1.122   2.653   6.328
 5483SOL    HW117348   1.136   2.668   6.426
 5483SOL    HW217349   1.039   2.699   6.298
 5484SOL     OW17350   5.215   6.438   5.175
 5484SOL    HW117351   5.297   6.490   5.198
 5484SOL    HW217352   5.160   6.425   5.258
 5485SOL     OW17353   3.868   0.350   4.501
 5485SOL    HW117354   3.965   0.351   4.476
 5485SOL    HW217355   3.813   0.339   4.418
 5486SOL     OW17356   2.982   5.511   3.936
 5486SOL    HW117357   2.956   5.473   4.025
 5486SOL    HW217358   2.905   5.505   3.873
 5487SOL     OW17359   3.679   6.109   5.371
 5487SOL    HW117360   3.674   6.207   5.388
 5487SOL    HW217361   3.655   6.090   5.276
 5488SOL     OW17362   4.790   2.162   6.155
 5488SOL    HW117363   4.697   2.133   6.179
 5488SOL    HW217364   4.846   2.166   6.238
 5489SOL     OW17365   6.976   2.596   4.092
 5489SOL    HW117366   6.997   2.499   4.088
 5489SOL    HW217367   6.978   2.635   4.000
 5490SOL     OW17368   0.716   5.008   1.773
 5490SOL    HW117369   0.784   5.009   1.700
 5490SOL    HW217370   0.699   4.914   1.802
 5491SOL     OW17371   0.375   4.014   0.740
 5491SOL    HW117372   0.412   4.033   0.648
 5491SOL    HW217373   0.304   4.081   0.761
 5492SOL     OW17374   0.932   1.625   6.957
 5492SOL    HW117375   1.000   1.690   6.990
 5492SOL    HW217376   0.885   1.664   6.877
 5493SOL     OW17377   4.411   3.853   5.405
 5493SOL    HW117378   4.393   3.846   5.503
 5493SOL    HW217379   4.494   3.801   5.384
 5494SOL     OW17380   6.008   2.007   4.774
 5494SOL    HW117381   6.054   2.014   4.862
 5494SOL    HW217382   6.011   2.096   4.728
 5495SOL     OW17383   5.334   1.309   0.086
 5495SOL    HW117384   5.360   1.370   0.012
 5495SOL    HW217385   5.253   1.257   0.059
 5496SOL     OW17386   4.217   6.355   6.172
 5496SOL    HW117387   4.140   6.312   6.220
 5496SOL    HW217388   4.190   6.376   6.078
 5497SOL     OW17389   0.953   0.430   5.629
 5497SOL    HW117390   0.922   0.427   5.534
 5497SOL    HW217391   1.003   0.515   5.645
 5498SOL     OW17392   6.996   5.714   1.893
 5498SOL    HW117393   6.939   5.754   1.964
 5498SOL    HW217394   7.010   5.781   1.820
 5499SOL     OW17395   2.569   0.088   3.333
 5499SOL    HW117396   2.509   0.163   3.357
 5499SOL    HW217397   2.564   0.017   3.403
 5500SOL     OW17398   0.331   6.337   1.642
 5500SOL    HW117399   0.358   6.302   1.732
 5500SOL    HW217400   0.404   6.395   1.606
 5501SOL     OW17401   4.911   3.557   1.129
 5501SOL    HW117402   4.910   3.464   1.166
 5501SOL    HW217403   4.968   3.560   1.048
 5502SOL     OW17404   4.480   3.472   0.420
 5502SOL    HW117405   4.544   3.448   0.494
 5502SOL    HW217406   4.388   3.482   0.458
 5503SOL     OW17407   6.158   2.630   1.620
 5503SOL    HW117408   6.203   2.718   1.613
 5503SOL    HW217409   6.097   2.617   1.542
 5504SOL     OW17410   3.748   2.279   0.121
 5504SOL    HW117411   3.847   2.276   0.105
 5504SOL    HW217412   3.730   2.324   0.208
 5505SOL     OW17413   2.908   5.609   3.228
 5505SOL    HW117414   2.994   5.586   3.184
 5505SOL    HW217415   2.832   5.576   3.172
 5506SOL     OW17416   6.776   2.973   6.948
 5506SOL    HW117417   6.693   3.010   6.908
 5506SOL    HW217418   6.850   3.040   6.939
 5507SOL     OW17419   4.129   6.246   6.758
 5507SOL    HW117420   4.119   6.231   6.660
 5507SOL    HW217421   4.094   6.337   6.781
 5508SOL     OW17422   6.650   3.168   6.040
 5508SOL    HW117423   6.579   3.160   5.971
 5508SOL    HW217424   6.702   3.083   6.044
 5509SOL     OW17425   6.001   4.217   0.512
 5509SOL    HW117426   5.962   4.302   0.547
 5509SOL    HW217427   6.049   4.169   0.585
 5510SOL     OW17428   4.858   6.290   6.822
 5510SOL    HW117429   4.930   6.260   6.884
 5510SOL    HW217430   4.889   6.282   6.727
 5511SOL     OW17431   0.458   2.711   6.050
 5511SOL    HW117432   0.449   2.645   6.125
 5511SOL    HW217433   0.412   2.797   6.075
 5512SOL     OW17434   3.058   0.175   2.128
 5512SOL    HW117435   3.135   0.167   2.066
 5512SOL    HW217436   3.014   0.264   2.116
 5513SOL     OW17437   3.394   4.973   6.371
 5513SOL    HW117438   3.393   5.065   6.411
 5513SOL    HW217439   3.320   4.918   6.411
 5514SOL     OW17440   3.830   1.318   0.134
 5514SOL    HW117441   3.850   1.380   0.058
 5514SOL    HW217442   3.740   1.341   0.172
 5515SOL     OW17443   3.553   4.909   2.559
 5515SOL    HW117444   3.456   4.894   2.538
 5515SOL    HW217445   3.591   4.977   2.496
 5516SOL     OW17446   1.345   2.671   5.979
 5516SOL    HW117447   1.315   2.695   5.886
 5516SOL    HW217448   1.444   2.675   5.985
 5517SOL     OW17449   1.336   2.141   4.415
 5517SOL    HW117450   1.309   2.187   4.499
 5517SOL    HW217451   1.402   2.069   4.436
 5518SOL     OW17452   3.845   3.910   5.411
 5518SOL    HW117453   3.892   3.976   5.469
 5518SOL    HW217454   3.904   3.885   5.334
 5519SOL     OW17455   5.241   2.296   5.499
 5519SOL    HW117456   5.182   2.233   5.549
 5519SOL    HW217457   5.188   2.343   5.429
 5520SOL     OW17458   4.762   5.437   1.280
 5520SOL    HW117459   4.688   5.502   1.261
 5520SOL    HW217460   4.850   5.480   1.261
 5521SOL     OW17461   5.158   6.886   1.859
 5521SOL    HW117462   5.140   6.799   1.814
 5521SOL    HW217463   5.195   6.951   1.792
 5522SOL     OW17464   5.042   6.016   6.536
 5522SOL    HW117465   5.004   5.956   6.466
 5522SOL    HW217466   5.140   6.001   6.544
 5523SOL     OW17467   5.599   1.523   0.526
 5523SOL    HW117468   5.637   1.434   0.550
 5523SOL    HW217469   5.579   1.526   0.428
 5524SOL     OW17470   2.511   1.895   2.905
 5524SOL    HW117471   2.577   1.822   2.890
 5524SOL    HW217472   2.556   1.984   2.899
 5525SOL     OW17473   6.516   1.098   0.744
 5525SOL    HW117474   6.577   1.114   0.822
 5525SOL    HW217475   6.571   1.075   0.663
 5526SOL     OW17476   4.835   4.410   4.015
 5526SOL    HW117477   4.849   4.409   4.114
 5526SOL    HW217478   4.864   4.323   3.975
 5527SOL     OW17479   6.698   7.010   2.642
 5527SOL    HW117480   6.652   6.924   2.619
 5527SOL    HW217481   6.640   0.067   2.613
 5528SOL     OW17482   2.157   1.483   0.222
 5528SOL    HW117483   2.177   1.520   0.131
 5528SOL    HW217484   2.209   1.534   0.291
 5529SOL     OW17485   3.425   1.379   1.821
 5529SOL    HW117486   3.379   1.434   1.751
 5529SOL    HW217487   3.357   1.346   1.887
 5530SOL     OW17488   0.858   1.397   1.363
 5530SOL    HW117489   0.837   1.321   1.424
 5530SOL    HW217490   0.930   1.371   1.300
 5531SOL     OW17491   1.001   4.549   6.482
 5531SOL    HW117492   1.062   4.525   6.406
 5531SOL    HW217493   0.964   4.640   6.468
 5532SOL     OW17494   6.914   5.069   5.805
 5532SOL    HW117495   6.923   5.167   5.822
 5532SOL    HW217496   6.851   5.029   5.871
 5533SOL     OW17497   3.831   1.244   4.132
 5533SOL    HW117498   3.928   1.265   4.143
 5533SOL    HW217499   3.796   1.294   4.052
 5534SOL     OW17500   1.480   6.950   4.319
 5534SOL    HW117501   1.432   0.013   4.347
 5534SOL    HW217502   1.566   6.943   4.370
 5535SOL     OW17503   1.027   1.574   2.891
 5535SOL    HW117504   1.019   1.483   2.932
 5535SOL    HW217505   0.959   1.635   2.932
 5536SOL     OW17506   4.613   0.731   5.101
 5536SOL    HW117507   4.697   0.774   5.135
 5536SOL    HW217508   4.637   0.659   5.036
 5537SOL     OW17509   2.647   2.404   2.949
 5537SOL    HW117510   2.601   2.484   2.989
 5537SOL    HW217511   2.744   2.406   2.974
 5538SOL     OW17512   3.918   5.721   3.800
 5538SOL    HW117513   4.004   5.772   3.811
 5538SOL    HW217514   3.925   5.632   3.845
 5539SOL     OW17515   2.104   4.095   0.593
 5539SOL    HW117516   2.163   4.094   0.674
 5539SOL    HW217517   2.091   4.002   0.560
 5540SOL     OW17518   3.434   5.351   1.396
 5540SOL    HW117519   3.360   5.414   1.374
 5540SOL    HW217520   3.419   5.312   1.486
 5541SOL     OW17521   4.553   0.441   6.540
 5541SOL    HW117522   4.644   0.423   6.502
 5541SOL    HW217523   4.524   0.364   6.596
 5542SOL     OW17524   5.537   3.749   6.567
 5542SOL    HW117525   5.628   3.718   6.540
 5542SOL    HW217526   5.497   3.683   6.630
 5543SOL     OW17527   0.726   2.942   4.741
 5543SOL    HW117528   0.754   3.030   4.704
 5543SOL    HW217529   0.713   2.877   4.667
 5544SOL     OW17530   5.080   6.491   0.177
 5544SOL    HW117531   5.130   6.571   0.144
 5544SOL    HW217532   4.982   6.512   0.182
 5545SOL     OW17533   2.841   2.343   1.593
 5545SOL    HW117534   2.889   2.268   1.547
 5545SOL    HW217535   2.903   2.389   1.656
 5546SOL     OW17536   3.283   6.036   4.553
 5546SOL    HW117537   3.329   6.001   4.471
 5546SOL    HW217538   3.339   6.107   4.596
 5547SOL     OW17539   3.169   5.283   3.753
 5547SOL    HW117540   3.074   5.307   3.776
 5547SOL    HW217541   3.212   5.241   3.833
 5548SOL     OW17542   6.311   1.519   4.334
 5548SOL    HW117543   6.228   1.543   4.384
 5548SOL    HW217544   6.370   1.600   4.327
 5549SOL     OW17545   3.581   5.021   5.154
 5549SOL    HW117546   3.498   4.971   5.181
 5549SOL    HW217547   3.661   4.965   5.175
 5550SOL     OW17548   2.999   5.763   1.678
 5550SOL    HW117549   3.030   5.854   1.705
 5550SOL    HW217550   2.934   5.771   1.602
 5551SOL     OW17551   0.850   1.218   2.442
 5551SOL    HW117552   0.832   1.127   2.479
 5551SOL    HW217553   0.821   1.288   2.507
 5552SOL     OW17554   2.377   2.642   2.182
 5552SOL    HW117555   2.321   2.720   2.153
 5552SOL    HW217556   2.326   2.588   2.249
 5553SOL     OW17557   4.838   6.666   6.057
 5553SOL    HW117558   4.899   6.650   6.135
 5553SOL    HW217559   4.774   6.590   6.050
 5554SOL     OW17560   3.080   0.167   6.186
 5554SOL    HW117561   3.073   0.182   6.284
 5554SOL    HW217562   2.995   0.195   6.142
 5555SOL     OW17563   1.042   5.947   1.856
 5555SOL    HW117564   0.960   5.929   1.803
 5555SOL    HW217565   1.121   5.903   1.812
 5556SOL     OW17566   6.974   1.459   4.966
 5556SOL    HW117567   6.953   1.526   4.895
 5556SOL    HW217568   0.046   1.421   4.950
 5557SOL     OW17569   3.728   0.902   2.786
 5557SOL    HW117570   3.798   0.861   2.728
 5557SOL    HW217571   3.745   1.000   2.795
 5558SOL     OW17572   5.465   2.280   6.759
 5558SOL    HW117573   5.537   2.318   6.701
 5558SOL    HW217574   5.405   2.354   6.790
 5559SOL     OW17575   3.541   1.528   1.354
 5559SOL    HW117576   3.444   1.517   1.331
 5559SOL    HW217577   3.595   1.461   1.303
 5560SOL     OW17578   0.273   2.606   4.931
 5560SOL    HW117579   0.247   2.513   4.956
 5560SOL    HW217580   0.214   2.638   4.857
 5561SOL     OW17581   1.854   4.876   2.664
 5561SOL    HW117582   1.828   4.942   2.594
 5561SOL    HW217583   1.822   4.785   2.637
 5562SOL     OW17584   5.079   3.230   0.381
 5562SOL    HW117585   5.001   3.178   0.416
 5562SOL    HW217586   5.161   3.175   0.388
 5563SOL     OW17587   4.116   4.550   0.978
 5563SOL    HW117588   4.042   4.521   1.039
 5563SOL    HW217589   4.087   4.630   0.926
 5564SOL     OW17590   5.978   0.925   2.562
 5564SOL    HW117591   5.958   1.023   2.568
 5564SOL    HW217592   5.896   0.873   2.587
 5565SOL     OW17593   1.897   2.519   6.061
 5565SOL    HW117594   1.898   2.426   6.026
 5565SOL    HW217595   1.936   2.521   6.153
 5566SOL     OW17596   2.402   4.399   0.627
 5566SOL    HW117597   2.333   4.444   0.571
 5566SOL    HW217598   2.363   4.317   0.668
 5567SOL     OW17599   1.539   5.906   3.160
 5567SOL    HW117600   1.612   5.971   3.179
 5567SOL    HW217601   1.481   5.897   3.242
 5568SOL     OW17602   4.871   2.810   0.163
 5568SOL    HW117603   4.790   2.787   0.109
 5568SOL    HW217604   4.925   2.879   0.114
 5569SOL     OW17605   4.276   1.159   6.006
 5569SOL    HW117606   4.342   1.232   5.986
 5569SOL    HW217607   4.205   1.158   5.936
 5570SOL     OW17608   1.857   1.629   6.038
 5570SOL    HW117609   1.839   1.631   6.136
 5570SOL    HW217610   1.898   1.716   6.010
 5571SOL     OW17611   0.776   4.868   6.775
 5571SOL    HW117612   0.793   4.907   6.866
 5571SOL    HW217613   0.687   4.822   6.775
 5572SOL     OW17614   1.160   3.535   5.206
 5572SOL    HW117615   1.229   3.539   5.278
 5572SOL    HW217616   1.185   3.597   5.132
 5573SOL     OW17617   0.533   4.108   6.697
 5573SOL    HW117618   0.468   4.166   6.648
 5573SOL    HW217619   0.493   4.079   6.784
 5574SOL     OW17620   1.788   5.974   4.464
 5574SOL    HW117621   1.712   5.915   4.438
 5574SOL    HW217622   1.873   5.920   4.468
 5575SOL     OW17623   1.137   1.949   2.859
 5575SOL    HW117624   1.218   1.927   2.915
 5575SOL    HW217625   1.126   1.880   2.788
 5576SOL     OW17626   5.125   6.543   6.817
 5576SOL    HW117627   5.033   6.583   6.810
 5576SOL    HW217628   5.180   6.597   6.881
 5577SOL     OW17629   1.727   5.185   5.326
 5577SOL    HW117630   1.659   5.153   5.393
 5577SOL    HW217631   1.734   5.119   5.252
 5578SOL     OW17632   4.207   1.659   6.058
 5578SOL    HW117633   4.177   1.567   6.032
 5578SOL    HW217634   4.305   1.667   6.045
 5579SOL     OW17635   5.151   4.872   2.451
 5579SOL    HW117636   5.149   4.815   2.369
 5579SOL    HW217637   5.060   4.911   2.466
 5580SOL     OW17638   6.520   0.621   2.509
 5580SOL    HW117639   6.591   0.554   2.531
 5580SOL    HW217640   6.521   0.639   2.410
 5581SOL     OW17641   3.279   3.068   0.774
 5581SOL    HW117642   3.343   3.131   0.728
 5581SOL    HW217643   3.198   3.055   0.717
 5582SOL     OW17644   3.123   3.875   5.349
 5582SOL    HW117645   3.136   3.783   5.312
 5582SOL    HW217646   3.206   3.903   5.398
 5583SOL     OW17647   4.018   0.871   6.802
 5583SOL    HW117648   4.092   0.849   6.739
 5583SOL    HW217649   3.930   0.849   6.759
 5584SOL     OW17650   5.461   3.745   4.844
 5584SOL    HW117651   5.551   3.768   4.883
 5584SOL    HW217652   5.405   3.701   4.914
 5585SOL     OW17653   0.263   0.923   3.922
 5585SOL    HW117654   0.355   0.914   3.882
 5585SOL    HW217655   0.207   0.846   3.893
 5586SOL     OW17656   1.648   0.918   0.362
 5586SOL    HW117657   1.672   0.982   0.435
 5586SOL    HW217658   1.589   0.963   0.295
 5587SOL     OW17659   3.899   0.321   2.891
 5587SOL    HW117660   3.836   0.244   2.885
 5587SOL    HW217661   3.909   0.349   2.986
 5588SOL     OW17662   4.371   5.760   0.271
 5588SOL    HW117663   4.382   5.708   0.355
 5588SOL    HW217664   4.369   5.698   0.193
 5589SOL     OW17665   1.282   2.365   6.398
 5589SOL    HW117666   1.327   2.450   6.428
 5589SOL    HW217667   1.273   2.365   6.299
 5590SOL     OW17668   5.740   0.032   3.537
 5590SOL    HW117669   5.814   0.008   3.474
 5590SOL    HW217670   5.687   0.107   3.498
 5591SOL     OW17671   4.963   1.254   5.981
 5591SOL    HW117672   4.880   1.288   5.938
 5591SOL    HW217673   5.025   1.331   6.000
 5592SOL     OW17674   1.105   3.883   3.045
 5592SOL    HW117675   1.013   3.910   3.074
 5592SOL    HW217676   1.137   3.806   3.100
 5593SOL     OW17677   2.629   3.642   5.333
 5593SOL    HW117678   2.700   3.572   5.336
 5593SOL    HW217679   2.539   3.599   5.330
 5594SOL     OW17680   3.356   0.812   5.801
 5594SOL    HW117681   3.439   0.826   5.748
 5594SOL    HW217682   3.316   0.724   5.779
 5595SOL     OW17683   6.604   3.520   0.926
 5595SOL    HW117684   6.553   3.434   0.926
 5595SOL    HW217685   6.540   3.597   0.916
 5596SOL     OW17686   5.192   4.242   4.451
 5596SOL    HW117687   5.120   4.250   4.520
 5596SOL    HW217688   5.281   4.229   4.496
 5597SOL     OW17689   0.639   2.478   6.531
 5597SOL    HW117690   0.554   2.456   6.483
 5597SOL    HW217691   0.710   2.413   6.505
 5598SOL     OW17692   6.935   0.224   3.222
 5598SOL    HW117693   6.906   0.315   3.249
 5598SOL    HW217694   6.910   0.159   3.294
 5599SOL     OW17695   4.941   3.412   2.398
 5599SOL    HW117696   4.986   3.323   2.400
 5599SOL    HW217697   4.932   3.447   2.491
 5600SOL     OW17698   2.137   3.640   2.134
 5600SOL    HW117699   2.212   3.700   2.163
 5600SOL    HW217700   2.173   3.568   2.075
 5601SOL     OW17701   5.167   2.570   6.606
 5601SOL    HW117702   5.214   2.527   6.528
 5601SOL    HW217703   5.224   2.562   6.687
 5602SOL     OW17704   5.189   1.110   2.590
 5602SOL    HW117705   5.099   1.147   2.567
 5602SOL    HW217706   5.202   1.114   2.689
 5603SOL     OW17707   3.515   1.454   6.772
 5603SOL    HW117708   3.491   1.443   6.869
 5603SOL    HW217709   3.495   1.369   6.723
 5604SOL     OW17710   1.988   4.641   4.281
 5604SOL    HW117711   1.960   4.554   4.321
 5604SOL    HW217712   2.086   4.655   4.295
 5605SOL     OW17713   3.516   6.921   4.006
 5605SOL    HW117714   3.422   6.895   3.985
 5605SOL    HW217715   3.576   6.842   3.993
 5606SOL     OW17716   4.029   4.819   0.448
 5606SOL    HW117717   3.993   4.767   0.525
 5606SOL    HW217718   4.122   4.790   0.428
 5607SOL     OW17719   1.695   1.846   1.731
 5607SOL    HW117720   1.690   1.835   1.830
 5607SOL    HW217721   1.682   1.942   1.707
 5608SOL     OW17722   6.319   6.395   3.377
 5608SOL    HW117723   6.357   6.377   3.468
 5608SOL    HW217724   6.227   6.357   3.371
 5609SOL     OW17725   0.145   0.785   0.596
 5609SOL    HW117726   0.105   0.766   0.686
 5609SOL    HW217727   0.100   0.865   0.556
 5610SOL     OW17728   5.346   6.476   6.385
 5610SOL    HW117729   5.339   6.442   6.291
 5610SOL    HW217730   5.256   6.478   6.427
 5611SOL     OW17731   0.050   3.760   1.838
 5611SOL    HW117732   0.088   3.674   1.873
 5611SOL    HW217733   6.974   3.746   1.814
 5612SOL     OW17734   5.064   2.231   0.889
 5612SOL    HW117735   5.084   2.281   0.974
 5612SOL    HW217736   4.990   2.276   0.840
 5613SOL     OW17737   6.912   5.211   4.897
 5613SOL    HW117738   6.930   5.304   4.864
 5613SOL    HW217739   6.834   5.173   4.848
 5614SOL     OW17740   6.066   2.208   4.510
 5614SOL    HW117741   6.022   2.244   4.592
 5614SOL    HW217742   5.997   2.193   4.439
 5615SOL     OW17743   0.857   3.970   3.201
 5615SOL    HW117744   0.923   4.043   3.218
 5615SOL    HW217745   0.780   3.979   3.264
 5616SOL     OW17746   1.498   2.812   1.897
 5616SOL    HW117747   1.574   2.823   1.961
 5616SOL    HW217748   1.455   2.723   1.911
 5617SOL     OW17749   1.019   5.575   5.618
 5617SOL    HW117750   1.084   5.535   5.682
 5617SOL    HW217751   1.036   5.540   5.526
 5618SOL     OW17752   5.272   1.545   3.516
 5618SOL    HW117753   5.222   1.591   3.590
 5618SOL    HW217754   5.326   1.612   3.466
 5619SOL     OW17755   3.940   4.013   4.455
 5619SOL    HW117756   3.960   4.111   4.449
 5619SOL    HW217757   3.957   3.970   4.367
 5620SOL     OW17758   4.670   4.382   5.146
 5620SOL    HW117759   4.742   4.451   5.158
 5620SOL    HW217760   4.617   4.374   5.231
 5621SOL     OW17761   0.753   3.585   0.507
 5621SOL    HW117762   0.744   3.503   0.564
 5621SOL    HW217763   0.731   3.666   0.562
 5622SOL     OW17764   5.868   5.004   4.061
 5622SOL    HW117765   5.930   5.034   4.133
 5622SOL    HW217766   5.822   5.084   4.022
 5623SOL     OW17767   4.606   4.314   3.589
 5623SOL    HW117768   4.637   4.234   3.641
 5623SOL    HW217769   4.647   4.397   3.627
 5624SOL     OW17770   4.880   3.932   4.338
 5624SOL    HW117771   4.876   3.872   4.418
 5624SOL    HW217772   4.887   3.878   4.255
 5625SOL     OW17773   3.853   0.279   6.778
 5625SOL    HW117774   3.777   0.237   6.828
 5625SOL    HW217775   3.915   0.207   6.747
 5626SOL     OW17776   1.835   4.132   6.028
 5626SOL    HW117777   1.905   4.144   6.099
 5626SOL    HW217778   1.853   4.048   5.977
 5627SOL     OW17779   0.667   5.065   1.052
 5627SOL    HW117780   0.659   4.971   1.086
 5627SOL    HW217781   0.604   5.124   1.102
 5628SOL     OW17782   1.105   2.433   0.034
 5628SOL    HW117783   1.142   2.457   0.124
 5628SOL    HW217784   1.180   2.411   6.991
 5629SOL     OW17785   1.016   3.118   4.880
 5629SOL    HW117786   1.076   3.145   4.955
 5629SOL    HW217787   1.035   3.024   4.855
 5630SOL     OW17788   0.763   4.383   6.818
 5630SOL    HW117789   0.779   4.304   6.877
 5630SOL    HW217790   0.768   4.355   6.722
 5631SOL     OW17791   2.538   1.137   3.706
 5631SOL    HW117792   2.594   1.141   3.789
 5631SOL    HW217793   2.443   1.157   3.729
 5632SOL     OW17794   2.782   6.330   5.997
 5632SOL    HW117795   2.811   6.384   6.076
 5632SOL    HW217796   2.745   6.391   5.927
 5633SOL     OW17797   1.404   5.040   4.810
 5633SOL    HW117798   1.380   4.953   4.767
 5633SOL    HW217799   1.423   5.108   4.738
 5634SOL     OW17800   1.192   0.174   1.340
 5634SOL    HW117801   1.103   0.135   1.363
 5634SOL    HW217802   1.261   0.139   1.403
 5635SOL     OW17803   3.994   0.650   3.318
 5635SOL    HW117804   3.989   0.721   3.248
 5635SOL    HW217805   4.081   0.601   3.310
 5636SOL     OW17806   4.497   0.077   5.027
 5636SOL    HW117807   4.524   7.009   5.066
 5636SOL    HW217808   4.529   0.152   5.085
 5637SOL     OW17809   5.750   6.878   5.210
 5637SOL    HW117810   5.699   6.918   5.133
 5637SOL    HW217811   5.830   6.830   5.175
 5638SOL     OW17812   1.830   6.174   0.039
 5638SOL    HW117813   1.767   6.147   6.986
 5638SOL    HW217814   1.821   6.272   0.056
 5639SOL     OW17815   3.252   6.939   1.446
 5639SOL    HW117816   3.197   7.017   1.477
 5639SOL    HW217817   3.322   6.919   1.514
 5640SOL     OW17818   4.522   6.557   4.147
 5640SOL    HW117819   4.537   6.643   4.098
 5640SOL    HW217820   4.542   6.480   4.087
 5641SOL     OW17821   6.340   5.205   3.762
 5641SOL    HW117822   6.279   5.187   3.840
 5641SOL    HW217823   6.400   5.127   3.748
 5642SOL     OW17824   2.026   1.701   6.660
 5642SOL    HW117825   2.049   1.628   6.595
 5642SOL    HW217826   2.108   1.755   6.678
 5643SOL     OW17827   4.818   2.177   3.589
 5643SOL    HW117828   4.798   2.235   3.511
 5643SOL    HW217829   4.912   2.143   3.582
 5644SOL     OW17830   2.523   0.866   5.251
 5644SOL    HW117831   2.594   0.933   5.231
 5644SOL    HW217832   2.564   0.777   5.268
 5645SOL     OW17833   0.128   6.026   4.421
 5645SOL    HW117834   0.034   6.051   4.398
 5645SOL    HW217835   0.157   5.949   4.365
 5646SOL     OW17836   6.310   0.888   2.503
 5646SOL    HW117837   6.232   0.873   2.441
 5646SOL    HW217838   6.374   0.812   2.493
 5647SOL     OW17839   5.740   3.385   6.611
 5647SOL    HW117840   5.770   3.478   6.631
 5647SOL    HW217841   5.818   3.322   6.618
 5648SOL     OW17842   1.694   2.017   4.616
 5648SOL    HW117843   1.665   2.097   4.563
 5648SOL    HW217844   1.782   2.036   4.659
 5649SOL     OW17845   6.779   0.721   5.036
 5649SOL    HW117846   6.772   0.816   5.067
 5649SOL    HW217847   6.712   0.665   5.086
 5650SOL     OW17848   6.214   4.650   5.935
 5650SOL    HW117849   6.277   4.722   5.905
 5650SOL    HW217850   6.147   4.632   5.863
 5651SOL     OW17851   5.714   0.660   3.007
 5651SOL    HW117852   5.655   0.733   2.971
 5651SOL    HW217853   5.666   0.572   3.000
 5652SOL     OW17854   3.819   4.309   6.518
 5652SOL    HW117855   3.739   4.317   6.578
 5652SOL    HW217856   3.897   4.356   6.559
 5653SOL     OW17857   1.864   0.054   5.499
 5653SOL    HW117858   1.872   6.988   5.549
 5653SOL    HW217859   1.953   0.079   5.461
 5654SOL     OW17860   3.263   6.837   0.011
 5654SOL    HW117861   3.167   6.811   0.013
 5654SOL    HW217862   3.297   6.845   0.105
 5655SOL     OW17863   5.617   4.849   1.994
 5655SOL    HW117864   5.627   4.948   1.986
 5655SOL    HW217865   5.706   4.805   1.986
 5656SOL     OW17866   2.837   4.358   6.395
 5656SOL    HW117867   2.839   4.439   6.336
 5656SOL    HW217868   2.931   4.334   6.422
 5657SOL     OW17869   5.145   5.385   1.555
 5657SOL    HW117870   5.230   5.338   1.533
 5657SOL    HW217871   5.150   5.480   1.524
 5658SOL     OW17872   4.310   6.664   6.220
 5658SOL    HW117873   4.295   6.700   6.128
 5658SOL    HW217874   4.308   6.564   6.218
 5659SOL     OW17875   2.925   3.300   2.591
 5659SOL    HW117876   2.874   3.215   2.582
 5659SOL    HW217877   2.936   3.323   2.688
 5660SOL     OW17878   0.948   4.288   1.992
 5660SOL    HW117879   0.940   4.317   2.088
 5660SOL    HW217880   0.961   4.368   1.934
 5661SOL     OW17881   5.590   5.499   5.561
 5661SOL    HW117882   5.541   5.553   5.629
 5661SOL    HW217883   5.655   5.439   5.607
 5662SOL     OW17884   1.635   4.458   5.016
 5662SOL    HW117885   1.606   4.506   5.099
 5662SOL    HW217886   1.731   4.480   4.997
 5663SOL     OW17887   2.456   3.401   0.323
 5663SOL    HW117888   2.490   3.361   0.408
 5663SOL    HW217889   2.388   3.340   0.283
 5664SOL     OW17890   6.169   7.005   1.432
 5664SOL    HW117891   6.102   0.019   1.366
 5664SOL    HW217892   6.121   6.975   1.515
 5665SOL     OW17893   1.184   0.388   5.905
 5665SOL    HW117894   1.114   0.428   5.848
 5665SOL    HW217895   1.224   0.308   5.859
 5666SOL     OW17896   4.552   6.102   6.347
 5666SOL    HW117897   4.565   6.172   6.417
 5666SOL    HW217898   4.558   6.144   6.256
 5667SOL     OW17899   5.504   5.194   3.213
 5667SOL    HW117900   5.474   5.274   3.265
 5667SOL    HW217901   5.604   5.188   3.216
 5668SOL     OW17902   6.546   2.790   6.188
 5668SOL    HW117903   6.520   2.737   6.269
 5668SOL    HW217904   6.464   2.826   6.144
 5669SOL     OW17905   1.210   2.050   5.722
 5669SOL    HW117906   1.226   2.143   5.688
 5669SOL    HW217907   1.178   1.993   5.646
 5670SOL     OW17908   1.392   2.551   2.608
 5670SOL    HW117909   1.491   2.539   2.598
 5670SOL    HW217910   1.352   2.571   2.518
 5671SOL     OW17911   0.491   0.877   6.069
 5671SOL    HW117912   0.428   0.955   6.077
 5671SOL    HW217913   0.582   0.905   6.098
 5672SOL     OW17914   4.003   4.704   6.179
 5672SOL    HW117915   3.931   4.707   6.109
 5672SOL    HW217916   4.042   4.612   6.182
 5673SOL     OW17917   2.157   6.009   1.223
 5673SOL    HW117918   2.078   6.056   1.184
 5673SOL    HW217919   2.154   5.912   1.197
 5674SOL     OW17920   0.349   3.058   0.202
 5674SOL    HW117921   0.376   2.968   0.168
 5674SOL    HW217922   0.311   3.112   0.127
 5675SOL     OW17923   4.320   1.520   5.728
 5675SOL    HW117924   4.321   1.523   5.628
 5675SOL    HW217925   4.238   1.473   5.759
 5676SOL     OW17926   2.173   5.876   1.694
 5676SOL    HW117927   2.269   5.862   1.668
 5676SOL    HW217928   2.120   5.795   1.670
 5677SOL     OW17929   5.965   0.870   3.259
 5677SOL    HW117930   6.033   0.943   3.264
 5677SOL    HW217931   5.907   0.873   3.340
 5678SOL     OW17932   1.318   5.420   2.625
 5678SOL    HW117933   1.318   5.378   2.534
 5678SOL    HW217934   1.352   5.514   2.619
 5679SOL     OW17935   3.872   5.908   5.713
 5679SOL    HW117936   3.874   5.824   5.768
 5679SOL    HW217937   3.964   5.932   5.685
 5680SOL     OW17938   1.032   0.328   6.521
 5680SOL    HW117939   0.983   0.371   6.596
 5680SOL    HW217940   1.023   0.383   6.438
 5681SOL     OW17941   3.028   3.382   0.305
 5681SOL    HW117942   3.036   3.324   0.386
 5681SOL    HW217943   3.099   3.359   0.240
 5682SOL     OW17944   1.926   4.893   4.297
 5682SOL    HW117945   1.961   4.801   4.276
 5682SOL    HW217946   2.003   4.957   4.304
 5683SOL     OW17947   3.091   3.487   4.700
 5683SOL    HW117948   3.014   3.443   4.653
 5683SOL    HW217949   3.174   3.434   4.685
 5684SOL     OW17950   3.226   4.029   2.415
 5684SOL    HW117951   3.174   3.950   2.448
 5684SOL    HW217952   3.172   4.112   2.426
 5685SOL     OW17953   6.696   0.608   2.019
 5685SOL    HW117954   6.722   0.678   1.953
 5685SOL    HW217955   6.663   0.527   1.971
 5686SOL     OW17956   3.237   4.530   6.270
 5686SOL    HW117957   3.203   4.477   6.192
 5686SOL    HW217958   3.259   4.468   6.345
 5687SOL     OW17959   4.885   0.078   5.570
 5687SOL    HW117960   4.950   0.012   5.533
 5687SOL    HW217961   4.799   0.032   5.592
 5688SOL     OW17962   5.149   1.399   2.226
 5688SOL    HW117963   5.165   1.376   2.130
 5688SOL    HW217964   5.209   1.345   2.284
 5689SOL     OW17965   3.918   3.588   5.263
 5689SOL    HW117966   3.878   3.501   5.290
 5689SOL    HW217967   3.984   3.617   5.332
 5690SOL     OW17968   3.000   0.552   3.117
 5690SOL    HW117969   2.951   0.506   3.192
 5690SOL    HW217970   2.948   0.632   3.087
 5691SOL     OW17971   3.102   0.252   4.543
 5691SOL    HW117972   3.045   0.175   4.572
 5691SOL    HW217973   3.091   0.327   4.607
 5692SOL     OW17974   6.285   2.985   0.618
 5692SOL    HW117975   6.188   2.968   0.599
 5692SOL    HW217976   6.311   2.936   0.701
 5693SOL     OW17977   5.547   3.275   1.771
 5693SOL    HW117978   5.547   3.327   1.685
 5693SOL    HW217979   5.530   3.336   1.848
 5694SOL     OW17980   1.881   2.330   4.998
 5694SOL    HW117981   1.809   2.262   5.004
 5694SOL    HW217982   1.891   2.376   5.086
 5695SOL     OW17983   1.704   3.412   2.802
 5695SOL    HW117984   1.690   3.370   2.712
 5695SOL    HW217985   1.793   3.458   2.803
 5696SOL     OW17986   3.186   1.437   6.363
 5696SOL    HW117987   3.194   1.338   6.373
 5696SOL    HW217988   3.165   1.459   6.267
 5697SOL     OW17989   6.451   3.743   0.921
 5697SOL    HW117990   6.373   3.752   0.983
 5697SOL    HW217991   6.491   3.834   0.904
 5698SOL     OW17992   1.709   5.066   4.189
 5698SOL    HW117993   1.780   5.013   4.235
 5698SOL    HW217994   1.710   5.047   4.091
 5699SOL     OW17995   1.094   2.155   5.388
 5699SOL    HW117996   1.132   2.202   5.308
 5699SOL    HW217997   1.068   2.223   5.457
 5700SOL     OW17998   1.719   5.287   4.482
 5700SOL    HW117999   1.669   5.311   4.565
 5700SOL    HW218000   1.684   5.200   4.446
 5701SOL     OW18001   4.914   2.043   2.573
 5701SOL    HW118002   4.932   1.945   2.579
 5701SOL    HW218003   4.860   2.073   2.652
 5702SOL     OW18004   4.378   0.660   0.204
 5702SOL    HW118005   4.369   0.674   0.106
 5702SOL    HW218006   4.307   0.596   0.235
 5703SOL     OW18007   4.845   4.130   2.472
 5703SOL    HW118008   4.795   4.215   2.457
 5703SOL    HW218009   4.840   4.073   2.390
 5704SOL     OW18010   5.587   3.298   3.754
 5704SOL    HW118011   5.634   3.377   3.716
 5704SOL    HW218012   5.495   3.324   3.783
 5705SOL     OW18013   6.425   1.177   4.247
 5705SOL    HW118014   6.346   1.121   4.272
 5705SOL    HW218015   6.509   1.127   4.268
 5706SOL     OW18016   1.990   1.437   5.900
 5706SOL    HW118017   1.927   1.380   5.847
 5706SOL    HW218018   1.939   1.509   5.946
 5707SOL     OW18019   4.496   0.486   1.560
 5707SOL    HW118020   4.496   0.583   1.585
 5707SOL    HW218021   4.581   0.443   1.592
 5708SOL     OW18022   1.124   6.640   0.428
 5708SOL    HW118023   1.194   6.652   0.359
 5708SOL    HW218024   1.081   6.728   0.449
 5709SOL     OW18025   0.220   2.835   0.851
 5709SOL    HW118026   0.278   2.765   0.892
 5709SOL    HW218027   0.196   2.903   0.921
 5710SOL     OW18028   3.166   5.081   6.119
 5710SOL    HW118029   3.244   5.063   6.179
 5710SOL    HW218030   3.166   5.016   6.043
 5711SOL     OW18031   5.279   1.175   5.411
 5711SOL    HW118032   5.305   1.082   5.437
 5711SOL    HW218033   5.181   1.178   5.392
 5712SOL     OW18034   4.957   6.966   5.881
 5712SOL    HW118035   4.941   6.867   5.890
 5712SOL    HW218036   4.876   7.009   5.842
 5713SOL     OW18037   0.369   3.578   2.732
 5713SOL    HW118038   0.329   3.667   2.755
 5713SOL    HW218039   0.344   3.511   2.801
 5714SOL     OW18040   2.409   0.800   1.168
 5714SOL    HW118041   2.317   0.834   1.146
 5714SOL    HW218042   2.471   0.878   1.180
 5715SOL     OW18043   0.455   5.824   3.845
 5715SOL    HW118044   0.528   5.859   3.903
 5715SOL    HW218045   0.472   5.852   3.750
 5716SOL     OW18046   1.424   2.963   4.777
 5716SOL    HW118047   1.429   3.026   4.699
 5716SOL    HW218048   1.500   2.899   4.774
 5717SOL     OW18049   0.378   4.510   5.594
 5717SOL    HW118050   0.473   4.479   5.594
 5717SOL    HW218051   0.365   4.580   5.665
 5718SOL     OW18052   2.337   5.738   5.875
 5718SOL    HW118053   2.394   5.820   5.868
 5718SOL    HW218054   2.361   5.688   5.958
 5719SOL     OW18055   1.476   1.014   0.164
 5719SOL    HW118056   1.544   1.083   0.138
 5719SOL    HW218057   1.385   1.046   0.140
 5720SOL     OW18058   1.986   5.869   3.947
 5720SOL    HW118059   1.987   5.908   4.038
 5720SOL    HW218060   1.996   5.942   3.879
 5721SOL     OW18061   5.975   5.414   6.700
 5721SOL    HW118062   6.045   5.476   6.662
 5721SOL    HW218063   5.974   5.329   6.647
 5722SOL     OW18064   5.319   0.798   3.870
 5722SOL    HW118065   5.316   0.819   3.968
 5722SOL    HW218066   5.240   0.742   3.846
 5723SOL     OW18067   6.232   5.534   0.750
 5723SOL    HW118068   6.160   5.600   0.728
 5723SOL    HW218069   6.318   5.566   0.711
 5724SOL     OW18070   4.778   2.979   5.699
 5724SOL    HW118071   4.869   2.994   5.737
 5724SOL    HW218072   4.779   2.899   5.640
 5725SOL     OW18073   6.296   0.005   5.381
 5725SOL    HW118074   6.325   6.999   5.289
 5725SOL    HW218075   6.289   0.104   5.387
 5726SOL     OW18076   4.203   6.168   5.249
 5726SOL    HW118077   4.284   6.143   5.303
 5726SOL    HW218078   4.153   6.085   5.224
 5727SOL     OW18079   5.501   3.373   3.320
 5727SOL    HW118080   5.491   3.291   3.376
 5727SOL    HW218081   5.496   3.349   3.223
 5728SOL     OW18082   3.629   0.879   5.055
 5728SOL    HW118083   3.693   0.802   5.052
 5728SOL    HW218084   3.573   0.871   5.138
 5729SOL     OW18085   3.192   1.691   4.002
 5729SOL    HW118086   3.289   1.681   3.981
 5729SOL    HW218087   3.163   1.785   3.980
 5730SOL     OW18088   4.082   5.150   0.088
 5730SOL    HW118089   4.018   5.164   0.165
 5730SOL    HW218090   4.081   5.054   0.061
 5731SOL     OW18091   4.184   1.477   5.033
 5731SOL    HW118092   4.170   1.488   5.131
 5731SOL    HW218093   4.100   1.501   4.984
 5732SOL     OW18094   6.345   3.844   4.563
 5732SOL    HW118095   6.385   3.925   4.521
 5732SOL    HW218096   6.372   3.839   4.659
 5733SOL     OW18097   1.937   6.299   0.936
 5733SOL    HW118098   1.890   6.376   0.893
 5733SOL    HW218099   1.942   6.223   0.872
 5734SOL     OW18100   1.913   0.341   6.413
 5734SOL    HW118101   1.868   0.331   6.502
 5734SOL    HW218102   1.998   0.289   6.412
 5735SOL     OW18103   5.592   1.348   0.953
 5735SOL    HW118104   5.589   1.389   1.044
 5735SOL    HW218105   5.534   1.267   0.951
 5736SOL     OW18106   4.141   3.628   6.361
 5736SOL    HW118107   4.217   3.580   6.405
 5736SOL    HW218108   4.054   3.591   6.395
 5737SOL     OW18109   5.002   5.463   2.467
 5737SOL    HW118110   5.026   5.436   2.560
 5737SOL    HW218111   5.057   5.541   2.439
 5738SOL     OW18112   3.264   1.558   1.276
 5738SOL    HW118113   3.223   1.468   1.262
 5738SOL    HW218114   3.192   1.627   1.283
 5739SOL     OW18115   2.020   1.004   5.919
 5739SOL    HW118116   1.939   0.961   5.959
 5739SOL    HW218117   2.100   0.946   5.937
 5740SOL     OW18118   5.610   2.613   2.597
 5740SOL    HW118119   5.514   2.621   2.572
 5740SOL    HW218120   5.667   2.626   2.516
 5741SOL     OW18121   1.552   3.310   3.937
 5741SOL    HW118122   1.481   3.307   4.007
 5741SOL    HW218123   1.595   3.220   3.929
 5742SOL     OW18124   6.427   4.306   2.429
 5742SOL    HW118125   6.502   4.259   2.383
 5742SOL    HW218126   6.342   4.293   2.377
 5743SOL     OW18127   3.352   6.746   5.932
 5743SOL    HW118128   3.280   6.727   5.999
 5743SOL    HW218129   3.388   6.660   5.896
 5744SOL     OW18130   5.426   5.719   4.097
 5744SOL    HW118131   5.503   5.736   4.158
 5744SOL    HW218132   5.454   5.655   4.024
 5745SOL     OW18133   2.159   3.953   2.596
 5745SOL    HW118134   2.223   3.939   2.521
 5745SOL    HW218135   2.198   4.018   2.662
 5746SOL     OW18136   5.054   0.594   3.344
 5746SOL    HW118137   5.125   0.629   3.405
 5746SOL    HW218138   4.992   0.668   3.318
 5747SOL     OW18139   0.872   6.825   1.761
 5747SOL    HW118140   0.834   6.756   1.822
 5747SOL    HW218141   0.851   6.801   1.666
 5748SOL     OW18142   6.241   0.039   6.941
 5748SOL    HW118143   6.330   7.015   6.936
 5748SOL    HW218144   6.248   0.133   6.908
 5749SOL     OW18145   1.959   6.222   5.931
 5749SOL    HW118146   1.957   6.205   6.029
 5749SOL    HW218147   1.873   6.267   5.904
 5750SOL     OW18148   6.386   2.407   4.043
 5750SOL    HW118149   6.465   2.402   3.982
 5750SOL    HW218150   6.412   2.456   4.127
 5751SOL     OW18151   6.679   3.988   4.550
 5751SOL    HW118152   6.747   4.038   4.605
 5751SOL    HW218153   6.595   4.042   4.545
 5752SOL     OW18154   5.555   1.780   6.599
 5752SOL    HW118155   5.607   1.846   6.545
 5752SOL    HW218156   5.461   1.811   6.609
 5753SOL     OW18157   3.660   3.710   3.810
 5753SOL    HW118158   3.568   3.725   3.775
 5753SOL    HW218159   3.710   3.648   3.749
 5754SOL     OW18160   5.791   0.588   0.696
 5754SOL    HW118161   5.796   0.648   0.777
 5754SOL    HW218162   5.720   0.519   0.711
 5755SOL     OW18163   0.831   4.187   6.343
 5755SOL    HW118164   0.883   4.105   6.364
 5755SOL    HW218165   0.759   4.165   6.277
 5756SOL     OW18166   5.543   6.935   1.666
 5756SOL    HW118167   5.471   6.929   1.597
 5756SOL    HW218168   5.568   0.011   1.680
 5757SOL     OW18169   1.857   1.921   4.032
 5757SOL    HW118170   1.946   1.918   3.987
 5757SOL    HW218171   1.870   1.912   4.131
 5758SOL     OW18172   6.348   6.694   3.116
 5758SOL    HW118173   6.448   6.689   3.118
 5758SOL    HW218174   6.313   6.714   3.208
 5759SOL     OW18175   2.986   6.237   2.971
 5759SOL    HW118176   2.974   6.218   2.873
 5759SOL    HW218177   2.943   6.164   3.024
 5760SOL     OW18178   0.296   2.428   0.061
 5760SOL    HW118179   0.249   2.347   0.026
 5760SOL    HW218180   0.393   2.424   0.034
 5761SOL     OW18181   0.102   0.054   5.406
 5761SOL    HW118182   0.086   0.125   5.338
 5761SOL    HW218183   0.029   0.057   5.475
 5762SOL     OW18184   0.551   6.544   5.801
 5762SOL    HW118185   0.539   6.556   5.899
 5762SOL    HW218186   0.503   6.461   5.771
 5763SOL     OW18187   4.788   0.534   6.972
 5763SOL    HW118188   4.783   0.437   6.950
 5763SOL    HW218189   4.846   0.581   6.906
 5764SOL     OW18190   3.790   6.223   4.030
 5764SOL    HW118191   3.861   6.294   4.032
 5764SOL    HW218192   3.701   6.265   4.012
 5765SOL     OW18193   6.311   6.746   2.746
 5765SOL    HW118194   6.220   6.716   2.720
 5765SOL    HW218195   6.306   6.835   2.791
 5766SOL     OW18196   1.088   0.860   4.369
 5766SOL    HW118197   0.988   0.861   4.372
 5766SOL    HW218198   1.120   0.915   4.292
 5767SOL     OW18199   6.138   0.102   0.520
 5767SOL    HW118200   6.119   0.146   0.608
 5767SOL    HW218201   6.153   0.004   0.535
 5768SOL     OW18202   1.460   0.373   5.083
 5768SOL    HW118203   1.460   0.387   5.182
 5768SOL    HW218204   1.367   0.356   5.052
 5769SOL     OW18205   1.223   2.079   6.415
 5769SOL    HW118206   1.145   2.102   6.356
 5769SOL    HW218207   1.294   2.148   6.405
 5770SOL     OW18208   1.280   3.445   1.847
 5770SOL    HW118209   1.210   3.467   1.779
 5770SOL    HW218210   1.237   3.398   1.924
 5771SOL     OW18211   3.093   6.135   3.310
 5771SOL    HW118212   3.024   6.203   3.287
 5771SOL    HW218213   3.106   6.073   3.232
 5772SOL     OW18214   2.759   1.448   3.420
 5772SOL    HW118215   2.802   1.390   3.351
 5772SOL    HW218216   2.762   1.403   3.509
 5773SOL     OW18217   5.587   0.378   3.991
 5773SOL    HW118218   5.622   0.446   3.927
 5773SOL    HW218219   5.536   0.423   4.064
 5774SOL     OW18220   0.775   6.841   3.687
 5774SOL    HW118221   0.724   6.835   3.773
 5774SOL    HW218222   0.856   6.782   3.692
 5775SOL     OW18223   6.062   4.968   2.543
 5775SOL    HW118224   6.062   4.908   2.623
 5775SOL    HW218225   6.007   4.926   2.470
 5776SOL     OW18226   3.928   0.996   4.549
 5776SOL    HW118227   4.011   1.022   4.499
 5776SOL    HW218228   3.857   1.064   4.532
 5777SOL     OW18229   7.012   0.932   1.724
 5777SOL    HW118230   0.044   0.848   1.742
 5777SOL    HW218231   7.015   0.952   1.626
 5778SOL     OW18232   0.005   0.846   6.344
 5778SOL    HW118233   0.078   0.815   6.405
 5778SOL    HW218234   6.940   0.799   6.367
 5779SOL     OW18235   5.623   1.290   0.100
 5779SOL    HW118236   5.653   1.233   0.176
 5779SOL    HW218237   5.534   1.330   0.121
 5780SOL     OW18238   5.733   4.831   4.350
 5780SOL    HW118239   5.636   4.810   4.339
 5780SOL    HW218240   5.753   4.921   4.311
 5781SOL     OW18241   1.239   6.197   5.626
 5781SOL    HW118242   1.321   6.183   5.571
 5781SOL    HW218243   1.171   6.127   5.604
 5782SOL     OW18244   5.357   0.989   1.488
 5782SOL    HW118245   5.430   1.010   1.553
 5782SOL    HW218246   5.320   0.898   1.508
 5783SOL     OW18247   2.221   2.322   6.617
 5783SOL    HW118248   2.187   2.408   6.579
 5783SOL    HW218249   2.318   2.333   6.642
 5784SOL     OW18250   6.811   6.268   0.516
 5784SOL    HW118251   6.891   6.277   0.575
 5784SOL    HW218252   6.781   6.173   0.516
 5785SOL     OW18253   1.736   1.198   2.287
 5785SOL    HW118254   1.809   1.175   2.352
 5785SOL    HW218255   1.776   1.212   2.196
 5786SOL     OW18256   5.460   4.645   2.327
 5786SOL    HW118257   5.423   4.554   2.341
 5786SOL    HW218258   5.560   4.640   2.321
 5787SOL     OW18259   2.372   2.682   6.278
 5787SOL    HW118260   2.462   2.661   6.317
 5787SOL    HW218261   2.333   2.598   6.239
 5788SOL     OW18262   3.312   0.956   4.179
 5788SOL    HW118263   3.328   1.055   4.181
 5788SOL    HW218264   3.375   0.911   4.242
 5789SOL     OW18265   3.234   4.779   6.182
 5789SOL    HW118266   3.232   4.836   6.264
 5789SOL    HW218267   3.240   4.683   6.207
 5790SOL     OW18268   2.160   3.280   4.096
 5790SOL    HW118269   2.189   3.184   4.086
 5790SOL    HW218270   2.147   3.320   4.006
 5791SOL     OW18271   1.072   1.062   3.531
 5791SOL    HW118272   1.060   1.156   3.496
 5791SOL    HW218273   0.987   1.011   3.520
 5792SOL     OW18274   1.179   1.298   3.264
 5792SOL    HW118275   1.210   1.386   3.228
 5792SOL    HW218276   1.136   1.312   3.353
 5793SOL     OW18277   6.501   1.592   5.482
 5793SOL    HW118278   6.412   1.586   5.437
 5793SOL    HW218279   6.522   1.688   5.504
 5794SOL     OW18280   6.800   3.642   6.699
 5794SOL    HW118281   6.805   3.740   6.719
 5794SOL    HW218282   6.876   3.617   6.639
 5795SOL     OW18283   6.796   4.410   0.189
 5795SOL    HW118284   6.718   4.358   0.154
 5795SOL    HW218285   6.848   4.448   0.113
 5796SOL     OW18286   2.810   1.918   0.603
 5796SOL    HW118287   2.744   1.982   0.563
 5796SOL    HW218288   2.809   1.832   0.551
 5797SOL     OW18289   3.205   3.483   5.862
 5797SOL    HW118290   3.273   3.441   5.802
 5797SOL    HW218291   3.113   3.450   5.837
 5798SOL     OW18292   6.258   4.737   4.183
 5798SOL    HW118293   6.283   4.649   4.141
 5798SOL    HW218294   6.188   4.781   4.127
 5799SOL     OW18295   5.212   0.307   3.870
 5799SOL    HW118296   5.232   0.385   3.929
 5799SOL    HW218297   5.114   0.305   3.849
 5800SOL     OW18298   5.607   6.240   6.185
 5800SOL    HW118299   5.578   6.159   6.134
 5800SOL    HW218300   5.633   6.214   6.277
 5801SOL     OW18301   1.857   0.942   1.964
 5801SOL    HW118302   1.860   0.875   2.038
 5801SOL    HW218303   1.884   0.898   1.878
 5802SOL     OW18304   0.378   2.758   4.600
 5802SOL    HW118305   0.342   2.719   4.516
 5802SOL    HW218306   0.447   2.695   4.638
 5803SOL     OW18307   1.178   4.773   0.887
 5803SOL    HW118308   1.169   4.686   0.934
 5803SOL    HW218309   1.180   4.757   0.788
 5804SOL     OW18310   0.362   3.017   6.667
 5804SOL    HW118311   0.435   3.044   6.730
 5804SOL    HW218312   0.276   3.057   6.698
 5805SOL     OW18313   4.684   3.515   6.890
 5805SOL    HW118314   4.588   3.525   6.913
 5805SOL    HW218315   4.733   3.599   6.912
 5806SOL     OW18316   5.839   6.124   5.881
 5806SOL    HW118317   5.785   6.206   5.899
 5806SOL    HW218318   5.804   6.077   5.801
 5807SOL     OW18319   2.464   4.239   1.462
 5807SOL    HW118320   2.428   4.329   1.485
 5807SOL    HW218321   2.538   4.249   1.394
 5808SOL     OW18322   6.896   1.848   3.894
 5808SOL    HW118323   6.900   1.888   3.803
 5808SOL    HW218324   6.938   1.757   3.892
 5809SOL     OW18325   0.932   3.586   3.312
 5809SOL    HW118326   0.981   3.513   3.264
 5809SOL    HW218327   0.870   3.546   3.379
 5810SOL     OW18328   3.743   1.868   2.866
 5810SOL    HW118329   3.714   1.781   2.826
 5810SOL    HW218330   3.662   1.926   2.881
 5811SOL     OW18331   2.807   6.968   1.191
 5811SOL    HW118332   2.853   0.019   1.245
 5811SOL    HW218333   2.748   6.913   1.251
 5812SOL     OW18334   5.164   0.654   4.338
 5812SOL    HW118335   5.065   0.669   4.340
 5812SOL    HW218336   5.183   0.568   4.291
 5813SOL     OW18337   1.445   2.106   4.877
 5813SOL    HW118338   1.433   2.028   4.814
 5813SOL    HW218339   1.405   2.188   4.836
 5814SOL     OW18340   0.475   4.961   1.419
 5814SOL    HW118341   0.549   4.955   1.353
 5814SOL    HW218342   0.499   5.026   1.491
 5815SOL     OW18343   4.380   6.376   5.202
 5815SOL    HW118344   4.384   6.399   5.105
 5815SOL    HW218345   4.316   6.300   5.215
 5816SOL     OW18346   5.099   6.511   6.523
 5816SOL    HW118347   5.002   6.489   6.531
 5816SOL    HW218348   5.133   6.546   6.611
 5817SOL     OW18349   6.235   2.402   6.193
 5817SOL    HW118350   6.292   2.350   6.130
 5817SOL    HW218351   6.250   2.500   6.178
 5818SOL     OW18352   6.028   6.611   4.966
 5818SOL    HW118353   5.947   6.601   4.907
 5818SOL    HW218354   6.066   6.703   4.954
 5819SOL     OW18355   6.615   0.811   1.459
 5819SOL    HW118356   6.594   0.764   1.373
 5819SOL    HW218357   6.530   0.824   1.511
 5820SOL     OW18358   5.531   4.631   1.712
 5820SOL    HW118359   5.451   4.623   1.771
 5820SOL    HW218360   5.562   4.726   1.710
 5821SOL     OW18361   2.931   6.381   2.621
 5821SOL    HW118362   2.860   6.444   2.655
 5821SOL    HW218363   2.969   6.418   2.537
 5822SOL     OW18364   0.198   0.619   3.156
 5822SOL    HW118365   0.269   0.551   3.140
 5822SOL    HW218366   0.134   0.620   3.080
 5823SOL     OW18367   1.330   2.421   3.717
 5823SOL    HW118368   1.330   2.492   3.647
 5823SOL    HW218369   1.245   2.427   3.770
 5824SOL     OW18370   5.092   0.718   3.705
 5824SOL    HW118371   5.032   0.646   3.672
 5824SOL    HW218372   5.039   0.785   3.757
 5825SOL     OW18373   2.865   1.261   1.773
 5825SOL    HW118374   2.902   1.183   1.823
 5825SOL    HW218375   2.928   1.287   1.700
 5826SOL     OW18376   0.228   6.795   2.906
 5826SOL    HW118377   0.204   6.699   2.920
 5826SOL    HW218378   0.306   6.801   2.844
 5827SOL     OW18379   1.702   5.452   6.087
 5827SOL    HW118380   1.662   5.473   5.998
 5827SOL    HW218381   1.753   5.366   6.081
 5828SOL     OW18382   6.488   1.466   1.328
 5828SOL    HW118383   6.508   1.564   1.340
 5828SOL    HW218384   6.443   1.431   1.410
 5829SOL     OW18385   1.939   1.080   1.598
 5829SOL    HW118386   2.013   1.018   1.570
 5829SOL    HW218387   1.851   1.035   1.583
 5830SOL     OW18388   1.315   0.963   5.989
 5830SOL    HW118389   1.377   0.913   5.929
 5830SOL    HW218390   1.222   0.928   5.977
 5831SOL     OW18391   5.797   5.672   2.811
 5831SOL    HW118392   5.767   5.755   2.763
 5831SOL    HW218393   5.725   5.642   2.874
 5832SOL     OW18394   3.986   3.425   4.345
 5832SOL    HW118395   3.940   3.511   4.322
 5832SOL    HW218396   4.021   3.430   4.438
 5833SOL     OW18397   3.048   3.099   4.263
 5833SOL    HW118398   3.143   3.071   4.279
 5833SOL    HW218399   2.987   3.040   4.317
 5834SOL     OW18400   5.596   1.566   6.406
 5834SOL    HW118401   5.670   1.498   6.401
 5834SOL    HW218402   5.611   1.626   6.484
 5835SOL     OW18403   5.643   2.541   4.193
 5835SOL    HW118404   5.638   2.503   4.101
 5835SOL    HW218405   5.674   2.471   4.257
 5836SOL     OW18406   3.868   6.787   4.095
 5836SOL    HW118407   3.950   6.754   4.142
 5836SOL    HW218408   3.805   6.711   4.081
 5837SOL     OW18409   4.045   4.396   6.850
 5837SOL    HW118410   4.115   4.335   6.887
 5837SOL    HW218411   3.964   4.394   6.909
 5838SOL     OW18412   0.764   1.254   5.725
 5838SOL    HW118413   0.697   1.247   5.651
 5838SOL    HW218414   0.722   1.225   5.811
 5839SOL     OW18415   0.236   2.715   2.251
 5839SOL    HW118416   0.202   2.806   2.274
 5839SOL    HW218417   0.167   2.665   2.200
 5840SOL     OW18418   3.259   5.358   0.449
 5840SOL    HW118419   3.354   5.384   0.432
 5840SOL    HW218420   3.198   5.430   0.418
 5841SOL     OW18421   6.265   2.568   3.187
 5841SOL    HW118422   6.308   2.582   3.276
 5841SOL    HW218423   6.251   2.657   3.143
 5842SOL     OW18424   3.772   2.525   1.123
 5842SOL    HW118425   3.772   2.604   1.184
 5842SOL    HW218426   3.679   2.488   1.116
 5843SOL     OW18427   0.237   1.925   1.663
 5843SOL    HW118428   0.222   1.912   1.761
 5843SOL    HW218429   0.325   1.886   1.637
 5844SOL     OW18430   1.786   6.378   6.277
 5844SOL    HW118431   1.735   6.296   6.302
 5844SOL    HW218432   1.724   6.444   6.234
 5845SOL     OW18433   2.377   2.525   4.280
 5845SOL    HW118434   2.369   2.541   4.379
 5845SOL    HW218435   2.428   2.441   4.264
 5846SOL     OW18436   0.356   3.459   6.755
 5846SOL    HW118437   0.367   3.410   6.842
 5846SOL    HW218438   0.262   3.449   6.723
 5847SOL     OW18439   1.415   2.403   4.208
 5847SOL    HW118440   1.340   2.338   4.200
 5847SOL    HW218441   1.469   2.403   4.124
 5848SOL     OW18442   0.968   4.663   3.376
 5848SOL    HW118443   1.036   4.730   3.408
 5848SOL    HW218444   1.015   4.579   3.348
 5849SOL     OW18445   2.057   0.426   5.790
 5849SOL    HW118446   2.142   0.374   5.780
 5849SOL    HW218447   1.981   0.375   5.749
 5850SOL     OW18448   1.025   5.167   2.929
 5850SOL    HW118449   1.076   5.081   2.923
 5850SOL    HW218450   1.084   5.243   2.900
 5851SOL     OW18451   6.796   3.466   1.764
 5851SOL    HW118452   6.791   3.557   1.724
 5851SOL    HW218453   6.855   3.467   1.845
 5852SOL     OW18454   3.943   6.375   2.504
 5852SOL    HW118455   3.934   6.292   2.559
 5852SOL    HW218456   3.897   6.451   2.550
 5853SOL     OW18457   4.951   4.080   5.126
 5853SOL    HW118458   4.873   4.073   5.188
 5853SOL    HW218459   4.918   4.102   5.034
 5854SOL     OW18460   1.505   1.021   6.830
 5854SOL    HW118461   1.445   1.030   6.751
 5854SOL    HW218462   1.461   0.963   6.899
 5855SOL     OW18463   1.968   1.916   5.064
 5855SOL    HW118464   2.007   2.007   5.048
 5855SOL    HW218465   1.910   1.891   4.986
 5856SOL     OW18466   0.641   6.796   3.449
 5856SOL    HW118467   0.543   6.789   3.468
 5856SOL    HW218468   0.690   6.819   3.534
 5857SOL     OW18469   0.769   2.563   5.402
 5857SOL    HW118470   0.822   2.500   5.344
 5857SOL    HW218471   0.760   2.524   5.494
 5858SOL     OW18472   3.097   0.247   4.067
 5858SOL    HW118473   3.132   0.325   4.118
 5858SOL    HW218474   3.168   0.211   4.007
 5859SOL     OW18475   5.641   5.082   1.863
 5859SOL    HW118476   5.585   5.137   1.801
 5859SOL    HW218477   5.706   5.142   1.911
 5860SOL     OW18478   6.699   4.385   0.442
 5860SOL    HW118479   6.605   4.350   0.441
 5860SOL    HW218480   6.734   4.391   0.349
 5861SOL     OW18481   6.304   2.144   4.619
 5861SOL    HW118482   6.222   2.161   4.564
 5861SOL    HW218483   6.379   2.118   4.558
 5862SOL     OW18484   6.180   5.329   4.415
 5862SOL    HW118485   6.170   5.417   4.367
 5862SOL    HW218486   6.267   5.287   4.389
 5863SOL     OW18487   1.605   1.543   0.560
 5863SOL    HW118488   1.700   1.536   0.529
 5863SOL    HW218489   1.600   1.612   0.633
 5864SOL     OW18490   4.807   5.168   0.227
 5864SOL    HW118491   4.756   5.090   0.191
 5864SOL    HW218492   4.824   5.233   0.153
 5865SOL     OW18493   4.469   0.258   3.069
 5865SOL    HW118494   4.471   0.158   3.064
 5865SOL    HW218495   4.561   0.294   3.055
 5866SOL     OW18496   3.675   2.098   6.623
 5866SOL    HW118497   3.635   2.128   6.537
 5866SOL    HW218498   3.608   2.107   6.697
 5867SOL     OW18499   6.589   2.837   2.162
 5867SOL    HW118500   6.524   2.764   2.140
 5867SOL    HW218501   6.682   2.806   2.144
 5868SOL     OW18502   0.199   6.247   5.573
 5868SOL    HW118503   0.119   6.267   5.630
 5868SOL    HW218504   0.197   6.151   5.545
 5869SOL     OW18505   2.324   5.051   4.702
 5869SOL    HW118506   2.290   5.141   4.676
 5869SOL    HW218507   2.254   4.981   4.684
 5870SOL     OW18508   5.752   6.235   4.238
 5870SOL    HW118509   5.711   6.210   4.150
 5870SOL    HW218510   5.727   6.167   4.306
 5871SOL     OW18511   3.467   4.692   0.936
 5871SOL    HW118512   3.419   4.676   0.850
 5871SOL    HW218513   3.559   4.728   0.917
 5872SOL     OW18514   4.407   5.644   3.808
 5872SOL    HW118515   4.419   5.629   3.710
 5872SOL    HW218516   4.495   5.665   3.850
 5873SOL     OW18517   2.202   3.501   1.251
 5873SOL    HW118518   2.264   3.424   1.236
 5873SOL    HW218519   2.225   3.546   1.337
 5874SOL     OW18520   0.527   4.594   6.207
 5874SOL    HW118521   0.485   4.536   6.278
 5874SOL    HW218522   0.496   4.565   6.117
 5875SOL     OW18523   4.020   2.420   1.421
 5875SOL    HW118524   4.025   2.495   1.356
 5875SOL    HW218525   4.052   2.451   1.511
 5876SOL     OW18526   3.938   4.349   6.059
 5876SOL    HW118527   3.897   4.372   5.970
 5876SOL    HW218528   3.865   4.329   6.125
 5877SOL     OW18529   5.837   6.229   3.160
 5877SOL    HW118530   5.768   6.275   3.216
 5877SOL    HW218531   5.803   6.218   3.067
 5878SOL     OW18532   4.884   4.094   2.975
 5878SOL    HW118533   4.944   4.157   3.024
 5878SOL    HW218534   4.870   4.012   3.031
 5879SOL     OW18535   3.048   4.670   5.776
 5879SOL    HW118536   3.123   4.702   5.719
 5879SOL    HW218537   2.981   4.623   5.719
 5880SOL     OW18538   5.903   2.245   0.580
 5880SOL    HW118539   5.942   2.262   0.490
 5880SOL    HW218540   5.810   2.210   0.571
 5881SOL     OW18541   0.815   6.181   3.720
 5881SOL    HW118542   0.816   6.171   3.621
 5881SOL    HW218543   0.728   6.147   3.756
 5882SOL     OW18544   1.100   5.789   4.603
 5882SOL    HW118545   1.102   5.756   4.697
 5882SOL    HW218546   1.189   5.825   4.578
 5883SOL     OW18547   0.237   5.576   7.009
 5883SOL    HW118548   0.145   5.554   0.021
 5883SOL    HW218549   0.283   5.632   0.059
 5884SOL     OW18550   0.863   0.888   1.358
 5884SOL    HW118551   0.771   0.899   1.320
 5884SOL    HW218552   0.859   0.832   1.441
 5885SOL     OW18553   6.655   5.858   1.842
 5885SOL    HW118554   6.695   5.881   1.932
 5885SOL    HW218555   6.704   5.908   1.771
 5886SOL     OW18556   1.612   4.346   3.143
 5886SOL    HW118557   1.682   4.307   3.202
 5886SOL    HW218558   1.580   4.278   3.078
 5887SOL     OW18559   2.415   3.593   1.448
 5887SOL    HW118560   2.486   3.639   1.501
 5887SOL    HW218561   2.422   3.494   1.460
 5888SOL     OW18562   3.436   6.307   1.960
 5888SOL    HW118563   3.440   6.278   1.864
 5888SOL    HW218564   3.344   6.340   1.982
 5889SOL     OW18565   4.588   1.158   1.657
 5889SOL    HW118566   4.609   1.241   1.606
 5889SOL    HW218567   4.644   1.083   1.623
 5890SOL     OW18568   2.474   5.106   3.262
 5890SOL    HW118569   2.404   5.152   3.206
 5890SOL    HW218570   2.553   5.085   3.205
 5891SOL     OW18571   2.255   3.079   6.843
 5891SOL    HW118572   2.305   3.113   6.764
 5891SOL    HW218573   2.318   3.066   6.919
 5892SOL     OW18574   0.543   2.090   1.647
 5892SOL    HW118575   0.595   2.094   1.562
 5892SOL    HW218576   0.517   1.995   1.666
 5893SOL     OW18577   0.038   6.442   1.172
 5893SOL    HW118578   0.114   6.437   1.236
 5893SOL    HW218579   0.040   6.531   1.126
 5894SOL     OW18580   3.189   5.200   6.832
 5894SOL    HW118581   3.187   5.275   6.765
 5894SOL    HW218582   3.097   5.164   6.845
 5895SOL     OW18583   6.178   2.527   4.317
 5895SOL    HW118584   6.188   2.597   4.388
 5895SOL    HW218585   6.267   2.506   4.278
 5896SOL     OW18586   5.736   2.405   0.749
 5896SOL    HW118587   5.710   2.344   0.823
 5896SOL    HW218588   5.720   2.360   0.661
 5897SOL     OW18589   3.145   3.822   0.026
 5897SOL    HW118590   3.185   3.748   0.081
 5897SOL    HW218591   3.049   3.800   0.007
 5898SOL     OW18592   3.964   0.480   6.957
 5898SOL    HW118593   3.905   0.507   0.014
 5898SOL    HW218594   3.914   0.418   6.897
 5899SOL     OW18595   0.053   0.131   0.561
 5899SOL    HW118596   6.979   0.150   0.587
 5899SOL    HW218597   0.091   0.209   0.512
 5900SOL     OW18598   5.269   5.878   2.215
 5900SOL    HW118599   5.176   5.897   2.248
 5900SOL    HW218600   5.273   5.896   2.117
 5901SOL     OW18601   1.110   0.351   4.493
 5901SOL    HW118602   1.183   0.320   4.433
 5901SOL    HW218603   1.023   0.312   4.463
 5902SOL     OW18604   4.360   3.888   5.701
 5902SOL    HW118605   4.358   3.791   5.727
 5902SOL    HW218606   4.273   3.931   5.724
 5903SOL     OW18607   5.236   1.030   6.446
 5903SOL    HW118608   5.186   0.944   6.445
 5903SOL    HW218609   5.171   1.106   6.448
 5904SOL     OW18610   0.057   5.575   1.255
 5904SOL    HW118611   0.083   5.491   1.302
 5904SOL    HW218612   6.993   5.560   1.202
 5905SOL     OW18613   6.599   1.830   4.724
 5905SOL    HW118614   6.579   1.842   4.627
 5905SOL    HW218615   6.552   1.900   4.777
 5906SOL     OW18616   4.122   0.480   4.634
 5906SOL    HW118617   4.088   0.540   4.707
 5906SOL    HW218618   4.089   0.513   4.546
 5907SOL     OW18619   1.028   3.368   5.761
 5907SOL    HW118620   0.988   3.380   5.670
 5907SOL    HW218621   1.128   3.375   5.755
 5908SOL     OW18622   4.795   2.912   6.828
 5908SOL    HW118623   4.853   2.853   6.771
 5908SOL    HW218624   4.846   2.943   6.908
 5909SOL     OW18625   6.911   5.064   2.958
 5909SOL    HW118626   6.993   5.031   3.006
 5909SOL    HW218627   6.833   5.063   3.020
 5910SOL     OW18628   1.991   4.286   2.640
 5910SOL    HW118629   1.975   4.193   2.607
 5910SOL    HW218630   2.090   4.300   2.652
 5911SOL     OW18631   0.263   1.189   5.272
 5911SOL    HW118632   0.168   1.216   5.291
 5911SOL    HW218633   0.287   1.110   5.329
 5912SOL     OW18634   0.828   3.684   6.002
 5912SOL    HW118635   0.777   3.753   6.054
 5912SOL    HW218636   0.891   3.729   5.940
 5913SOL     OW18637   1.930   2.870   5.221
 5913SOL    HW118638   1.945   2.828   5.131
 5913SOL    HW218639   1.973   2.961   5.222
 5914SOL     OW18640   1.007   5.686   0.214
 5914SOL    HW118641   0.959   5.624   0.152
 5914SOL    HW218642   1.045   5.634   0.290
 5915SOL     OW18643   5.806   4.216   4.791
 5915SOL    HW118644   5.824   4.231   4.694
 5915SOL    HW218645   5.708   4.212   4.807
 5916SOL     OW18646   3.449   0.804   6.938
 5916SOL    HW118647   3.393   0.725   6.967
 5916SOL    HW218648   3.537   0.771   6.905
 5917SOL     OW18649   3.343   3.486   1.710
 5917SOL    HW118650   3.374   3.567   1.759
 5917SOL    HW218651   3.419   3.421   1.701
 5918SOL     OW18652   3.278   2.110   3.777
 5918SOL    HW118653   3.373   2.124   3.806
 5918SOL    HW218654   3.276   2.088   3.679
 5919SOL     OW18655   1.521   1.310   6.165
 5919SOL    HW118656   1.610   1.332   6.206
 5919SOL    HW218657   1.535   1.257   6.082
 5920SOL     OW18658   2.059   3.731   6.671
 5920SOL    HW118659   2.048   3.814   6.617
 5920SOL    HW218660   2.003   3.737   6.754
 5921SOL     OW18661   3.425   6.515   4.004
 5921SOL    HW118662   3.496   6.523   4.074
 5921SOL    HW218663   3.441   6.434   3.949
 5922SOL     OW18664   6.642   5.408   2.135
 5922SOL    HW118665   6.647   5.361   2.223
 5922SOL    HW218666   6.734   5.434   2.106
 5923SOL     OW18667   1.003   6.996   3.128
 5923SOL    HW118668   1.053   7.012   3.043
 5923SOL    HW218669   1.058   0.010   3.205
 5924SOL     OW18670   5.930   2.287   4.745
 5924SOL    HW118671   5.868   2.232   4.801
 5924SOL    HW218672   5.947   2.375   4.790
 5925SOL     OW18673   6.528   6.615   1.161
 5925SOL    HW118674   6.527   6.687   1.092
 5925SOL    HW218675   6.577   6.648   1.242
 5926SOL     OW18676   2.767   7.007   2.070
 5926SOL    HW118677   2.839   6.998   2.139
 5926SOL    HW218678   2.709   0.065   2.092
 5927SOL     OW18679   1.685   5.394   1.147
 5927SOL    HW118680   1.743   5.404   1.066
 5927SOL    HW218681   1.619   5.469   1.150
 5928SOL     OW18682   6.094   6.438   0.945
 5928SOL    HW118683   6.156   6.488   1.006
 5928SOL    HW218684   6.095   6.480   0.854
 5929SOL     OW18685   0.518   0.272   6.332
 5929SOL    HW118686   0.528   0.318   6.244
 5929SOL    HW218687   0.481   0.180   6.317
 5930SOL     OW18688   6.845   1.668   4.780
 5930SOL    HW118689   6.875   1.698   4.870
 5930SOL    HW218690   6.753   1.704   4.762
 5931SOL     OW18691   6.108   4.415   0.784
 5931SOL    HW118692   6.015   4.407   0.749
 5931SOL    HW218693   6.109   4.470   0.867
 5932SOL     OW18694   2.305   0.685   0.895
 5932SOL    HW118695   2.372   0.740   0.944
 5932SOL    HW218696   2.346   0.597   0.871
 5933SOL     OW18697   5.662   2.556   3.160
 5933SOL    HW118698   5.716   2.571   3.243
 5933SOL    HW218699   5.677   2.464   3.127
 5934SOL     OW18700   4.173   3.388   1.882
 5934SOL    HW118701   4.163   3.487   1.882
 5934SOL    HW218702   4.131   3.350   1.800
 5935SOL     OW18703   3.847   3.453   2.987
 5935SOL    HW118704   3.928   3.509   2.969
 5935SOL    HW218705   3.873   3.374   3.043
 5936SOL     OW18706   6.576   5.763   6.941
 5936SOL    HW118707   6.504   5.829   6.919
 5936SOL    HW218708   6.665   5.801   6.918
 5937SOL     OW18709   0.846   3.496   1.272
 5937SOL    HW118710   0.748   3.475   1.282
 5937SOL    HW218711   0.899   3.414   1.297
 5938SOL     OW18712   3.056   5.188   1.353
 5938SOL    HW118713   3.137   5.141   1.316
 5938SOL    HW218714   2.978   5.125   1.351
 5939SOL     OW18715   0.464   0.263   2.250
 5939SOL    HW118716   0.553   0.297   2.280
 5939SOL    HW218717   0.476   0.175   2.205
 5940SOL     OW18718   4.498   4.563   2.610
 5940SOL    HW118719   4.561   4.641   2.616
 5940SOL    HW218720   4.413   4.592   2.568
 5941SOL     OW18721   6.434   3.002   4.025
 5941SOL    HW118722   6.466   3.071   4.089
 5941SOL    HW218723   6.366   2.944   4.070
 5942SOL     OW18724   0.140   1.935   5.039
 5942SOL    HW118725   0.144   1.955   5.137
 5942SOL    HW218726   0.135   2.020   4.987
 5943SOL     OW18727   1.670   6.160   1.222
 5943SOL    HW118728   1.678   6.141   1.125
 5943SOL    HW218729   1.651   6.257   1.235
 5944SOL     OW18730   5.018   2.828   3.126
 5944SOL    HW118731   5.092   2.818   3.059
 5944SOL    HW218732   5.024   2.753   3.193
 5945SOL     OW18733   6.241   6.308   6.252
 5945SOL    HW118734   6.311   6.337   6.187
 5945SOL    HW218735   6.152   6.303   6.206
 5946SOL     OW18736   3.790   2.106   5.442
 5946SOL    HW118737   3.822   2.189   5.396
 5946SOL    HW218738   3.774   2.126   5.538
 5947SOL     OW18739   5.965   4.121   3.328
 5947SOL    HW118740   5.898   4.080   3.389
 5947SOL    HW218741   5.923   4.197   3.279
 5948SOL     OW18742   2.445   5.638   3.240
 5948SOL    HW118743   2.511   5.580   3.289
 5948SOL    HW218744   2.360   5.642   3.293
 5949SOL     OW18745   5.234   4.020   3.130
 5949SOL    HW118746   5.324   4.044   3.167
 5949SOL    HW218747   5.178   4.103   3.122
 5950SOL     OW18748   0.633   2.017   5.080
 5950SOL    HW118749   0.615   2.063   5.167
 5950SOL    HW218750   0.553   1.964   5.053
 5951SOL     OW18751   2.108   0.739   3.272
 5951SOL    HW118752   2.105   0.663   3.338
 5951SOL    HW218753   2.113   0.702   3.179
 5952SOL     OW18754   6.842   6.579   4.357
 5952SOL    HW118755   6.914   6.510   4.358
 5952SOL    HW218756   6.754   6.536   4.379
 5953SOL     OW18757   1.359   3.999   5.919
 5953SOL    HW118758   1.428   4.015   5.990
 5953SOL    HW218759   1.321   3.907   5.929
 5954SOL     OW18760   1.421   4.373   6.461
 5954SOL    HW118761   1.354   4.419   6.403
 5954SOL    HW218762   1.374   4.330   6.538
 5955SOL     OW18763   3.458   5.220   2.137
 5955SOL    HW118764   3.455   5.120   2.132
 5955SOL    HW218765   3.367   5.255   2.158
 5956SOL     OW18766   0.424   1.551   0.958
 5956SOL    HW118767   0.484   1.472   0.949
 5956SOL    HW218768   0.473   1.634   0.932
 5957SOL     OW18769   3.966   6.592   6.413
 5957SOL    HW118770   4.064   6.603   6.429
 5957SOL    HW218771   3.949   6.586   6.314
 5958SOL     OW18772   0.909   5.919   2.303
 5958SOL    HW118773   0.914   6.018   2.317
 5958SOL    HW218774   0.969   5.892   2.228
 5959SOL     OW18775   1.503   0.409   5.346
 5959SOL    HW118776   1.471   0.504   5.342
 5959SOL    HW218777   1.468   0.366   5.429
 5960SOL     OW18778   3.313   5.949   5.149
 5960SOL    HW118779   3.241   5.926   5.084
 5960SOL    HW218780   3.276   6.003   5.224
 5961SOL     OW18781   3.268   0.515   5.101
 5961SOL    HW118782   3.344   0.532   5.037
 5961SOL    HW218783   3.182   0.543   5.058
 5962SOL     OW18784   5.429   4.163   3.371
 5962SOL    HW118785   5.334   4.190   3.385
 5962SOL    HW218786   5.433   4.075   3.325
 5963SOL     OW18787   4.292   3.983   1.702
 5963SOL    HW118788   4.202   4.024   1.689
 5963SOL    HW218789   4.342   4.035   1.771
 5964SOL     OW18790   1.507   3.320   4.978
 5964SOL    HW118791   1.422   3.332   4.926
 5964SOL    HW218792   1.504   3.233   5.026
 5965SOL     OW18793   2.208   2.392   4.670
 5965SOL    HW118794   2.113   2.400   4.700
 5965SOL    HW218795   2.249   2.311   4.713
 5966SOL     OW18796   1.223   5.491   4.051
 5966SOL    HW118797   1.127   5.515   4.039
 5966SOL    HW218798   1.281   5.569   4.025
 5967SOL     OW18799   5.126   5.589   0.750
 5967SOL    HW118800   5.113   5.524   0.676
 5967SOL    HW218801   5.176   5.546   0.825
 5968SOL     OW18802   2.196   1.782   4.321
 5968SOL    HW118803   2.129   1.727   4.273
 5968SOL    HW218804   2.248   1.724   4.385
 5969SOL     OW18805   0.628   2.362   2.970
 5969SOL    HW118806   0.659   2.275   2.932
 5969SOL    HW218807   0.630   2.357   3.070
 5970SOL     OW18808   1.801   4.152   3.311
 5970SOL    HW118809   1.767   4.067   3.270
 5970SOL    HW218810   1.756   4.167   3.399
 5971SOL     OW18811   3.319   5.617   3.495
 5971SOL    HW118812   3.255   5.625   3.572
 5971SOL    HW218813   3.393   5.684   3.506
 5972SOL     OW18814   5.015   6.966   1.465
 5972SOL    HW118815   4.968   0.033   1.449
 5972SOL    HW218816   4.950   6.899   1.502
 5973SOL     OW18817   2.928   4.892   3.326
 5973SOL    HW118818   2.989   4.907   3.248
 5973SOL    HW218819   2.846   4.844   3.295
 5974SOL     OW18820   0.744   3.959   6.599
 5974SOL    HW118821   0.723   3.960   6.502
 5974SOL    HW218822   0.700   4.037   6.644
 5975SOL     OW18823   1.926   2.854   6.550
 5975SOL    HW118824   2.025   2.843   6.554
 5975SOL    HW218825   1.881   2.781   6.602
 5976SOL     OW18826   3.213   4.066   4.435
 5976SOL    HW118827   3.254   4.070   4.526
 5976SOL    HW218828   3.130   4.009   4.439
 5977SOL     OW18829   0.622   3.664   2.876
 5977SOL    HW118830   0.543   3.693   2.822
 5977SOL    HW218831   0.706   3.690   2.829
 5978SOL     OW18832   5.328   5.150   1.062
 5978SOL    HW118833   5.275   5.193   0.988
 5978SOL    HW218834   5.269   5.091   1.116
 5979SOL     OW18835   1.171   1.070   1.775
 5979SOL    HW118836   1.229   1.001   1.817
 5979SOL    HW218837   1.079   1.033   1.764
 5980SOL     OW18838   5.738   2.819   5.006
 5980SOL    HW118839   5.818   2.821   4.946
 5980SOL    HW218840   5.678   2.895   4.984
 5981SOL     OW18841   3.571   2.030   0.738
 5981SOL    HW118842   3.534   2.119   0.711
 5981SOL    HW218843   3.667   2.025   0.712
 5982SOL     OW18844   6.221   2.629   6.685
 5982SOL    HW118845   6.260   2.688   6.755
 5982SOL    HW218846   6.136   2.588   6.720
 5983SOL     OW18847   0.005   0.975   4.211
 5983SOL    HW118848   6.940   1.007   4.168
 5983SOL    HW218849   7.008   0.887   4.255
 5984SOL     OW18850   0.371   0.053   6.254
 5984SOL    HW118851   0.353   0.121   6.183
 5984SOL    HW218852   0.339   6.984   6.224
 5985SOL     OW18853   5.896   3.575   3.801
 5985SOL    HW118854   5.818   3.560   3.740
 5985SOL    HW218855   5.897   3.504   3.871
 5986SOL     OW18856   3.347   3.560   2.181
 5986SOL    HW118857   3.389   3.626   2.242
 5986SOL    HW218858   3.354   3.468   2.222
 5987SOL     OW18859   3.969   0.117   5.127
 5987SOL    HW118860   4.044   0.169   5.168
 5987SOL    HW218861   3.885   0.173   5.130
 5988SOL     OW18862   3.163   6.782   5.655
 5988SOL    HW118863   3.137   6.723   5.732
 5988SOL    HW218864   3.197   6.869   5.690
 5989SOL     OW18865   3.238   1.484   6.631
 5989SOL    HW118866   3.263   1.579   6.652
 5989SOL    HW218867   3.221   1.475   6.533
 5990SOL     OW18868   2.513   6.211   3.161
 5990SOL    HW118869   2.498   6.156   3.243
 5990SOL    HW218870   2.539   6.304   3.188
 5991SOL     OW18871   4.060   4.805   2.797
 5991SOL    HW118872   4.158   4.790   2.808
 5991SOL    HW218873   4.029   4.765   2.710
 5992SOL     OW18874   3.788   1.867   4.040
 5992SOL    HW118875   3.695   1.903   4.046
 5992SOL    HW218876   3.792   1.794   3.972
 5993SOL     OW18877   2.624   5.632   4.276
 5993SOL    HW118878   2.658   5.692   4.349
 5993SOL    HW218879   2.532   5.661   4.250
 5994SOL     OW18880   6.271   2.316   0.791
 5994SOL    HW118881   6.203   2.382   0.760
 5994SOL    HW218882   6.295   2.335   0.886
 5995SOL     OW18883   0.267   3.862   1.668
 5995SOL    HW118884   0.199   3.841   1.738
 5995SOL    HW218885   0.239   3.943   1.617
 5996SOL     OW18886   1.307   6.136   5.881
 5996SOL    HW118887   1.238   6.075   5.921
 5996SOL    HW218888   1.276   6.166   5.790
 5997SOL     OW18889   0.098   0.194   1.496
 5997SOL    HW118890   0.147   0.157   1.417
 5997SOL    HW218891   0.001   0.172   1.488
 5998SOL     OW18892   4.933   3.708   2.984
 5998SOL    HW118893   4.990   3.745   2.911
 5998SOL    HW218894   4.910   3.781   3.049
 5999SOL     OW18895   2.179   3.171   3.203
 5999SOL    HW118896   2.275   3.200   3.210
 5999SOL    HW218897   2.174   3.072   3.199
 6000SOL     OW18898   5.214   1.045   3.742
 6000SOL    HW118899   5.243   1.102   3.665
 6000SOL    HW218900   5.292   0.997   3.780
 6001SOL     OW18901   4.801   1.190   7.007
 6001SOL    HW118902   4.740   1.260   0.024
 6001SOL    HW218903   4.773   1.167   6.913
 6002SOL     OW18904   2.053   0.152   2.141
 6002SOL    HW118905   1.981   0.200   2.191
 6002SOL    HW218906   2.044   0.171   2.043
 6003SOL     OW18907   5.240   4.772   3.629
 6003SOL    HW118908   5.316   4.790   3.565
 6003SOL    HW218909   5.273   4.712   3.702
 6004SOL     OW18910   0.903   3.369   1.940
 6004SOL    HW118911   0.930   3.274   1.922
 6004SOL    HW218912   0.884   3.380   2.037
 6005SOL     OW18913   2.312   6.570   2.258
 6005SOL    HW118914   2.221   6.578   2.299
 6005SOL    HW218915   2.359   6.491   2.296
 6006SOL     OW18916   2.227   6.658   6.297
 6006SOL    HW118917   2.240   6.745   6.345
 6006SOL    HW218918   2.129   6.645   6.278
 6007SOL     OW18919   5.517   3.824   4.576
 6007SOL    HW118920   5.501   3.794   4.670
 6007SOL    HW218921   5.561   3.751   4.524
 6008SOL     OW18922   5.455   3.988   2.146
 6008SOL    HW118923   5.384   4.000   2.216
 6008SOL    HW218924   5.492   4.077   2.121
 6009SOL     OW18925   3.299   1.714   4.898
 6009SOL    HW118926   3.248   1.644   4.847
 6009SOL    HW218927   3.279   1.804   4.861
 6010SOL     OW18928   1.824   5.138   3.505
 6010SOL    HW118929   1.739   5.148   3.452
 6010SOL    HW218930   1.839   5.042   3.525
 6011SOL     OW18931   6.513   2.471   1.618
 6011SOL    HW118932   6.475   2.402   1.681
 6011SOL    HW218933   6.606   2.446   1.594
 6012SOL     OW18934   0.707   2.363   0.860
 6012SOL    HW118935   0.688   2.411   0.775
 6012SOL    HW218936   0.622   2.350   0.911
 6013SOL     OW18937   5.303   1.266   2.383
 6013SOL    HW118938   5.285   1.195   2.452
 6013SOL    HW218939   5.388   1.313   2.405
 6014SOL     OW18940   5.977   1.542   0.184
 6014SOL    HW118941   5.945   1.563   0.092
 6014SOL    HW218942   5.919   1.588   0.251
 6015SOL     OW18943   6.023   6.811   4.451
 6015SOL    HW118944   6.110   6.857   4.466
 6015SOL    HW218945   6.013   6.737   4.517
 6016SOL     OW18946   1.055   0.145   5.425
 6016SOL    HW118947   1.045   0.050   5.454
 6016SOL    HW218948   1.026   0.154   5.330
 6017SOL     OW18949   0.171   3.502   2.473
 6017SOL    HW118950   0.242   3.525   2.407
 6017SOL    HW218951   0.191   3.548   2.560
 6018SOL     OW18952   3.215   4.802   1.919
 6018SOL    HW118953   3.177   4.757   1.838
 6018SOL    HW218954   3.309   4.769   1.934
 6019SOL     OW18955   6.981   6.858   3.764
 6019SOL    HW118956   6.950   6.850   3.859
 6019SOL    HW218957   6.904   6.882   3.705
 6020SOL     OW18958   2.687   6.535   2.952
 6020SOL    HW118959   2.699   6.501   2.858
 6020SOL    HW218960   2.769   6.584   2.980
 6021SOL     OW18961   3.053   1.166   3.417
 6021SOL    HW118962   3.028   1.216   3.334
 6021SOL    HW218963   2.981   1.101   3.439
 6022SOL     OW18964   3.584   2.147   5.993
 6022SOL    HW118965   3.680   2.123   6.006
 6022SOL    HW218966   3.545   2.090   5.921
 6023SOL     OW18967   0.549   1.937   1.996
 6023SOL    HW118968   0.524   2.029   2.027
 6023SOL    HW218969   0.582   1.941   1.902
 6024SOL     OW18970   5.866   4.737   2.008
 6024SOL    HW118971   5.954   4.781   1.988
 6024SOL    HW218972   5.882   4.660   2.070
 6025SOL     OW18973   4.502   2.530   2.268
 6025SOL    HW118974   4.545   2.608   2.312
 6025SOL    HW218975   4.452   2.477   2.337
 6026SOL     OW18976   0.959   4.269   5.549
 6026SOL    HW118977   0.863   4.245   5.529
 6026SOL    HW218978   0.966   4.367   5.565
 6027SOL     OW18979   3.968   4.157   0.328
 6027SOL    HW118980   3.935   4.147   0.422
 6027SOL    HW218981   3.905   4.215   0.277
 6028SOL     OW18982   1.021   4.093   5.799
 6028SOL    HW118983   1.077   4.113   5.718
 6028SOL    HW218984   1.065   4.132   5.880
 6029SOL     OW18985   1.147   5.135   1.260
 6029SOL    HW118986   1.206   5.214   1.274
 6029SOL    HW218987   1.072   5.160   1.199
 6030SOL     OW18988   1.845   6.331   1.724
 6030SOL    HW118989   1.861   6.294   1.815
 6030SOL    HW218990   1.787   6.268   1.672
 6031SOL     OW18991   4.559   0.839   4.598
 6031SOL    HW118992   4.573   0.871   4.504
 6031SOL    HW218993   4.486   0.771   4.600
 6032SOL     OW18994   1.350   2.387   2.344
 6032SOL    HW118995   1.343   2.360   2.249
 6032SOL    HW218996   1.356   2.487   2.350
 6033SOL     OW18997   0.127   7.004   4.437
 6033SOL    HW118998   0.202   6.949   4.473
 6033SOL    HW218999   0.131   7.004   4.337
 6034SOL     OW19000   3.006   4.895   4.467
 6034SOL    HW119001   2.921   4.850   4.494
 6034SOL    HW219002   3.076   4.879   4.536
 6035SOL     OW19003   4.946   0.362   3.824
 6035SOL    HW119004   4.926   0.405   3.736
 6035SOL    HW219005   4.895   0.409   3.897
 6036SOL     OW19006   5.396   1.138   5.694
 6036SOL    HW119007   5.369   1.042   5.690
 6036SOL    HW219008   5.425   1.168   5.603
 6037SOL     OW19009   6.988   5.068   4.487
 6037SOL    HW119010   6.964   4.993   4.549
 6037SOL    HW219011   0.018   5.030   4.408
 6038SOL     OW19012   0.005   3.243   6.716
 6038SOL    HW119013   0.010   3.149   6.682
 6038SOL    HW219014   6.999   3.243   6.812
 6039SOL     OW19015   3.255   3.548   3.729
 6039SOL    HW119016   3.189   3.608   3.684
 6039SOL    HW219017   3.270   3.467   3.673
 6040SOL     OW19018   1.443   1.016   1.121
 6040SOL    HW119019   1.522   0.961   1.094
 6040SOL    HW219020   1.380   1.026   1.044
 6041SOL     OW19021   0.776   3.241   6.192
 6041SOL    HW119022   0.783   3.194   6.280
 6041SOL    HW219023   0.717   3.188   6.130
 6042SOL     OW19024   5.628   5.789   4.957
 6042SOL    HW119025   5.583   5.799   5.046
 6042SOL    HW219026   5.727   5.801   4.969
 6043SOL     OW19027   6.643   4.644   3.236
 6043SOL    HW119028   6.735   4.634   3.272
 6043SOL    HW219029   6.644   4.629   3.137
 6044SOL     OW19030   1.328   0.929   0.694
 6044SOL    HW119031   1.363   0.836   0.696
 6044SOL    HW219032   1.309   0.960   0.788
 6045SOL     OW19033   6.121   3.708   6.489
 6045SOL    HW119034   6.155   3.702   6.396
 6045SOL    HW219035   6.189   3.753   6.547
 6046SOL     OW19036   0.895   3.850   6.937
 6046SOL    HW119037   0.993   3.847   6.953
 6046SOL    HW219038   0.869   3.775   6.876
 6047SOL     OW19039   1.073   6.616   4.913
 6047SOL    HW119040   1.144   6.546   4.923
 6047SOL    HW219041   1.114   6.707   4.918
 6048SOL     OW19042   4.866   6.762   3.803
 6048SOL    HW119043   4.846   6.841   3.745
 6048SOL    HW219044   4.920   6.696   3.751
 6049SOL     OW19045   0.014   5.598   0.366
 6049SOL    HW119046   0.107   5.563   0.378
 6049SOL    HW219047   6.976   5.563   0.439
 6050SOL     OW19048   5.687   4.370   5.252
 6050SOL    HW119049   5.617   4.431   5.213
 6050SOL    HW219050   5.774   4.420   5.260
 6051SOL     OW19051   2.649   2.134   3.225
 6051SOL    HW119052   2.606   2.086   3.301
 6051SOL    HW219053   2.594   2.213   3.199
 6052SOL     OW19054   0.614   2.060   6.769
 6052SOL    HW119055   0.713   2.073   6.768
 6052SOL    HW219056   0.577   2.086   6.858
 6053SOL     OW19057   0.975   0.469   6.273
 6053SOL    HW119058   0.924   0.423   6.200
 6053SOL    HW219059   1.073   0.460   6.256
 6054SOL     OW19060   0.681   3.881   6.345
 6054SOL    HW119061   0.629   3.820   6.404
 6054SOL    HW219062   0.772   3.844   6.330
 6055SOL     OW19063   5.511   6.403   2.619
 6055SOL    HW119064   5.493   6.331   2.685
 6055SOL    HW219065   5.610   6.417   2.610
 6056SOL     OW19066   5.464   2.990   6.334
 6056SOL    HW119067   5.388   3.055   6.341
 6056SOL    HW219068   5.450   2.931   6.254
 6057SOL     OW19069   5.035   0.524   6.538
 6057SOL    HW119070   5.129   0.529   6.572
 6057SOL    HW219071   5.019   0.434   6.497
 6058SOL     OW19072   5.390   2.515   5.598
 6058SOL    HW119073   5.345   2.446   5.541
 6058SOL    HW219074   5.486   2.492   5.610
 6059SOL     OW19075   0.086   6.233   6.774
 6059SOL    HW119076   0.171   6.261   6.820
 6059SOL    HW219077   0.098   6.142   6.734
 6060SOL     OW19078   3.291   5.854   6.639
 6060SOL    HW119079   3.326   5.774   6.687
 6060SOL    HW219080   3.356   5.929   6.646
 6061SOL     OW19081   2.314   1.383   6.656
 6061SOL    HW119082   2.320   1.482   6.671
 6061SOL    HW219083   2.377   1.357   6.583
 6062SOL     OW19084   1.288   6.658   3.398
 6062SOL    HW119085   1.321   6.751   3.415
 6062SOL    HW219086   1.190   6.653   3.418
 6063SOL     OW19087   6.017   6.263   6.671
 6063SOL    HW119088   5.928   6.289   6.710
 6063SOL    HW219089   6.085   6.332   6.694
 6064SOL     OW19090   0.739   5.626   2.033
 6064SOL    HW119091   0.733   5.528   2.013
 6064SOL    HW219092   0.683   5.647   2.113
 6065SOL     OW19093   4.917   6.975   0.983
 6065SOL    HW119094   4.934   6.909   0.909
 6065SOL    HW219095   4.986   6.963   1.055
 6066SOL     OW19096   4.769   1.977   5.635
 6066SOL    HW119097   4.750   1.994   5.732
 6066SOL    HW219098   4.726   1.891   5.606
 6067SOL     OW19099   5.077   1.207   0.024
 6067SOL    HW119100   4.980   1.183   0.017
 6067SOL    HW219101   5.132   1.138   6.996
 6068SOL     OW19102   4.981   1.128   5.492
 6068SOL    HW119103   4.917   1.052   5.482
 6068SOL    HW219104   5.008   1.136   5.588
 6069SOL     OW19105   0.207   5.215   3.340
 6069SOL    HW119106   0.158   5.259   3.415
 6069SOL    HW219107   0.238   5.284   3.275
 6070SOL     OW19108   4.856   3.277   1.177
 6070SOL    HW119109   4.817   3.208   1.238
 6070SOL    HW219110   4.811   3.272   1.088
 6071SOL     OW19111   5.665   0.926   5.449
 6071SOL    HW119112   5.679   0.838   5.405
 6071SOL    HW219113   5.693   0.920   5.545
 6072SOL     OW19114   5.760   1.139   1.918
 6072SOL    HW119115   5.689   1.087   1.964
 6072SOL    HW219116   5.800   1.084   1.845
 6073SOL     OW19117   5.692   0.843   0.773
 6073SOL    HW119118   5.657   0.791   0.694
 6073SOL    HW219119   5.730   0.929   0.742
 6074SOL     OW19120   0.507   1.257   5.607
 6074SOL    HW119121   0.485   1.280   5.512
 6074SOL    HW219122   0.498   1.158   5.620
 6075SOL     OW19123   5.201   3.250   5.792
 6075SOL    HW119124   5.238   3.157   5.786
 6075SOL    HW219125   5.225   3.301   5.710
 6076SOL     OW19126   3.374   0.341   3.791
 6076SOL    HW119127   3.420   0.278   3.854
 6076SOL    HW219128   3.283   0.304   3.769
 6077SOL     OW19129   5.327   5.188   3.008
 6077SOL    HW119130   5.239   5.222   3.040
 6077SOL    HW219131   5.386   5.169   3.086
 6078SOL     OW19132   2.276   4.700   4.528
 6078SOL    HW119133   2.358   4.643   4.536
 6078SOL    HW219134   2.248   4.731   4.618
 6079SOL     OW19135   3.237   2.441   0.505
 6079SOL    HW119136   3.167   2.468   0.439
 6079SOL    HW219137   3.201   2.449   0.598
 6080SOL     OW19138   6.509   3.393   3.713
 6080SOL    HW119139   6.554   3.305   3.701
 6080SOL    HW219140   6.412   3.385   3.689
 6081SOL     OW19141   0.945   4.469   1.799
 6081SOL    HW119142   1.028   4.467   1.744
 6081SOL    HW219143   0.877   4.528   1.755
 6082SOL     OW19144   4.639   1.907   5.353
 6082SOL    HW119145   4.631   2.003   5.380
 6082SOL    HW219146   4.735   1.878   5.359
 6083SOL     OW19147   1.565   6.085   0.238
 6083SOL    HW119148   1.558   5.986   0.251
 6083SOL    HW219149   1.636   6.122   0.297
 6084SOL     OW19150   0.437   5.914   6.410
 6084SOL    HW119151   0.517   5.971   6.431
 6084SOL    HW219152   0.447   5.876   6.318
 6085SOL     OW19153   5.380   4.817   2.103
 6085SOL    HW119154   5.406   4.768   2.186
 6085SOL    HW219155   5.462   4.843   2.053
 6086SOL     OW19156   3.091   2.146   1.875
 6086SOL    HW119157   3.022   2.219   1.874
 6086SOL    HW219158   3.084   2.095   1.961
 6087SOL     OW19159   3.444   0.714   0.437
 6087SOL    HW119160   3.468   0.808   0.462
 6087SOL    HW219161   3.350   0.712   0.404
 6088SOL     OW19162   0.749   1.130   4.387
 6088SOL    HW119163   0.743   1.189   4.468
 6088SOL    HW219164   0.798   1.047   4.410
 6089SOL     OW19165   0.269   3.611   1.348
 6089SOL    HW119166   0.335   3.608   1.424
 6089SOL    HW219167   0.176   3.607   1.384
 6090SOL     OW19168   6.361   6.759   4.178
 6090SOL    HW119169   6.269   6.725   4.196
 6090SOL    HW219170   6.425   6.717   4.243
 6091SOL     OW19171   6.839   2.042   2.458
 6091SOL    HW119172   6.746   2.078   2.449
 6091SOL    HW219173   6.858   1.982   2.380
 6092SOL     OW19174   0.415   3.039   1.358
 6092SOL    HW119175   0.380   2.991   1.277
 6092SOL    HW219176   0.350   3.111   1.384
 6093SOL     OW19177   1.021   4.172   0.948
 6093SOL    HW119178   1.036   4.220   0.861
 6093SOL    HW219179   1.099   4.112   0.967
 6094SOL     OW19180   0.427   1.532   1.318
 6094SOL    HW119181   0.358   1.603   1.332
 6094SOL    HW219182   0.406   1.482   1.234
 6095SOL     OW19183   0.509   4.065   5.099
 6095SOL    HW119184   0.508   3.965   5.107
 6095SOL    HW219185   0.421   4.101   5.129
 6096SOL     OW19186   5.677   1.939   2.757
 6096SOL    HW119187   5.619   2.019   2.770
 6096SOL    HW219188   5.668   1.906   2.663
 6097SOL     OW19189   3.946   1.091   3.032
 6097SOL    HW119190   3.957   0.997   3.000
 6097SOL    HW219191   3.877   1.093   3.104
 6098SOL     OW19192   0.376   1.042   6.830
 6098SOL    HW119193   0.283   1.078   6.833
 6098SOL    HW219194   0.385   0.978   6.754
 6099SOL     OW19195   5.875   4.223   4.526
 6099SOL    HW119196   5.974   4.232   4.512
 6099SOL    HW219197   5.831   4.203   4.439
 6100SOL     OW19198   7.000   2.924   1.431
 6100SOL    HW119199   0.071   2.901   1.468
 6100SOL    HW219200   6.929   2.895   1.496
 6101SOL     OW19201   6.025   6.692   3.471
 6101SOL    HW119202   6.054   6.617   3.412
 6101SOL    HW219203   6.100   6.716   3.533
 6102SOL     OW19204   3.541   6.250   4.999
 6102SOL    HW119205   3.451   6.281   5.029
 6102SOL    HW219206   3.575   6.181   5.062
 6103SOL     OW19207   5.283   2.133   4.644
 6103SOL    HW119208   5.296   2.129   4.743
 6103SOL    HW219209   5.261   2.042   4.609
 6104SOL     OW19210   2.538   2.533   1.060
 6104SOL    HW119211   2.630   2.573   1.065
 6104SOL    HW219212   2.533   2.473   0.980
 6105SOL     OW19213   3.467   5.245   4.579
 6105SOL    HW119214   3.399   5.296   4.632
 6105SOL    HW219215   3.503   5.170   4.634
 6106SOL     OW19216   1.812   5.347   4.101
 6106SOL    HW119217   1.833   5.263   4.050
 6106SOL    HW219218   1.733   5.331   4.160
 6107SOL     OW19219   2.106   4.902   5.857
 6107SOL    HW119220   2.009   4.925   5.854
 6107SOL    HW219221   2.120   4.814   5.812
 6108SOL     OW19222   5.695   1.514   4.610
 6108SOL    HW119223   5.725   1.606   4.638
 6108SOL    HW219224   5.765   1.447   4.635
 6109SOL     OW19225   0.435   4.487   1.981
 6109SOL    HW119226   0.362   4.555   1.989
 6109SOL    HW219227   0.523   4.533   1.989
 6110SOL     OW19228   3.357   1.906   3.212
 6110SOL    HW119229   3.285   1.882   3.277
 6110SOL    HW219230   3.348   2.003   3.187
 6111SOL     OW19231   0.708   4.817   3.528
 6111SOL    HW119232   0.749   4.861   3.448
 6111SOL    HW219233   0.709   4.881   3.605
 6112SOL     OW19234   2.034   0.588   1.289
 6112SOL    HW119235   1.956   0.633   1.244
 6112SOL    HW219236   2.007   0.496   1.317
 6113SOL     OW19237   0.729   4.959   6.166
 6113SOL    HW119238   0.644   4.955   6.220
 6113SOL    HW219239   0.738   5.050   6.126
 6114SOL     OW19240   3.681   4.442   1.249
 6114SOL    HW119241   3.743   4.477   1.178
 6114SOL    HW219242   3.715   4.354   1.282
 6115SOL     OW19243   0.292   3.849   2.769
 6115SOL    HW119244   0.282   3.910   2.848
 6115SOL    HW219245   0.206   3.846   2.719
 6116SOL     OW19246   4.081   2.651   1.284
 6116SOL    HW119247   4.104   2.727   1.345
 6116SOL    HW219248   4.133   2.661   1.199
 6117SOL     OW19249   5.130   6.555   4.397
 6117SOL    HW119250   5.220   6.530   4.362
 6117SOL    HW219251   5.064   6.484   4.372
 6118SOL     OW19252   6.372   0.556   3.522
 6118SOL    HW119253   6.351   0.559   3.424
 6118SOL    HW219254   6.448   0.493   3.539
 6119SOL     OW19255   6.034   4.975   5.145
 6119SOL    HW119256   5.993   5.065   5.158
 6119SOL    HW219257   6.114   4.983   5.085
 6120SOL     OW19258   2.814   1.943   2.366
 6120SOL    HW119259   2.892   2.004   2.351
 6120SOL    HW219260   2.733   1.980   2.321
 6121SOL     OW19261   0.078   1.675   3.260
 6121SOL    HW119262   0.092   1.702   3.356
 6121SOL    HW219263   0.097   1.753   3.201
 6122SOL     OW19264   4.007   5.793   4.273
 6122SOL    HW119265   3.974   5.887   4.260
 6122SOL    HW219266   3.952   5.749   4.343
 6123SOL     OW19267   6.970   2.106   3.059
 6123SOL    HW119268   6.926   2.190   3.089
 6123SOL    HW219269   6.995   2.115   2.962
 6124SOL     OW19270   2.962   0.526   4.704
 6124SOL    HW119271   3.034   0.592   4.684
 6124SOL    HW219272   2.937   0.532   4.800
 6125SOL     OW19273   1.281   4.190   2.646
 6125SOL    HW119274   1.251   4.271   2.697
 6125SOL    HW219275   1.280   4.110   2.706
 6126SOL     OW19276   3.530   6.951   2.919
 6126SOL    HW119277   3.577   6.873   2.959
 6126SOL    HW219278   3.434   6.927   2.904
 6127SOL     OW19279   1.982   5.566   1.274
 6127SOL    HW119280   2.007   5.470   1.263
 6127SOL    HW219281   2.030   5.622   1.207
 6128SOL     OW19282   5.713   3.816   1.652
 6128SOL    HW119283   5.751   3.891   1.706
 6128SOL    HW219284   5.783   3.746   1.638
 6129SOL     OW19285   6.403   3.858   3.662
 6129SOL    HW119286   6.457   3.880   3.581
 6129SOL    HW219287   6.319   3.913   3.663
 6130SOL     OW19288   6.302   3.305   2.754
 6130SOL    HW119289   6.261   3.256   2.677
 6130SOL    HW219290   6.271   3.400   2.754
 6131SOL     OW19291   0.006   2.020   5.479
 6131SOL    HW119292   0.052   2.049   5.395
 6131SOL    HW219293   6.977   2.098   5.519
 6132SOL     OW19294   6.986   3.019   0.696
 6132SOL    HW119295   0.000   3.088   0.631
 6132SOL    HW219296   7.019   2.929   0.669
 6133SOL     OW19297   1.559   4.534   0.772
 6133SOL    HW119298   1.473   4.549   0.722
 6133SOL    HW219299   1.629   4.597   0.738
 6134SOL     OW19300   4.320   4.101   6.157
 6134SOL    HW119301   4.288   4.151   6.076
 6134SOL    HW219302   4.374   4.163   6.214
 6135SOL     OW19303   5.534   6.281   1.996
 6135SOL    HW119304   5.564   6.218   2.068
 6135SOL    HW219305   5.614   6.317   1.948
 6136SOL     OW19306   1.643   1.889   2.312
 6136SOL    HW119307   1.662   1.978   2.354
 6136SOL    HW219308   1.670   1.816   2.375
 6137SOL     OW19309   2.873   0.250   6.033
 6137SOL    HW119310   2.780   0.281   6.053
 6137SOL    HW219311   2.900   0.283   5.943
 6138SOL     OW19312   4.477   0.619   3.546
 6138SOL    HW119313   4.525   0.533   3.563
 6138SOL    HW219314   4.486   0.644   3.450
 6139SOL     OW19315   2.815   6.540   3.672
 6139SOL    HW119316   2.874   6.516   3.595
 6139SOL    HW219317   2.868   6.543   3.756
 6140SOL     OW19318   2.328   5.640   1.376
 6140SOL    HW119319   2.296   5.566   1.435
 6140SOL    HW219320   2.254   5.668   1.315
 6141SOL     OW19321   0.815   6.193   4.530
 6141SOL    HW119322   0.797   6.098   4.506
 6141SOL    HW219323   0.840   6.200   4.626
 6142SOL     OW19324   0.234   2.959   4.160
 6142SOL    HW119325   0.234   3.047   4.207
 6142SOL    HW219326   0.193   2.969   4.069
 6143SOL     OW19327   6.476   5.741   6.612
 6143SOL    HW119328   6.497   5.650   6.647
 6143SOL    HW219329   6.397   5.778   6.661
 6144SOL     OW19330   0.402   5.718   4.986
 6144SOL    HW119331   0.340   5.741   4.911
 6144SOL    HW219332   0.357   5.655   5.049
 6145SOL     OW19333   5.816   5.483   3.471
 6145SOL    HW119334   5.814   5.522   3.379
 6145SOL    HW219335   5.904   5.503   3.514
 6146SOL     OW19336   6.075   1.478   3.750
 6146SOL    HW119337   6.019   1.462   3.669
 6146SOL    HW219338   6.093   1.391   3.796
 6147SOL     OW19339   1.048   4.076   3.810
 6147SOL    HW119340   1.009   4.004   3.867
 6147SOL    HW219341   0.987   4.155   3.809
 6148SOL     OW19342   5.661   6.506   3.707
 6148SOL    HW119343   5.723   6.484   3.631
 6148SOL    HW219344   5.566   6.492   3.678
 6149SOL     OW19345   0.466   5.755   4.432
 6149SOL    HW119346   0.496   5.706   4.350
 6149SOL    HW219347   0.427   5.690   4.497
 6150SOL     OW19348   4.376   6.888   6.609
 6150SOL    HW119349   4.471   6.855   6.602
 6150SOL    HW219350   4.346   6.922   6.520
 6151SOL     OW19351   4.044   0.426   5.023
 6151SOL    HW119352   4.038   0.330   4.996
 6151SOL    HW219353   4.055   0.433   5.122
 6152SOL     OW19354   6.261   3.253   6.572
 6152SOL    HW119355   6.227   3.265   6.479
 6152SOL    HW219356   6.272   3.342   6.616
 6153SOL     OW19357   3.990   5.505   5.589
 6153SOL    HW119358   4.065   5.548   5.540
 6153SOL    HW219359   3.903   5.543   5.556
 6154SOL     OW19360   5.231   2.913   3.440
 6154SOL    HW119361   5.249   2.819   3.411
 6154SOL    HW219362   5.211   2.969   3.359
 6155SOL     OW19363   3.114   4.940   4.708
 6155SOL    HW119364   3.186   4.975   4.767
 6155SOL    HW219365   3.041   4.900   4.764
 6156SOL     OW19366   5.471   0.552   4.206
 6156SOL    HW119367   5.418   0.487   4.261
 6156SOL    HW219368   5.427   0.642   4.209
 6157SOL     OW19369   1.295   0.143   4.406
 6157SOL    HW119370   1.242   0.115   4.327
 6157SOL    HW219371   1.244   0.123   4.490
 6158SOL     OW19372   4.767   6.249   0.271
 6158SOL    HW119373   4.706   6.261   0.349
 6158SOL    HW219374   4.854   6.211   0.302
 6159SOL     OW19375   4.390   3.280   6.348
 6159SOL    HW119376   4.471   3.306   6.401
 6159SOL    HW219377   4.308   3.318   6.392
 6160SOL     OW19378   6.087   5.055   0.542
 6160SOL    HW119379   6.043   5.064   0.452
 6160SOL    HW219380   6.143   4.973   0.543
 6161SOL     OW19381   5.107   0.774   6.413
 6161SOL    HW119382   5.109   0.756   6.314
 6161SOL    HW219383   5.082   0.690   6.461
 6162SOL     OW19384   5.615   6.139   3.645
 6162SOL    HW119385   5.642   6.046   3.619
 6162SOL    HW219386   5.536   6.167   3.590
 6163SOL     OW19387   0.514   4.013   3.196
 6163SOL    HW119388   0.422   4.013   3.235
 6163SOL    HW219389   0.562   3.930   3.224
 6164SOL     OW19390   4.821   3.242   0.878
 6164SOL    HW119391   4.750   3.311   0.894
 6164SOL    HW219392   4.780   3.162   0.833
 6165SOL     OW19393   3.440   0.003   1.015
 6165SOL    HW119394   3.378   0.045   0.949
 6165SOL    HW219395   3.490   0.075   1.063
 6166SOL     OW19396   3.219   0.374   1.004
 6166SOL    HW119397   3.215   0.463   1.049
 6166SOL    HW219398   3.291   0.374   0.935
 6167SOL     OW19399   0.545   5.061   3.346
 6167SOL    HW119400   0.536   5.148   3.394
 6167SOL    HW219401   0.610   5.002   3.395
 6168SOL     OW19402   0.138   2.252   1.972
 6168SOL    HW119403   0.116   2.262   1.875
 6168SOL    HW219404   0.178   2.162   1.988
 6169SOL     OW19405   1.944   4.012   1.281
 6169SOL    HW119406   1.907   3.965   1.201
 6169SOL    HW219407   1.948   4.111   1.263
 6170SOL     OW19408   5.864   2.181   4.002
 6170SOL    HW119409   5.806   2.100   3.989
 6170SOL    HW219410   5.879   2.226   3.914
 6171SOL     OW19411   6.184   2.352   6.494
 6171SOL    HW119412   6.269   2.352   6.547
 6171SOL    HW219413   6.199   2.401   6.408
 6172SOL     OW19414   6.906   4.543   3.291
 6172SOL    HW119415   6.904   4.556   3.390
 6172SOL    HW219416   6.875   4.450   3.270
 6173SOL     OW19417   5.367   6.275   2.415
 6173SOL    HW119418   5.339   6.188   2.455
 6173SOL    HW219419   5.409   6.333   2.485
 6174SOL     OW19420   0.798   1.830   3.469
 6174SOL    HW119421   0.762   1.759   3.531
 6174SOL    HW219422   0.774   1.920   3.504
 6175SOL     OW19423   4.672   2.132   6.511
 6175SOL    HW119424   4.587   2.146   6.562
 6175SOL    HW219425   4.719   2.219   6.499
 6176SOL     OW19426   2.592   5.348   6.008
 6176SOL    HW119427   2.622   5.293   6.086
 6176SOL    HW219428   2.533   5.422   6.039
 6177SOL     OW19429   5.945   5.118   1.393
 6177SOL    HW119430   6.044   5.125   1.383
 6177SOL    HW219431   5.901   5.155   1.311
 6178SOL     OW19432   4.161   4.569   1.756
 6178SOL    HW119433   4.139   4.561   1.854
 6178SOL    HW219434   4.224   4.495   1.730
 6179SOL     OW19435   4.810   5.369   4.437
 6179SOL    HW119436   4.765   5.399   4.522
 6179SOL    HW219437   4.758   5.402   4.358
 6180SOL     OW19438   1.322   3.277   6.361
 6180SOL    HW119439   1.384   3.293   6.286
 6180SOL    HW219440   1.247   3.343   6.358
 6181SOL     OW19441   0.279   6.573   0.191
 6181SOL    HW119442   0.197   6.574   0.134
 6181SOL    HW219443   0.295   6.665   0.227
 6182SOL     OW19444   2.833   2.618   5.900
 6182SOL    HW119445   2.905   2.679   5.866
 6182SOL    HW219446   2.814   2.546   5.834
 6183SOL     OW19447   0.123   0.503   0.553
 6183SOL    HW119448   0.147   0.598   0.577
 6183SOL    HW219449   0.053   0.504   0.481
 6184SOL     OW19450   3.818   6.573   5.303
 6184SOL    HW119451   3.814   6.656   5.358
 6184SOL    HW219452   3.836   6.494   5.363
 6185SOL     OW19453   3.239   3.034   3.175
 6185SOL    HW119454   3.309   2.963   3.177
 6185SOL    HW219455   3.180   3.025   3.255
 6186SOL     OW19456   0.777   1.211   2.046
 6186SOL    HW119457   0.873   1.222   2.072
 6186SOL    HW219458   0.735   1.301   2.038
 6187SOL     OW19459   3.888   2.423   5.985
 6187SOL    HW119460   3.910   2.514   5.950
 6187SOL    HW219461   3.789   2.416   5.998
 6188SOL     OW19462   0.837   1.475   5.360
 6188SOL    HW119463   0.773   1.484   5.436
 6188SOL    HW219464   0.909   1.544   5.368
 6189SOL     OW19465   6.935   4.957   0.763
 6189SOL    HW119466   6.837   4.970   0.746
 6189SOL    HW219467   6.971   5.035   0.813
 6190SOL     OW19468   1.433   3.098   3.409
 6190SOL    HW119469   1.482   3.053   3.483
 6190SOL    HW219470   1.497   3.120   3.335
 6191SOL     OW19471   2.486   4.892   6.838
 6191SOL    HW119472   2.486   4.800   6.876
 6191SOL    HW219473   2.551   4.949   6.888
 6192SOL     OW19474   2.567   1.503   0.917
 6192SOL    HW119475   2.498   1.540   0.855
 6192SOL    HW219476   2.616   1.579   0.961
 6193SOL     OW19477   4.786   5.314   7.000
 6193SOL    HW119478   4.690   5.296   0.000
 6193SOL    HW219479   4.800   5.312   6.901
 6194SOL     OW19480   5.126   0.085   6.063
 6194SOL    HW119481   5.068   0.024   6.009
 6194SOL    HW219482   5.126   0.176   6.021
 6195SOL     OW19483   5.124   5.456   5.588
 6195SOL    HW119484   5.171   5.541   5.565
 6195SOL    HW219485   5.178   5.378   5.555
 6196SOL     OW19486   6.914   3.967   2.932
 6196SOL    HW119487   6.841   3.902   2.953
 6196SOL    HW219488   6.885   4.059   2.957
 6197SOL     OW19489   0.082   5.359   1.405
 6197SOL    HW119490   0.041   5.382   1.493
 6197SOL    HW219491   0.174   5.322   1.419
 6198SOL     OW19492   6.586   2.214   5.821
 6198SOL    HW119493   6.545   2.124   5.840
 6198SOL    HW219494   6.607   2.221   5.724
 6199SOL     OW19495   2.213   0.069   5.840
 6199SOL    HW119496   2.134   0.008   5.841
 6199SOL    HW219497   2.283   0.034   5.903
 6200SOL     OW19498   1.591   6.521   6.786
 6200SOL    HW119499   1.608   6.613   6.749
 6200SOL    HW219500   1.645   6.454   6.735
 6201SOL     OW19501   1.094   4.899   3.505
 6201SOL    HW119502   1.066   4.901   3.601
 6201SOL    HW219503   1.088   4.992   3.467
 6202SOL     OW19504   4.885   1.958   1.580
 6202SOL    HW119505   4.945   1.905   1.521
 6202SOL    HW219506   4.916   1.950   1.675
 6203SOL     OW19507   0.377   1.015   2.583
 6203SOL    HW119508   0.280   1.020   2.560
 6203SOL    HW219509   0.430   1.061   2.512
 6204SOL     OW19510   1.006   5.972   4.352
 6204SOL    HW119511   0.981   6.035   4.278
 6204SOL    HW219512   0.946   5.985   4.430
 6205SOL     OW19513   0.207   4.359   3.220
 6205SOL    HW119514   0.194   4.447   3.265
 6205SOL    HW219515   0.299   4.325   3.238
 6206SOL     OW19516   5.436   2.485   3.843
 6206SOL    HW119517   5.349   2.515   3.881
 6206SOL    HW219518   5.468   2.552   3.776
 6207SOL     OW19519   1.948   5.845   3.196
 6207SOL    HW119520   1.984   5.841   3.103
 6207SOL    HW219521   1.893   5.764   3.215
 6208SOL     OW19522   4.292   4.319   6.424
 6208SOL    HW119523   4.301   4.418   6.438
 6208SOL    HW219524   4.212   4.301   6.366
 6209SOL     OW19525   3.395   1.033   2.791
 6209SOL    HW119526   3.445   0.948   2.804
 6209SOL    HW219527   3.297   1.016   2.801
 6210SOL     OW19528   5.806   0.226   4.005
 6210SOL    HW119529   5.840   0.239   4.099
 6210SOL    HW219530   5.731   0.290   3.988
 6211SOL     OW19531   5.159   2.909   5.437
 6211SOL    HW119532   5.085   2.976   5.446
 6211SOL    HW219533   5.234   2.950   5.385
 6212SOL     OW19534   4.808   4.068   4.877
 6212SOL    HW119535   4.762   4.154   4.856
 6212SOL    HW219536   4.758   4.020   4.949
 6213SOL     OW19537   5.248   5.836   0.705
 6213SOL    HW119538   5.292   5.826   0.616
 6213SOL    HW219539   5.212   5.748   0.735
 6214SOL     OW19540   6.683   6.457   5.884
 6214SOL    HW119541   6.604   6.437   5.825
 6214SOL    HW219542   6.660   6.435   5.979
 6215SOL     OW19543   5.354   3.016   5.250
 6215SOL    HW119544   5.453   3.003   5.252
 6215SOL    HW219545   5.330   3.079   5.175
 6216SOL     OW19546   5.547   2.619   6.482
 6216SOL    HW119547   5.552   2.715   6.509
 6216SOL    HW219548   5.480   2.608   6.408
 6217SOL     OW19549   0.500   4.078   2.374
 6217SOL    HW119550   0.426   4.032   2.324
 6217SOL    HW219551   0.532   4.018   2.447
 6218SOL     OW19552   5.012   6.401   1.770
 6218SOL    HW119553   4.976   6.314   1.804
 6218SOL    HW219554   4.970   6.423   1.682
 6219SOL     OW19555   2.170   0.569   0.371
 6219SOL    HW119556   2.231   0.648   0.376
 6219SOL    HW219557   2.208   0.501   0.308
 6220SOL     OW19558   2.287   0.981   2.729
 6220SOL    HW119559   2.222   1.056   2.735
 6220SOL    HW219560   2.380   1.016   2.739
 6221SOL     OW19561   4.351   5.331   5.243
 6221SOL    HW119562   4.357   5.422   5.203
 6221SOL    HW219563   4.339   5.263   5.171
 6222SOL     OW19564   0.554   1.079   1.916
 6222SOL    HW119565   0.611   1.111   1.992
 6222SOL    HW219566   0.574   1.133   1.834
 6223SOL     OW19567   6.507   4.933   3.612
 6223SOL    HW119568   6.576   4.917   3.541
 6223SOL    HW219569   6.542   4.899   3.699
 6224SOL     OW19570   4.137   0.127   0.360
 6224SOL    HW119571   4.126   0.028   0.361
 6224SOL    HW219572   4.069   0.169   0.421
 6225SOL     OW19573   6.068   5.288   6.080
 6225SOL    HW119574   6.071   5.253   5.986
 6225SOL    HW219575   6.158   5.322   6.105
 6226SOL     OW19576   1.909   0.849   3.760
 6226SOL    HW119577   1.844   0.774   3.755
 6226SOL    HW219578   1.864   0.930   3.798
 6227SOL     OW19579   1.882   4.335   5.822
 6227SOL    HW119580   1.860   4.249   5.869
 6227SOL    HW219581   1.949   4.386   5.877
 6228SOL     OW19582   1.300   3.201   3.793
 6228SOL    HW119583   1.265   3.278   3.846
 6228SOL    HW219584   1.359   3.145   3.852
 6229SOL     OW19585   0.437   5.162   4.325
 6229SOL    HW119586   0.435   5.210   4.238
 6229SOL    HW219587   0.524   5.115   4.336
 6230SOL     OW19588   1.073   1.161   0.490
 6230SOL    HW119589   1.087   1.246   0.541
 6230SOL    HW219590   1.131   1.089   0.529
 6231SOL     OW19591   1.519   5.865   5.614
 6231SOL    HW119592   1.560   5.891   5.527
 6231SOL    HW219593   1.545   5.931   5.685
 6232SOL     OW19594   3.975   0.920   6.312
 6232SOL    HW119595   3.965   0.919   6.212
 6232SOL    HW219596   4.020   0.836   6.342
 6233SOL     OW19597   6.929   4.094   1.309
 6233SOL    HW119598   6.934   4.191   1.285
 6233SOL    HW219599   6.957   4.082   1.404
 6234SOL     OW19600   4.803   4.824   2.426
 6234SOL    HW119601   4.800   4.726   2.404
 6234SOL    HW219602   4.786   4.877   2.343
 6235SOL     OW19603   0.764   1.160   1.117
 6235SOL    HW119604   0.859   1.132   1.102
 6235SOL    HW219605   0.720   1.176   1.028
 6236SOL     OW19606   5.888   6.168   1.870
 6236SOL    HW119607   5.818   6.237   1.888
 6236SOL    HW219608   5.881   6.096   1.939
 6237SOL     OW19609   4.279   0.864   3.494
 6237SOL    HW119610   4.338   0.830   3.421
 6237SOL    HW219611   4.204   0.801   3.509
 6238SOL     OW19612   2.276   6.388   3.043
 6238SOL    HW119613   2.289   6.472   2.990
 6238SOL    HW219614   2.365   6.349   3.067
 6239SOL     OW19615   4.646   1.409   4.140
 6239SOL    HW119616   4.640   1.395   4.239
 6239SOL    HW219617   4.583   1.482   4.113
 6240SOL     OW19618   4.106   3.667   4.037
 6240SOL    HW119619   4.065   3.678   3.947
 6240SOL    HW219620   4.084   3.576   4.073
 6241SOL     OW19621   3.910   0.551   2.703
 6241SOL    HW119622   3.996   0.580   2.744
 6241SOL    HW219623   3.867   0.482   2.761
 6242SOL     OW19624   3.199   1.835   4.390
 6242SOL    HW119625   3.156   1.882   4.313
 6242SOL    HW219626   3.232   1.902   4.456
 6243SOL     OW19627   3.343   0.443   0.365
 6243SOL    HW119628   3.272   0.470   0.430
 6243SOL    HW219629   3.385   0.358   0.395
 6244SOL     OW19630   5.427   2.419   1.626
 6244SOL    HW119631   5.521   2.400   1.655
 6244SOL    HW219632   5.395   2.346   1.566
 6245SOL     OW19633   6.745   5.073   1.558
 6245SOL    HW119634   6.841   5.045   1.552
 6245SOL    HW219635   6.687   4.992   1.565
 6246SOL     OW19636   0.707   6.245   5.280
 6246SOL    HW119637   0.657   6.320   5.236
 6246SOL    HW219638   0.753   6.190   5.210
 6247SOL     OW19639   5.677   4.913   2.272
 6247SOL    HW119640   5.665   4.837   2.208
 6247SOL    HW219641   5.588   4.939   2.310
 6248SOL     OW19642   4.672   2.636   6.073
 6248SOL    HW119643   4.609   2.684   6.011
 6248SOL    HW219644   4.663   2.674   6.166
 6249SOL     OW19645   5.543   2.498   3.423
 6249SOL    HW119646   5.585   2.413   3.454
 6249SOL    HW219647   5.551   2.506   3.324
 6250SOL     OW19648   4.934   6.842   5.008
 6250SOL    HW119649   4.994   6.764   5.021
 6250SOL    HW219650   4.948   6.880   4.916
 6251SOL     OW19651   2.865   0.942   4.027
 6251SOL    HW119652   2.932   0.984   3.966
 6251SOL    HW219653   2.774   0.947   3.986
 6252SOL     OW19654   2.335   4.700   0.025
 6252SOL    HW119655   2.389   4.702   0.109
 6252SOL    HW219656   2.292   4.789   0.011
 6253SOL     OW19657   4.826   6.114   4.247
 6253SOL    HW119658   4.752   6.052   4.273
 6253SOL    HW219659   4.903   6.061   4.212
 6254SOL     OW19660   6.608   6.725   1.874
 6254SOL    HW119661   6.517   6.754   1.904
 6254SOL    HW219662   6.670   6.725   1.953
 6255SOL     OW19663   3.004   0.150   1.303
 6255SOL    HW119664   3.028   0.147   1.400
 6255SOL    HW219665   3.043   0.070   1.257
 6256SOL     OW19666   6.921   4.387   2.156
 6256SOL    HW119667   6.970   4.440   2.225
 6256SOL    HW219668   6.986   4.341   2.096
 6257SOL     OW19669   3.854   4.085   0.552
 6257SOL    HW119670   3.889   3.992   0.557
 6257SOL    HW219671   3.754   4.083   0.553
 6258SOL     OW19672   4.357   5.379   4.140
 6258SOL    HW119673   4.316   5.454   4.088
 6258SOL    HW219674   4.398   5.313   4.076
 6259SOL     OW19675   4.950   6.784   4.590
 6259SOL    HW119676   4.854   6.800   4.611
 6259SOL    HW219677   4.964   6.789   4.491
 6260SOL     OW19678   3.303   2.262   6.942
 6260SOL    HW119679   3.215   2.280   6.987
 6260SOL    HW219680   3.373   2.320   6.983
 6261SOL     OW19681   4.490   5.956   1.308
 6261SOL    HW119682   4.460   5.934   1.401
 6261SOL    HW219683   4.429   5.913   1.242
 6262SOL     OW19684   6.017   1.912   3.908
 6262SOL    HW119685   6.000   1.816   3.886
 6262SOL    HW219686   6.079   1.917   3.987
 6263SOL     OW19687   6.639   6.119   5.867
 6263SOL    HW119688   6.594   6.044   5.820
 6263SOL    HW219689   6.586   6.203   5.854
 6264SOL     OW19690   1.041   6.602   0.687
 6264SOL    HW119691   1.069   6.512   0.719
 6264SOL    HW219692   1.061   6.611   0.589
 6265SOL     OW19693   4.003   5.967   6.789
 6265SOL    HW119694   4.072   6.028   6.828
 6265SOL    HW219695   4.048   5.890   6.745
 6266SOL     OW19696   2.894   5.273   3.669
 6266SOL    HW119697   2.933   5.358   3.633
 6266SOL    HW219698   2.902   5.201   3.600
 6267SOL     OW19699   0.036   6.752   4.026
 6267SOL    HW119700   6.958   6.739   4.038
 6267SOL    HW219701   0.082   6.663   4.028
 6268SOL     OW19702   3.207   2.154   0.687
 6268SOL    HW119703   3.244   2.246   0.671
 6268SOL    HW219704   3.133   2.137   0.621
 6269SOL     OW19705   0.274   5.226   0.563
 6269SOL    HW119706   0.253   5.158   0.634
 6269SOL    HW219707   0.227   5.202   0.478
 6270SOL     OW19708   1.533   5.625   1.082
 6270SOL    HW119709   1.524   5.563   1.004
 6270SOL    HW219710   1.610   5.686   1.067
 6271SOL     OW19711   6.535   3.243   5.539
 6271SOL    HW119712   6.478   3.208   5.613
 6271SOL    HW219713   6.522   3.342   5.530
 6272SOL     OW19714   6.462   0.696   0.513
 6272SOL    HW119715   6.435   0.778   0.564
 6272SOL    HW219716   6.385   0.664   0.458
 6273SOL     OW19717   0.451   6.652   2.515
 6273SOL    HW119718   0.359   6.617   2.498
 6273SOL    HW219719   0.498   6.593   2.581
 6274SOL     OW19720   3.059   6.199   4.335
 6274SOL    HW119721   3.110   6.118   4.306
 6274SOL    HW219722   2.961   6.181   4.327
 6275SOL     OW19723   3.262   5.531   1.272
 6275SOL    HW119724   3.248   5.492   1.181
 6275SOL    HW219725   3.173   5.554   1.312
 6276SOL     OW19726   2.234   4.417   2.634
 6276SOL    HW119727   2.298   4.368   2.693
 6276SOL    HW219728   2.171   4.470   2.690
 6277SOL     OW19729   5.471   1.719   0.984
 6277SOL    HW119730   5.468   1.815   0.955
 6277SOL    HW219731   5.447   1.712   1.081
 6278SOL     OW19732   4.116   3.215   0.188
 6278SOL    HW119733   4.188   3.285   0.177
 6278SOL    HW219734   4.077   3.222   0.280
 6279SOL     OW19735   0.651   6.352   1.679
 6279SOL    HW119736   0.621   6.437   1.636
 6279SOL    HW219737   0.604   6.341   1.766
 6280SOL     OW19738   4.926   0.938   0.041
 6280SOL    HW119739   4.960   0.884   6.984
 6280SOL    HW219740   4.876   1.017   0.006
 6281SOL     OW19741   5.713   3.787   6.312
 6281SOL    HW119742   5.677   3.713   6.254
 6281SOL    HW219743   5.812   3.797   6.295
 6282SOL     OW19744   6.597   4.713   5.758
 6282SOL    HW119745   6.533   4.648   5.800
 6282SOL    HW219746   6.651   4.758   5.829
 6283SOL     OW19747   3.203   6.329   4.609
 6283SOL    HW119748   3.197   6.266   4.532
 6283SOL    HW219749   3.183   6.281   4.694
 6284SOL     OW19750   2.139   4.735   6.095
 6284SOL    HW119751   2.207   4.766   6.160
 6284SOL    HW219752   2.133   4.800   6.019
 6285SOL     OW19753   1.766   4.694   4.106
 6285SOL    HW119754   1.784   4.744   4.021
 6285SOL    HW219755   1.850   4.689   4.160
 6286SOL     OW19756   0.801   3.369   6.852
 6286SOL    HW119757   0.890   3.348   6.893
 6286SOL    HW219758   0.730   3.363   6.923
 6287SOL     OW19759   3.877   5.130   4.763
 6287SOL    HW119760   3.787   5.124   4.808
 6287SOL    HW219761   3.889   5.222   4.726
 6288SOL     OW19762   3.010   4.210   5.712
 6288SOL    HW119763   2.987   4.167   5.625
 6288SOL    HW219764   2.955   4.293   5.724
 6289SOL     OW19765   2.994   5.752   5.967
 6289SOL    HW119766   3.041   5.794   5.889
 6289SOL    HW219767   3.015   5.654   5.969
 6290SOL     OW19768   6.808   0.548   3.012
 6290SOL    HW119769   6.883   0.484   2.997
 6290SOL    HW219770   6.723   0.497   3.025
 6291SOL     OW19771   3.045   3.121   1.918
 6291SOL    HW119772   3.102   3.050   1.878
 6291SOL    HW219773   3.067   3.209   1.876
 6292SOL     OW19774   0.940   4.014   4.891
 6292SOL    HW119775   0.918   4.016   4.988
 6292SOL    HW219776   0.943   4.107   4.855
 6293SOL     OW19777   3.350   1.873   0.622
 6293SOL    HW119778   3.423   1.939   0.640
 6293SOL    HW219779   3.297   1.903   0.543
 6294SOL     OW19780   0.873   0.265   2.004
 6294SOL    HW119781   0.948   0.322   1.970
 6294SOL    HW219782   0.845   0.201   1.932
 6295SOL     OW19783   4.467   3.023   5.745
 6295SOL    HW119784   4.419   3.095   5.796
 6295SOL    HW219785   4.565   3.031   5.761
 6296SOL     OW19786   6.700   2.489   0.353
 6296SOL    HW119787   6.695   2.537   0.440
 6296SOL    HW219788   6.623   2.515   0.296
 6297SOL     OW19789   0.748   1.970   4.719
 6297SOL    HW119790   0.649   1.960   4.731
 6297SOL    HW219791   0.792   1.965   4.809
 6298SOL     OW19792   0.305   1.100   6.062
 6298SOL    HW119793   0.297   1.162   5.983
 6298SOL    HW219794   0.234   1.123   6.129
 6299SOL     OW19795   3.550   1.865   3.783
 6299SOL    HW119796   3.576   1.852   3.687
 6299SOL    HW219797   3.482   1.797   3.809
 6300SOL     OW19798   2.708   2.299   0.813
 6300SOL    HW119799   2.732   2.387   0.854
 6300SOL    HW219800   2.746   2.225   0.869
 6301SOL     OW19801   4.534   5.830   0.642
 6301SOL    HW119802   4.604   5.887   0.599
 6301SOL    HW219803   4.497   5.766   0.575
 6302SOL     OW19804   1.693   3.332   0.767
 6302SOL    HW119805   1.767   3.281   0.723
 6302SOL    HW219806   1.730   3.412   0.814
 6303SOL     OW19807   6.565   4.544   5.318
 6303SOL    HW119808   6.524   4.471   5.263
 6303SOL    HW219809   6.642   4.584   5.269
 6304SOL     OW19810   1.970   2.722   4.973
 6304SOL    HW119811   2.004   2.631   4.997
 6304SOL    HW219812   2.048   2.783   4.959
 6305SOL     OW19813   1.419   6.130   4.968
 6305SOL    HW119814   1.352   6.110   5.040
 6305SOL    HW219815   1.430   6.050   4.909
 6306SOL     OW19816   1.854   4.414   4.144
 6306SOL    HW119817   1.835   4.510   4.124
 6306SOL    HW219818   1.885   4.406   4.239
 6307SOL     OW19819   3.931   3.249   2.348
 6307SOL    HW119820   3.996   3.277   2.278
 6307SOL    HW219821   3.975   3.252   2.438
 6308SOL     OW19822   1.657   0.869   0.995
 6308SOL    HW119823   1.629   0.904   0.906
 6308SOL    HW219824   1.612   0.782   1.012
 6309SOL     OW19825   1.980   6.047   4.775
 6309SOL    HW119826   2.056   6.110   4.763
 6309SOL    HW219827   2.014   5.963   4.819
 6310SOL     OW19828   0.909   6.737   2.565
 6310SOL    HW119829   0.836   6.801   2.591
 6310SOL    HW219830   0.883   6.644   2.591
 6311SOL     OW19831   5.160   1.430   6.028
 6311SOL    HW119832   5.232   1.396   6.088
 6311SOL    HW219833   5.140   1.526   6.049
 6312SOL     OW19834   4.317   4.829   1.375
 6312SOL    HW119835   4.392   4.764   1.389
 6312SOL    HW219836   4.338   4.888   1.297
 6313SOL     OW19837   5.448   5.447   3.333
 6313SOL    HW119838   5.447   5.491   3.423
 6313SOL    HW219839   5.365   5.472   3.283
 6314SOL     OW19840   1.736   5.281   2.890
 6314SOL    HW119841   1.768   5.357   2.833
 6314SOL    HW219842   1.732   5.198   2.834
 6315SOL     OW19843   2.069   2.456   3.578
 6315SOL    HW119844   2.083   2.479   3.482
 6315SOL    HW219845   2.037   2.361   3.586
 6316SOL     OW19846   5.052   0.695   5.575
 6316SOL    HW119847   5.079   0.630   5.646
 6316SOL    HW219848   5.070   0.655   5.485
 6317SOL     OW19849   4.659   4.335   3.109
 6317SOL    HW119850   4.608   4.347   3.024
 6317SOL    HW219851   4.752   4.370   3.097
 6318SOL     OW19852   5.783   6.381   0.020
 6318SOL    HW119853   5.725   6.415   6.966
 6318SOL    HW219854   5.756   6.287   0.043
 6319SOL     OW19855   5.257   2.358   4.138
 6319SOL    HW119856   5.201   2.340   4.057
 6319SOL    HW219857   5.297   2.272   4.171
 6320SOL     OW19858   5.848   2.682   6.479
 6320SOL    HW119859   5.755   2.710   6.500
 6320SOL    HW219860   5.846   2.600   6.422
 6321SOL     OW19861   0.202   3.210   0.025
 6321SOL    HW119862   0.216   3.302   7.009
 6321SOL    HW219863   0.108   3.181   0.005
 6322SOL     OW19864   2.047   1.160   2.719
 6322SOL    HW119865   2.112   1.232   2.744
 6322SOL    HW219866   1.960   1.176   2.767
 6323SOL     OW19867   1.683   6.079   0.976
 6323SOL    HW119868   1.758   6.085   0.910
 6323SOL    HW219869   1.599   6.116   0.935
 6324SOL     OW19870   5.335   4.338   2.397
 6324SOL    HW119871   5.267   4.381   2.457
 6324SOL    HW219872   5.288   4.297   2.318
 6325SOL     OW19873   0.802   3.475   3.522
 6325SOL    HW119874   0.748   3.495   3.604
 6325SOL    HW219875   0.758   3.401   3.471
 6326SOL     OW19876   5.642   5.651   4.683
 6326SOL    HW119877   5.739   5.630   4.680
 6326SOL    HW219878   5.614   5.667   4.778
 6327SOL     OW19879   0.623   0.807   2.330
 6327SOL    HW119880   0.540   0.861   2.317
 6327SOL    HW219881   0.601   0.709   2.322
 6328SOL     OW19882   3.948   3.709   4.689
 6328SOL    HW119883   3.993   3.714   4.600
 6328SOL    HW219884   3.854   3.744   4.681
 6329SOL     OW19885   0.138   3.263   4.504
 6329SOL    HW119886   0.176   3.282   4.595
 6329SOL    HW219887   0.128   3.165   4.492
 6330SOL     OW19888   4.356   1.687   3.404
 6330SOL    HW119889   4.443   1.736   3.406
 6330SOL    HW219890   4.314   1.690   3.495
 6331SOL     OW19891   1.584   2.688   3.648
 6331SOL    HW119892   1.485   2.690   3.629
 6331SOL    HW219893   1.598   2.652   3.740
 6332SOL     OW19894   4.203   1.669   0.251
 6332SOL    HW119895   4.158   1.742   0.201
 6332SOL    HW219896   4.183   1.581   0.207
 6333SOL     OW19897   5.943   1.633   6.937
 6333SOL    HW119898   5.939   1.717   6.883
 6333SOL    HW219899   5.889   1.562   6.892
 6334SOL     OW19900   2.857   1.291   2.099
 6334SOL    HW119901   2.901   1.202   2.107
 6334SOL    HW219902   2.758   1.280   2.104
 6335SOL     OW19903   6.103   2.451   5.412
 6335SOL    HW119904   6.093   2.438   5.313
 6335SOL    HW219905   6.042   2.389   5.460
 6336SOL     OW19906   1.068   5.503   6.167
 6336SOL    HW119907   1.032   5.590   6.203
 6336SOL    HW219908   0.993   5.440   6.151
 6337SOL     OW19909   6.307   0.735   5.838
 6337SOL    HW119910   6.266   0.726   5.747
 6337SOL    HW219911   6.398   0.775   5.830
 6338SOL     OW19912   1.164   1.006   2.179
 6338SOL    HW119913   1.170   0.971   2.273
 6338SOL    HW219914   1.134   0.933   2.118
 6339SOL     OW19915   0.304   4.336   3.684
 6339SOL    HW119916   0.242   4.329   3.762
 6339SOL    HW219917   0.338   4.430   3.677
 6340SOL     OW19918   3.041   5.542   0.034
 6340SOL    HW119919   3.008   5.619   6.999
 6340SOL    HW219920   3.119   5.500   7.009
 6341SOL     OW19921   1.315   4.595   2.990
 6341SOL    HW119922   1.378   4.644   3.051
 6341SOL    HW219923   1.285   4.511   3.034
 6342SOL     OW19924   2.535   6.811   1.115
 6342SOL    HW119925   2.602   6.736   1.118
 6342SOL    HW219926   2.474   6.804   1.194
 6343SOL     OW19927   1.744   3.596   6.954
 6343SOL    HW119928   1.661   3.635   6.993
 6343SOL    HW219929   1.761   3.506   6.994
 6344SOL     OW19930   2.043   0.696   4.017
 6344SOL    HW119931   2.119   0.739   4.066
 6344SOL    HW219932   2.026   0.745   3.931
 6345SOL     OW19933   7.009   3.658   4.060
 6345SOL    HW119934   0.004   3.718   4.139
 6345SOL    HW219935   7.008   3.713   3.977
 6346SOL     OW19936   0.624   4.629   4.177
 6346SOL    HW119937   0.650   4.568   4.252
 6346SOL    HW219938   0.650   4.587   4.090
 6347SOL     OW19939   1.784   1.622   2.397
 6347SOL    HW119940   1.861   1.579   2.443
 6347SOL    HW219941   1.756   1.567   2.319
 6348SOL     OW19942   0.596   2.430   0.010
 6348SOL    HW119943   0.614   2.528   7.019
 6348SOL    HW219944   0.629   2.400   0.099
 6349SOL     OW19945   6.062   1.131   1.037
 6349SOL    HW119946   6.126   1.153   0.964
 6349SOL    HW219947   6.088   1.178   1.121
 6350SOL     OW19948   6.857   0.076   1.506
 6350SOL    HW119949   6.899   7.006   1.519
 6350SOL    HW219950   6.820   0.107   1.594
 6351SOL     OW19951   6.605   2.301   2.831
 6351SOL    HW119952   6.696   2.300   2.873
 6351SOL    HW219953   6.535   2.299   2.902
 6352SOL     OW19954   3.404   0.762   5.223
 6352SOL    HW119955   3.318   0.812   5.218
 6352SOL    HW219956   3.391   0.671   5.184
 6353SOL     OW19957   3.881   6.345   5.437
 6353SOL    HW119958   3.886   6.385   5.529
 6353SOL    HW219959   3.957   6.280   5.425
 6354SOL     OW19960   6.397   4.680   3.592
 6354SOL    HW119961   6.305   4.711   3.616
 6354SOL    HW219962   6.461   4.757   3.602
 6355SOL     OW19963   4.064   6.438   7.018
 6355SOL    HW119964   4.072   6.485   6.930
 6355SOL    HW219965   4.149   6.390   0.018
 6356SOL     OW19966   0.063   6.822   6.531
 6356SOL    HW119967   0.153   6.867   6.534
 6356SOL    HW219968   7.015   6.883   6.572
 6357SOL     OW19969   5.105   2.150   3.592
 6357SOL    HW119970   5.104   2.248   3.612
 6357SOL    HW219971   5.133   2.136   3.497
 6358SOL     OW19972   1.274   0.923   4.693
 6358SOL    HW119973   1.253   0.988   4.620
 6358SOL    HW219974   1.308   0.838   4.652
 6359SOL     OW19975   6.962   4.394   1.231
 6359SOL    HW119976   0.011   4.462   1.256
 6359SOL    HW219977   6.874   4.419   1.272
 6360SOL     OW19978   3.076   2.766   0.404
 6360SOL    HW119979   3.059   2.673   0.372
 6360SOL    HW219980   3.051   2.831   0.333
 6361SOL     OW19981   0.357   1.478   3.331
 6361SOL    HW119982   0.448   1.439   3.346
 6361SOL    HW219983   0.360   1.576   3.350
 6362SOL     OW19984   1.960   5.054   0.409
 6362SOL    HW119985   2.027   5.126   0.392
 6362SOL    HW219986   1.871   5.096   0.425
 6363SOL     OW19987   0.476   1.823   1.577
 6363SOL    HW119988   0.425   1.786   1.499
 6363SOL    HW219989   0.559   1.769   1.592
 6364SOL     OW19990   2.991   2.106   3.439
 6364SOL    HW119991   3.013   2.048   3.361
 6364SOL    HW219992   2.958   2.195   3.407
 6365SOL     OW19993   5.947   6.917   1.964
 6365SOL    HW119994   5.929   7.012   1.938
 6365SOL    HW219995   5.876   6.887   2.027
 6366SOL     OW19996   6.444   1.755   5.191
 6366SOL    HW119997   6.470   1.749   5.094
 6366SOL    HW219998   6.523   1.782   5.245
 6367SOL     OW19999   1.875   3.488   4.556
 6367SOL    HW120000   1.975   3.487   4.550
 6367SOL    HW220001   1.846   3.443   4.640
 6368SOL     OW20002   5.554   3.359   5.029
 6368SOL    HW120003   5.481   3.427   5.038
 6368SOL    HW220004   5.622   3.373   5.101
 6369SOL     OW20005   2.915   4.378   0.811
 6369SOL    HW120006   2.966   4.294   0.792
 6369SOL    HW220007   2.866   4.407   0.729
 6370SOL     OW20008   6.091   3.432   5.032
 6370SOL    HW120009   6.098   3.338   5.067
 6370SOL    HW220010   6.005   3.473   5.062
 6371SOL     OW20011   6.129   4.570   1.068
 6371SOL    HW120012   6.111   4.627   1.148
 6371SOL    HW220013   6.225   4.540   1.070
 6372SOL     OW20014   5.551   1.612   2.039
 6372SOL    HW120015   5.537   1.647   2.131
 6372SOL    HW220016   5.463   1.609   1.990
 6373SOL     OW20017   5.558   1.718   1.502
 6373SOL    HW120018   5.656   1.741   1.508
 6373SOL    HW220019   5.509   1.764   1.576
 6374SOL     OW20020   3.696   3.273   6.501
 6374SOL    HW120021   3.735   3.211   6.569
 6374SOL    HW220022   3.675   3.361   6.544
 6375SOL     OW20023   5.309   1.638   1.892
 6375SOL    HW120024   5.317   1.712   1.958
 6375SOL    HW220025   5.212   1.618   1.875
 6376SOL     OW20026   3.511   6.474   6.824
 6376SOL    HW120027   3.564   6.446   6.904
 6376SOL    HW220028   3.421   6.505   6.853
 6377SOL     OW20029   0.266   1.855   0.428
 6377SOL    HW120030   0.263   1.757   0.450
 6377SOL    HW220031   0.237   1.868   0.333
 6378SOL     OW20032   6.305   3.778   2.814
 6378SOL    HW120033   6.316   3.841   2.737
 6378SOL    HW220034   6.393   3.768   2.862
 6379SOL     OW20035   2.346   4.619   6.555
 6379SOL    HW120036   2.435   4.622   6.600
 6379SOL    HW220037   2.285   4.558   6.604
 6380SOL     OW20038   1.753   2.490   4.492
 6380SOL    HW120039   1.807   2.526   4.568
 6380SOL    HW220040   1.771   2.392   4.481
 6381SOL     OW20041   3.323   4.640   0.694
 6381SOL    HW120042   3.254   4.576   0.730
 6381SOL    HW220043   3.374   4.595   0.620
 6382SOL     OW20044   2.008   1.109   1.243
 6382SOL    HW120045   2.041   1.128   1.335
 6382SOL    HW220046   2.032   1.184   1.182
 6383SOL     OW20047   2.844   2.044   2.014
 6383SOL    HW120048   2.772   2.014   2.076
 6383SOL    HW220049   2.857   2.143   2.022
 6384SOL     OW20050   0.655   1.459   1.989
 6384SOL    HW120051   0.606   1.439   1.904
 6384SOL    HW220052   0.700   1.547   1.981
 6385SOL     OW20053   0.505   3.780   1.748
 6385SOL    HW120054   0.414   3.807   1.714
 6385SOL    HW220055   0.495   3.741   1.840
 6386SOL     OW20056   3.137   4.993   1.038
 6386SOL    HW120057   3.046   5.034   1.044
 6386SOL    HW220058   3.128   4.894   1.025
 6387SOL     OW20059   6.571   1.879   5.832
 6387SOL    HW120060   6.529   1.789   5.846
 6387SOL    HW220061   6.662   1.880   5.874
 6388SOL     OW20062   6.527   5.093   2.144
 6388SOL    HW120063   6.626   5.099   2.129
 6388SOL    HW220064   6.496   5.174   2.193
 6389SOL     OW20065   6.983   0.521   0.326
 6389SOL    HW120066   7.011   0.436   0.282
 6389SOL    HW220067   6.883   0.525   0.329
 6390SOL     OW20068   4.348   6.150   0.461
 6390SOL    HW120069   4.438   6.194   0.467
 6390SOL    HW220070   4.355   6.069   0.402
 6391SOL     OW20071   0.944   1.623   4.741
 6391SOL    HW120072   1.015   1.552   4.741
 6391SOL    HW220073   0.979   1.705   4.787
 6392SOL     OW20074   4.389   6.362   3.199
 6392SOL    HW120075   4.374   6.458   3.177
 6392SOL    HW220076   4.301   6.316   3.212
 6393SOL     OW20077   2.243   4.116   0.278
 6393SOL    HW120078   2.188   4.062   0.342
 6393SOL    HW220079   2.183   4.172   0.222
 6394SOL     OW20080   1.493   5.288   1.963
 6394SOL    HW120081   1.479   5.285   2.062
 6394SOL    HW220082   1.440   5.363   1.924
 6395SOL     OW20083   1.269   3.275   4.855
 6395SOL    HW120084   1.272   3.181   4.889
 6395SOL    HW220085   1.177   3.296   4.822
 6396SOL     OW20086   1.171   3.712   3.944
 6396SOL    HW120087   1.198   3.648   3.872
 6396SOL    HW220088   1.085   3.755   3.920
 6397SOL     OW20089   1.356   3.641   4.625
 6397SOL    HW120090   1.410   3.569   4.583
 6397SOL    HW220091   1.391   3.660   4.717
 6398SOL     OW20092   0.271   6.946   2.155
 6398SOL    HW120093   0.212   6.990   2.087
 6398SOL    HW220094   0.365   6.976   2.142
 6399SOL     OW20095   2.134   6.995   6.225
 6399SOL    HW120096   2.144   6.977   6.127
 6399SOL    HW220097   2.225   6.995   6.268
 6400SOL     OW20098   1.860   0.024   3.020
 6400SOL    HW120099   1.943   6.996   3.049
 6400SOL    HW220100   1.879   0.122   3.012
 6401SOL     OW20101   3.952   4.984   1.052
 6401SOL    HW120102   3.875   4.926   1.075
 6401SOL    HW220103   3.985   5.031   1.134
 6402SOL     OW20104   3.466   3.143   6.796
 6402SOL    HW120105   3.482   3.157   6.893
 6402SOL    HW220106   3.526   3.071   6.762
 6403SOL     OW20107   3.924   5.391   6.181
 6403SOL    HW120108   3.857   5.347   6.240
 6403SOL    HW220109   4.016   5.375   6.216
 6404SOL     OW20110   4.900   6.245   6.566
 6404SOL    HW120111   4.896   6.299   6.483
 6404SOL    HW220112   4.951   6.160   6.549
 6405SOL     OW20113   4.095   1.011   3.749
 6405SOL    HW120114   4.110   1.105   3.719
 6405SOL    HW220115   4.183   0.967   3.767
 6406SOL     OW20116   0.179   3.231   2.450
 6406SOL    HW120117   0.167   3.329   2.469
 6406SOL    HW220118   0.166   3.214   2.353
 6407SOL     OW20119   0.855   0.080   2.754
 6407SOL    HW120120   0.933   0.134   2.788
 6407SOL    HW220121   0.804   0.043   2.832
 6408SOL     OW20122   0.337   0.634   2.797
 6408SOL    HW120123   0.408   0.687   2.750
 6408SOL    HW220124   0.369   0.541   2.812
 6409SOL     OW20125   6.507   4.557   4.027
 6409SOL    HW120126   6.595   4.520   4.058
 6409SOL    HW220127   6.524   4.631   3.962
 6410SOL     OW20128   2.369   0.923   0.102
 6410SOL    HW120129   2.459   0.965   0.102
 6410SOL    HW220130   2.308   0.975   0.041
 6411SOL     OW20131   1.731   2.158   4.187
 6411SOL    HW120132   1.802   2.095   4.219
 6411SOL    HW220133   1.669   2.109   4.125
 6412SOL     OW20134   4.696   0.218   0.192
 6412SOL    HW120135   4.601   0.204   0.218
 6412SOL    HW220136   4.753   0.223   0.274
 6413SOL     OW20137   4.380   5.983   3.441
 6413SOL    HW120138   4.368   5.899   3.388
 6413SOL    HW220139   4.477   5.998   3.459
 6414SOL     OW20140   3.292   0.060   6.914
 6414SOL    HW120141   3.259   0.124   6.983
 6414SOL    HW220142   3.277   6.986   6.945
 6415SOL     OW20143   0.075   1.642   3.892
 6415SOL    HW120144   0.117   1.556   3.862
 6415SOL    HW220145   0.050   1.635   3.989
 6416SOL     OW20146   2.744   4.581   0.888
 6416SOL    HW120147   2.662   4.524   0.889
 6416SOL    HW220148   2.820   4.529   0.851
 6417SOL     OW20149   4.796   3.201   5.158
 6417SOL    HW120150   4.843   3.186   5.071
 6417SOL    HW220151   4.748   3.288   5.154
 6418SOL     OW20152   4.661   5.647   0.019
 6418SOL    HW120153   4.628   5.650   6.945
 6418SOL    HW220154   4.663   5.740   0.057
 6419SOL     OW20155   1.817   6.716   6.892
 6419SOL    HW120156   1.724   6.744   6.915
 6419SOL    HW220157   1.883   6.774   6.939
 6420SOL     OW20158   2.691   4.929   3.646
 6420SOL    HW120159   2.708   4.897   3.552
 6420SOL    HW220160   2.693   4.851   3.708
 6421SOL     OW20161   4.434   6.216   1.805
 6421SOL    HW120162   4.343   6.224   1.765
 6421SOL    HW220163   4.426   6.212   1.904
 6422SOL     OW20164   1.030   0.889   5.952
 6422SOL    HW120165   1.020   0.973   5.899
 6422SOL    HW220166   1.027   0.910   6.049
 6423SOL     OW20167   1.065   3.402   3.650
 6423SOL    HW120168   1.126   3.331   3.615
 6423SOL    HW220169   0.971   3.384   3.619
 6424SOL     OW20170   5.764   4.184   5.910
 6424SOL    HW120171   5.762   4.154   6.005
 6424SOL    HW220172   5.719   4.273   5.902
 6425SOL     OW20173   1.002   0.002   3.790
 6425SOL    HW120174   0.945   7.016   3.708
 6425SOL    HW220175   0.946   7.004   3.871
 6426SOL     OW20176   3.586   5.197   4.072
 6426SOL    HW120177   3.538   5.234   4.151
 6426SOL    HW220178   3.646   5.266   4.033
 6427SOL     OW20179   3.107   3.408   2.432
 6427SOL    HW120180   3.108   3.507   2.444
 6427SOL    HW220181   3.063   3.365   2.511
 6428SOL     OW20182   0.033   3.824   6.928
 6428SOL    HW120183   6.986   3.891   6.960
 6428SOL    HW220184   0.038   3.827   6.828
 6429SOL     OW20185   3.182   1.539   4.713
 6429SOL    HW120186   3.095   1.489   4.713
 6429SOL    HW220187   3.246   1.496   4.650
 6430SOL     OW20188   6.189   1.384   4.128
 6430SOL    HW120189   6.239   1.410   4.045
 6430SOL    HW220190   6.245   1.407   4.208
 6431SOL     OW20191   3.453   5.255   2.967
 6431SOL    HW120192   3.543   5.250   3.009
 6431SOL    HW220193   3.422   5.163   2.943
 6432SOL     OW20194   3.443   3.438   0.264
 6432SOL    HW120195   3.514   3.479   0.207
 6432SOL    HW220196   3.481   3.413   0.352
 6433SOL     OW20197   4.042   5.544   6.486
 6433SOL    HW120198   3.986   5.596   6.422
 6433SOL    HW220199   4.081   5.465   6.440
 6434SOL     OW20200   6.437   4.795   6.959
 6434SOL    HW120201   6.389   4.882   6.943
 6434SOL    HW220202   6.533   4.813   6.979
 6435SOL     OW20203   4.526   0.641   0.429
 6435SOL    HW120204   4.483   0.615   0.343
 6435SOL    HW220205   4.599   0.707   0.411
 6436SOL     OW20206   1.342   1.307   3.740
 6436SOL    HW120207   1.364   1.364   3.661
 6436SOL    HW220208   1.266   1.349   3.791
 6437SOL     OW20209   1.097   2.667   6.611
 6437SOL    HW120210   1.121   2.762   6.628
 6437SOL    HW220211   0.998   2.655   6.619
 6438SOL     OW20212   1.071   5.499   1.780
 6438SOL    HW120213   1.083   5.460   1.871
 6438SOL    HW220214   0.974   5.496   1.755
 6439SOL     OW20215   4.058   5.904   3.051
 6439SOL    HW120216   4.134   5.850   3.015
 6439SOL    HW220217   4.090   5.960   3.128
 6440SOL     OW20218   2.161   2.237   5.331
 6440SOL    HW120219   2.250   2.282   5.338
 6440SOL    HW220220   2.168   2.144   5.367
 6441SOL     OW20221   1.507   1.301   2.167
 6441SOL    HW120222   1.455   1.246   2.102
 6441SOL    HW220223   1.567   1.242   2.221
 6442SOL     OW20224   3.097   1.930   3.924
 6442SOL    HW120225   3.005   1.968   3.921
 6442SOL    HW220226   3.163   1.999   3.893
 6443SOL     OW20227   2.619   1.560   6.253
 6443SOL    HW120228   2.547   1.553   6.185
 6443SOL    HW220229   2.653   1.654   6.256
 6444SOL     OW20230   6.490   3.981   5.585
 6444SOL    HW120231   6.522   3.897   5.629
 6444SOL    HW220232   6.569   4.034   5.554
 6445SOL     OW20233   3.171   2.947   3.423
 6445SOL    HW120234   3.198   2.992   3.509
 6445SOL    HW220235   3.163   2.849   3.439
 6446SOL     OW20236   0.225   0.435   1.554
 6446SOL    HW120237   0.306   0.444   1.497
 6446SOL    HW220238   0.176   0.351   1.532
 6447SOL     OW20239   0.504   3.810   2.192
 6447SOL    HW120240   0.420   3.865   2.193
 6447SOL    HW220241   0.499   3.742   2.120
 6448SOL     OW20242   3.803   4.257   1.390
 6448SOL    HW120243   3.895   4.246   1.354
 6448SOL    HW220244   3.806   4.255   1.490
 6449SOL     OW20245   4.347   6.470   6.738
 6449SOL    HW120246   4.405   6.500   6.662
 6449SOL    HW220247   4.403   6.422   6.805
 6450SOL     OW20248   4.606   3.701   0.827
 6450SOL    HW120249   4.654   3.736   0.907
 6450SOL    HW220250   4.672   3.664   0.762
 6451SOL     OW20251   4.457   3.598   1.375
 6451SOL    HW120252   4.490   3.597   1.469
 6451SOL    HW220253   4.487   3.682   1.330
 6452SOL     OW20254   4.874   1.553   4.065
 6452SOL    HW120255   4.944   1.542   4.135
 6452SOL    HW220256   4.788   1.514   4.097
 6453SOL     OW20257   3.093   0.516   2.851
 6453SOL    HW120258   3.132   0.608   2.844
 6453SOL    HW220259   3.049   0.505   2.940
 6454SOL     OW20260   4.584   3.382   5.547
 6454SOL    HW120261   4.662   3.321   5.534
 6454SOL    HW220262   4.593   3.429   5.635
 6455SOL     OW20263   0.220   3.287   5.625
 6455SOL    HW120264   0.149   3.226   5.661
 6455SOL    HW220265   0.236   3.361   5.691
 6456SOL     OW20266   5.943   2.230   3.443
 6456SOL    HW120267   6.029   2.188   3.414
 6456SOL    HW220268   5.951   2.329   3.439
 6457SOL     OW20269   1.707   6.157   3.494
 6457SOL    HW120270   1.785   6.171   3.555
 6457SOL    HW220271   1.647   6.237   3.497
 6458SOL     OW20272   1.147   0.043   4.618
 6458SOL    HW120273   1.170   0.059   4.714
 6458SOL    HW220274   1.052   0.012   4.612
 6459SOL     OW20275   0.081   3.198   3.682
 6459SOL    HW120276   0.077   3.298   3.672
 6459SOL    HW220277   0.148   3.174   3.752
 6460SOL     OW20278   1.478   5.523   5.671
 6460SOL    HW120279   1.382   5.496   5.661
 6460SOL    HW220280   1.484   5.622   5.684
 6461SOL     OW20281   6.091   0.464   2.496
 6461SOL    HW120282   6.164   0.452   2.563
 6461SOL    HW220283   6.122   0.432   2.406
 6462SOL     OW20284   2.719   4.171   5.289
 6462SOL    HW120285   2.676   4.082   5.305
 6462SOL    HW220286   2.787   4.163   5.216
 6463SOL     OW20287   4.769   3.617   1.774
 6463SOL    HW120288   4.801   3.533   1.817
 6463SOL    HW220289   4.677   3.604   1.737
 6464SOL     OW20290   0.673   3.726   3.283
 6464SOL    HW120291   0.767   3.692   3.275
 6464SOL    HW220292   0.614   3.675   3.220
 6465SOL     OW20293   2.996   1.102   2.727
 6465SOL    HW120294   3.063   1.058   2.667
 6465SOL    HW220295   2.917   1.132   2.672
 6466SOL     OW20296   6.013   5.237   6.996
 6466SOL    HW120297   5.992   5.290   6.914
 6466SOL    HW220298   6.112   5.229   7.007
 6467SOL     OW20299   2.900   3.360   6.154
 6467SOL    HW120300   2.848   3.412   6.222
 6467SOL    HW220301   2.998   3.369   6.174
 6468SOL     OW20302   0.587   0.712   6.509
 6468SOL    HW120303   0.638   0.795   6.490
 6468SOL    HW220304   0.606   0.643   6.439
 6469SOL     OW20305   3.292   0.908   1.140
 6469SOL    HW120306   3.268   0.968   1.216
 6469SOL    HW220307   3.338   0.961   1.069
 6470SOL     OW20308   6.218   1.033   6.848
 6470SOL    HW120309   6.221   1.002   6.753
 6470SOL    HW220310   6.128   1.074   6.867
 6471SOL     OW20311   0.132   6.592   5.208
 6471SOL    HW120312   0.200   6.626   5.273
 6471SOL    HW220313   0.133   6.650   5.127
 6472SOL     OW20314   0.982   5.977   0.886
 6472SOL    HW120315   0.992   5.949   0.981
 6472SOL    HW220316   1.000   6.075   0.878
 6473SOL     OW20317   3.196   1.533   3.455
 6473SOL    HW120318   3.236   1.460   3.400
 6473SOL    HW220319   3.268   1.583   3.503
 6474SOL     OW20320   4.241   0.334   4.424
 6474SOL    HW120321   4.180   0.262   4.456
 6474SOL    HW220322   4.189   0.419   4.413
 6475SOL     OW20323   5.627   5.727   4.284
 6475SOL    HW120324   5.584   5.776   4.359
 6475SOL    HW220325   5.695   5.663   4.320
 6476SOL     OW20326   5.369   4.368   4.068
 6476SOL    HW120327   5.431   4.443   4.089
 6476SOL    HW220328   5.334   4.378   3.975
 6477SOL     OW20329   0.858   6.997   1.025
 6477SOL    HW120330   0.941   6.956   1.064
 6477SOL    HW220331   0.819   6.935   0.957
 6478SOL     OW20332   2.042   6.425   0.095
 6478SOL    HW120333   2.122   6.397   0.147
 6478SOL    HW220334   1.974   6.465   0.156
 6479SOL     OW20335   4.656   5.467   4.683
 6479SOL    HW120336   4.635   5.370   4.695
 6479SOL    HW220337   4.575   5.514   4.647
 6480SOL     OW20338   2.562   0.552   4.419
 6480SOL    HW120339   2.639   0.512   4.467
 6480SOL    HW220340   2.484   0.559   4.481
 6481SOL     OW20341   4.233   3.709   1.116
 6481SOL    HW120342   4.302   3.642   1.144
 6481SOL    HW220343   4.251   3.738   1.022
 6482SOL     OW20344   5.427   3.329   4.130
 6482SOL    HW120345   5.418   3.410   4.187
 6482SOL    HW220346   5.381   3.344   4.043
 6483SOL     OW20347   2.007   6.566   5.589
 6483SOL    HW120348   1.994   6.591   5.493
 6483SOL    HW220349   2.043   6.473   5.595
 6484SOL     OW20350   3.745   0.564   4.142
 6484SOL    HW120351   3.691   0.612   4.073
 6484SOL    HW220352   3.773   0.628   4.213
 6485SOL     OW20353   2.509   4.858   5.293
 6485SOL    HW120354   2.417   4.820   5.280
 6485SOL    HW220355   2.502   4.956   5.313
 6486SOL     OW20356   6.754   3.191   2.524
 6486SOL    HW120357   6.813   3.271   2.535
 6486SOL    HW220358   6.761   3.134   2.606
 6487SOL     OW20359   6.184   5.754   4.657
 6487SOL    HW120360   6.231   5.741   4.570
 6487SOL    HW220361   6.227   5.698   4.727
 6488SOL     OW20362   3.842   5.229   2.722
 6488SOL    HW120363   3.875   5.310   2.771
 6488SOL    HW220364   3.777   5.180   2.780
 6489SOL     OW20365   6.875   3.792   5.204
 6489SOL    HW120366   6.886   3.724   5.133
 6489SOL    HW220367   6.953   3.855   5.203
 6490SOL     OW20368   1.980   3.453   5.765
 6490SOL    HW120369   1.961   3.503   5.850
 6490SOL    HW220370   2.076   3.427   5.763
 6491SOL     OW20371   0.685   0.067   2.396
 6491SOL    HW120372   0.755   0.036   2.333
 6491SOL    HW220373   0.675   0.167   2.389
 6492SOL     OW20374   4.100   3.611   2.947
 6492SOL    HW120375   4.133   3.585   2.856
 6492SOL    HW220376   4.170   3.588   3.015
 6493SOL     OW20377   2.328   4.982   3.862
 6493SOL    HW120378   2.248   4.938   3.820
 6493SOL    HW220379   2.388   5.018   3.790
 6494SOL     OW20380   6.588   0.804   1.775
 6494SOL    HW120381   6.584   0.824   1.677
 6494SOL    HW220382   6.505   0.837   1.819
 6495SOL     OW20383   6.564   5.984   2.634
 6495SOL    HW120384   6.624   5.935   2.698
 6495SOL    HW220385   6.567   6.082   2.654
 6496SOL     OW20386   2.787   2.628   1.136
 6496SOL    HW120387   2.818   2.547   1.186
 6496SOL    HW220388   2.779   2.705   1.199
 6497SOL     OW20389   0.166   3.207   1.315
 6497SOL    HW120390   0.089   3.166   1.266
 6497SOL    HW220391   0.214   3.271   1.255
 6498SOL     OW20392   2.762   4.802   4.591
 6498SOL    HW120393   2.718   4.736   4.530
 6498SOL    HW220394   2.712   4.888   4.589
 6499SOL     OW20395   5.381   1.731   3.020
 6499SOL    HW120396   5.436   1.720   2.937
 6499SOL    HW220397   5.284   1.740   2.994
 6500SOL     OW20398   1.763   3.726   2.550
 6500SOL    HW120399   1.787   3.776   2.467
 6500SOL    HW220400   1.841   3.726   2.613
 6501SOL     OW20401   6.377   1.031   2.787
 6501SOL    HW120402   6.425   0.944   2.775
 6501SOL    HW220403   6.307   1.040   2.717
 6502SOL     OW20404   0.675   3.060   2.946
 6502SOL    HW120405   0.613   3.069   2.868
 6502SOL    HW220406   0.652   2.979   2.999
 6503SOL     OW20407   0.898   2.991   5.584
 6503SOL    HW120408   0.804   2.967   5.561
 6503SOL    HW220409   0.942   3.031   5.503
 6504SOL     OW20410   4.232   6.540   5.662
 6504SOL    HW120411   4.218   6.631   5.624
 6504SOL    HW220412   4.241   6.473   5.588
 6505SOL     OW20413   0.775   6.874   6.889
 6505SOL    HW120414   0.740   6.968   6.884
 6505SOL    HW220415   0.854   6.864   6.830
 6506SOL     OW20416   1.197   5.372   2.321
 6506SOL    HW120417   1.112   5.319   2.314
 6506SOL    HW220418   1.175   5.467   2.343
 6507SOL     OW20419   5.391   5.273   0.632
 6507SOL    HW120420   5.445   5.201   0.676
 6507SOL    HW220421   5.448   5.355   0.620
 6508SOL     OW20422   6.628   1.440   4.659
 6508SOL    HW120423   6.629   1.385   4.743
 6508SOL    HW220424   6.580   1.389   4.587
 6509SOL     OW20425   2.992   1.788   6.559
 6509SOL    HW120426   2.974   1.729   6.480
 6509SOL    HW220427   2.930   1.867   6.556
 6510SOL     OW20428   4.219   5.061   4.135
 6510SOL    HW120429   4.208   5.160   4.145
 6510SOL    HW220430   4.178   5.015   4.214
 6511SOL     OW20431   3.609   3.152   0.320
 6511SOL    HW120432   3.577   3.217   0.251
 6511SOL    HW220433   3.669   3.084   0.276
 6512SOL     OW20434   5.255   1.597   2.407
 6512SOL    HW120435   5.237   1.692   2.379
 6512SOL    HW220436   5.214   1.534   2.341
 6513SOL     OW20437   3.287   4.561   1.496
 6513SOL    HW120438   3.261   4.488   1.559
 6513SOL    HW220439   3.385   4.575   1.500
 6514SOL     OW20440   5.656   5.683   5.333
 6514SOL    HW120441   5.671   5.774   5.372
 6514SOL    HW220442   5.646   5.616   5.406
 6515SOL     OW20443   0.552   4.630   2.294
 6515SOL    HW120444   0.649   4.648   2.308
 6515SOL    HW220445   0.525   4.548   2.344
 6516SOL     OW20446   5.897   1.417   3.553
 6516SOL    HW120447   5.935   1.493   3.500
 6516SOL    HW220448   5.806   1.394   3.518
 6517SOL     OW20449   0.064   3.824   1.419
 6517SOL    HW120450   7.011   3.870   1.368
 6517SOL    HW220451   0.153   3.851   1.382
 6518SOL     OW20452   1.108   1.785   2.671
 6518SOL    HW120453   1.021   1.810   2.628
 6518SOL    HW220454   1.144   1.703   2.628
 6519SOL     OW20455   2.413   1.901   3.175
 6519SOL    HW120456   2.485   1.844   3.215
 6519SOL    HW220457   2.437   1.922   3.080
 6520SOL     OW20458   5.724   6.882   6.582
 6520SOL    HW120459   5.807   6.937   6.571
 6520SOL    HW220460   5.667   6.922   6.653
 6521SOL     OW20461   1.745   4.691   4.747
 6521SOL    HW120462   1.753   4.728   4.654
 6521SOL    HW220463   1.831   4.648   4.773
 6522SOL     OW20464   2.564   3.275   5.361
 6522SOL    HW120465   2.495   3.347   5.364
 6522SOL    HW220466   2.537   3.205   5.295
 6523SOL     OW20467   4.499   6.782   0.874
 6523SOL    HW120468   4.456   6.695   0.899
 6523SOL    HW220469   4.596   6.767   0.855
 6524SOL     OW20470   3.750   2.314   1.411
 6524SOL    HW120471   3.718   2.284   1.321
 6524SOL    HW220472   3.847   2.341   1.404
 6525SOL     OW20473   3.169   5.211   3.482
 6525SOL    HW120474   3.261   5.176   3.468
 6525SOL    HW220475   3.146   5.206   3.580
 6526SOL     OW20476   5.883   6.589   0.439
 6526SOL    HW120477   5.926   6.501   0.420
 6526SOL    HW220478   5.829   6.583   0.522
 6527SOL     OW20479   5.700   2.262   0.969
 6527SOL    HW120480   5.601   2.255   0.974
 6527SOL    HW220481   5.741   2.234   1.056
 6528SOL     OW20482   4.511   0.363   0.738
 6528SOL    HW120483   4.575   0.415   0.682
 6528SOL    HW220484   4.486   0.417   0.819
 6529SOL     OW20485   3.389   6.157   1.394
 6529SOL    HW120486   3.429   6.201   1.313
 6529SOL    HW220487   3.291   6.173   1.396
 6530SOL     OW20488   0.938   2.978   4.301
 6530SOL    HW120489   0.952   2.908   4.232
 6530SOL    HW220490   1.022   2.989   4.355
 6531SOL     OW20491   2.940   3.333   4.287
 6531SOL    HW120492   2.951   3.393   4.208
 6531SOL    HW220493   3.003   3.255   4.278
 6532SOL     OW20494   0.433   5.799   6.765
 6532SOL    HW120495   0.462   5.886   6.726
 6532SOL    HW220496   0.473   5.724   6.711
 6533SOL     OW20497   5.765   5.168   1.155
 6533SOL    HW120498   5.829   5.217   1.097
 6533SOL    HW220499   5.752   5.075   1.119
 6534SOL     OW20500   6.214   3.089   4.538
 6534SOL    HW120501   6.215   3.016   4.471
 6534SOL    HW220502   6.144   3.071   4.607
 6535SOL     OW20503   5.525   3.218   6.674
 6535SOL    HW120504   5.551   3.121   6.677
 6535SOL    HW220505   5.598   3.271   6.630
 6536SOL     OW20506   6.746   5.786   5.778
 6536SOL    HW120507   6.808   5.736   5.717
 6536SOL    HW220508   6.766   5.763   5.873
 6537SOL     OW20509   6.650   5.059   4.073
 6537SOL    HW120510   6.742   5.047   4.038
 6537SOL    HW220511   6.653   5.074   4.172
 6538SOL     OW20512   1.251   4.107   3.667
 6538SOL    HW120513   1.168   4.093   3.721
 6538SOL    HW220514   1.306   4.180   3.709
 6539SOL     OW20515   5.860   6.502   5.627
 6539SOL    HW120516   5.789   6.570   5.641
 6539SOL    HW220517   5.910   6.488   5.713
 6540SOL     OW20518   0.769   2.991   5.201
 6540SOL    HW120519   0.699   3.035   5.143
 6540SOL    HW220520   0.727   2.964   5.288
 6541SOL     OW20521   3.197   1.677   5.638
 6541SOL    HW120522   3.143   1.739   5.694
 6541SOL    HW220523   3.219   1.595   5.691
 6542SOL     OW20524   1.757   4.996   1.760
 6542SOL    HW120525   1.814   5.066   1.718
 6542SOL    HW220526   1.814   4.926   1.802
 6543SOL     OW20527   4.281   2.026   3.750
 6543SOL    HW120528   4.215   1.954   3.771
 6543SOL    HW220529   4.319   2.011   3.659
 6544SOL     OW20530   1.051   1.109   1.136
 6544SOL    HW120531   1.048   1.178   1.208
 6544SOL    HW220532   1.055   1.018   1.176
 6545SOL     OW20533   6.434   4.337   0.487
 6545SOL    HW120534   6.398   4.429   0.475
 6545SOL    HW220535   6.396   4.277   0.417
 6546SOL     OW20536   4.436   5.663   4.214
 6546SOL    HW120537   4.396   5.718   4.287
 6546SOL    HW220538   4.365   5.641   4.147
 6547SOL     OW20539   6.734   6.259   4.720
 6547SOL    HW120540   6.680   6.237   4.801
 6547SOL    HW220541   6.817   6.307   4.747
 6548SOL     OW20542   1.767   0.907   4.974
 6548SOL    HW120543   1.752   0.887   4.877
 6548SOL    HW220544   1.731   0.831   5.029
 6549SOL     OW20545   2.384   1.897   2.125
 6549SOL    HW120546   2.427   1.825   2.071
 6549SOL    HW220547   2.287   1.902   2.103
 6550SOL     OW20548   5.319   0.599   2.048
 6550SOL    HW120549   5.295   0.678   2.104
 6550SOL    HW220550   5.384   0.541   2.098
 6551SOL     OW20551   2.426   5.802   1.061
 6551SOL    HW120552   2.472   5.715   1.047
 6551SOL    HW220553   2.454   5.866   0.990
 6552SOL     OW20554   2.049   3.479   6.554
 6552SOL    HW120555   2.057   3.471   6.455
 6552SOL    HW220556   2.075   3.572   6.582
 6553SOL     OW20557   0.416   1.760   3.360
 6553SOL    HW120558   0.477   1.767   3.281
 6553SOL    HW220559   0.387   1.851   3.388
 6554SOL     OW20560   2.283   1.519   4.188
 6554SOL    HW120561   2.201   1.530   4.244
 6554SOL    HW220562   2.349   1.590   4.212
 6555SOL     OW20563   2.122   3.463   1.718
 6555SOL    HW120564   2.161   3.388   1.666
 6555SOL    HW220565   2.153   3.458   1.813
 6556SOL     OW20566   4.997   2.914   3.592
 6556SOL    HW120567   5.072   2.918   3.526
 6556SOL    HW220568   4.983   2.819   3.620
 6557SOL     OW20569   1.899   6.933   2.453
 6557SOL    HW120570   1.831   6.982   2.400
 6557SOL    HW220571   1.854   6.866   2.512
 6558SOL     OW20572   4.748   6.007   0.571
 6558SOL    HW120573   4.827   6.001   0.632
 6558SOL    HW220574   4.770   5.962   0.485
 6559SOL     OW20575   0.171   1.928   6.175
 6559SOL    HW120576   0.165   2.011   6.121
 6559SOL    HW220577   0.079   1.889   6.187
 6560SOL     OW20578   6.797   3.989   6.080
 6560SOL    HW120579   6.832   3.921   6.144
 6560SOL    HW220580   6.847   4.075   6.092
 6561SOL     OW20581   2.348   5.146   6.800
 6561SOL    HW120582   2.405   5.166   6.721
 6561SOL    HW220583   2.396   5.083   6.861
 6562SOL     OW20584   4.949   2.618   1.016
 6562SOL    HW120585   4.924   2.699   1.069
 6562SOL    HW220586   4.925   2.631   0.920
 6563SOL     OW20587   5.791   4.160   6.268
 6563SOL    HW120588   5.704   4.171   6.221
 6563SOL    HW220589   5.783   4.194   6.362
 6564SOL     OW20590   6.275   3.985   2.610
 6564SOL    HW120591   6.361   3.960   2.565
 6564SOL    HW220592   6.198   3.959   2.552
 6565SOL     OW20593   5.392   5.258   1.480
 6565SOL    HW120594   5.416   5.176   1.427
 6565SOL    HW220595   5.448   5.261   1.563
 6566SOL     OW20596   5.560   6.062   4.827
 6566SOL    HW120597   5.594   5.968   4.821
 6566SOL    HW220598   5.462   6.061   4.846
 6567SOL     OW20599   2.879   0.605   2.410
 6567SOL    HW120600   2.967   0.569   2.442
 6567SOL    HW220601   2.834   0.537   2.352
 6568SOL     OW20602   5.241   1.628   0.887
 6568SOL    HW120603   5.332   1.660   0.914
 6568SOL    HW220604   5.186   1.707   0.858
 6569SOL     OW20605   1.307   4.113   3.204
 6569SOL    HW120606   1.338   4.021   3.177
 6569SOL    HW220607   1.355   4.141   3.287
 6570SOL     OW20608   4.358   0.056   2.244
 6570SOL    HW120609   4.307   0.112   2.178
 6570SOL    HW220610   4.365   6.982   2.209
 6571SOL     OW20611   2.455   6.889   3.489
 6571SOL    HW120612   2.523   6.816   3.483
 6571SOL    HW220613   2.453   6.925   3.583
 6572SOL     OW20614   0.780   7.015   3.948
 6572SOL    HW120615   0.715   0.053   3.898
 6572SOL    HW220616   0.804   0.039   4.035
 6573SOL     OW20617   1.219   1.956   3.486
 6573SOL    HW120618   1.224   1.931   3.389
 6573SOL    HW220619   1.311   1.970   3.521
 6574SOL     OW20620   1.452   5.267   1.403
 6574SOL    HW120621   1.524   5.334   1.419
 6574SOL    HW220622   1.493   5.177   1.390
 6575SOL     OW20623   6.912   0.733   4.318
 6575SOL    HW120624   6.922   0.635   4.301
 6575SOL    HW220625   6.883   0.748   4.413
 6576SOL     OW20626   4.268   0.644   3.189
 6576SOL    HW120627   4.296   0.656   3.094
 6576SOL    HW220628   4.241   0.549   3.205
 6577SOL     OW20629   3.000   0.613   5.572
 6577SOL    HW120630   3.060   0.573   5.503
 6577SOL    HW220631   2.912   0.565   5.571
 6578SOL     OW20632   0.634   5.941   0.467
 6578SOL    HW120633   0.706   5.967   0.531
 6578SOL    HW220634   0.670   5.876   0.400
 6579SOL     OW20635   2.259   1.873   2.909
 6579SOL    HW120636   2.231   1.863   2.814
 6579SOL    HW220637   2.359   1.874   2.915
 6580SOL     OW20638   3.209   2.539   0.043
 6580SOL    HW120639   3.142   2.468   0.063
 6580SOL    HW220640   3.271   2.550   0.121
 6581SOL     OW20641   1.153   2.085   2.072
 6581SOL    HW120642   1.079   2.060   2.010
 6581SOL    HW220643   1.119   2.084   2.167
 6582SOL     OW20644   3.872   6.380   3.029
 6582SOL    HW120645   3.844   6.362   3.124
 6582SOL    HW220646   3.877   6.479   3.014
 6583SOL     OW20647   2.244   4.911   0.348
 6583SOL    HW120648   2.204   4.851   0.417
 6583SOL    HW220649   2.178   4.927   0.275
 6584SOL     OW20650   4.680   3.754   5.321
 6584SOL    HW120651   4.766   3.755   5.372
 6584SOL    HW220652   4.671   3.666   5.273
 6585SOL     OW20653   4.965   6.131   1.846
 6585SOL    HW120654   4.982   6.040   1.883
 6585SOL    HW220655   4.867   6.143   1.830
 6586SOL     OW20656   6.412   1.712   6.925
 6586SOL    HW120657   6.511   1.714   6.939
 6586SOL    HW220658   6.366   1.737   7.011
 6587SOL     OW20659   2.770   4.827   5.179
 6587SOL    HW120660   2.781   4.749   5.117
 6587SOL    HW220661   2.673   4.844   5.194
 6588SOL     OW20662   1.529   2.575   0.365
 6588SOL    HW120663   1.526   2.675   0.355
 6588SOL    HW220664   1.448   2.545   0.415
 6589SOL     OW20665   6.036   0.909   0.121
 6589SOL    HW120666   6.132   0.930   0.100
 6589SOL    HW220667   6.030   0.878   0.216
 6590SOL     OW20668   0.476   5.976   4.293
 6590SOL    HW120669   0.478   5.905   4.364
 6590SOL    HW220670   0.435   6.059   4.330
 6591SOL     OW20671   6.246   3.529   3.629
 6591SOL    HW120672   6.261   3.494   3.536
 6591SOL    HW220673   6.175   3.600   3.627
 6592SOL     OW20674   0.670   0.658   4.220
 6592SOL    HW120675   0.581   0.640   4.177
 6592SOL    HW220676   0.695   0.581   4.278
 6593SOL     OW20677   0.586   6.570   3.743
 6593SOL    HW120678   0.536   6.646   3.702
 6593SOL    HW220679   0.651   6.605   3.810
 6594SOL     OW20680   5.186   6.939   6.249
 6594SOL    HW120681   5.256   6.873   6.221
 6594SOL    HW220682   5.163   6.998   6.172
 6595SOL     OW20683   0.447   6.772   4.641
 6595SOL    HW120684   0.419   6.688   4.687
 6595SOL    HW220685   0.547   6.775   4.635
 6596SOL     OW20686   4.700   0.561   3.269
 6596SOL    HW120687   4.758   0.479   3.267
 6596SOL    HW220688   4.756   0.640   3.294
 6597SOL     OW20689   0.703   5.377   1.989
 6597SOL    HW120690   0.610   5.343   2.000
 6597SOL    HW220691   0.739   5.346   1.901
 6598SOL     OW20692   1.328   5.259   1.651
 6598SOL    HW120693   1.346   5.347   1.695
 6598SOL    HW220694   1.359   5.261   1.556
 6599SOL     OW20695   0.307   5.760   0.579
 6599SOL    HW120696   0.319   5.818   0.499
 6599SOL    HW220697   0.340   5.668   0.559
 6600SOL     OW20698   5.109   0.198   4.699
 6600SOL    HW120699   5.084   0.272   4.636
 6600SOL    HW220700   5.209   0.195   4.708
 6601SOL     OW20701   0.948   2.050   3.846
 6601SOL    HW120702   1.025   1.997   3.811
 6601SOL    HW220703   0.981   2.123   3.905
 6602SOL     OW20704   6.075   6.516   0.674
 6602SOL    HW120705   6.072   6.615   0.661
 6602SOL    HW220706   6.103   6.473   0.588
 6603SOL     OW20707   6.710   5.264   2.349
 6603SOL    HW120708   6.680   5.235   2.440
 6603SOL    HW220709   6.805   5.238   2.334
 6604SOL     OW20710   2.504   4.815   2.445
 6604SOL    HW120711   2.481   4.791   2.351
 6604SOL    HW220712   2.560   4.743   2.485
 6605SOL     OW20713   6.905   5.529   0.595
 6605SOL    HW120714   6.815   5.509   0.634
 6605SOL    HW220715   6.976   5.500   0.659
 6606SOL     OW20716   1.156   5.155   3.412
 6606SOL    HW120717   1.220   5.124   3.341
 6606SOL    HW220718   1.068   5.177   3.370
 6607SOL     OW20719   0.621   2.549   4.208
 6607SOL    HW120720   0.628   2.625   4.143
 6607SOL    HW220721   0.529   2.510   4.202
 6608SOL     OW20722   1.030   0.055   4.921
 6608SOL    HW120723   1.070   6.993   4.961
 6608SOL    HW220724   1.093   0.132   4.933
 6609SOL     OW20725   2.535   2.008   0.027
 6609SOL    HW120726   2.493   2.054   0.105
 6609SOL    HW220727   2.605   1.944   0.060
 6610SOL     OW20728   3.272   5.141   0.078
 6610SOL    HW120729   3.245   5.159   7.003
 6610SOL    HW220730   3.273   5.042   0.094
 6611SOL     OW20731   2.610   0.800   4.798
 6611SOL    HW120732   2.687   0.818   4.736
 6611SOL    HW220733   2.537   0.755   4.746
 6612SOL     OW20734   5.666   0.196   6.890
 6612SOL    HW120735   5.649   0.249   6.807
 6612SOL    HW220736   5.740   0.239   6.942
 6613SOL     OW20737   5.328   6.270   0.863
 6613SOL    HW120738   5.357   6.267   0.958
 6613SOL    HW220739   5.358   6.356   0.821
 6614SOL     OW20740   4.031   5.934   0.657
 6614SOL    HW120741   4.051   5.942   0.560
 6614SOL    HW220742   3.932   5.932   0.671
 6615SOL     OW20743   3.887   5.683   5.860
 6615SOL    HW120744   3.968   5.633   5.829
 6615SOL    HW220745   3.830   5.624   5.916
 6616SOL     OW20746   4.058   2.200   6.758
 6616SOL    HW120747   3.972   2.251   6.751
 6616SOL    HW220748   4.055   2.139   6.837
 6617SOL     OW20749   4.155   1.961   4.044
 6617SOL    HW120750   4.228   2.012   4.000
 6617SOL    HW220751   4.071   2.016   4.044
 6618SOL     OW20752   6.238   2.738   3.574
 6618SOL    HW120753   6.146   2.718   3.608
 6618SOL    HW220754   6.290   2.786   3.645
 6619SOL     OW20755   4.870   5.035   3.518
 6619SOL    HW120756   4.948   5.062   3.461
 6619SOL    HW220757   4.899   4.962   3.580
 6620SOL     OW20758   1.583   2.605   3.901
 6620SOL    HW120759   1.673   2.582   3.937
 6620SOL    HW220760   1.520   2.529   3.917
 6621SOL     OW20761   3.513   3.898   3.479
 6621SOL    HW120762   3.558   3.937   3.559
 6621SOL    HW220763   3.416   3.921   3.480
 6622SOL     OW20764   6.959   4.919   1.195
 6622SOL    HW120765   0.020   4.918   1.253
 6622SOL    HW220766   6.877   4.917   1.253
 6623SOL     OW20767   3.424   3.649   4.210
 6623SOL    HW120768   3.442   3.635   4.308
 6623SOL    HW220769   3.505   3.624   4.158
 6624SOL     OW20770   2.557   2.128   2.585
 6624SOL    HW120771   2.543   2.207   2.525
 6624SOL    HW220772   2.539   2.044   2.534
 6625SOL     OW20773   1.166   5.375   6.445
 6625SOL    HW120774   1.258   5.338   6.439
 6625SOL    HW220775   1.169   5.473   6.424
 6626SOL     OW20776   3.704   6.133   5.825
 6626SOL    HW120777   3.771   6.200   5.857
 6626SOL    HW220778   3.752   6.049   5.797
 6627SOL     OW20779   2.362   0.041   4.346
 6627SOL    HW120780   2.392   0.071   4.437
 6627SOL    HW220781   2.396   6.968   4.329
 6628SOL     OW20782   4.031   6.468   3.804
 6628SOL    HW120783   4.049   6.559   3.766
 6628SOL    HW220784   4.044   6.470   3.903
 6629SOL     OW20785   5.202   5.455   5.288
 6629SOL    HW120786   5.221   5.398   5.369
 6629SOL    HW220787   5.103   5.468   5.279
 6630SOL     OW20788   1.531   6.906   0.853
 6630SOL    HW120789   1.488   6.861   0.774
 6630SOL    HW220790   1.626   6.928   0.832
 6631SOL     OW20791   1.703   1.622   5.396
 6631SOL    HW120792   1.788   1.652   5.439
 6631SOL    HW220793   1.719   1.603   5.299
 6632SOL     OW20794   1.068   0.680   5.780
 6632SOL    HW120795   1.050   0.753   5.846
 6632SOL    HW220796   1.156   0.696   5.736
 6633SOL     OW20797   5.177   0.524   5.725
 6633SOL    HW120798   5.237   0.486   5.654
 6633SOL    HW220799   5.088   0.479   5.721
 6634SOL     OW20800   2.828   2.324   4.175
 6634SOL    HW120801   2.919   2.361   4.156
 6634SOL    HW220802   2.834   2.225   4.190
 6635SOL     OW20803   4.478   5.395   6.299
 6635SOL    HW120804   4.448   5.350   6.215
 6635SOL    HW220805   4.571   5.365   6.321
 6636SOL     OW20806   4.818   1.722   0.914
 6636SOL    HW120807   4.730   1.770   0.918
 6636SOL    HW220808   4.880   1.772   0.852
 6637SOL     OW20809   0.620   3.777   0.123
 6637SOL    HW120810   0.647   3.682   0.104
 6637SOL    HW220811   0.685   3.818   0.188
 6638SOL     OW20812   3.292   3.334   4.178
 6638SOL    HW120813   3.285   3.427   4.213
 6638SOL    HW220814   3.206   3.308   4.134
 6639SOL     OW20815   6.225   2.258   2.728
 6639SOL    HW120816   6.152   2.190   2.721
 6639SOL    HW220817   6.309   2.221   2.690
 6640SOL     OW20818   0.220   3.385   4.272
 6640SOL    HW120819   0.248   3.471   4.314
 6640SOL    HW220820   0.191   3.321   4.344
 6641SOL     OW20821   5.373   2.312   0.442
 6641SOL    HW120822   5.365   2.222   0.400
 6641SOL    HW220823   5.320   2.314   0.527
 6642SOL     OW20824   0.594   4.751   6.411
 6642SOL    HW120825   0.554   4.699   6.486
 6642SOL    HW220826   0.597   4.694   6.329
 6643SOL     OW20827   6.238   5.676   5.801
 6643SOL    HW120828   6.335   5.677   5.823
 6643SOL    HW220829   6.225   5.656   5.704
 6644SOL     OW20830   2.306   6.694   3.220
 6644SOL    HW120831   2.327   6.751   3.299
 6644SOL    HW220832   2.286   6.601   3.250
 6645SOL     OW20833   4.782   2.768   5.517
 6645SOL    HW120834   4.770   2.809   5.427
 6645SOL    HW220835   4.694   2.734   5.550
 6646SOL     OW20836   4.277   6.793   5.966
 6646SOL    HW120837   4.199   6.856   5.970
 6646SOL    HW220838   4.355   6.841   5.926
 6647SOL     OW20839   3.314   4.881   0.590
 6647SOL    HW120840   3.318   4.794   0.639
 6647SOL    HW220841   3.219   4.903   0.568
 6648SOL     OW20842   3.242   6.184   4.857
 6648SOL    HW120843   3.171   6.125   4.895
 6648SOL    HW220844   3.290   6.231   4.932
 6649SOL     OW20845   5.506   2.232   5.518
 6649SOL    HW120846   5.514   2.134   5.534
 6649SOL    HW220847   5.411   2.254   5.494
 6650SOL     OW20848   2.688   0.790   4.360
 6650SOL    HW120849   2.742   0.778   4.277
 6650SOL    HW220850   2.624   0.714   4.371
 6651SOL     OW20851   6.152   1.536   3.440
 6651SOL    HW120852   6.217   1.479   3.491
 6651SOL    HW220853   6.165   1.632   3.465
 6652SOL     OW20854   6.869   5.148   6.993
 6652SOL    HW120855   6.909   5.071   6.943
 6652SOL    HW220856   6.776   5.126   0.001
 6653SOL     OW20857   5.459   3.549   6.751
 6653SOL    HW120858   5.517   3.494   6.810
 6653SOL    HW220859   5.410   3.490   6.687
 6654SOL     OW20860   6.963   2.135   3.359
 6654SOL    HW120861   0.000   2.148   3.278
 6654SOL    HW220862   0.001   2.113   3.438
 6655SOL     OW20863   6.669   5.538   1.462
 6655SOL    HW120864   6.669   5.610   1.393
 6655SOL    HW220865   6.697   5.576   1.550
 6656SOL     OW20866   5.786   1.561   2.419
 6656SOL    HW120867   5.830   1.533   2.334
 6656SOL    HW220868   5.827   1.511   2.496
 6657SOL     OW20869   5.358   2.097   4.161
 6657SOL    HW120870   5.358   2.110   4.062
 6657SOL    HW220871   5.303   2.017   4.184
 6658SOL     OW20872   6.304   4.912   3.812
 6658SOL    HW120873   6.239   4.988   3.813
 6658SOL    HW220874   6.337   4.895   3.905
 6659SOL     OW20875   0.737   6.538   1.016
 6659SOL    HW120876   0.643   6.574   1.021
 6659SOL    HW220877   0.787   6.586   0.944
 6660SOL     OW20878   1.437   0.742   3.461
 6660SOL    HW120879   1.507   0.813   3.467
 6660SOL    HW220880   1.356   0.779   3.415
 6661SOL     OW20881   3.581   6.536   3.398
 6661SOL    HW120882   3.539   6.605   3.458
 6661SOL    HW220883   3.513   6.501   3.334
 6662SOL     OW20884   3.974   5.501   1.324
 6662SOL    HW120885   4.028   5.476   1.404
 6662SOL    HW220886   3.878   5.482   1.341
 6663SOL     OW20887   1.677   4.549   5.774
 6663SOL    HW120888   1.612   4.478   5.804
 6663SOL    HW220889   1.762   4.539   5.826
 6664SOL     OW20890   3.070   0.113   1.549
 6664SOL    HW120891   3.049   0.016   1.562
 6664SOL    HW220892   3.094   0.154   1.637
 6665SOL     OW20893   2.981   0.113   6.816
 6665SOL    HW120894   2.976   0.204   6.858
 6665SOL    HW220895   3.076   0.080   6.820
 6666SOL     OW20896   2.528   0.218   6.922
 6666SOL    HW120897   2.628   0.213   6.929
 6666SOL    HW220898   2.491   0.252   7.009
 6667SOL     OW20899   1.553   5.680   0.121
 6667SOL    HW120900   1.528   5.707   0.214
 6667SOL    HW220901   1.470   5.657   0.070
 6668SOL     OW20902   6.873   3.266   5.915
 6668SOL    HW120903   6.792   3.242   5.969
 6668SOL    HW220904   6.847   3.332   5.845
 6669SOL     OW20905   0.982   3.764   3.503
 6669SOL    HW120906   0.916   3.752   3.577
 6669SOL    HW220907   0.962   3.700   3.429
 6670SOL     OW20908   2.175   3.781   0.958
 6670SOL    HW120909   2.229   3.704   0.925
 6670SOL    HW220910   2.207   3.808   1.049
 6671SOL     OW20911   5.651   5.335   0.333
 6671SOL    HW120912   5.740   5.356   0.294
 6671SOL    HW220913   5.588   5.411   0.316
 6672SOL     OW20914   1.631   2.301   0.985
 6672SOL    HW120915   1.566   2.343   0.922
 6672SOL    HW220916   1.695   2.244   0.934
 6673SOL     OW20917   5.489   3.960   4.081
 6673SOL    HW120918   5.515   3.932   4.173
 6673SOL    HW220919   5.419   4.031   4.086
 6674SOL     OW20920   6.487   1.362   0.147
 6674SOL    HW120921   6.456   1.311   0.067
 6674SOL    HW220922   6.409   1.385   0.204
 6675SOL     OW20923   5.537   0.977   0.978
 6675SOL    HW120924   5.562   0.984   1.075
 6675SOL    HW220925   5.605   0.923   0.930
 6676SOL     OW20926   0.902   3.592   4.934
 6676SOL    HW120927   0.907   3.510   4.990
 6676SOL    HW220928   0.925   3.672   4.990
 6677SOL     OW20929   0.497   2.091   0.311
 6677SOL    HW120930   0.569   2.160   0.316
 6677SOL    HW220931   0.533   2.003   0.342
 6678SOL     OW20932   2.999   4.025   6.862
 6678SOL    HW120933   2.957   4.017   6.772
 6678SOL    HW220934   3.098   4.013   6.855
 6679SOL     OW20935   1.668   6.669   3.374
 6679SOL    HW120936   1.628   6.728   3.444
 6679SOL    HW220937   1.714   6.725   3.305
 6680SOL     OW20938   5.809   5.277   1.583
 6680SOL    HW120939   5.846   5.214   1.514
 6680SOL    HW220940   5.883   5.313   1.639
 6681SOL     OW20941   3.027   6.313   0.820
 6681SOL    HW120942   3.123   6.334   0.835
 6681SOL    HW220943   2.999   6.240   0.883
 6682SOL     OW20944   1.993   5.004   6.325
 6682SOL    HW120945   1.938   4.922   6.310
 6682SOL    HW220946   2.090   4.980   6.324
 6683SOL     OW20947   6.425   6.714   5.996
 6683SOL    HW120948   6.411   6.682   6.090
 6683SOL    HW220949   6.345   6.692   5.941
 6684SOL     OW20950   3.003   0.069   5.763
 6684SOL    HW120951   3.097   0.048   5.735
 6684SOL    HW220952   2.996   0.063   5.862
 6685SOL     OW20953   3.908   3.162   0.657
 6685SOL    HW120954   3.872   3.070   0.673
 6685SOL    HW220955   3.918   3.209   0.745
 6686SOL     OW20956   4.231   4.725   5.399
 6686SOL    HW120957   4.327   4.751   5.396
 6686SOL    HW220958   4.192   4.732   5.307
 6687SOL     OW20959   0.115   2.524   1.095
 6687SOL    HW120960   0.045   2.595   1.088
 6687SOL    HW220961   0.129   2.501   1.191
 6688SOL     OW20962   5.938   6.021   7.019
 6688SOL    HW120963   5.891   6.101   0.037
 6688SOL    HW220964   5.905   6.004   6.926
 6689SOL     OW20965   3.859   4.501   5.604
 6689SOL    HW120966   3.935   4.565   5.600
 6689SOL    HW220967   3.861   4.443   5.522
 6690SOL     OW20968   0.795   0.535   0.021
 6690SOL    HW120969   0.787   0.473   0.099
 6690SOL    HW220970   0.704   0.559   7.007
 6691SOL     OW20971   2.403   1.954   2.416
 6691SOL    HW120972   2.424   1.881   2.351
 6691SOL    HW220973   2.375   2.036   2.366
 6692SOL     OW20974   4.205   6.424   2.434
 6692SOL    HW120975   4.117   6.383   2.456
 6692SOL    HW220976   4.201   6.462   2.342
 6693SOL     OW20977   2.946   1.081   6.153
 6693SOL    HW120978   3.022   1.135   6.188
 6693SOL    HW220979   2.965   0.984   6.166
 6694SOL     OW20980   4.628   4.126   1.668
 6694SOL    HW120981   4.544   4.167   1.704
 6694SOL    HW220982   4.650   4.044   1.720
 6695SOL     OW20983   3.045   2.326   0.039
 6695SOL    HW120984   2.997   2.332   6.971
 6695SOL    HW220985   2.998   2.259   0.098
 6696SOL     OW20986   3.783   3.329   5.289
 6696SOL    HW120987   3.813   3.244   5.246
 6696SOL    HW220988   3.782   3.318   5.388
 6697SOL     OW20989   4.402   0.727   2.954
 6697SOL    HW120990   4.326   0.690   2.902
 6697SOL    HW220991   4.381   0.821   2.983
 6698SOL     OW20992   2.571   3.399   1.201
 6698SOL    HW120993   2.655   3.435   1.240
 6698SOL    HW220994   2.509   3.372   1.276
 6699SOL     OW20995   1.696   3.518   5.680
 6699SOL    HW120996   1.774   3.535   5.620
 6699SOL    HW220997   1.671   3.602   5.728
 6700SOL     OW20998   4.851   6.416   1.527
 6700SOL    HW120999   4.888   6.467   1.450
 6700SOL    HW221000   4.765   6.458   1.558
 6701SOL     OW21001   6.758   0.303   1.186
 6701SOL    HW121002   6.839   0.323   1.131
 6701SOL    HW221003   6.783   0.303   1.282
 6702SOL     OW21004   5.296   2.820   1.686
 6702SOL    HW121005   5.252   2.741   1.643
 6702SOL    HW221006   5.292   2.898   1.622
 6703SOL     OW21007   0.045   0.865   0.894
 6703SOL    HW121008   0.113   0.861   0.966
 6703SOL    HW221009   6.982   0.910   0.927
 6704SOL     OW21010   2.088   5.818   6.298
 6704SOL    HW121011   2.041   5.771   6.224
 6704SOL    HW221012   2.105   5.753   6.373
 6705SOL     OW21013   1.814   4.327   2.885
 6705SOL    HW121014   1.764   4.261   2.828
 6705SOL    HW221015   1.904   4.343   2.845
 6706SOL     OW21016   0.407   5.729   1.553
 6706SOL    HW121017   0.375   5.660   1.617
 6706SOL    HW221018   0.386   5.820   1.588
 6707SOL     OW21019   5.584   0.846   2.855
 6707SOL    HW121020   5.640   0.837   2.773
 6707SOL    HW221021   5.570   0.943   2.875
 6708SOL     OW21022   0.254   2.925   1.160
 6708SOL    HW121023   0.276   2.832   1.189
 6708SOL    HW221024   0.154   2.936   1.156
 6709SOL     OW21025   2.298   4.241   2.334
 6709SOL    HW121026   2.309   4.285   2.245
 6709SOL    HW221027   2.250   4.154   2.322
 6710SOL     OW21028   5.115   2.225   1.911
 6710SOL    HW121029   5.186   2.294   1.896
 6710SOL    HW221030   5.025   2.267   1.895
 6711SOL     OW21031   4.131   5.137   6.611
 6711SOL    HW121032   4.043   5.159   6.651
 6711SOL    HW221033   4.193   5.103   6.682
 6712SOL     OW21034   6.045   3.328   1.098
 6712SOL    HW121035   6.141   3.304   1.107
 6712SOL    HW221036   6.036   3.423   1.068
 6713SOL     OW21037   2.215   4.868   4.322
 6713SOL    HW121038   2.283   4.942   4.329
 6713SOL    HW221039   2.234   4.799   4.392
 6714SOL     OW21040   6.429   1.082   3.051
 6714SOL    HW121041   6.527   1.084   3.074
 6714SOL    HW221042   6.416   1.033   2.965
 6715SOL     OW21043   0.411   6.784   5.169
 6715SOL    HW121044   0.343   6.810   5.101
 6715SOL    HW221045   0.467   6.709   5.134
 6716SOL     OW21046   1.921   4.332   1.927
 6716SOL    HW121047   1.916   4.381   2.014
 6716SOL    HW221048   1.913   4.234   1.943
 6717SOL     OW21049   6.122   2.912   5.613
 6717SOL    HW121050   6.164   3.000   5.634
 6717SOL    HW221051   6.074   2.918   5.526
 6718SOL     OW21052   4.809   1.917   0.683
 6718SOL    HW121053   4.726   1.970   0.701
 6718SOL    HW221054   4.823   1.911   0.584
 6719SOL     OW21055   1.011   6.875   0.439
 6719SOL    HW121056   0.921   6.916   0.432
 6719SOL    HW221057   1.080   6.939   0.406
 6720SOL     OW21058   1.880   1.700   4.809
 6720SOL    HW121059   1.811   1.673   4.742
 6720SOL    HW221060   1.963   1.728   4.762
 6721SOL     OW21061   6.292   6.562   0.452
 6721SOL    HW121062   6.349   6.552   0.370
 6721SOL    HW221063   6.241   6.648   0.446
 6722SOL     OW21064   0.013   3.585   1.529
 6722SOL    HW121065   6.945   3.565   1.485
 6722SOL    HW221066   0.035   3.681   1.515
 6723SOL     OW21067   2.199   3.802   3.795
 6723SOL    HW121068   2.204   3.772   3.699
 6723SOL    HW221069   2.175   3.724   3.853
 6724SOL     OW21070   2.373   3.546   5.337
 6724SOL    HW121071   2.368   3.506   5.246
 6724SOL    HW221072   2.329   3.636   5.336
 6725SOL     OW21073   4.788   2.554   3.453
 6725SOL    HW121074   4.807   2.468   3.405
 6725SOL    HW221075   4.695   2.584   3.431
 6726SOL     OW21076   0.313   1.483   0.420
 6726SOL    HW121077   0.394   1.453   0.369
 6726SOL    HW221078   0.322   1.456   0.516
 6727SOL     OW21079   0.997   5.915   5.284
 6727SOL    HW121080   0.933   5.909   5.207
 6727SOL    HW221081   1.081   5.866   5.262
 6728SOL     OW21082   3.787   1.875   5.720
 6728SOL    HW121083   3.759   1.872   5.816
 6728SOL    HW221084   3.864   1.938   5.710
 6729SOL     OW21085   4.415   1.296   2.521
 6729SOL    HW121086   4.317   1.275   2.531
 6729SOL    HW221087   4.462   1.216   2.484
 6730SOL     OW21088   6.671   2.071   1.641
 6730SOL    HW121089   6.705   2.143   1.701
 6730SOL    HW221090   6.748   2.015   1.609
 6731SOL     OW21091   3.815   0.619   5.556
 6731SOL    HW121092   3.824   0.714   5.584
 6731SOL    HW221093   3.895   0.567   5.587
 6732SOL     OW21094   6.652   4.467   6.132
 6732SOL    HW121095   6.607   4.532   6.194
 6732SOL    HW221096   6.619   4.483   6.038
 6733SOL     OW21097   6.005   4.806   6.119
 6733SOL    HW121098   6.030   4.794   6.023
 6733SOL    HW221099   5.959   4.723   6.152
 6734SOL     OW21100   5.768   2.141   4.930
 6734SOL    HW121101   5.679   2.110   4.897
 6734SOL    HW221102   5.836   2.070   4.914
 6735SOL     OW21103   5.443   2.331   4.800
 6735SOL    HW121104   5.377   2.335   4.725
 6735SOL    HW221105   5.475   2.423   4.821
 6736SOL     OW21106   4.348   3.272   0.771
 6736SOL    HW121107   4.285   3.323   0.830
 6736SOL    HW221108   4.353   3.177   0.802
 6737SOL     OW21109   5.931   2.527   2.089
 6737SOL    HW121110   5.971   2.515   1.998
 6737SOL    HW221111   5.834   2.551   2.080
 6738SOL     OW21112   2.047   6.873   3.136
 6738SOL    HW121113   2.073   6.855   3.042
 6738SOL    HW221114   2.103   6.818   3.198
 6739SOL     OW21115   0.506   0.613   5.919
 6739SOL    HW121116   0.582   0.586   5.861
 6739SOL    HW221117   0.518   0.708   5.947
 6740SOL     OW21118   0.765   6.801   1.491
 6740SOL    HW121119   0.789   6.719   1.439
 6740SOL    HW221120   0.728   6.870   1.429
 6741SOL     OW21121   3.009   2.105   0.546
 6741SOL    HW121122   2.986   2.015   0.584
 6741SOL    HW221123   2.987   2.106   0.449
 6742SOL     OW21124   6.559   4.730   2.583
 6742SOL    HW121125   6.542   4.796   2.510
 6742SOL    HW221126   6.551   4.776   2.671
 6743SOL     OW21127   4.153   4.650   6.880
 6743SOL    HW121128   4.250   4.644   6.855
 6743SOL    HW221129   4.101   4.580   6.832
 6744SOL     OW21130   6.715   6.686   5.426
 6744SOL    HW121131   6.796   6.713   5.373
 6744SOL    HW221132   6.743   6.627   5.501
 6745SOL     OW21133   5.661   3.473   4.801
 6745SOL    HW121134   5.760   3.481   4.796
 6745SOL    HW221135   5.632   3.473   4.897
 6746SOL     OW21136   1.186   2.592   3.125
 6746SOL    HW121137   1.263   2.572   3.186
 6746SOL    HW221138   1.220   2.638   3.043
 6747SOL     OW21139   0.467   6.392   5.134
 6747SOL    HW121140   0.476   6.315   5.070
 6747SOL    HW221141   0.493   6.477   5.088
 6748SOL     OW21142   1.486   2.332   3.959
 6748SOL    HW121143   1.546   2.253   3.955
 6748SOL    HW221144   1.425   2.332   3.880
 6749SOL     OW21145   3.039   5.082   2.192
 6749SOL    HW121146   3.104   5.147   2.153
 6749SOL    HW221147   2.995   5.031   2.118
 6750SOL     OW21148   3.692   0.377   5.601
 6750SOL    HW121149   3.747   0.460   5.611
 6750SOL    HW221150   3.745   0.298   5.632
 6751SOL     OW21151   4.248   1.655   4.412
 6751SOL    HW121152   4.279   1.568   4.374
 6751SOL    HW221153   4.272   1.729   4.349
 6752SOL     OW21154   2.511   5.196   2.697
 6752SOL    HW121155   2.608   5.207   2.718
 6752SOL    HW221156   2.499   5.174   2.601
 6753SOL     OW21157   3.654   4.232   6.793
 6753SOL    HW121158   3.631   4.317   6.745
 6753SOL    HW221159   3.570   4.187   6.824
 6754SOL     OW21160   5.588   0.404   0.119
 6754SOL    HW121161   5.509   0.365   0.167
 6754SOL    HW221162   5.558   0.479   0.060
 6755SOL     OW21163   3.687   5.898   5.528
 6755SOL    HW121164   3.666   5.983   5.479
 6755SOL    HW221165   3.768   5.911   5.584
 6756SOL     OW21166   4.357   3.196   5.546
 6756SOL    HW121167   4.401   3.121   5.596
 6756SOL    HW221168   4.420   3.274   5.541
 6757SOL     OW21169   3.618   0.242   1.955
 6757SOL    HW121170   3.589   0.333   1.983
 6757SOL    HW221171   3.713   0.227   1.982
 6758SOL     OW21172   4.936   2.661   3.659
 6758SOL    HW121173   4.865   2.630   3.595
 6758SOL    HW221174   4.978   2.582   3.703
 6759SOL     OW21175   1.821   2.119   1.945
 6759SOL    HW121176   1.748   2.178   1.978
 6759SOL    HW221177   1.858   2.156   1.859
 6760SOL     OW21178   5.349   1.985   5.574
 6760SOL    HW121179   5.443   1.959   5.554
 6760SOL    HW221180   5.322   1.947   5.663
 6761SOL     OW21181   2.684   0.070   4.804
 6761SOL    HW121182   2.609   0.112   4.854
 6761SOL    HW221183   2.706   7.001   4.844
 6762SOL     OW21184   5.682   4.837   4.635
 6762SOL    HW121185   5.752   4.836   4.564
 6762SOL    HW221186   5.596   4.872   4.598
 6763SOL     OW21187   5.576   5.887   3.896
 6763SOL    HW121188   5.571   5.981   3.928
 6763SOL    HW221189   5.648   5.838   3.946
 6764SOL     OW21190   1.259   4.778   2.330
 6764SOL    HW121191   1.206   4.707   2.283
 6764SOL    HW221192   1.293   4.844   2.264
 6765SOL     OW21193   0.341   4.339   2.381
 6765SOL    HW121194   0.397   4.302   2.307
 6765SOL    HW221195   0.363   4.294   2.467
 6766SOL     OW21196   6.000   0.558   1.465
 6766SOL    HW121197   6.086   0.530   1.509
 6766SOL    HW221198   5.956   0.479   1.424
 6767SOL     OW21199   2.685   0.210   1.409
 6767SOL    HW121200   2.621   0.189   1.335
 6767SOL    HW221201   2.734   0.294   1.387
 6768SOL     OW21202   2.323   0.833   6.217
 6768SOL    HW121203   2.319   0.797   6.310
 6768SOL    HW221204   2.419   0.846   6.190
 6769SOL     OW21205   5.724   2.616   1.586
 6769SOL    HW121206   5.760   2.710   1.589
 6769SOL    HW221207   5.625   2.619   1.596
 6770SOL     OW21208   0.059   1.487   1.350
 6770SOL    HW121209   0.094   1.476   1.257
 6770SOL    HW221210   0.002   1.569   1.355
 6771SOL     OW21211   4.262   0.555   4.012
 6771SOL    HW121212   4.300   0.591   4.097
 6771SOL    HW221213   4.253   0.629   3.945
 6772SOL     OW21214   2.830   1.034   5.396
 6772SOL    HW121215   2.771   1.100   5.441
 6772SOL    HW221216   2.908   1.081   5.355
 6773SOL     OW21217   0.138   3.165   3.012
 6773SOL    HW121218   0.162   3.069   2.995
 6773SOL    HW221219   0.099   3.174   3.103
 6774SOL     OW21220   1.354   1.455   5.899
 6774SOL    HW121221   1.370   1.359   5.921
 6774SOL    HW221222   1.430   1.511   5.933
 6775SOL     OW21223   0.367   3.267   0.533
 6775SOL    HW121224   0.384   3.356   0.491
 6775SOL    HW221225   0.314   3.279   0.617
 6776SOL     OW21226   6.232   6.552   5.901
 6776SOL    HW121227   6.283   6.504   5.829
 6776SOL    HW221228   6.138   6.518   5.905
 6777SOL     OW21229   4.457   4.730   0.238
 6777SOL    HW121230   4.409   4.663   0.182
 6777SOL    HW221231   4.555   4.711   0.235
 6778SOL     OW21232   6.855   5.180   3.400
 6778SOL    HW121233   6.899   5.266   3.428
 6778SOL    HW221234   6.847   5.119   3.479
 6779SOL     OW21235   5.399   3.411   6.537
 6779SOL    HW121236   5.429   3.447   6.448
 6779SOL    HW221237   5.443   3.323   6.554
 6780SOL     OW21238   1.198   2.224   1.465
 6780SOL    HW121239   1.279   2.224   1.408
 6780SOL    HW221240   1.152   2.313   1.458
 6781SOL     OW21241   5.874   4.379   4.984
 6781SOL    HW121242   5.893   4.342   5.075
 6781SOL    HW221243   5.864   4.304   4.919
 6782SOL     OW21244   6.495   1.639   3.667
 6782SOL    HW121245   6.426   1.640   3.739
 6782SOL    HW221246   6.472   1.569   3.600
 6783SOL     OW21247   1.300   5.227   0.165
 6783SOL    HW121248   1.252   5.310   0.134
 6783SOL    HW221249   1.312   5.165   0.088
 6784SOL     OW21250   3.848   3.563   0.279
 6784SOL    HW121251   3.928   3.531   0.330
 6784SOL    HW221252   3.796   3.628   0.336
 6785SOL     OW21253   5.251   6.418   1.512
 6785SOL    HW121254   5.190   6.342   1.491
 6785SOL    HW221255   5.346   6.390   1.495
 6786SOL     OW21256   2.178   3.384   5.127
 6786SOL    HW121257   2.166   3.358   5.031
 6786SOL    HW221258   2.203   3.303   5.180
 6787SOL     OW21259   0.883   4.270   2.609
 6787SOL    HW121260   0.886   4.198   2.539
 6787SOL    HW221261   0.968   4.269   2.662
 6788SOL     OW21262   2.679   3.825   1.021
 6788SOL    HW121263   2.623   3.749   1.055
 6788SOL    HW221264   2.673   3.902   1.084
 6789SOL     OW21265   2.012   4.753   3.158
 6789SOL    HW121266   1.942   4.820   3.132
 6789SOL    HW221267   2.048   4.776   3.248
 6790SOL     OW21268   1.301   3.285   1.397
 6790SOL    HW121269   1.307   3.381   1.368
 6790SOL    HW221270   1.384   3.237   1.368
 6791SOL     OW21271   3.323   3.983   5.522
 6791SOL    HW121272   3.324   4.053   5.594
 6791SOL    HW221273   3.409   3.932   5.525
 6792SOL     OW21274   0.988   5.111   0.735
 6792SOL    HW121275   0.896   5.073   0.744
 6792SOL    HW221276   1.040   5.092   0.819
 6793SOL     OW21277   5.683   0.754   0.465
 6793SOL    HW121278   5.643   0.711   0.385
 6793SOL    HW221279   5.719   0.683   0.526
 6794SOL     OW21280   3.144   1.581   5.381
 6794SOL    HW121281   3.160   1.619   5.472
 6794SOL    HW221282   3.159   1.653   5.313
 6795SOL     OW21283   4.242   6.092   6.959
 6795SOL    HW121284   4.332   6.063   6.929
 6795SOL    HW221285   4.205   6.159   6.895
 6796SOL     OW21286   3.883   2.053   2.421
 6796SOL    HW121287   3.798   2.106   2.428
 6796SOL    HW221288   3.862   1.961   2.389
 6797SOL     OW21289   6.864   2.461   2.897
 6797SOL    HW121290   6.899   2.413   2.817
 6797SOL    HW221291   6.863   2.559   2.879
 6798SOL     OW21292   6.357   0.123   2.007
 6798SOL    HW121293   6.409   0.103   2.090
 6798SOL    HW221294   6.360   0.221   1.988
 6799SOL     OW21295   4.743   5.697   2.134
 6799SOL    HW121296   4.788   5.648   2.059
 6799SOL    HW221297   4.769   5.654   2.221
 6800SOL     OW21298   3.353   3.652   6.373
 6800SOL    HW121299   3.381   3.681   6.281
 6800SOL    HW221300   3.418   3.688   6.439
 6801SOL     OW21301   0.206   2.971   3.264
 6801SOL    HW121302   0.286   3.030   3.250
 6801SOL    HW221303   0.236   2.884   3.302
 6802SOL     OW21304   3.266   4.927   2.533
 6802SOL    HW121305   3.293   4.933   2.437
 6802SOL    HW221306   3.221   5.012   2.561
 6803SOL     OW21307   4.548   2.237   6.887
 6803SOL    HW121308   4.500   2.248   6.973
 6803SOL    HW221309   4.593   2.147   6.885
 6804SOL     OW21310   1.753   6.061   3.208
 6804SOL    HW121311   1.729   6.099   3.297
 6804SOL    HW221312   1.831   5.999   3.218
 6805SOL     OW21313   6.392   1.562   5.741
 6805SOL    HW121314   6.358   1.584   5.649
 6805SOL    HW221315   6.476   1.509   5.734
 6806SOL     OW21316   4.916   5.527   5.314
 6806SOL    HW121317   4.824   5.525   5.355
 6806SOL    HW221318   4.971   5.596   5.361
 6807SOL     OW21319   4.426   3.604   6.949
 6807SOL    HW121320   4.356   3.674   6.957
 6807SOL    HW221321   4.467   3.586   0.019
 6808SOL     OW21322   2.693   4.653   3.846
 6808SOL    HW121323   2.653   4.709   3.918
 6808SOL    HW221324   2.790   4.641   3.863
 6809SOL     OW21325   1.102   3.424   6.643
 6809SOL    HW121326   1.157   3.447   6.563
 6809SOL    HW221327   1.131   3.480   6.721
 6810SOL     OW21328   6.201   1.802   3.407
 6810SOL    HW121329   6.239   1.767   3.321
 6810SOL    HW221330   6.275   1.819   3.471
 6811SOL     OW21331   5.013   6.046   2.730
 6811SOL    HW121332   5.041   6.134   2.767
 6811SOL    HW221333   4.941   6.059   2.662
 6812SOL     OW21334   3.765   3.121   3.170
 6812SOL    HW121335   3.852   3.104   3.217
 6812SOL    HW221336   3.722   3.204   3.208
 6813SOL     OW21337   5.452   3.702   1.044
 6813SOL    HW121338   5.426   3.713   0.948
 6813SOL    HW221339   5.379   3.653   1.092
 6814SOL     OW21340   2.186   2.912   0.374
 6814SOL    HW121341   2.138   2.994   0.343
 6814SOL    HW221342   2.216   2.859   0.295
 6815SOL     OW21343   1.402   6.529   6.986
 6815SOL    HW121344   1.481   6.540   6.926
 6815SOL    HW221345   1.369   6.435   6.980
 6816SOL     OW21346   5.155   4.462   1.267
 6816SOL    HW121347   5.217   4.530   1.305
 6816SOL    HW221348   5.099   4.423   1.340
 6817SOL     OW21349   2.007   1.784   6.216
 6817SOL    HW121350   2.011   1.789   6.116
 6817SOL    HW221351   2.092   1.820   6.254
 6818SOL     OW21352   4.175   5.233   0.700
 6818SOL    HW121353   4.099   5.222   0.764
 6818SOL    HW221354   4.154   5.185   0.615
 6819SOL     OW21355   2.958   1.160   3.812
 6819SOL    HW121356   2.935   1.221   3.888
 6819SOL    HW221357   3.057   1.154   3.802
 6820SOL     OW21358   1.594   5.038   4.521
 6820SOL    HW121359   1.675   4.980   4.511
 6820SOL    HW221360   1.522   4.986   4.567
 6821SOL     OW21361   1.946   1.911   4.298
 6821SOL    HW121362   1.896   1.864   4.371
 6821SOL    HW221363   2.044   1.892   4.306
 6822SOL     OW21364   5.507   1.485   5.531
 6822SOL    HW121365   5.471   1.513   5.442
 6822SOL    HW221366   5.433   1.482   5.598
 6823SOL     OW21367   3.919   3.667   2.076
 6823SOL    HW121368   3.886   3.762   2.083
 6823SOL    HW221369   3.966   3.642   2.161
 6824SOL     OW21370   0.821   5.665   4.693
 6824SOL    HW121371   0.854   5.579   4.651
 6824SOL    HW221372   0.748   5.644   4.757
 6825SOL     OW21373   5.853   0.201   4.435
 6825SOL    HW121374   5.909   0.227   4.357
 6825SOL    HW221375   5.840   0.102   4.436
 6826SOL     OW21376   1.322   2.655   3.537
 6826SOL    HW121377   1.251   2.724   3.551
 6826SOL    HW221378   1.334   2.640   3.439
 6827SOL     OW21379   4.336   5.766   5.339
 6827SOL    HW121380   4.416   5.717   5.305
 6827SOL    HW221381   4.299   5.824   5.266
 6828SOL     OW21382   2.010   2.406   0.976
 6828SOL    HW121383   1.943   2.352   0.924
 6828SOL    HW221384   1.983   2.502   0.974
 6829SOL     OW21385   5.917   4.553   3.783
 6829SOL    HW121386   5.830   4.602   3.791
 6829SOL    HW221387   5.959   4.544   3.873
 6830SOL     OW21388   4.555   1.493   3.741
 6830SOL    HW121389   4.613   1.507   3.660
 6830SOL    HW221390   4.501   1.409   3.729
 6831SOL     OW21391   0.928   1.809   6.472
 6831SOL    HW121392   0.884   1.721   6.491
 6831SOL    HW221393   1.020   1.793   6.435
 6832SOL     OW21394   2.658   4.896   1.423
 6832SOL    HW121395   2.754   4.893   1.394
 6832SOL    HW221396   2.628   4.804   1.446
 6833SOL     OW21397   4.550   6.072   6.752
 6833SOL    HW121398   4.598   6.150   6.792
 6833SOL    HW221399   4.606   6.032   6.679
 6834SOL     OW21400   2.651   4.594   2.545
 6834SOL    HW121401   2.642   4.596   2.645
 6834SOL    HW221402   2.589   4.526   2.507
 6835SOL     OW21403   3.815   6.527   4.240
 6835SOL    HW121404   3.726   6.552   4.201
 6835SOL    HW221405   3.801   6.493   4.333
 6836SOL     OW21406   3.563   5.384   0.760
 6836SOL    HW121407   3.508   5.300   0.764
 6836SOL    HW221408   3.639   5.377   0.824
 6837SOL     OW21409   0.851   3.440   2.834
 6837SOL    HW121410   0.822   3.414   2.742
 6837SOL    HW221411   0.873   3.538   2.836
 6838SOL     OW21412   2.716   2.722   0.637
 6838SOL    HW121413   2.662   2.778   0.700
 6838SOL    HW221414   2.758   2.782   0.568
 6839SOL     OW21415   3.645   1.403   2.063
 6839SOL    HW121416   3.734   1.411   2.017
 6839SOL    HW221417   3.642   1.317   2.115
 6840SOL     OW21418   0.738   0.871   5.655
 6840SOL    HW121419   0.816   0.890   5.595
 6840SOL    HW221420   0.737   0.774   5.680
 6841SOL     OW21421   6.494   3.101   5.787
 6841SOL    HW121422   6.477   3.006   5.813
 6841SOL    HW221423   6.577   3.106   5.732
 6842SOL     OW21424   2.583   4.596   2.815
 6842SOL    HW121425   2.535   4.677   2.783
 6842SOL    HW221426   2.589   4.597   2.915
 6843SOL     OW21427   3.732   6.139   1.414
 6843SOL    HW121428   3.665   6.145   1.341
 6843SOL    HW221429   3.732   6.046   1.452
 6844SOL     OW21430   5.809   0.245   5.461
 6844SOL    HW121431   5.903   0.211   5.471
 6844SOL    HW221432   5.747   0.187   5.514
 6845SOL     OW21433   5.927   2.211   2.973
 6845SOL    HW121434   5.888   2.239   2.886
 6845SOL    HW221435   6.018   2.251   2.983
 6846SOL     OW21436   1.447   3.159   0.391
 6846SOL    HW121437   1.439   3.059   0.390
 6846SOL    HW221438   1.497   3.190   0.310
 6847SOL     OW21439   6.959   2.218   3.710
 6847SOL    HW121440   7.005   2.131   3.695
 6847SOL    HW221441   7.005   2.289   3.656
 6848SOL     OW21442   6.876   4.177   4.340
 6848SOL    HW121443   6.822   4.094   4.325
 6848SOL    HW221444   6.827   4.239   4.400
 6849SOL     OW21445   2.979   4.109   5.469
 6849SOL    HW121446   3.014   4.037   5.410
 6849SOL    HW221447   3.027   4.195   5.451
 6850SOL     OW21448   5.557   0.536   4.730
 6850SOL    HW121449   5.578   0.633   4.717
 6850SOL    HW221450   5.460   0.520   4.711
 6851SOL     OW21451   2.064   3.993   3.543
 6851SOL    HW121452   2.130   4.056   3.584
 6851SOL    HW221453   1.975   4.004   3.589
 6852SOL     OW21454   4.681   3.004   0.527
 6852SOL    HW121455   4.654   2.921   0.477
 6852SOL    HW221456   4.629   3.082   0.493
 6853SOL     OW21457   5.078   5.405   5.878
 6853SOL    HW121458   5.005   5.470   5.901
 6853SOL    HW221459   5.097   5.410   5.780
 6854SOL     OW21460   5.506   6.014   5.348
 6854SOL    HW121461   5.590   6.066   5.340
 6854SOL    HW221462   5.476   5.982   5.258
 6855SOL     OW21463   4.166   5.824   2.676
 6855SOL    HW121464   4.136   5.825   2.581
 6855SOL    HW221465   4.122   5.899   2.726
 6856SOL     OW21466   6.346   2.362   1.060
 6856SOL    HW121467   6.297   2.276   1.077
 6856SOL    HW221468   6.379   2.399   1.146
 6857SOL     OW21469   1.536   4.683   5.975
 6857SOL    HW121470   1.455   4.705   5.921
 6857SOL    HW221471   1.614   4.733   5.939
 6858SOL     OW21472   1.484   3.294   1.766
 6858SOL    HW121473   1.412   3.357   1.795
 6858SOL    HW221474   1.443   3.208   1.736
 6859SOL     OW21475   2.873   2.492   0.591
 6859SOL    HW121476   2.833   2.580   0.614
 6859SOL    HW221477   2.829   2.420   0.645
 6860SOL     OW21478   0.592   0.107   6.704
 6860SOL    HW121479   0.601   0.173   6.629
 6860SOL    HW221480   0.556   0.021   6.669
 6861SOL     OW21481   6.091   3.337   6.860
 6861SOL    HW121482   6.159   3.390   6.810
 6861SOL    HW221483   6.035   3.286   6.795
 6862SOL     OW21484   0.787   5.601   2.999
 6862SOL    HW121485   0.865   5.588   2.938
 6862SOL    HW221486   0.801   5.550   3.083
 6863SOL     OW21487   5.068   1.204   5.734
 6863SOL    HW121488   5.168   1.204   5.731
 6863SOL    HW221489   5.037   1.227   5.827
 6864SOL     OW21490   2.109   3.469   6.284
 6864SOL    HW121491   2.074   3.384   6.245
 6864SOL    HW221492   2.208   3.474   6.269
 6865SOL     OW21493   1.545   0.976   2.898
 6865SOL    HW121494   1.453   0.974   2.858
 6865SOL    HW221495   1.610   1.007   2.829
 6866SOL     OW21496   1.706   4.591   6.485
 6866SOL    HW121497   1.700   4.529   6.407
 6866SOL    HW221498   1.614   4.621   6.511
 6867SOL     OW21499   1.796   2.065   6.682
 6867SOL    HW121500   1.772   2.115   6.765
 6867SOL    HW221501   1.893   2.080   6.661
 6868SOL     OW21502   4.105   5.328   3.946
 6868SOL    HW121503   4.034   5.258   3.939
 6868SOL    HW221504   4.154   5.335   3.859
 6869SOL     OW21505   1.273   0.280   5.512
 6869SOL    HW121506   1.189   0.261   5.462
 6869SOL    HW221507   1.277   0.224   5.595
 6870SOL     OW21508   6.368   2.724   6.431
 6870SOL    HW121509   6.352   2.823   6.429
 6870SOL    HW221510   6.331   2.685   6.515
 6871SOL     OW21511   5.777   2.841   3.491
 6871SOL    HW121512   5.686   2.852   3.529
 6871SOL    HW221513   5.796   2.916   3.427
 6872SOL     OW21514   1.847   4.975   1.035
 6872SOL    HW121515   1.923   4.917   1.066
 6872SOL    HW221516   1.834   4.962   0.936
 6873SOL     OW21517   0.848   3.734   2.750
 6873SOL    HW121518   0.797   3.743   2.665
 6873SOL    HW221519   0.932   3.789   2.745
 6874SOL     OW21520   3.967   5.773   1.807
 6874SOL    HW121521   4.006   5.764   1.715
 6874SOL    HW221522   3.913   5.692   1.828
 6875SOL     OW21523   2.808   0.361   6.389
 6875SOL    HW121524   2.738   0.421   6.428
 6875SOL    HW221525   2.814   0.277   6.443
 6876SOL     OW21526   5.616   5.757   3.409
 6876SOL    HW121527   5.650   5.772   3.502
 6876SOL    HW221528   5.661   5.678   3.369
 6877SOL     OW21529   1.285   4.282   1.458
 6877SOL    HW121530   1.196   4.298   1.501
 6877SOL    HW221531   1.317   4.191   1.483
 6878SOL     OW21532   1.610   6.992   3.474
 6878SOL    HW121533   1.579   0.062   3.504
 6878SOL    HW221534   1.694   7.001   3.421
 6879SOL     OW21535   1.435   1.500   1.202
 6879SOL    HW121536   1.514   1.509   1.142
 6879SOL    HW221537   1.460   1.442   1.280
 6880SOL     OW21538   1.350   6.599   0.239
 6880SOL    HW121539   1.355   6.501   0.261
 6880SOL    HW221540   1.362   6.612   0.141
 6881SOL     OW21541   6.773   3.516   1.397
 6881SOL    HW121542   6.701   3.476   1.454
 6881SOL    HW221543   6.743   3.516   1.302
 6882SOL     OW21544   2.565   6.635   6.872
 6882SOL    HW121545   2.606   6.680   6.792
 6882SOL    HW221546   2.473   6.602   6.848
 6883SOL     OW21547   4.689   0.021   0.872
 6883SOL    HW121548   4.612   7.006   0.925
 6883SOL    HW221549   4.774   0.004   0.921
 6884SOL     OW21550   1.636   5.453   3.272
 6884SOL    HW121551   1.640   5.410   3.362
 6884SOL    HW221552   1.542   5.449   3.238
 6885SOL     OW21553   5.528   4.588   4.092
 6885SOL    HW121554   5.457   4.610   4.159
 6885SOL    HW221555   5.567   4.672   4.055
 6886SOL     OW21556   5.670   3.571   0.715
 6886SOL    HW121557   5.723   3.577   0.630
 6886SOL    HW221558   5.688   3.652   0.771
 6887SOL     OW21559   5.322   6.022   5.552
 6887SOL    HW121560   5.384   6.012   5.474
 6887SOL    HW221561   5.262   6.100   5.537
 6888SOL     OW21562   7.019   4.033   1.575
 6888SOL    HW121563   0.016   3.936   1.555
 6888SOL    HW221564   6.974   4.041   1.664
 6889SOL     OW21565   0.617   2.969   5.473
 6889SOL    HW121566   0.580   2.899   5.533
 6889SOL    HW221567   0.572   3.056   5.491
 6890SOL     OW21568   4.961   4.592   3.860
 6890SOL    HW121569   5.039   4.630   3.910
 6890SOL    HW221570   4.910   4.529   3.918
 6891SOL     OW21571   1.312   1.308   0.339
 6891SOL    HW121572   1.369   1.340   0.263
 6891SOL    HW221573   1.352   1.225   0.377
 6892SOL     OW21574   1.508   0.693   5.360
 6892SOL    HW121575   1.484   0.727   5.270
 6892SOL    HW221576   1.472   0.754   5.430
 6893SOL     OW21577   6.020   2.983   0.839
 6893SOL    HW121578   6.117   3.004   0.846
 6893SOL    HW221579   5.971   3.026   0.915
 6894SOL     OW21580   5.408   5.293   6.816
 6894SOL    HW121581   5.417   5.257   6.909
 6894SOL    HW221582   5.475   5.367   6.803
 6895SOL     OW21583   1.529   5.448   2.997
 6895SOL    HW121584   1.574   5.361   2.978
 6895SOL    HW221585   1.574   5.521   2.946
 6896SOL     OW21586   5.000   1.051   6.157
 6896SOL    HW121587   4.975   1.131   6.103
 6896SOL    HW221588   4.919   1.017   6.206
 6897SOL     OW21589   4.090   2.213   4.896
 6897SOL    HW121590   4.126   2.293   4.944
 6897SOL    HW221591   4.159   2.140   4.897
 6898SOL     OW21592   1.934   6.174   1.228
 6898SOL    HW121593   1.926   6.259   1.177
 6898SOL    HW221594   1.843   6.136   1.245
 6899SOL     OW21595   6.012   5.328   3.225
 6899SOL    HW121596   5.979   5.348   3.132
 6899SOL    HW221597   6.112   5.323   3.224
 6900SOL     OW21598   0.540   4.571   5.014
 6900SOL    HW121599   0.489   4.511   4.953
 6900SOL    HW221600   0.520   4.666   4.992
 6901SOL     OW21601   5.226   4.146   6.202
 6901SOL    HW121602   5.129   4.151   6.226
 6901SOL    HW221603   5.250   4.223   6.144
 6902SOL     OW21604   0.216   5.972   5.536
 6902SOL    HW121605   0.261   5.892   5.575
 6902SOL    HW221606   0.227   5.971   5.437
 6903SOL     OW21607   0.500   6.605   5.378
 6903SOL    HW121608   0.479   6.682   5.318
 6903SOL    HW221609   0.428   6.536   5.371
 6904SOL     OW21610   0.944   0.056   6.554
 6904SOL    HW121611   0.870   0.120   6.572
 6904SOL    HW221612   1.023   0.105   6.515
 6905SOL     OW21613   4.735   6.069   5.253
 6905SOL    HW121614   4.725   6.163   5.284
 6905SOL    HW221615   4.651   6.039   5.207
 6906SOL     OW21616   2.600   1.929   3.473
 6906SOL    HW121617   2.698   1.939   3.457
 6906SOL    HW221618   2.570   1.839   3.441
 6907SOL     OW21619   5.754   3.245   0.489
 6907SOL    HW121620   5.816   3.321   0.469
 6907SOL    HW221621   5.805   3.173   0.538
 6908SOL     OW21622   3.339   5.151   0.948
 6908SOL    HW121623   3.339   5.128   0.851
 6908SOL    HW221624   3.266   5.100   0.994
 6909SOL     OW21625   5.764   5.249   2.719
 6909SOL    HW121626   5.723   5.158   2.735
 6909SOL    HW221627   5.859   5.247   2.748
 6910SOL     OW21628   1.647   2.382   2.335
 6910SOL    HW121629   1.628   2.391   2.433
 6910SOL    HW221630   1.722   2.443   2.310
 6911SOL     OW21631   2.222   6.875   5.380
 6911SOL    HW121632   2.263   6.880   5.289
 6911SOL    HW221633   2.184   6.964   5.405
 6912SOL     OW21634   2.364   4.162   6.237
 6912SOL    HW121635   2.374   4.249   6.285
 6912SOL    HW221636   2.427   4.159   6.159
 6913SOL     OW21637   4.137   5.517   5.865
 6913SOL    HW121638   4.205   5.524   5.792
 6913SOL    HW221639   4.069   5.448   5.840
 6914SOL     OW21640   1.110   2.025   2.355
 6914SOL    HW121641   1.103   2.066   2.446
 6914SOL    HW221642   1.201   1.984   2.344
 6915SOL     OW21643   6.208   3.411   4.150
 6915SOL    HW121644   6.237   3.337   4.209
 6915SOL    HW221645   6.147   3.473   4.201
 6916SOL     OW21646   4.403   6.108   5.445
 6916SOL    HW121647   4.495   6.147   5.440
 6916SOL    HW221648   4.403   6.031   5.508
 6917SOL     OW21649   3.225   5.317   2.201
 6917SOL    HW121650   3.162   5.383   2.159
 6917SOL    HW221651   3.256   5.353   2.289
 6918SOL     OW21652   1.681   3.774   6.623
 6918SOL    HW121653   1.697   3.678   6.647
 6918SOL    HW221654   1.736   3.797   6.543
 6919SOL     OW21655   6.529   6.150   3.695
 6919SOL    HW121656   6.493   6.181   3.783
 6919SOL    HW221657   6.624   6.180   3.685
 6920SOL     OW21658   0.602   3.306   5.346
 6920SOL    HW121659   0.539   3.298   5.424
 6920SOL    HW221660   0.561   3.264   5.265
 6921SOL     OW21661   3.435   0.438   5.522
 6921SOL    HW121662   3.521   0.395   5.551
 6921SOL    HW221663   3.445   0.537   5.524
 6922SOL     OW21664   2.601   4.250   6.433
 6922SOL    HW121665   2.685   4.304   6.426
 6922SOL    HW221666   2.620   4.155   6.407
 6923SOL     OW21667   4.979   6.728   2.930
 6923SOL    HW121668   4.965   6.705   2.834
 6923SOL    HW221669   4.896   6.772   2.966
 6924SOL     OW21670   3.171   5.017   1.635
 6924SOL    HW121671   3.245   4.969   1.682
 6924SOL    HW221672   3.152   4.971   1.548
 6925SOL     OW21673   6.205   0.177   4.554
 6925SOL    HW121674   6.212   0.087   4.511
 6925SOL    HW221675   6.271   0.183   4.630
 6926SOL     OW21676   2.651   2.936   0.421
 6926SOL    HW121677   2.715   3.011   0.404
 6926SOL    HW221678   2.586   2.929   0.346
 6927SOL     OW21679   3.185   6.676   5.385
 6927SOL    HW121680   3.186   6.707   5.481
 6927SOL    HW221681   3.110   6.721   5.337
 6928SOL     OW21682   4.002   5.657   0.714
 6928SOL    HW121683   3.922   5.617   0.669
 6928SOL    HW221684   4.017   5.749   0.679
 6929SOL     OW21685   4.816   5.945   3.676
 6929SOL    HW121686   4.747   5.949   3.604
 6929SOL    HW221687   4.886   6.015   3.659
 6930SOL     OW21688   0.523   6.281   2.453
 6930SOL    HW121689   0.510   6.276   2.552
 6930SOL    HW221690   0.439   6.311   2.409
 6931SOL     OW21691   4.096   2.960   6.996
 6931SOL    HW121692   4.009   2.997   0.009
 6931SOL    HW221693   4.170   2.998   0.031
 6932SOL     OW21694   3.778   0.780   6.711
 6932SOL    HW121695   3.767   0.711   6.784
 6932SOL    HW221696   3.716   0.758   6.636
 6933SOL     OW21697   3.916   6.216   5.971
 6933SOL    HW121698   4.008   6.253   5.953
 6933SOL    HW221699   3.924   6.129   6.021
 6934SOL     OW21700   4.535   5.497   0.207
 6934SOL    HW121701   4.436   5.496   0.192
 6934SOL    HW221702   4.580   5.539   0.127
 6935SOL     OW21703   4.198   5.434   2.102
 6935SOL    HW121704   4.189   5.534   2.094
 6935SOL    HW221705   4.265   5.413   2.172
 6936SOL     OW21706   1.228   1.236   6.956
 6936SOL    HW121707   1.311   1.291   6.959
 6936SOL    HW221708   1.148   1.296   6.960
 6937SOL     OW21709   6.537   4.325   0.118
 6937SOL    HW121710   6.521   4.403   0.058
 6937SOL    HW221711   6.458   4.313   0.178
 6938SOL     OW21712   2.792   6.820   5.387
 6938SOL    HW121713   2.837   6.776   5.310
 6938SOL    HW221714   2.696   6.838   5.364
 6939SOL     OW21715   6.471   2.947   3.108
 6939SOL    HW121716   6.419   2.895   3.040
 6939SOL    HW221717   6.558   2.902   3.125
 6940SOL     OW21718   0.478   6.632   1.033
 6940SOL    HW121719   0.421   6.689   0.973
 6940SOL    HW221720   0.424   6.555   1.065
 6941SOL     OW21721   4.030   3.588   2.314
 6941SOL    HW121722   4.037   3.584   2.414
 6941SOL    HW221723   4.082   3.513   2.274
 6942SOL     OW21724   0.341   5.620   2.688
 6942SOL    HW121725   0.373   5.531   2.720
 6942SOL    HW221726   0.254   5.642   2.733
 6943SOL     OW21727   3.336   5.428   5.354
 6943SOL    HW121728   3.431   5.432   5.322
 6943SOL    HW221729   3.333   5.389   5.446
 6944SOL     OW21730   1.172   5.129   5.999
 6944SOL    HW121731   1.144   5.085   6.084
 6944SOL    HW221732   1.257   5.178   6.013
 6945SOL     OW21733   3.856   1.607   0.863
 6945SOL    HW121734   3.918   1.684   0.872
 6945SOL    HW221735   3.824   1.580   0.954
 6946SOL     OW21736   5.626   5.287   4.076
 6946SOL    HW121737   5.673   5.232   4.007
 6946SOL    HW221738   5.527   5.271   4.070
 6947SOL     OW21739   6.452   3.514   5.501
 6947SOL    HW121740   6.375   3.528   5.564
 6947SOL    HW221741   6.483   3.603   5.468
 6948SOL     OW21742   0.261   5.316   6.352
 6948SOL    HW121743   0.223   5.406   6.332
 6948SOL    HW221744   0.229   5.285   6.442
 6949SOL     OW21745   1.966   1.271   3.316
 6949SOL    HW121746   2.060   1.238   3.319
 6949SOL    HW221747   1.918   1.228   3.239
 6950SOL     OW21748   1.732   1.125   4.385
 6950SOL    HW121749   1.806   1.058   4.391
 6950SOL    HW221750   1.667   1.110   4.460
 6951SOL     OW21751   1.020   3.310   6.990
 6951SOL    HW121752   1.069   3.397   6.978
 6951SOL    HW221753   1.054   3.264   0.052
 6952SOL     OW21754   4.578   4.804   3.793
 6952SOL    HW121755   4.624   4.818   3.880
 6952SOL    HW221756   4.630   4.849   3.720
 6953SOL     OW21757   0.793   0.704   1.561
 6953SOL    HW121758   0.809   0.613   1.600
 6953SOL    HW221759   0.733   0.756   1.622
 6954SOL     OW21760   6.637   5.193   6.207
 6954SOL    HW121761   6.663   5.125   6.275
 6954SOL    HW221762   6.575   5.153   6.140
 6955SOL     OW21763   3.386   5.436   2.773
 6955SOL    HW121764   3.449   5.423   2.696
 6955SOL    HW221765   3.410   5.373   2.846
 6956SOL     OW21766   6.323   4.582   2.872
 6956SOL    HW121767   6.340   4.489   2.905
 6956SOL    HW221768   6.342   4.587   2.774
 6957SOL     OW21769   5.489   3.990   5.456
 6957SOL    HW121770   5.541   3.987   5.371
 6957SOL    HW221771   5.532   4.054   5.520
 6958SOL     OW21772   3.490   3.826   1.497
 6958SOL    HW121773   3.409   3.881   1.516
 6958SOL    HW221774   3.464   3.730   1.489
 6959SOL     OW21775   0.161   3.429   3.440
 6959SOL    HW121776   0.136   3.462   3.530
 6959SOL    HW221777   0.248   3.469   3.412
 6960SOL     OW21778   5.298   4.717   0.723
 6960SOL    HW121779   5.260   4.775   0.795
 6960SOL    HW221780   5.335   4.774   0.650
 6961SOL     OW21781   4.588   2.564   4.544
 6961SOL    HW121782   4.665   2.502   4.561
 6961SOL    HW221783   4.616   2.658   4.566
 6962SOL     OW21784   2.368   0.023   0.819
 6962SOL    HW121785   2.341   6.947   0.823
 6962SOL    HW221786   2.294   0.080   0.852
 6963SOL     OW21787   0.648   0.115   6.958
 6963SOL    HW121788   0.569   0.157   7.004
 6963SOL    HW221789   0.642   0.133   6.860
 6964SOL     OW21790   2.300   1.347   5.852
 6964SOL    HW121791   2.343   1.258   5.865
 6964SOL    HW221792   2.219   1.354   5.910
 6965SOL     OW21793   1.757   1.268   0.332
 6965SOL    HW121794   1.793   1.257   0.240
 6965SOL    HW221795   1.819   1.326   0.385
 6966SOL     OW21796   0.981   6.264   0.797
 6966SOL    HW121797   0.891   6.306   0.782
 6966SOL    HW221798   1.021   6.240   0.709
 6967SOL     OW21799   3.926   0.014   6.694
 6967SOL    HW121800   4.024   0.013   6.712
 6967SOL    HW221801   3.881   6.963   6.748
 6968SOL     OW21802   4.536   0.464   2.083
 6968SOL    HW121803   4.558   0.493   1.990
 6968SOL    HW221804   4.535   0.544   2.144
 6969SOL     OW21805   1.386   3.231   2.673
 6969SOL    HW121806   1.305   3.173   2.689
 6969SOL    HW221807   1.358   3.314   2.625
 6970SOL     OW21808   3.450   6.010   5.993
 6970SOL    HW121809   3.426   5.920   5.959
 6970SOL    HW221810   3.536   6.041   5.952
 6971SOL     OW21811   0.446   3.763   0.538
 6971SOL    HW121812   0.399   3.836   0.488
 6971SOL    HW221813   0.497   3.802   0.614
 6972SOL     OW21814   5.761   3.417   1.323
 6972SOL    HW121815   5.771   3.388   1.227
 6972SOL    HW221816   5.749   3.336   1.380
 6973SOL     OW21817   0.975   0.904   2.945
 6973SOL    HW121818   1.041   0.938   3.012
 6973SOL    HW221819   1.014   0.824   2.898
 6974SOL     OW21820   3.686   3.875   3.191
 6974SOL    HW121821   3.631   3.957   3.210
 6974SOL    HW221822   3.744   3.892   3.111
 6975SOL     OW21823   3.295   5.357   5.630
 6975SOL    HW121824   3.207   5.380   5.672
 6975SOL    HW221825   3.366   5.358   5.700
 6976SOL     OW21826   5.197   4.836   5.540
 6976SOL    HW121827   5.263   4.761   5.541
 6976SOL    HW221828   5.190   4.875   5.632
 6977SOL     OW21829   4.016   4.782   2.243
 6977SOL    HW121830   4.090   4.842   2.213
 6977SOL    HW221831   3.931   4.808   2.197
 6978SOL     OW21832   0.623   3.222   1.332
 6978SOL    HW121833   0.554   3.150   1.333
 6978SOL    HW221834   0.684   3.209   1.253
 6979SOL     OW21835   1.142   4.341   2.815
 6979SOL    HW121836   1.208   4.300   2.879
 6979SOL    HW221837   1.081   4.402   2.864
 6980SOL     OW21838   2.896   4.757   2.930
 6980SOL    HW121839   2.910   4.855   2.919
 6980SOL    HW221840   2.889   4.714   2.840
 6981SOL     OW21841   4.408   2.614   6.814
 6981SOL    HW121842   4.492   2.609   6.760
 6981SOL    HW221843   4.336   2.655   6.759
 6982SOL     OW21844   6.594   6.228   1.821
 6982SOL    HW121845   6.677   6.181   1.851
 6982SOL    HW221846   6.530   6.235   1.898
 6983SOL     OW21847   6.520   0.686   4.246
 6983SOL    HW121848   6.429   0.722   4.227
 6983SOL    HW221849   6.548   0.712   4.339
 6984SOL     OW21850   1.306   4.401   3.409
 6984SOL    HW121851   1.356   4.315   3.409
 6984SOL    HW221852   1.280   4.425   3.502
 6985SOL     OW21853   5.185   3.112   0.985
 6985SOL    HW121854   5.098   3.090   1.028
 6985SOL    HW221855   5.199   3.054   0.905
 6986SOL     OW21856   4.871   6.244   4.831
 6986SOL    HW121857   4.862   6.339   4.862
 6986SOL    HW221858   4.911   6.243   4.740
 6987SOL     OW21859   0.368   1.445   6.662
 6987SOL    HW121860   0.286   1.492   6.631
 6987SOL    HW221861   0.446   1.474   6.607
 6988SOL     OW21862   1.457   0.325   6.343
 6988SOL    HW121863   1.396   0.385   6.290
 6988SOL    HW221864   1.463   0.358   6.437
 6989SOL     OW21865   0.535   3.005   2.482
 6989SOL    HW121866   0.449   2.959   2.458
 6989SOL    HW221867   0.530   3.101   2.454
 6990SOL     OW21868   3.163   5.418   6.644
 6990SOL    HW121869   3.261   5.434   6.631
 6990SOL    HW221870   3.118   5.505   6.667
 6991SOL     OW21871   5.264   4.117   4.036
 6991SOL    HW121872   5.203   4.124   4.115
 6991SOL    HW221873   5.300   4.207   4.014
 6992SOL     OW21874   1.602   4.969   5.970
 6992SOL    HW121875   1.507   4.987   5.947
 6992SOL    HW221876   1.607   4.909   6.050
 6993SOL     OW21877   4.233   2.302   2.097
 6993SOL    HW121878   4.269   2.263   2.182
 6993SOL    HW221879   4.251   2.401   2.096
 6994SOL     OW21880   2.644   1.265   3.171
 6994SOL    HW121881   2.593   1.222   3.245
 6994SOL    HW221882   2.597   1.349   3.142
 6995SOL     OW21883   6.807   5.162   0.387
 6995SOL    HW121884   6.734   5.168   0.455
 6995SOL    HW221885   6.791   5.227   0.313
 6996SOL     OW21886   1.499   0.688   6.844
 6996SOL    HW121887   1.528   0.624   6.915
 6996SOL    HW221888   1.405   0.668   6.816
 6997SOL     OW21889   6.054   6.271   6.050
 6997SOL    HW121890   6.006   6.357   6.069
 6997SOL    HW221891   5.989   6.205   6.012
 6998SOL     OW21892   0.306   1.270   5.821
 6998SOL    HW121893   0.359   1.263   5.737
 6998SOL    HW221894   0.226   1.327   5.805
 6999SOL     OW21895   0.626   2.686   6.931
 6999SOL    HW121896   0.584   2.701   6.841
 6999SOL    HW221897   0.725   2.676   6.920
 7000SOL     OW21898   0.528   5.097   2.626
 7000SOL    HW121899   0.625   5.079   2.611
 7000SOL    HW221900   0.473   5.030   2.575
 7001SOL     OW21901   1.024   1.340   3.766
 7001SOL    HW121902   0.954   1.409   3.742
 7001SOL    HW221903   1.066   1.365   3.853
 7002SOL     OW21904   1.564   4.756   2.853
 7002SOL    HW121905   1.624   4.677   2.854
 7002SOL    HW221906   1.585   4.815   2.930
 7003SOL     OW21907   0.158   5.093   6.231
 7003SOL    HW121908   0.175   5.191   6.237
 7003SOL    HW221909   0.203   5.047   6.308
 7004SOL     OW21910   1.071   0.568   6.990
 7004SOL    HW121911   0.975   0.549   7.012
 7004SOL    HW221912   1.119   0.482   6.975
 7005SOL     OW21913   1.672   5.090   0.459
 7005SOL    HW121914   1.661   5.058   0.553
 7005SOL    HW221915   1.599   5.054   0.402
 7006SOL     OW21916   0.985   0.371   3.349
 7006SOL    HW121917   1.062   0.412   3.399
 7006SOL    HW221918   0.959   0.285   3.393
 7007SOL     OW21919   1.971   6.617   6.252
 7007SOL    HW121920   1.894   6.680   6.245
 7007SOL    HW221921   1.940   6.530   6.290
 7008SOL     OW21922   6.248   2.831   2.911
 7008SOL    HW121923   6.334   2.782   2.927
 7008SOL    HW221924   6.193   2.830   2.994
 7009SOL     OW21925   5.464   5.425   2.265
 7009SOL    HW121926   5.481   5.356   2.195
 7009SOL    HW221927   5.459   5.381   2.355
 7010SOL     OW21928   4.957   2.644   2.838
 7010SOL    HW121929   4.908   2.659   2.924
 7010SOL    HW221930   4.966   2.730   2.789
 7011SOL     OW21931   1.969   5.834   6.733
 7011SOL    HW121932   1.917   5.905   6.686
 7011SOL    HW221933   1.996   5.866   6.823
 7012SOL     OW21934   0.941   3.684   0.359
 7012SOL    HW121935   1.014   3.628   0.397
 7012SOL    HW221936   0.853   3.653   0.394
 7013SOL     OW21937   2.387   2.518   0.014
 7013SOL    HW121938   2.359   2.538   0.108
 7013SOL    HW221939   2.309   2.482   6.983
 7014SOL     OW21940   0.236   3.786   1.094
 7014SOL    HW121941   0.255   3.824   1.184
 7014SOL    HW221942   0.137   3.786   1.078
 7015SOL     OW21943   5.883   6.544   1.412
 7015SOL    HW121944   5.839   6.526   1.500
 7015SOL    HW221945   5.970   6.494   1.407
 7016SOL     OW21946   2.627   4.949   0.935
 7016SOL    HW121947   2.534   4.942   0.972
 7016SOL    HW221948   2.632   4.901   0.848
 7017SOL     OW21949   5.992   3.745   6.937
 7017SOL    HW121950   5.914   3.705   6.985
 7017SOL    HW221951   5.969   3.754   6.840
 7018SOL     OW21952   6.458   2.552   4.245
 7018SOL    HW121953   6.448   2.651   4.258
 7018SOL    HW221954   6.555   2.528   4.244
 7019SOL     OW21955   2.994   6.542   2.384
 7019SOL    HW121956   3.004   6.471   2.315
 7019SOL    HW221957   2.986   6.632   2.340
 7020SOL     OW21958   6.576   1.892   0.752
 7020SOL    HW121959   6.647   1.859   0.813
 7020SOL    HW221960   6.493   1.913   0.804
 7021SOL     OW21961   0.946   2.418   4.739
 7021SOL    HW121962   0.850   2.409   4.710
 7021SOL    HW221963   0.978   2.510   4.719
 7022SOL     OW21964   2.151   3.731   1.431
 7022SOL    HW121965   2.109   3.805   1.483
 7022SOL    HW221966   2.242   3.711   1.467
 7023SOL     OW21967   6.548   1.737   1.089
 7023SOL    HW121968   6.547   1.763   1.186
 7023SOL    HW221969   6.457   1.751   1.050
 7024SOL     OW21970   3.663   4.564   5.365
 7024SOL    HW121971   3.740   4.526   5.416
 7024SOL    HW221972   3.633   4.499   5.295
 7025SOL     OW21973   3.640   0.608   1.037
 7025SOL    HW121974   3.668   0.579   0.945
 7025SOL    HW221975   3.722   0.632   1.089
 7026SOL     OW21976   3.168   2.389   1.412
 7026SOL    HW121977   3.113   2.306   1.398
 7026SOL    HW221978   3.149   2.425   1.504
 7027SOL     OW21979   2.638   4.305   0.498
 7027SOL    HW121980   2.560   4.359   0.529
 7027SOL    HW221981   2.610   4.243   0.425
 7028SOL     OW21982   3.155   0.688   2.104
 7028SOL    HW121983   3.162   0.709   2.006
 7028SOL    HW221984   3.232   0.630   2.132
 7029SOL     OW21985   3.323   4.188   3.423
 7029SOL    HW121986   3.265   4.270   3.420
 7029SOL    HW221987   3.320   4.142   3.334
 7030SOL     OW21988   5.536   0.080   4.562
 7030SOL    HW121989   5.515   0.157   4.501
 7030SOL    HW221990   5.621   0.036   4.533
 7031SOL     OW21991   5.896   4.352   1.009
 7031SOL    HW121992   5.972   4.329   0.949
 7031SOL    HW221993   5.930   4.406   1.086
 7032SOL     OW21994   3.727   5.024   3.922
 7032SOL    HW121995   3.820   5.053   3.944
 7032SOL    HW221996   3.662   5.076   3.979
 7033SOL     OW21997   2.234   1.679   5.471
 7033SOL    HW121998   2.222   1.655   5.568
 7033SOL    HW221999   2.331   1.678   5.448
 7034SOL     OW22000   6.588   2.426   2.577
 7034SOL    HW122001   6.499   2.462   2.545
 7034SOL    HW222002   6.575   2.379   2.664
 7035SOL     OW22003   3.863   2.552   0.880
 7035SOL    HW122004   3.854   2.536   0.978
 7035SOL    HW222005   3.929   2.624   0.863
 7036SOL     OW22006   6.720   1.547   2.030
 7036SOL    HW122007   6.694   1.642   2.013
 7036SOL    HW222008   6.791   1.543   2.101
 7037SOL     OW22009   0.104   1.562   5.296
 7037SOL    HW122010   0.072   1.467   5.297
 7037SOL    HW222011   0.196   1.565   5.257
 7038SOL     OW22012   1.359   3.903   0.143
 7038SOL    HW122013   1.376   3.974   0.212
 7038SOL    HW222014   1.282   3.931   0.086
 7039SOL     OW22015   6.221   0.442   1.584
 7039SOL    HW122016   6.290   0.483   1.644
 7039SOL    HW222017   6.196   0.351   1.618
 7040SOL     OW22018   4.921   3.105   4.656
 7040SOL    HW122019   4.983   3.028   4.673
 7040SOL    HW222020   4.870   3.090   4.572
 7041SOL     OW22021   0.872   6.773   2.888
 7041SOL    HW122022   0.908   6.679   2.892
 7041SOL    HW222023   0.774   6.770   2.867
 7042SOL     OW22024   4.476   5.195   5.449
 7042SOL    HW122025   4.397   5.243   5.412
 7042SOL    HW222026   4.535   5.164   5.375
 7043SOL     OW22027   2.433   5.870   0.401
 7043SOL    HW122028   2.529   5.889   0.421
 7043SOL    HW222029   2.416   5.772   0.408
 7044SOL     OW22030   5.032   6.418   5.384
 7044SOL    HW122031   5.056   6.322   5.395
 7044SOL    HW222032   4.938   6.432   5.415
 7045SOL     OW22033   5.336   0.728   1.597
 7045SOL    HW122034   5.305   0.782   1.675
 7045SOL    HW222035   5.294   0.637   1.600
 7046SOL     OW22036   3.085   1.103   2.349
 7046SOL    HW122037   3.029   1.021   2.360
 7046SOL    HW222038   3.027   1.184   2.347
 7047SOL     OW22039   1.011   6.710   1.040
 7047SOL    HW122040   0.940   6.730   0.973
 7047SOL    HW222041   1.078   6.784   1.040
 7048SOL     OW22042   0.631   5.602   4.872
 7048SOL    HW122043   0.611   5.514   4.914
 7048SOL    HW222044   0.565   5.670   4.903
 7049SOL     OW22045   2.275   1.358   5.203
 7049SOL    HW122046   2.225   1.434   5.160
 7049SOL    HW222047   2.236   1.339   5.293
 7050SOL     OW22048   4.132   4.556   0.358
 7050SOL    HW122049   4.207   4.559   0.424
 7050SOL    HW222050   4.135   4.471   0.307
 7051SOL     OW22051   2.171   0.971   2.117
 7051SOL    HW122052   2.262   0.948   2.084
 7051SOL    HW222053   2.170   1.066   2.148
 7052SOL     OW22054   5.575   2.186   2.761
 7052SOL    HW122055   5.658   2.240   2.777
 7052SOL    HW222056   5.506   2.243   2.715
 7053SOL     OW22057   0.703   4.612   3.282
 7053SOL    HW122058   0.773   4.654   3.339
 7053SOL    HW222059   0.688   4.518   3.310
 7054SOL     OW22060   5.371   6.763   0.939
 7054SOL    HW122061   5.347   6.839   0.998
 7054SOL    HW222062   5.407   6.798   0.852
 7055SOL     OW22063   2.354   0.042   0.122
 7055SOL    HW122064   2.286   0.101   0.078
 7055SOL    HW222065   2.391   6.998   0.054
 7056SOL     OW22066   0.754   5.370   1.727
 7056SOL    HW122067   0.697   5.440   1.684
 7056SOL    HW222068   0.809   5.325   1.657
 7057SOL     OW22069   3.104   5.946   4.952
 7057SOL    HW122070   3.074   5.976   5.043
 7057SOL    HW222071   3.025   5.923   4.896
 7058SOL     OW22072   5.888   2.884   5.426
 7058SOL    HW122073   5.903   2.942   5.346
 7058SOL    HW222074   5.828   2.808   5.402
 7059SOL     OW22075   1.759   0.999   3.989
 7059SOL    HW122076   1.784   0.957   4.077
 7059SOL    HW222077   1.660   0.992   3.976
 7060SOL     OW22078   3.005   2.363   1.168
 7060SOL    HW122079   2.954   2.326   1.246
 7060SOL    HW222080   3.043   2.287   1.115
 7061SOL     OW22081   1.297   6.468   1.168
 7061SOL    HW122082   1.316   6.557   1.125
 7061SOL    HW222083   1.280   6.400   1.097
 7062SOL     OW22084   3.449   0.696   5.499
 7062SOL    HW122085   3.388   0.774   5.514
 7062SOL    HW222086   3.465   0.685   5.401
 7063SOL     OW22087   0.049   1.123   1.146
 7063SOL    HW122088   0.122   1.187   1.121
 7063SOL    HW222089   0.089   1.041   1.186
 7064SOL     OW22090   2.213   1.610   5.726
 7064SOL    HW122091   2.173   1.696   5.757
 7064SOL    HW222092   2.158   1.533   5.759
 7065SOL     OW22093   3.294   0.245   2.834
 7065SOL    HW122094   3.265   0.151   2.814
 7065SOL    HW222095   3.264   0.306   2.760
 7066SOL     OW22096   4.387   1.215   1.846
 7066SOL    HW122097   4.454   1.189   1.777
 7066SOL    HW222098   4.306   1.156   1.837
 7067SOL     OW22099   2.825   4.621   6.254
 7067SOL    HW122100   2.807   4.643   6.349
 7067SOL    HW222101   2.851   4.704   6.204
 7068SOL     OW22102   4.279   4.686   2.522
 7068SOL    HW122103   4.205   4.686   2.455
 7068SOL    HW222104   4.243   4.672   2.614
 7069SOL     OW22105   3.296   1.640   5.914
 7069SOL    HW122106   3.365   1.596   5.858
 7069SOL    HW222107   3.272   1.580   5.991
 7070SOL     OW22108   0.442   1.916   5.363
 7070SOL    HW122109   0.534   1.901   5.327
 7070SOL    HW222110   0.440   1.895   5.460
 7071SOL     OW22111   4.508   5.311   0.006
 7071SOL    HW122112   4.418   5.279   6.995
 7071SOL    HW222113   4.501   5.343   0.101
 7072SOL     OW22114   1.305   3.735   5.488
 7072SOL    HW122115   1.351   3.822   5.508
 7072SOL    HW222116   1.367   3.676   5.436
 7073SOL     OW22117   4.051   1.157   4.752
 7073SOL    HW122118   4.123   1.128   4.815
 7073SOL    HW222119   4.041   1.089   4.679
 7074SOL     OW22120   5.561   2.910   2.603
 7074SOL    HW122121   5.547   2.936   2.699
 7074SOL    HW222122   5.608   2.822   2.599
 7075SOL     OW22123   2.082   4.510   2.396
 7075SOL    HW122124   1.992   4.490   2.435
 7075SOL    HW222125   2.153   4.468   2.453
 7076SOL     OW22126   5.968   1.838   0.775
 7076SOL    HW122127   6.003   1.932   0.765
 7076SOL    HW222128   5.888   1.838   0.834
 7077SOL     OW22129   3.736   6.187   2.214
 7077SOL    HW122130   3.708   6.147   2.127
 7077SOL    HW222131   3.787   6.271   2.197
 7078SOL     OW22132   0.071   1.626   6.924
 7078SOL    HW122133   0.039   1.647   7.017
 7078SOL    HW222134   0.015   1.675   6.858
 7079SOL     OW22135   2.824   5.703   5.488
 7079SOL    HW122136   2.822   5.609   5.454
 7079SOL    HW222137   2.914   5.743   5.471
 7080SOL     OW22138   3.779   1.470   6.713
 7080SOL    HW122139   3.817   1.561   6.729
 7080SOL    HW222140   3.682   1.469   6.740
 7081SOL     OW22141   3.294   6.148   6.260
 7081SOL    HW122142   3.211   6.201   6.245
 7081SOL    HW222143   3.345   6.186   6.337
 7082SOL     OW22144   1.657   5.017   2.160
 7082SOL    HW122145   1.576   5.005   2.102
 7082SOL    HW222146   1.731   5.058   2.105
 7083SOL     OW22147   5.521   2.796   3.080
 7083SOL    HW122148   5.425   2.775   3.062
 7083SOL    HW222149   5.568   2.713   3.109
 7084SOL     OW22150   1.255   5.154   0.428
 7084SOL    HW122151   1.246   5.195   0.337
 7084SOL    HW222152   1.314   5.074   0.423
 7085SOL     OW22153   0.198   3.180   2.192
 7085SOL    HW122154   0.262   3.253   2.166
 7085SOL    HW222155   0.155   3.142   2.110
 7086SOL     OW22156   3.781   0.899   3.926
 7086SOL    HW122157   3.815   0.827   3.865
 7086SOL    HW222158   3.714   0.860   3.989
 7087SOL     OW22159   6.271   2.632   3.845
 7087SOL    HW122160   6.185   2.591   3.875
 7087SOL    HW222161   6.305   2.694   3.916
 7088SOL     OW22162   6.229   1.871   5.317
 7088SOL    HW122163   6.256   1.939   5.385
 7088SOL    HW222164   6.309   1.842   5.264
 7089SOL     OW22165   3.515   6.550   1.888
 7089SOL    HW122166   3.444   6.618   1.904
 7089SOL    HW222167   3.481   6.460   1.914
 7090SOL     OW22168   5.767   3.136   1.706
 7090SOL    HW122169   5.696   3.200   1.737
 7090SOL    HW222170   5.771   3.137   1.606
 7091SOL     OW22171   5.393   0.123   6.156
 7091SOL    HW122172   5.425   0.029   6.144
 7091SOL    HW222173   5.304   0.134   6.110
 7092SOL     OW22174   4.021   0.222   6.005
 7092SOL    HW122175   4.005   0.321   6.006
 7092SOL    HW222176   4.104   0.200   6.055
 7093SOL     OW22177   4.061   3.450   0.386
 7093SOL    HW122178   4.148   3.453   0.337
 7093SOL    HW222179   4.029   3.355   0.391
 7094SOL     OW22180   4.284   0.925   5.294
 7094SOL    HW122181   4.209   0.906   5.231
 7094SOL    HW222182   4.251   0.979   5.371
 7095SOL     OW22183   2.673   5.297   3.386
 7095SOL    HW122184   2.743   5.234   3.419
 7095SOL    HW222185   2.582   5.256   3.397
 7096SOL     OW22186   0.406   4.877   0.206
 7096SOL    HW122187   0.388   4.875   0.304
 7096SOL    HW222188   0.504   4.859   0.190
 7097SOL     OW22189   4.962   1.970   3.099
 7097SOL    HW122190   4.864   1.959   3.080
 7097SOL    HW222191   4.978   2.061   3.137
 7098SOL     OW22192   0.992   1.233   2.213
 7098SOL    HW122193   1.047   1.150   2.213
 7098SOL    HW222194   0.940   1.239   2.298
 7099SOL     OW22195   2.827   1.329   5.269
 7099SOL    HW122196   2.776   1.286   5.195
 7099SOL    HW222197   2.913   1.367   5.233
 7100SOL     OW22198   0.705   4.334   1.221
 7100SOL    HW122199   0.664   4.311   1.133
 7100SOL    HW222200   0.677   4.267   1.290
 7101SOL     OW22201   2.505   6.843   4.273
 7101SOL    HW122202   2.493   6.812   4.178
 7101SOL    HW222203   2.543   6.768   4.327
 7102SOL     OW22204   5.394   1.896   2.527
 7102SOL    HW122205   5.492   1.907   2.511
 7102SOL    HW222206   5.348   1.879   2.439
 7103SOL     OW22207   6.748   3.783   4.915
 7103SOL    HW122208   6.733   3.753   4.821
 7103SOL    HW222209   6.836   3.831   4.921
 7104SOL     OW22210   4.342   2.382   4.269
 7104SOL    HW122211   4.414   2.452   4.272
 7104SOL    HW222212   4.318   2.362   4.174
 7105SOL     OW22213   3.005   3.721   1.825
 7105SOL    HW122214   3.056   3.682   1.902
 7105SOL    HW222215   3.041   3.682   1.740
 7106SOL     OW22216   2.304   2.285   2.846
 7106SOL    HW122217   2.317   2.361   2.782
 7106SOL    HW222218   2.393   2.252   2.876
 7107SOL     OW22219   3.929   0.564   0.757
 7107SOL    HW122220   3.908   0.655   0.721
 7107SOL    HW222221   3.844   0.511   0.765
 7108SOL     OW22222   2.763   6.654   1.646
 7108SOL    HW122223   2.688   6.598   1.612
 7108SOL    HW222224   2.731   6.710   1.723
 7109SOL     OW22225   2.126   5.194   6.163
 7109SOL    HW122226   2.095   5.119   6.222
 7109SOL    HW222227   2.180   5.156   6.088
 7110SOL     OW22228   2.558   5.445   5.746
 7110SOL    HW122229   2.566   5.545   5.749
 7110SOL    HW222230   2.556   5.409   5.839
 7111SOL     OW22231   6.401   1.965   3.953
 7111SOL    HW122232   6.323   1.989   3.895
 7111SOL    HW222233   6.486   1.978   3.901
 7112SOL     OW22234   6.693   4.803   4.408
 7112SOL    HW122235   6.724   4.721   4.361
 7112SOL    HW222236   6.671   4.780   4.503
 7113SOL     OW22237   3.309   6.985   5.181
 7113SOL    HW122238   3.222   6.964   5.135
 7113SOL    HW222239   3.362   0.027   5.124
 7114SOL     OW22240   6.159   3.306   0.601
 7114SOL    HW122241   6.066   3.272   0.614
 7114SOL    HW222242   6.175   3.383   0.662
 7115SOL     OW22243   5.095   3.231   6.069
 7115SOL    HW122244   5.018   3.292   6.083
 7115SOL    HW222245   5.148   3.262   5.990
 7116SOL     OW22246   6.915   4.916   4.740
 7116SOL    HW122247   6.990   4.898   4.803
 7116SOL    HW222248   6.828   4.915   4.789
 7117SOL     OW22249   3.123   0.827   2.837
 7117SOL    HW122250   3.025   0.811   2.846
 7117SOL    HW222251   3.140   0.902   2.774
 7118SOL     OW22252   5.748   4.905   5.731
 7118SOL    HW122253   5.695   4.905   5.816
 7118SOL    HW222254   5.751   4.998   5.694
 7119SOL     OW22255   2.660   6.321   3.796
 7119SOL    HW122256   2.736   6.364   3.749
 7119SOL    HW222257   2.579   6.379   3.789
 7120SOL     OW22258   4.620   2.192   2.380
 7120SOL    HW122259   4.621   2.121   2.451
 7120SOL    HW222260   4.526   2.210   2.353
 7121SOL     OW22261   1.862   5.787   1.624
 7121SOL    HW122262   1.837   5.772   1.529
 7121SOL    HW222263   1.784   5.765   1.683
 7122SOL     OW22264   2.806   2.323   6.568
 7122SOL    HW122265   2.717   2.342   6.526
 7122SOL    HW222266   2.876   2.323   6.497
 7123SOL     OW22267   5.296   3.442   6.021
 7123SOL    HW122268   5.338   3.417   5.934
 7123SOL    HW222269   5.248   3.529   6.011
 7124SOL     OW22270   3.579   2.859   5.911
 7124SOL    HW122271   3.504   2.798   5.936
 7124SOL    HW222272   3.566   2.890   5.816
 7125SOL     OW22273   1.260   5.870   1.675
 7125SOL    HW122274   1.283   5.965   1.653
 7125SOL    HW222275   1.215   5.827   1.597
 7126SOL     OW22276   4.094   4.722   0.120
 7126SOL    HW122277   4.141   4.651   0.067
 7126SOL    HW222278   4.066   4.685   0.208
 7127SOL     OW22279   2.155   0.067   4.980
 7127SOL    HW122280   2.197   0.123   4.909
 7127SOL    HW222281   2.055   0.066   4.968
 7128SOL     OW22282   4.431   3.772   0.386
 7128SOL    HW122283   4.375   3.784   0.468
 7128SOL    HW222284   4.470   3.679   0.386
 7129SOL     OW22285   6.913   1.838   0.639
 7129SOL    HW122286   6.999   1.871   0.677
 7129SOL    HW222287   6.837   1.884   0.684
 7130SOL     OW22288   3.454   6.780   3.256
 7130SOL    HW122289   3.438   6.786   3.354
 7130SOL    HW222290   3.370   6.751   3.210
 7131SOL     OW22291   2.240   1.367   2.755
 7131SOL    HW122292   2.305   1.389   2.682
 7131SOL    HW222293   2.288   1.361   2.842
 7132SOL     OW22294   5.555   5.053   2.614
 7132SOL    HW122295   5.533   4.992   2.538
 7132SOL    HW222296   5.500   5.028   2.694
 7133SOL     OW22297   3.884   6.428   2.231
 7133SOL    HW122298   3.833   6.512   2.210
 7133SOL    HW222299   3.902   6.424   2.329
 7134SOL     OW22300   6.287   4.574   6.171
 7134SOL    HW122301   6.249   4.613   6.088
 7134SOL    HW222302   6.383   4.601   6.181
 7135SOL     OW22303   2.611   5.603   0.127
 7135SOL    HW122304   2.689   5.609   0.189
 7135SOL    HW222305   2.527   5.589   0.181
 7136SOL     OW22306   1.196   2.909   2.922
 7136SOL    HW122307   1.102   2.940   2.934
 7136SOL    HW222308   1.221   2.914   2.826
 7137SOL     OW22309   1.132   6.812   1.885
 7137SOL    HW122310   1.037   6.812   1.852
 7137SOL    HW222311   1.177   6.728   1.853
 7138SOL     OW22312   6.529   4.074   0.873
 7138SOL    HW122313   6.469   4.147   0.841
 7138SOL    HW222314   6.624   4.096   0.850
 7139SOL     OW22315   5.814   5.724   0.743
 7139SOL    HW122316   5.866   5.732   0.658
 7139SOL    HW222317   5.718   5.746   0.725
 7140SOL     OW22318   5.959   3.776   0.506
 7140SOL    HW122319   6.004   3.848   0.455
 7140SOL    HW222320   5.958   3.692   0.452
 7141SOL     OW22321   2.498   2.570   0.530
 7141SOL    HW122322   2.588   2.602   0.559
 7141SOL    HW222323   2.433   2.580   0.606
 7142SOL     OW22324   4.151   6.204   5.776
 7142SOL    HW122325   4.107   6.180   5.690
 7142SOL    HW222326   4.214   6.131   5.803
 7143SOL     OW22327   2.875   3.107   5.779
 7143SOL    HW122328   2.857   3.204   5.794
 7143SOL    HW222329   2.882   3.089   5.681
 7144SOL     OW22330   6.228   1.523   6.504
 7144SOL    HW122331   6.181   1.611   6.496
 7144SOL    HW222332   6.299   1.531   6.574
 7145SOL     OW22333   0.349   3.449   0.011
 7145SOL    HW122334   0.351   3.547   0.027
 7145SOL    HW222335   0.393   3.401   0.087
 7146SOL     OW22336   0.010   1.686   4.504
 7146SOL    HW122337   6.935   1.655   4.497
 7146SOL    HW222338   0.030   1.707   4.600
 7147SOL     OW22339   6.701   0.548   6.990
 7147SOL    HW122340   6.706   0.452   7.018
 7147SOL    HW222341   6.791   0.591   7.001
 7148SOL     OW22342   5.437   6.611   0.518
 7148SOL    HW122343   5.417   6.546   0.445
 7148SOL    HW222344   5.443   6.703   0.479
 7149SOL     OW22345   6.944   3.683   0.534
 7149SOL    HW122346   7.013   3.680   0.606
 7149SOL    HW222347   6.918   3.590   0.508
 7150SOL     OW22348   2.207   2.271   0.024
 7150SOL    HW122349   2.307   2.266   0.019
 7150SOL    HW222350   2.179   2.280   0.120
 7151SOL     OW22351   5.644   2.267   6.963
 7151SOL    HW122352   5.575   2.245   6.895
 7151SOL    HW222353   5.731   2.288   6.918
 7152SOL     OW22354   5.860   0.560   4.800
 7152SOL    HW122355   5.869   0.510   4.714
 7152SOL    HW222356   5.765   0.587   4.813
 7153SOL     OW22357   5.170   5.945   0.273
 7153SOL    HW122358   5.202   5.856   0.306
 7153SOL    HW222359   5.092   5.932   0.212
 7154SOL     OW22360   4.986   6.217   2.166
 7154SOL    HW122361   5.047   6.153   2.120
 7154SOL    HW222362   4.892   6.186   2.156
 7155SOL     OW22363   1.129   6.846   1.373
 7155SOL    HW122364   1.130   6.749   1.348
 7155SOL    HW222365   1.194   6.861   1.449
 7156SOL     OW22366   6.987   3.283   5.319
 7156SOL    HW122367   6.986   3.374   5.278
 7156SOL    HW222368   0.060   3.244   5.313
 7157SOL     OW22369   0.162   4.145   6.182
 7157SOL    HW122370   0.144   4.138   6.084
 7157SOL    HW222371   0.256   4.173   6.197
 7158SOL     OW22372   4.951   6.547   3.626
 7158SOL    HW122373   4.997   6.475   3.678
 7158SOL    HW222374   5.007   6.572   3.547
 7159SOL     OW22375   0.734   6.473   3.500
 7159SOL    HW122376   0.790   6.395   3.526
 7159SOL    HW222377   0.668   6.492   3.573
 7160SOL     OW22378   5.935   5.993   2.097
 7160SOL    HW122379   6.033   5.976   2.111
 7160SOL    HW222380   5.882   5.915   2.132
 7161SOL     OW22381   4.008   3.147   1.870
 7161SOL    HW122382   4.023   3.126   1.967
 7161SOL    HW222383   3.959   3.235   1.863
 7162SOL     OW22384   0.665   6.370   0.272
 7162SOL    HW122385   0.652   6.306   0.348
 7162SOL    HW222386   0.752   6.417   0.282
 7163SOL     OW22387   0.001   5.876   0.086
 7163SOL    HW122388   0.093   5.845   0.061
 7163SOL    HW222389   7.001   5.851   0.180
 7164SOL     OW22390   1.427   6.263   6.864
 7164SOL    HW122391   1.405   6.281   6.768
 7164SOL    HW222392   1.515   6.215   6.869
 7165SOL     OW22393   4.329   2.927   6.018
 7165SOL    HW122394   4.364   2.841   5.980
 7165SOL    HW222395   4.405   2.980   6.055
 7166SOL     OW22396   0.226   6.123   5.982
 7166SOL    HW122397   0.179   6.054   6.036
 7166SOL    HW222398   0.257   6.083   5.896
 7167SOL     OW22399   0.984   3.777   5.805
 7167SOL    HW122400   1.068   3.723   5.800
 7167SOL    HW222401   1.007   3.874   5.813
 7168SOL     OW22402   6.971   0.281   2.264
 7168SOL    HW122403   0.023   0.349   2.279
 7168SOL    HW222404   6.959   0.226   2.347
 7169SOL     OW22405   1.782   4.952   5.569
 7169SOL    HW122406   1.792   4.923   5.664
 7169SOL    HW222407   1.863   5.004   5.541
 7170SOL     OW22408   4.349   2.505   1.721
 7170SOL    HW122409   4.417   2.541   1.657
 7170SOL    HW222410   4.393   2.487   1.809
 7171SOL     OW22411   0.004   5.884   1.631
 7171SOL    HW122412   6.971   5.968   1.640
 7171SOL    HW222413   0.029   5.871   1.535
 7172SOL     OW22414   1.049   2.220   3.557
 7172SOL    HW122415   1.059   2.137   3.503
 7172SOL    HW222416   1.105   2.292   3.518
 7173SOL     OW22417   3.802   5.306   4.272
 7173SOL    HW122418   3.865   5.368   4.225
 7173SOL    HW222419   3.713   5.351   4.283
 7174SOL     OW22420   6.524   3.648   2.943
 7174SOL    HW122421   6.475   3.597   2.872
 7174SOL    HW222422   6.527   3.594   3.027
 7175SOL     OW22423   5.651   2.726   5.789
 7175SOL    HW122424   5.584   2.798   5.807
 7175SOL    HW222425   5.654   2.708   5.690
 7176SOL     OW22426   6.482   1.751   6.298
 7176SOL    HW122427   6.564   1.699   6.320
 7176SOL    HW222428   6.458   1.810   6.375
 7177SOL     OW22429   1.491   5.440   3.588
 7177SOL    HW122430   1.582   5.405   3.608
 7177SOL    HW222431   1.456   5.490   3.668
 7178SOL     OW22432   0.535   6.072   5.400
 7178SOL    HW122433   0.578   6.051   5.488
 7178SOL    HW222434   0.591   6.139   5.351
 7179SOL     OW22435   5.350   4.589   5.476
 7179SOL    HW122436   5.449   4.588   5.488
 7179SOL    HW222437   5.324   4.522   5.406
 7180SOL     OW22438   6.599   2.197   2.405
 7180SOL    HW122439   6.523   2.168   2.463
 7180SOL    HW222440   6.600   2.297   2.400
 7181SOL     OW22441   3.940   0.272   0.492
 7181SOL    HW122442   3.856   0.257   0.544
 7181SOL    HW222443   3.932   0.358   0.441
 7182SOL     OW22444   2.408   0.792   2.572
 7182SOL    HW122445   2.344   0.844   2.629
 7182SOL    HW222446   2.368   0.779   2.481
 7183SOL     OW22447   1.692   6.870   1.081
 7183SOL    HW122448   1.726   6.951   1.130
 7183SOL    HW222449   1.634   6.899   1.005
 7184SOL     OW22450   6.917   1.352   3.262
 7184SOL    HW122451   6.828   1.339   3.220
 7184SOL    HW222452   6.917   1.435   3.317
 7185SOL     OW22453   3.650   7.000   3.710
 7185SOL    HW122454   3.579   0.044   3.679
 7185SOL    HW222455   3.687   0.011   3.797
 7186SOL     OW22456   6.467   2.544   0.629
 7186SOL    HW122457   6.563   2.564   0.607
 7186SOL    HW222458   6.453   2.553   0.727
 7187SOL     OW22459   3.055   3.719   3.630
 7187SOL    HW122460   2.976   3.659   3.616
 7187SOL    HW222461   3.044   3.768   3.716
 7188SOL     OW22462   4.584   5.193   6.551
 7188SOL    HW122463   4.516   5.264   6.569
 7188SOL    HW222464   4.675   5.228   6.572
 7189SOL     OW22465   0.229   1.642   5.892
 7189SOL    HW122466   0.269   1.590   5.817
 7189SOL    HW222467   0.217   1.737   5.864
 7190SOL     OW22468   5.517   5.520   0.723
 7190SOL    HW122469   5.542   5.616   0.711
 7190SOL    HW222470   5.452   5.512   0.798
 7191SOL     OW22471   0.167   4.988   2.377
 7191SOL    HW122472   0.093   4.921   2.387
 7191SOL    HW222473   0.170   5.046   2.459
 7192SOL     OW22474   3.233   4.087   5.797
 7192SOL    HW122475   3.235   4.114   5.894
 7192SOL    HW222476   3.159   4.136   5.751
 7193SOL     OW22477   3.973   1.338   4.381
 7193SOL    HW122478   3.974   1.413   4.315
 7193SOL    HW222479   3.996   1.374   4.472
 7194SOL     OW22480   3.766   2.754   5.503
 7194SOL    HW122481   3.684   2.751   5.447
 7194SOL    HW222482   3.743   2.727   5.597
 7195SOL     OW22483   6.538   3.756   5.387
 7195SOL    HW122484   6.540   3.751   5.287
 7195SOL    HW222485   6.601   3.826   5.418
 7196SOL     OW22486   2.967   4.057   1.071
 7196SOL    HW122487   2.926   4.131   1.017
 7196SOL    HW222488   2.966   3.972   1.017
 7197SOL     OW22489   3.346   4.302   6.480
 7197SOL    HW122490   3.364   4.260   6.391
 7197SOL    HW222491   3.395   4.252   6.551
 7198SOL     OW22492   1.747   6.521   2.070
 7198SOL    HW122493   1.804   6.572   2.006
 7198SOL    HW222494   1.662   6.572   2.088
 7199SOL     OW22495   5.951   1.114   3.457
 7199SOL    HW122496   5.869   1.108   3.514
 7199SOL    HW222497   5.963   1.207   3.425
 7200SOL     OW22498   0.551   4.175   6.280
 7200SOL    HW122499   0.582   4.168   6.185
 7200SOL    HW222500   0.541   4.083   6.318
 7201SOL     OW22501   5.615   5.348   4.934
 7201SOL    HW122502   5.538   5.335   4.997
 7201SOL    HW222503   5.581   5.380   4.846
 7202SOL     OW22504   4.150   6.425   5.917
 7202SOL    HW122505   4.179   6.346   5.863
 7202SOL    HW222506   4.151   6.507   5.860
 7203SOL     OW22507   0.906   2.017   0.920
 7203SOL    HW122508   0.930   2.037   1.015
 7203SOL    HW222509   0.978   2.050   0.860
 7204SOL     OW22510   5.339   0.743   2.892
 7204SOL    HW122511   5.343   0.706   2.985
 7204SOL    HW222512   5.424   0.794   2.873
 7205SOL     OW22513   3.457   1.277   4.112
 7205SOL    HW122514   3.365   1.315   4.115
 7205SOL    HW222515   3.500   1.298   4.024
 7206SOL     OW22516   1.426   2.606   6.426
 7206SOL    HW122517   1.435   2.680   6.359
 7206SOL    HW222518   1.408   2.645   6.516
 7207SOL     OW22519   1.706   2.354   3.554
 7207SOL    HW122520   1.785   2.297   3.529
 7207SOL    HW222521   1.684   2.340   3.650
 7208SOL     OW22522   2.776   0.255   3.788
 7208SOL    HW122523   2.725   0.334   3.823
 7208SOL    HW222524   2.816   0.277   3.699
 7209SOL     OW22525   4.518   1.494   3.263
 7209SOL    HW122526   4.466   1.567   3.308
 7209SOL    HW222527   4.535   1.420   3.327
 7210SOL     OW22528   3.112   1.162   4.794
 7210SOL    HW122529   3.199   1.199   4.762
 7210SOL    HW222530   3.116   1.149   4.893
 7211SOL     OW22531   4.860   5.906   6.235
 7211SOL    HW122532   4.959   5.920   6.240
 7211SOL    HW222533   4.829   5.858   6.317
 7212SOL     OW22534   0.075   5.858   4.207
 7212SOL    HW122535   0.165   5.838   4.167
 7212SOL    HW222536   0.022   5.773   4.212
 7213SOL     OW22537   5.589   2.763   0.482
 7213SOL    HW122538   5.554   2.779   0.575
 7213SOL    HW222539   5.551   2.678   0.446
 7214SOL     OW22540   6.093   1.627   5.990
 7214SOL    HW122541   6.134   1.688   5.923
 7214SOL    HW222542   6.152   1.621   6.070
 7215SOL     OW22543   6.666   1.640   3.014
 7215SOL    HW122544   6.697   1.697   2.937
 7215SOL    HW222545   6.567   1.626   3.007
 7216SOL     OW22546   5.264   6.623   3.870
 7216SOL    HW122547   5.320   6.688   3.922
 7216SOL    HW222548   5.324   6.560   3.821
 7217SOL     OW22549   1.347   3.313   3.059
 7217SOL    HW122550   1.273   3.308   2.992
 7217SOL    HW222551   1.435   3.307   3.012
 7218SOL     OW22552   6.948   2.977   5.569
 7218SOL    HW122553   6.983   3.038   5.640
 7218SOL    HW222554   0.002   2.954   5.506
 7219SOL     OW22555   3.614   6.021   1.182
 7219SOL    HW122556   3.589   6.051   1.090
 7219SOL    HW222557   3.561   5.939   1.206
 7220SOL     OW22558   0.550   3.879   4.123
 7220SOL    HW122559   0.453   3.868   4.143
 7220SOL    HW222560   0.580   3.971   4.150
 7221SOL     OW22561   4.778   4.963   3.914
 7221SOL    HW122562   4.854   4.964   3.850
 7221SOL    HW222563   4.801   5.017   3.995
 7222SOL     OW22564   6.184   5.126   3.960
 7222SOL    HW122565   6.100   5.102   3.911
 7222SOL    HW222566   6.172   5.105   4.057
 7223SOL     OW22567   6.192   5.215   1.401
 7223SOL    HW122568   6.234   5.234   1.312
 7223SOL    HW222569   6.236   5.270   1.472
 7224SOL     OW22570   5.968   2.608   3.143
 7224SOL    HW122571   6.015   2.520   3.131
 7224SOL    HW222572   5.881   2.606   3.094
 7225SOL     OW22573   1.071   5.335   0.555
 7225SOL    HW122574   1.043   5.273   0.629
 7225SOL    HW222575   1.115   5.282   0.483
 7226SOL     OW22576   6.219   6.881   0.132
 7226SOL    HW122577   6.282   6.884   0.209
 7226SOL    HW222578   6.235   6.959   0.072
 7227SOL     OW22579   1.871   0.401   1.988
 7227SOL    HW122580   1.834   0.332   2.050
 7227SOL    HW222581   1.881   0.362   1.896
 7228SOL     OW22582   6.790   3.689   3.363
 7228SOL    HW122583   6.864   3.630   3.332
 7228SOL    HW222584   6.735   3.641   3.432
 7229SOL     OW22585   5.474   6.528   5.220
 7229SOL    HW122586   5.522   6.452   5.264
 7229SOL    HW222587   5.494   6.529   5.122
 7230SOL     OW22588   2.772   4.857   6.079
 7230SOL    HW122589   2.824   4.895   6.003
 7230SOL    HW222590   2.697   4.801   6.044
 7231SOL     OW22591   3.904   2.557   6.888
 7231SOL    HW122592   3.832   2.625   6.875
 7231SOL    HW222593   3.993   2.602   6.889
 7232SOL     OW22594   4.212   5.578   3.298
 7232SOL    HW122595   4.293   5.522   3.317
 7232SOL    HW222596   4.163   5.595   3.384
 7233SOL     OW22597   0.574   1.815   6.893
 7233SOL    HW122598   0.484   1.773   6.907
 7233SOL    HW222599   0.565   1.895   6.833
 7234SOL     OW22600   5.212   5.439   3.707
 7234SOL    HW122601   5.285   5.506   3.699
 7234SOL    HW222602   5.211   5.379   3.627
 7235SOL     OW22603   6.982   0.239   1.000
 7235SOL    HW122604   0.035   0.193   0.949
 7235SOL    HW222605   6.895   0.230   0.951
 7236SOL     OW22606   0.734   4.383   2.970
 7236SOL    HW122607   0.637   4.403   2.983
 7236SOL    HW222608   0.743   4.293   2.927
 7237SOL     OW22609   4.669   1.278   6.232
 7237SOL    HW122610   4.608   1.306   6.307
 7237SOL    HW222611   4.753   1.331   6.237
 7238SOL     OW22612   4.827   3.299   6.967
 7238SOL    HW122613   4.779   3.258   0.024
 7238SOL    HW222614   4.774   3.376   6.931
 7239SOL     OW22615   6.120   2.659   2.413
 7239SOL    HW122616   6.203   2.687   2.460
 7239SOL    HW222617   6.112   2.560   2.415
 7240SOL     OW22618   0.393   1.944   1.133
 7240SOL    HW122619   0.429   2.037   1.123
 7240SOL    HW222620   0.318   1.931   1.068
 7241SOL     OW22621   2.398   0.334   3.074
 7241SOL    HW122622   2.394   0.433   3.060
 7241SOL    HW222623   2.431   0.315   3.166
 7242SOL     OW22624   6.829   3.715   5.822
 7242SOL    HW122625   6.863   3.622   5.810
 7242SOL    HW222626   6.787   3.724   5.913
 7243SOL     OW22627   6.506   4.672   6.645
 7243SOL    HW122628   6.448   4.641   6.570
 7243SOL    HW222629   6.450   4.707   6.720
 7244SOL     OW22630   6.951   5.853   0.347
 7244SOL    HW122631   6.917   5.881   0.437
 7244SOL    HW222632   6.994   5.763   0.353
 7245SOL     OW22633   1.833   2.409   0.013
 7245SOL    HW122634   1.900   2.374   6.967
 7245SOL    HW222635   1.751   2.352   0.010
 7246SOL     OW22636   4.632   0.059   4.514
 7246SOL    HW122637   4.674   6.988   4.521
 7246SOL    HW222638   4.578   0.077   4.596
 7247SOL     OW22639   3.663   4.167   4.543
 7247SOL    HW122640   3.570   4.170   4.578
 7247SOL    HW222641   3.679   4.245   4.482
 7248SOL     OW22642   2.611   2.391   5.145
 7248SOL    HW122643   2.616   2.445   5.061
 7248SOL    HW222644   2.668   2.309   5.135
 7249SOL     OW22645   3.694   5.954   3.000
 7249SOL    HW122646   3.784   5.922   3.030
 7249SOL    HW222647   3.652   6.008   3.073
 7250SOL     OW22648   4.647   5.087   5.169
 7250SOL    HW122649   4.733   5.037   5.176
 7250SOL    HW222650   4.662   5.171   5.117
 7251SOL     OW22651   6.923   5.827   3.956
 7251SOL    HW122652   6.978   5.906   3.932
 7251SOL    HW222653   6.982   5.746   3.961
 7252SOL     OW22654   3.803   4.236   1.677
 7252SOL    HW122655   3.766   4.165   1.736
 7252SOL    HW222656   3.737   4.310   1.669
 7253SOL     OW22657   1.229   5.423   5.756
 7253SOL    HW122658   1.268   5.385   5.840
 7253SOL    HW222659   1.232   5.354   5.683
 7254SOL     OW22660   0.492   3.758   3.855
 7254SOL    HW122661   0.574   3.745   3.799
 7254SOL    HW222662   0.516   3.807   3.938
 7255SOL     OW22663   4.887   3.931   0.895
 7255SOL    HW122664   4.889   4.031   0.890
 7255SOL    HW222665   4.974   3.894   0.863
 7256SOL     OW22666   3.196   0.105   3.542
 7256SOL    HW122667   3.178   0.101   3.444
 7256SOL    HW222668   3.294   0.117   3.558
 7257SOL     OW22669   1.119   1.031   4.885
 7257SOL    HW122670   1.131   0.974   4.803
 7257SOL    HW222671   1.206   1.039   4.933
 7258SOL     OW22672   0.570   1.718   3.108
 7258SOL    HW122673   0.493   1.660   3.080
 7258SOL    HW222674   0.566   1.805   3.057
 7259SOL     OW22675   1.099   3.743   2.454
 7259SOL    HW122676   1.075   3.799   2.375
 7259SOL    HW222677   1.190   3.703   2.440
 7260SOL     OW22678   6.009   2.263   1.005
 7260SOL    HW122679   6.035   2.186   0.947
 7260SOL    HW222680   5.913   2.286   0.991
 7261SOL     OW22681   0.243   4.234   6.818
 7261SOL    HW122682   0.290   4.152   6.850
 7261SOL    HW222683   0.225   4.224   6.720
 7262SOL     OW22684   2.851   0.307   5.023
 7262SOL    HW122685   2.760   0.265   5.015
 7262SOL    HW222686   2.844   0.405   5.010
 7263SOL     OW22687   6.391   4.833   5.911
 7263SOL    HW122688   6.455   4.844   5.987
 7263SOL    HW222689   6.320   4.904   5.917
 7264SOL     OW22690   4.807   2.138   1.388
 7264SOL    HW122691   4.832   2.075   1.314
 7264SOL    HW222692   4.803   2.087   1.474
 7265SOL     OW22693   3.241   0.047   5.437
 7265SOL    HW122694   3.266   0.020   5.344
 7265SOL    HW222695   3.141   0.047   5.446
 7266SOL     OW22696   6.842   0.962   2.602
 7266SOL    HW122697   6.909   0.952   2.676
 7266SOL    HW222698   6.841   0.879   2.546
 7267SOL     OW22699   6.778   3.603   5.461
 7267SOL    HW122700   6.765   3.507   5.485
 7267SOL    HW222701   6.690   3.651   5.465
 7268SOL     OW22702   5.266   5.930   4.513
 7268SOL    HW122703   5.227   6.020   4.530
 7268SOL    HW222704   5.287   5.921   4.416
 7269SOL     OW22705   2.607   5.595   4.614
 7269SOL    HW122706   2.653   5.522   4.665
 7269SOL    HW222707   2.543   5.555   4.549
 7270SOL     OW22708   0.385   1.868   4.494
 7270SOL    HW122709   0.297   1.882   4.449
 7270SOL    HW222710   0.458   1.874   4.426
 7271SOL     OW22711   1.071   5.793   3.116
 7271SOL    HW122712   1.035   5.710   3.159
 7271SOL    HW222713   1.152   5.769   3.061
 7272SOL     OW22714   6.550   4.065   1.788
 7272SOL    HW122715   6.510   4.105   1.871
 7272SOL    HW222716   6.535   4.126   1.711
 7273SOL     OW22717   0.460   1.701   4.688
 7273SOL    HW122718   0.448   1.762   4.610
 7273SOL    HW222719   0.414   1.739   4.768
 7274SOL     OW22720   0.116   5.612   6.787
 7274SOL    HW122721   0.098   5.523   6.745
 7274SOL    HW222722   0.160   5.599   6.876
 7275SOL     OW22723   0.363   5.379   3.196
 7275SOL    HW122724   0.413   5.435   3.130
 7275SOL    HW222725   0.422   5.357   3.274
 7276SOL     OW22726   4.901   6.268   3.680
 7276SOL    HW122727   4.807   6.285   3.710
 7276SOL    HW222728   4.914   6.306   3.588
 7277SOL     OW22729   5.023   0.891   6.797
 7277SOL    HW122730   5.122   0.876   6.791
 7277SOL    HW222731   4.996   0.963   6.733
 7278SOL     OW22732   4.145   3.333   2.151
 7278SOL    HW122733   4.230   3.281   2.159
 7278SOL    HW222734   4.145   3.383   2.064
 7279SOL     OW22735   3.624   6.378   6.420
 7279SOL    HW122736   3.675   6.357   6.336
 7279SOL    HW222737   3.644   6.472   6.448
 7280SOL     OW22738   4.482   6.747   5.594
 7280SOL    HW122739   4.417   6.773   5.666
 7280SOL    HW222740   4.459   6.656   5.559
 7281SOL     OW22741   5.765   1.009   6.542
 7281SOL    HW122742   5.751   1.039   6.447
 7281SOL    HW222743   5.681   0.967   6.576
 7282SOL     OW22744   6.133   5.864   3.394
 7282SOL    HW122745   6.193   5.942   3.377
 7282SOL    HW222746   6.051   5.895   3.441
 7283SOL     OW22747   2.398   1.284   2.973
 7283SOL    HW122748   2.356   1.203   3.015
 7283SOL    HW222749   2.419   1.351   3.044
 7284SOL     OW22750   1.112   1.237   4.590
 7284SOL    HW122751   1.089   1.203   4.499
 7284SOL    HW222752   1.210   1.256   4.595
 7285SOL     OW22753   5.873   5.072   2.028
 7285SOL    HW122754   5.918   5.043   2.113
 7285SOL    HW222755   5.918   5.029   1.950
 7286SOL     OW22756   1.701   3.848   0.512
 7286SOL    HW122757   1.626   3.811   0.567
 7286SOL    HW222758   1.778   3.784   0.513
 7287SOL     OW22759   6.424   2.234   6.097
 7287SOL    HW122760   6.441   2.220   6.194
 7287SOL    HW222761   6.371   2.157   6.061
 7288SOL     OW22762   2.429   6.936   6.754
 7288SOL    HW122763   2.438   0.015   6.740
 7288SOL    HW222764   2.509   6.890   6.716
 7289SOL     OW22765   4.271   1.075   3.282
 7289SOL    HW122766   4.253   1.044   3.376
 7289SOL    HW222767   4.222   1.161   3.266
 7290SOL     OW22768   2.391   5.801   4.157
 7290SOL    HW122769   2.380   5.895   4.124
 7290SOL    HW222770   2.448   5.749   4.093
 7291SOL     OW22771   3.960   5.113   1.328
 7291SOL    HW122772   3.860   5.110   1.324
 7291SOL    HW222773   3.991   5.067   1.411
 7292SOL     OW22774   3.846   0.178   4.706
 7292SOL    HW122775   3.852   0.261   4.650
 7292SOL    HW222776   3.751   0.148   4.711
 7293SOL     OW22777   2.342   1.104   5.993
 7293SOL    HW122778   2.284   1.023   5.986
 7293SOL    HW222779   2.411   1.102   5.921
 7294SOL     OW22780   5.687   5.486   6.774
 7294SOL    HW122781   5.774   5.442   6.754
 7294SOL    HW222782   5.637   5.502   6.689
 7295SOL     OW22783   4.165   6.535   1.600
 7295SOL    HW122784   4.262   6.560   1.605
 7295SOL    HW222785   4.151   6.447   1.645
 7296SOL     OW22786   4.206   5.505   0.589
 7296SOL    HW122787   4.200   5.407   0.608
 7296SOL    HW222788   4.150   5.555   0.655
 7297SOL     OW22789   4.808   6.434   2.450
 7297SOL    HW122790   4.867   6.355   2.432
 7297SOL    HW222791   4.805   6.452   2.548
 7298SOL     OW22792   5.436   2.537   4.577
 7298SOL    HW122793   5.444   2.464   4.510
 7298SOL    HW222794   5.525   2.555   4.619
 7299SOL     OW22795   5.491   3.367   0.480
 7299SOL    HW122796   5.580   3.333   0.509
 7299SOL    HW222797   5.422   3.344   0.548
 7300SOL     OW22798   4.401   5.285   0.836
 7300SOL    HW122799   4.320   5.281   0.778
 7300SOL    HW222800   4.482   5.261   0.782
 7301SOL     OW22801   6.408   1.542   6.700
 7301SOL    HW122802   6.440   1.612   6.764
 7301SOL    HW222803   6.461   1.458   6.713
 7302SOL     OW22804   6.897   1.259   6.353
 7302SOL    HW122805   6.805   1.288   6.325
 7302SOL    HW222806   6.893   1.215   6.442
 7303SOL     OW22807   5.157   0.228   1.712
 7303SOL    HW122808   5.180   0.137   1.678
 7303SOL    HW222809   5.133   0.223   1.809
 7304SOL     OW22810   4.063   3.388   4.073
 7304SOL    HW122811   3.982   3.355   4.024
 7304SOL    HW222812   4.040   3.399   4.170
 7305SOL     OW22813   5.734   2.586   0.024
 7305SOL    HW122814   5.830   2.614   0.028
 7305SOL    HW222815   5.723   2.498   0.070
 7306SOL     OW22816   4.753   4.832   1.614
 7306SOL    HW122817   4.732   4.736   1.629
 7306SOL    HW222818   4.784   4.873   1.700
 7307SOL     OW22819   4.078   6.552   2.041
 7307SOL    HW122820   4.058   6.637   1.992
 7307SOL    HW222821   4.014   6.541   2.117
 7308SOL     OW22822   5.224   0.506   4.016
 7308SOL    HW122823   5.314   0.551   4.021
 7308SOL    HW222824   5.153   0.576   4.010
 7309SOL     OW22825   4.627   4.449   0.368
 7309SOL    HW122826   4.559   4.522   0.372
 7309SOL    HW222827   4.694   4.462   0.442
 7310SOL     OW22828   1.750   5.804   2.042
 7310SOL    HW122829   1.844   5.802   2.009
 7310SOL    HW222830   1.749   5.790   2.141
 7311SOL     OW22831   3.225   2.096   2.275
 7311SOL    HW122832   3.189   2.007   2.247
 7311SOL    HW222833   3.325   2.095   2.269
 7312SOL     OW22834   0.245   2.699   6.728
 7312SOL    HW122835   0.149   2.682   6.748
 7312SOL    HW222836   0.288   2.745   6.806
 7313SOL     OW22837   4.372   2.734   6.487
 7313SOL    HW122838   4.363   2.832   6.504
 7313SOL    HW222839   4.374   2.717   6.389
 7314SOL     OW22840   1.066   2.204   4.514
 7314SOL    HW122841   1.027   2.154   4.591
 7314SOL    HW222842   1.085   2.140   4.439
 7315SOL     OW22843   6.668   1.434   5.746
 7315SOL    HW122844   6.627   1.348   5.778
 7315SOL    HW222845   6.716   1.479   5.821
 7316SOL     OW22846   4.180   3.623   3.484
 7316SOL    HW122847   4.166   3.607   3.581
 7316SOL    HW222848   4.147   3.714   3.460
 7317SOL     OW22849   3.159   0.494   4.239
 7317SOL    HW122850   3.168   0.568   4.173
 7317SOL    HW222851   3.124   0.530   4.326
 7318SOL     OW22852   2.279   0.683   1.360
 7318SOL    HW122853   2.190   0.645   1.337
 7318SOL    HW222854   2.322   0.720   1.278
 7319SOL     OW22855   0.089   3.790   6.649
 7319SOL    HW122856   0.116   3.843   6.568
 7319SOL    HW222857   0.080   3.694   6.624
 7320SOL     OW22858   0.601   1.518   2.259
 7320SOL    HW122859   0.629   1.508   2.164
 7320SOL    HW222860   0.526   1.584   2.265
 7321SOL     OW22861   4.448   1.519   3.989
 7321SOL    HW122862   4.500   1.526   3.903
 7321SOL    HW222863   4.371   1.582   3.986
 7322SOL     OW22864   1.257   2.605   1.464
 7322SOL    HW122865   1.166   2.564   1.466
 7322SOL    HW222866   1.280   2.631   1.371
 7323SOL     OW22867   2.485   4.665   3.053
 7323SOL    HW122868   2.434   4.737   3.006
 7323SOL    HW222869   2.432   4.580   3.050
 7324SOL     OW22870   4.589   5.658   2.839
 7324SOL    HW122871   4.659   5.729   2.831
 7324SOL    HW222872   4.523   5.685   2.909
 7325SOL     OW22873   2.796   6.571   0.597
 7325SOL    HW122874   2.836   6.480   0.592
 7325SOL    HW222875   2.718   6.577   0.534
 7326SOL     OW22876   2.631   1.119   3.971
 7326SOL    HW122877   2.696   1.189   4.001
 7326SOL    HW222878   2.548   1.125   4.025
 7327SOL     OW22879   1.592   3.298   5.885
 7327SOL    HW122880   1.674   3.294   5.827
 7327SOL    HW222881   1.559   3.205   5.902
 7328SOL     OW22882   2.090   6.676   0.496
 7328SOL    HW122883   2.060   6.646   0.406
 7328SOL    HW222884   2.143   6.603   0.540
 7329SOL     OW22885   4.732   3.885   1.731
 7329SOL    HW122886   4.779   3.822   1.792
 7329SOL    HW222887   4.685   3.833   1.659
 7330SOL     OW22888   3.854   2.258   1.060
 7330SOL    HW122889   3.930   2.246   1.124
 7330SOL    HW222890   3.816   2.350   1.069
 7331SOL     OW22891   6.344   1.390   1.111
 7331SOL    HW122892   6.388   1.435   1.189
 7331SOL    HW222893   6.273   1.449   1.074
 7332SOL     OW22894   4.048   6.901   0.265
 7332SOL    HW122895   4.083   6.889   0.172
 7332SOL    HW222896   3.948   6.897   0.264
 7333SOL     OW22897   6.988   4.733   2.310
 7333SOL    HW122898   6.906   4.692   2.351
 7333SOL    HW222899   0.049   4.695   2.355
 7334SOL     OW22900   3.230   0.194   3.281
 7334SOL    HW122901   3.185   0.267   3.333
 7334SOL    HW222902   3.315   0.228   3.242
 7335SOL     OW22903   1.757   2.930   3.303
 7335SOL    HW122904   1.846   2.949   3.345
 7335SOL    HW222905   1.770   2.908   3.206
 7336SOL     OW22906   1.257   5.988   4.488
 7336SOL    HW122907   1.218   6.043   4.561
 7336SOL    HW222908   1.189   5.975   4.416
 7337SOL     OW22909   5.310   2.244   1.378
 7337SOL    HW122910   5.218   2.283   1.370
 7337SOL    HW222911   5.306   2.146   1.358
 7338SOL     OW22912   0.693   3.827   0.687
 7338SOL    HW122913   0.772   3.834   0.749
 7338SOL    HW222914   0.707   3.888   0.609
 7339SOL     OW22915   1.881   5.317   5.103
 7339SOL    HW122916   1.824   5.305   5.184
 7339SOL    HW222917   1.858   5.404   5.059
 7340SOL     OW22918   3.286   6.557   6.332
 7340SOL    HW122919   3.313   6.461   6.333
 7340SOL    HW222920   3.364   6.613   6.305
 7341SOL     OW22921   5.710   2.342   0.197
 7341SOL    HW122922   5.692   2.295   0.111
 7341SOL    HW222923   5.782   2.294   0.248
 7342SOL     OW22924   0.213   6.075   1.444
 7342SOL    HW122925   0.137   6.010   1.437
 7342SOL    HW222926   0.276   6.060   1.368
 7343SOL     OW22927   6.658   2.987   0.511
 7343SOL    HW122928   6.670   3.064   0.449
 7343SOL    HW222929   6.727   2.917   0.492
 7344SOL     OW22930   2.650   0.820   5.653
 7344SOL    HW122931   2.599   0.891   5.603
 7344SOL    HW222932   2.746   0.849   5.662
 7345SOL     OW22933   3.883   5.746   6.595
 7345SOL    HW122934   3.846   5.779   6.509
 7345SOL    HW222935   3.948   5.672   6.577
 7346SOL     OW22936   4.356   4.985   1.923
 7346SOL    HW122937   4.324   5.080   1.916
 7346SOL    HW222938   4.453   4.981   1.899
 7347SOL     OW22939   4.895   0.582   6.168
 7347SOL    HW122940   4.920   0.491   6.135
 7347SOL    HW222941   4.972   0.645   6.153
 7348SOL     OW22942   0.316   5.913   0.344
 7348SOL    HW122943   0.229   5.962   0.353
 7348SOL    HW222944   0.384   5.972   0.301
 7349SOL     OW22945   4.550   1.432   1.162
 7349SOL    HW122946   4.547   1.371   1.083
 7349SOL    HW222947   4.612   1.395   1.232
 7350SOL     OW22948   3.549   1.174   5.002
 7350SOL    HW122949   3.608   1.093   4.991
 7350SOL    HW222950   3.575   1.222   5.086
 7351SOL     OW22951   2.496   4.985   4.919
 7351SOL    HW122952   2.564   5.057   4.907
 7351SOL    HW222953   2.435   4.983   4.840
 7352SOL     OW22954   6.254   2.855   4.154
 7352SOL    HW122955   6.163   2.876   4.118
 7352SOL    HW222956   6.247   2.783   4.223
 7353SOL     OW22957   6.841   2.224   6.020
 7353SOL    HW122958   6.885   2.149   5.972
 7353SOL    HW222959   6.770   2.264   5.961
 7354SOL     OW22960   0.745   2.091   2.944
 7354SOL    HW122961   0.799   2.084   3.028
 7354SOL    HW222962   0.805   2.075   2.865
 7355SOL     OW22963   3.735   1.756   0.428
 7355SOL    HW122964   3.716   1.821   0.355
 7355SOL    HW222965   3.834   1.738   0.431
 7356SOL     OW22966   3.750   4.894   6.048
 7356SOL    HW122967   3.667   4.838   6.042
 7356SOL    HW222968   3.822   4.855   5.991
 7357SOL     OW22969   4.662   6.617   2.262
 7357SOL    HW122970   4.728   6.580   2.328
 7357SOL    HW222971   4.669   6.717   2.261
 7358SOL     OW22972   4.357   0.406   2.834
 7358SOL    HW122973   4.416   0.469   2.784
 7358SOL    HW222974   4.389   0.397   2.929
 7359SOL     OW22975   3.630   6.953   2.279
 7359SOL    HW122976   3.652   0.030   2.294
 7359SOL    HW222977   3.691   6.896   2.333
 7360SOL     OW22978   2.576   4.231   6.027
 7360SOL    HW122979   2.599   4.160   5.962
 7360SOL    HW222980   2.659   4.259   6.076
 7361SOL     OW22981   6.100   0.679   3.768
 7361SOL    HW122982   6.079   0.715   3.859
 7361SOL    HW222983   6.162   0.601   3.777
 7362SOL     OW22984   3.368   5.589   0.671
 7362SOL    HW122985   3.431   5.659   0.704
 7362SOL    HW222986   3.407   5.499   0.687
 7363SOL     OW22987   4.687   0.732   1.146
 7363SOL    HW122988   4.747   0.770   1.076
 7363SOL    HW222989   4.697   0.632   1.148
 7364SOL     OW22990   5.402   5.755   1.528
 7364SOL    HW122991   5.390   5.667   1.481
 7364SOL    HW222992   5.496   5.787   1.516
 7365SOL     OW22993   4.955   3.692   2.004
 7365SOL    HW122994   5.032   3.754   1.995
 7365SOL    HW222995   4.936   3.650   1.916
 7366SOL     OW22996   2.199   6.297   3.580
 7366SOL    HW122997   2.262   6.235   3.533
 7366SOL    HW222998   2.230   6.391   3.567
 7367SOL     OW22999   4.417   1.416   0.440
 7367SOL    HW123000   4.508   1.417   0.399
 7367SOL    HW223001   4.364   1.339   0.403
 7368SOL     OW23002   3.103   4.006   3.219
 7368SOL    HW123003   3.045   4.052   3.286
 7368SOL    HW223004   3.072   3.912   3.206
 7369SOL     OW23005   5.369   3.749   6.950
 7369SOL    HW123006   5.392   3.666   6.899
 7369SOL    HW223007   5.436   3.820   6.929
 7370SOL     OW23008   2.530   0.803   3.878
 7370SOL    HW123009   2.448   0.825   3.931
 7370SOL    HW223010   2.527   0.852   3.791
 7371SOL     OW23011   4.102   0.367   3.655
 7371SOL    HW123012   4.132   0.308   3.580
 7371SOL    HW223013   4.007   0.345   3.679
 7372SOL     OW23014   3.674   1.674   5.595
 7372SOL    HW123015   3.715   1.758   5.631
 7372SOL    HW223016   3.589   1.656   5.644
 7373SOL     OW23017   6.596   2.976   4.480
 7373SOL    HW123018   6.580   3.028   4.396
 7373SOL    HW223019   6.690   2.942   4.482
 7374SOL     OW23020   6.759   3.172   6.361
 7374SOL    HW123021   6.711   3.103   6.414
 7374SOL    HW223022   6.837   3.130   6.315
 7375SOL     OW23023   2.316   2.196   1.428
 7375SOL    HW123024   2.224   2.160   1.410
 7375SOL    HW223025   2.343   2.173   1.521
 7376SOL     OW23026   6.025   5.351   0.488
 7376SOL    HW123027   6.037   5.252   0.489
 7376SOL    HW223028   5.956   5.377   0.556
 7377SOL     OW23029   2.605   5.992   0.892
 7377SOL    HW123030   2.631   6.006   0.796
 7377SOL    HW223031   2.681   5.948   0.940
 7378SOL     OW23032   2.315   5.023   5.653
 7378SOL    HW123033   2.327   5.121   5.637
 7378SOL    HW223034   2.219   5.004   5.672
 7379SOL     OW23035   5.217   2.582   2.781
 7379SOL    HW123036   5.122   2.601   2.806
 7379SOL    HW223037   5.239   2.487   2.800
 7380SOL     OW23038   5.096   3.352   1.262
 7380SOL    HW123039   5.097   3.328   1.359
 7380SOL    HW223040   5.025   3.300   1.215
 7381SOL     OW23041   3.589   0.209   1.468
 7381SOL    HW123042   3.567   0.290   1.415
 7381SOL    HW223043   3.687   0.208   1.489
 7382SOL     OW23044   0.454   2.814   0.130
 7382SOL    HW123045   0.537   2.848   0.174
 7382SOL    HW223046   0.479   2.757   0.051
 7383SOL     OW23047   2.210   6.942   1.089
 7383SOL    HW123048   2.139   6.912   1.154
 7383SOL    HW223049   2.222   6.872   1.019
 7384SOL     OW23050   6.967   0.622   6.973
 7384SOL    HW123051   0.025   0.570   7.007
 7384SOL    HW223052   6.993   0.717   6.959
 7385SOL     OW23053   6.766   4.399   2.809
 7385SOL    HW123054   6.753   4.393   2.710
 7385SOL    HW223055   6.687   4.444   2.850
 7386SOL     OW23056   6.080   3.704   0.731
 7386SOL    HW123057   6.053   3.744   0.644
 7386SOL    HW223058   6.179   3.686   0.731
 7387SOL     OW23059   0.213   5.682   3.802
 7387SOL    HW123060   0.155   5.642   3.873
 7387SOL    HW223061   0.305   5.695   3.838
 7388SOL     OW23062   2.355   4.434   3.083
 7388SOL    HW123063   2.258   4.456   3.091
 7388SOL    HW223064   2.383   4.379   3.162
 7389SOL     OW23065   0.529   2.786   1.085
 7389SOL    HW123066   0.602   2.829   1.032
 7389SOL    HW223067   0.478   2.723   1.026
 7390SOL     OW23068   4.080   2.218   4.302
 7390SOL    HW123069   4.005   2.188   4.243
 7390SOL    HW223070   4.123   2.299   4.262
 7391SOL     OW23071   3.109   3.679   2.089
 7391SOL    HW123072   3.164   3.596   2.087
 7391SOL    HW223073   3.026   3.664   2.143
 7392SOL     OW23074   3.782   6.778   0.408
 7392SOL    HW123075   3.858   6.715   0.424
 7392SOL    HW223076   3.710   6.730   0.358
 7393SOL     OW23077   4.435   5.764   3.297
 7393SOL    HW123078   4.497   5.793   3.224
 7393SOL    HW223079   4.373   5.694   3.263
 7394SOL     OW23080   1.668   1.465   6.698
 7394SOL    HW123081   1.673   1.416   6.612
 7394SOL    HW223082   1.727   1.546   6.694
 7395SOL     OW23083   2.864   5.491   0.785
 7395SOL    HW123084   2.909   5.557   0.725
 7395SOL    HW223085   2.884   5.512   0.880
 7396SOL     OW23086   0.861   5.231   2.335
 7396SOL    HW123087   0.772   5.232   2.290
 7396SOL    HW223088   0.926   5.179   2.280
 7397SOL     OW23089   6.054   5.270   5.263
 7397SOL    HW123090   5.977   5.266   5.328
 7397SOL    HW223091   6.137   5.239   5.308
 7398SOL     OW23092   3.029   5.810   2.150
 7398SOL    HW123093   3.051   5.716   2.123
 7398SOL    HW223094   3.074   5.831   2.236
 7399SOL     OW23095   6.440   2.795   5.262
 7399SOL    HW123096   6.536   2.785   5.239
 7399SOL    HW223097   6.419   2.738   5.342
 7400SOL     OW23098   4.179   3.445   5.531
 7400SOL    HW123099   4.129   3.367   5.569
 7400SOL    HW223100   4.217   3.420   5.442
 7401SOL     OW23101   2.953   2.155   4.565
 7401SOL    HW123102   3.045   2.153   4.527
 7401SOL    HW223103   2.952   2.106   4.652
 7402SOL     OW23104   3.559   5.025   4.739
 7402SOL    HW123105   3.631   4.962   4.710
 7402SOL    HW223106   3.594   5.084   4.812
 7403SOL     OW23107   1.964   5.118   3.972
 7403SOL    HW123108   1.982   5.131   3.875
 7403SOL    HW223109   2.035   5.060   4.012
 7404SOL     OW23110   1.974   2.707   1.281
 7404SOL    HW123111   1.957   2.705   1.379
 7404SOL    HW223112   1.956   2.617   1.242
 7405SOL     OW23113   2.824   6.521   5.729
 7405SOL    HW123114   2.864   6.593   5.671
 7405SOL    HW223115   2.725   6.531   5.731
 7406SOL     OW23116   0.746   2.776   4.538
 7406SOL    HW123117   0.740   2.829   4.454
 7406SOL    HW223118   0.708   2.685   4.524
 7407SOL     OW23119   1.073   6.350   4.475
 7407SOL    HW123120   1.049   6.271   4.531
 7407SOL    HW223121   1.161   6.387   4.505
 7408SOL     OW23122   4.177   5.133   5.393
 7408SOL    HW123123   4.222   5.138   5.304
 7408SOL    HW223124   4.080   5.115   5.380
 7409SOL     OW23125   6.027   4.999   1.063
 7409SOL    HW123126   6.044   5.096   1.077
 7409SOL    HW223127   6.090   4.963   0.994
 7410SOL     OW23128   6.085   0.903   0.380
 7410SOL    HW123129   6.120   0.989   0.345
 7410SOL    HW223130   6.009   0.921   0.443
 7411SOL     OW23131   3.451   1.900   5.912
 7411SOL    HW123132   3.532   1.841   5.914
 7411SOL    HW223133   3.372   1.849   5.946
 7412SOL     OW23134   4.222   6.667   6.477
 7412SOL    HW123135   4.260   6.741   6.533
 7412SOL    HW223136   4.264   6.668   6.386
 7413SOL     OW23137   4.965   0.938   3.819
 7413SOL    HW123138   5.034   1.007   3.798
 7413SOL    HW223139   4.893   0.940   3.749
 7414SOL     OW23140   3.016   1.009   4.581
 7414SOL    HW123141   3.044   1.032   4.488
 7414SOL    HW223142   3.065   1.068   4.646
 7415SOL     OW23143   4.147   0.856   5.631
 7415SOL    HW123144   4.165   0.774   5.577
 7415SOL    HW223145   4.194   0.849   5.719
 7416SOL     OW23146   0.181   0.107   1.934
 7416SOL    HW123147   0.190   0.197   1.977
 7416SOL    HW223148   0.242   0.102   1.855
 7417SOL     OW23149   0.045   0.443   1.919
 7417SOL    HW123150   0.130   0.411   1.961
 7417SOL    HW223151   0.053   0.541   1.900
 7418SOL     OW23152   2.052   3.745   6.255
 7418SOL    HW123153   2.096   3.655   6.249
 7418SOL    HW223154   2.122   3.817   6.250
 7419SOL     OW23155   6.793   2.654   4.682
 7419SOL    HW123156   6.693   2.651   4.683
 7419SOL    HW223157   6.823   2.722   4.615
 7420SOL     OW23158   6.505   6.922   6.936
 7420SOL    HW123159   6.566   6.843   6.939
 7420SOL    HW223160   6.531   6.987   7.007
 7421SOL     OW23161   7.008   3.714   0.978
 7421SOL    HW123162   6.949   3.771   1.036
 7421SOL    HW223163   6.994   3.738   0.882
 7422SOL     OW23164   6.591   3.422   2.061
 7422SOL    HW123165   6.669   3.364   2.084
 7422SOL    HW223166   6.549   3.457   2.145
 7423SOL     OW23167   4.163   2.308   5.989
 7423SOL    HW123168   4.151   2.209   5.997
 7423SOL    HW223169   4.074   2.353   5.985
 7424SOL     OW23170   0.984   1.978   4.302
 7424SOL    HW123171   0.938   1.907   4.356
 7424SOL    HW223172   1.078   1.950   4.285
 7425SOL     OW23173   5.401   0.753   0.705
 7425SOL    HW123174   5.376   0.764   0.609
 7425SOL    HW223175   5.461   0.828   0.732
 7426SOL     OW23176   3.590   3.866   5.578
 7426SOL    HW123177   3.671   3.822   5.540
 7426SOL    HW223178   3.522   3.797   5.601
 7427SOL     OW23179   2.836   0.450   1.661
 7427SOL    HW123180   2.802   0.530   1.709
 7427SOL    HW223181   2.815   0.458   1.564
 7428SOL     OW23182   1.215   6.723   5.266
 7428SOL    HW123183   1.258   6.731   5.355
 7428SOL    HW223184   1.180   6.630   5.253
 7429SOL     OW23185   0.749   0.491   2.135
 7429SOL    HW123186   0.655   0.521   2.116
 7429SOL    HW223187   0.785   0.442   2.057
 7430SOL     OW23188   6.530   3.368   2.487
 7430SOL    HW123189   6.453   3.305   2.502
 7430SOL    HW223190   6.615   3.316   2.485
 7431SOL     OW23191   1.286   2.569   4.770
 7431SOL    HW123192   1.369   2.552   4.823
 7431SOL    HW223193   1.211   2.592   4.832
 7432SOL     OW23194   1.295   0.986   2.814
 7432SOL    HW123195   1.313   0.946   2.724
 7432SOL    HW223196   1.230   1.061   2.804
 7433SOL     OW23197   3.847   0.015   5.908
 7433SOL    HW123198   3.755   0.007   5.945
 7433SOL    HW223199   3.891   0.098   5.943
 7434SOL     OW23200   3.760   6.998   3.450
 7434SOL    HW123201   3.700   0.002   3.526
 7434SOL    HW223202   3.741   6.904   3.420
 7435SOL     OW23203   5.141   4.628   3.069
 7435SOL    HW123204   5.157   4.681   2.986
 7435SOL    HW223205   5.124   4.690   3.146
 7436SOL     OW23206   4.687   3.007   6.326
 7436SOL    HW123207   4.779   3.040   6.307
 7436SOL    HW223208   4.674   2.999   6.424
 7437SOL     OW23209   3.757   0.502   1.697
 7437SOL    HW123210   3.772   0.441   1.774
 7437SOL    HW223211   3.694   0.574   1.724
 7438SOL     OW23212   1.878   0.791   6.663
 7438SOL    HW123213   1.817   0.868   6.646
 7438SOL    HW223214   1.933   0.773   6.581
 7439SOL     OW23215   1.423   4.339   6.042
 7439SOL    HW123216   1.467   4.328   5.953
 7439SOL    HW223217   1.472   4.284   6.110
 7440SOL     OW23218   6.223   2.794   4.448
 7440SOL    HW123219   6.225   2.777   4.546
 7440SOL    HW223220   6.130   2.820   4.421
 7441SOL     OW23221   4.409   6.867   0.622
 7441SOL    HW123222   4.420   6.796   0.692
 7441SOL    HW223223   4.422   6.957   0.665
 7442SOL     OW23224   0.070   1.202   6.153
 7442SOL    HW123225   0.028   1.210   6.244
 7442SOL    HW223226   0.092   1.293   6.119
 7443SOL     OW23227   6.980   6.807   0.324
 7443SOL    HW123228   6.995   6.725   0.379
 7443SOL    HW223229   0.001   6.795   0.234
 7444SOL     OW23230   0.883   6.249   6.517
 7444SOL    HW123231   0.974   6.212   6.539
 7444SOL    HW223232   0.892   6.324   6.453
 7445SOL     OW23233   3.960   6.017   2.235
 7445SOL    HW123234   3.884   6.078   2.257
 7445SOL    HW223235   4.022   6.064   2.171
 7446SOL     OW23236   6.559   5.154   0.525
 7446SOL    HW123237   6.510   5.233   0.489
 7446SOL    HW223238   6.548   5.076   0.464
 7447SOL     OW23239   0.260   5.560   0.968
 7447SOL    HW123240   0.166   5.557   0.935
 7447SOL    HW223241   0.322   5.533   0.895
 7448SOL     OW23242   5.110   4.937   0.147
 7448SOL    HW123243   5.132   4.841   0.131
 7448SOL    HW223244   5.069   4.977   0.065
 7449SOL     OW23245   6.276   3.736   6.237
 7449SOL    HW123246   6.351   3.770   6.293
 7449SOL    HW223247   6.288   3.768   6.143
 7450SOL     OW23248   5.316   3.623   0.413
 7450SOL    HW123249   5.317   3.565   0.332
 7450SOL    HW223250   5.380   3.586   0.481
 7451SOL     OW23251   4.262   5.276   2.825
 7451SOL    HW123252   4.246   5.372   2.803
 7451SOL    HW223253   4.301   5.269   2.917
 7452SOL     OW23254   6.524   6.275   6.784
 7452SOL    HW123255   6.492   6.240   6.696
 7452SOL    HW223256   6.602   6.222   6.815
 7453SOL     OW23257   4.453   4.824   6.346
 7453SOL    HW123258   4.358   4.838   6.317
 7453SOL    HW223259   4.480   4.729   6.329
 7454SOL     OW23260   4.082   2.000   1.309
 7454SOL    HW123261   4.079   2.009   1.409
 7454SOL    HW223262   3.991   1.978   1.275
 7455SOL     OW23263   6.935   0.445   2.712
 7455SOL    HW123264   6.966   0.457   2.806
 7455SOL    HW223265   7.014   0.435   2.652
 7456SOL     OW23266   2.920   0.876   5.633
 7456SOL    HW123267   2.898   0.907   5.541
 7456SOL    HW223268   2.991   0.805   5.629
 7457SOL     OW23269   1.146   2.112   2.627
 7457SOL    HW123270   1.221   2.175   2.647
 7457SOL    HW223271   1.139   2.044   2.699
 7458SOL     OW23272   0.014   6.132   5.172
 7458SOL    HW123273   6.950   6.079   5.186
 7458SOL    HW223274   7.019   6.226   5.203
 7459SOL     OW23275   5.498   6.735   3.186
 7459SOL    HW123276   5.578   6.773   3.141
 7459SOL    HW223277   5.415   6.768   3.140
 7460SOL     OW23278   0.318   0.377   1.164
 7460SOL    HW123279   0.335   0.389   1.262
 7460SOL    HW223280   0.405   0.371   1.115
 7461SOL     OW23281   1.919   4.589   5.468
 7461SOL    HW123282   1.821   4.591   5.447
 7461SOL    HW223283   1.968   4.648   5.404
 7462SOL     OW23284   1.812   4.328   0.144
 7462SOL    HW123285   1.721   4.355   0.178
 7462SOL    HW223286   1.838   4.241   0.186
 7463SOL     OW23287   4.713   4.711   0.518
 7463SOL    HW123288   4.743   4.620   0.547
 7463SOL    HW223289   4.637   4.741   0.575
 7464SOL     OW23290   5.385   5.325   5.078
 7464SOL    HW123291   5.364   5.236   5.118
 7464SOL    HW223292   5.341   5.333   4.989
 7465SOL     OW23293   1.341   4.001   6.593
 7465SOL    HW123294   1.292   3.923   6.632
 7465SOL    HW223295   1.384   3.974   6.507
 7466SOL     OW23296   0.495   0.244   5.845
 7466SOL    HW123297   0.466   0.148   5.844
 7466SOL    HW223298   0.515   0.274   5.752
 7467SOL     OW23299   1.596   3.686   3.613
 7467SOL    HW123300   1.529   3.752   3.648
 7467SOL    HW223301   1.571   3.661   3.520
 7468SOL     OW23302   6.211   2.758   4.738
 7468SOL    HW123303   6.152   2.799   4.808
 7468SOL    HW223304   6.305   2.788   4.751
 7469SOL     OW23305   6.767   1.935   0.092
 7469SOL    HW123306   6.752   2.022   0.139
 7469SOL    HW223307   6.829   1.949   0.015
 7470SOL     OW23308   4.945   3.323   3.721
 7470SOL    HW123309   4.867   3.273   3.685
 7470SOL    HW223310   5.027   3.265   3.717
 7471SOL     OW23311   3.242   6.915   6.252
 7471SOL    HW123312   3.151   6.899   6.214
 7471SOL    HW223313   3.286   6.990   6.202
 7472SOL     OW23314   0.022   0.346   5.469
 7472SOL    HW123315   0.088   0.315   5.537
 7472SOL    HW223316   0.052   0.318   5.378
 7473SOL     OW23317   4.418   6.932   3.137
 7473SOL    HW123318   4.348   6.927   3.208
 7473SOL    HW223319   4.380   6.900   3.050
 7474SOL     OW23320   6.185   2.119   2.022
 7474SOL    HW123321   6.179   2.120   2.121
 7474SOL    HW223322   6.111   2.175   1.983
 7475SOL     OW23323   5.080   2.826   1.264
 7475SOL    HW123324   5.120   2.739   1.234
 7475SOL    HW223325   5.052   2.879   1.184
 7476SOL     OW23326   2.524   1.463   2.678
 7476SOL    HW123327   2.518   1.423   2.586
 7476SOL    HW223328   2.557   1.557   2.672
 7477SOL     OW23329   2.317   3.616   5.606
 7477SOL    HW123330   2.309   3.573   5.516
 7477SOL    HW223331   2.413   3.615   5.635
 7478SOL     OW23332   0.829   2.675   6.594
 7478SOL    HW123333   0.803   2.771   6.590
 7478SOL    HW223334   0.747   2.618   6.585
 7479SOL     OW23335   5.367   2.631   2.045
 7479SOL    HW123336   5.440   2.699   2.046
 7479SOL    HW223337   5.406   2.541   2.026
 7480SOL     OW23338   4.057   6.238   2.110
 7480SOL    HW123339   4.019   6.327   2.134
 7480SOL    HW223340   4.088   6.239   2.015
 7481SOL     OW23341   0.672   4.415   0.045
 7481SOL    HW123342   0.658   4.400   6.967
 7481SOL    HW223343   0.766   4.444   0.062
 7482SOL     OW23344   3.694   1.681   5.023
 7482SOL    HW123345   3.754   1.760   5.025
 7482SOL    HW223346   3.604   1.706   5.058
 7483SOL     OW23347   5.696   1.692   5.538
 7483SOL    HW123348   5.635   1.612   5.542
 7483SOL    HW223349   5.762   1.687   5.612
 7484SOL     OW23350   2.344   6.930   5.112
 7484SOL    HW123351   2.349   6.831   5.102
 7484SOL    HW223352   2.269   6.966   5.057
 7485SOL     OW23353   3.613   0.102   6.846
 7485SOL    HW123354   3.686   0.094   6.913
 7485SOL    HW223355   3.525   0.100   6.892
 7486SOL     OW23356   4.188   6.098   0.867
 7486SOL    HW123357   4.272   6.056   0.900
 7486SOL    HW223358   4.147   6.041   0.796
 7487SOL     OW23359   3.486   6.211   4.685
 7487SOL    HW123360   3.565   6.262   4.717
 7487SOL    HW223361   3.404   6.243   4.732
 7488SOL     OW23362   2.236   6.054   3.732
 7488SOL    HW123363   2.206   6.148   3.717
 7488SOL    HW223364   2.170   5.991   3.690
 7489SOL     OW23365   4.949   3.469   5.808
 7489SOL    HW123366   5.013   3.517   5.748
 7489SOL    HW223367   4.988   3.380   5.834
 7490SOL     OW23368   2.169   2.430   1.504
 7490SOL    HW123369   2.083   2.431   1.453
 7490SOL    HW223370   2.225   2.352   1.474
 7491SOL     OW23371   4.259   4.018   6.508
 7491SOL    HW123372   4.248   4.114   6.483
 7491SOL    HW223373   4.303   4.011   6.598
 7492SOL     OW23374   1.478   1.323   2.983
 7492SOL    HW123375   1.506   1.312   2.888
 7492SOL    HW223376   1.378   1.326   2.988
 7493SOL     OW23377   5.878   4.568   4.770
 7493SOL    HW123378   5.799   4.550   4.712
 7493SOL    HW223379   5.864   4.525   4.860
 7494SOL     OW23380   5.596   1.294   2.218
 7494SOL    HW123381   5.538   1.301   2.300
 7494SOL    HW223382   5.662   1.370   2.218
 7495SOL     OW23383   1.792   3.425   3.981
 7495SOL    HW123384   1.700   3.386   3.975
 7495SOL    HW223385   1.811   3.451   4.076
 7496SOL     OW23386   5.852   3.125   3.443
 7496SOL    HW123387   5.911   3.122   3.524
 7496SOL    HW223388   5.906   3.155   3.364
 7497SOL     OW23389   6.030   0.619   0.970
 7497SOL    HW123390   6.032   0.655   1.063
 7497SOL    HW223391   5.975   0.535   0.969
 7498SOL     OW23392   2.128   6.084   2.753
 7498SOL    HW123393   2.225   6.106   2.742
 7498SOL    HW223394   2.117   5.986   2.770
 7499SOL     OW23395   3.071   1.446   3.014
 7499SOL    HW123396   3.074   1.486   3.106
 7499SOL    HW223397   3.024   1.509   2.952
 7500SOL     OW23398   3.412   1.541   5.118
 7500SOL    HW123399   3.435   1.632   5.154
 7500SOL    HW223400   3.369   1.550   5.028
 7501SOL     OW23401   5.840   1.828   4.647
 7501SOL    HW123402   5.834   1.864   4.553
 7501SOL    HW223403   5.917   1.873   4.694
 7502SOL     OW23404   4.114   1.095   4.358
 7502SOL    HW123405   4.074   1.185   4.343
 7502SOL    HW223406   4.098   1.038   4.277
 7503SOL     OW23407   0.945   5.693   1.160
 7503SOL    HW123408   0.871   5.697   1.227
 7503SOL    HW223409   0.994   5.780   1.158
 7504SOL     OW23410   5.835   6.285   4.897
 7504SOL    HW123411   5.903   6.280   4.970
 7504SOL    HW223412   5.823   6.380   4.868
 7505SOL     OW23413   0.427   6.665   6.395
 7505SOL    HW123414   0.434   6.748   6.450
 7505SOL    HW223415   0.502   6.603   6.417
 7506SOL     OW23416   3.711   2.103   4.374
 7506SOL    HW123417   3.772   2.026   4.393
 7506SOL    HW223418   3.683   2.146   4.460
 7507SOL     OW23419   6.678   3.587   6.305
 7507SOL    HW123420   6.609   3.518   6.283
 7507SOL    HW223421   6.766   3.544   6.319
 7508SOL     OW23422   3.831   6.529   0.132
 7508SOL    HW123423   3.829   6.453   0.196
 7508SOL    HW223424   3.917   6.528   0.081
 7509SOL     OW23425   5.604   4.374   3.265
 7509SOL    HW123426   5.539   4.416   3.202
 7509SOL    HW223427   5.562   4.294   3.308
 7510SOL     OW23428   3.757   4.879   1.392
 7510SOL    HW123429   3.760   4.839   1.483
 7510SOL    HW223430   3.671   4.929   1.380
 7511SOL     OW23431   4.845   6.259   4.009
 7511SOL    HW123432   4.902   6.204   3.947
 7511SOL    HW223433   4.837   6.212   4.097
 7512SOL     OW23434   3.616   5.760   0.836
 7512SOL    HW123435   3.658   5.730   0.921
 7512SOL    HW223436   3.531   5.809   0.855
 7513SOL     OW23437   0.086   0.686   2.890
 7513SOL    HW123438   0.166   0.661   2.835
 7513SOL    HW223439   0.019   0.731   2.831
 7514SOL     OW23440   0.112   0.741   0.211
 7514SOL    HW123441   0.078   0.654   0.245
 7514SOL    HW223442   0.065   0.765   0.126
 7515SOL     OW23443   0.143   5.056   4.885
 7515SOL    HW123444   0.073   5.112   4.841
 7515SOL    HW223445   0.101   5.001   4.958
 7516SOL     OW23446   2.276   5.537   4.213
 7516SOL    HW123447   2.191   5.511   4.167
 7516SOL    HW223448   2.309   5.623   4.175
 7517SOL     OW23449   0.477   2.526   0.414
 7517SOL    HW123450   0.398   2.542   0.355
 7517SOL    HW223451   0.544   2.599   0.401
 7518SOL     OW23452   3.913   2.121   5.078
 7518SOL    HW123453   3.907   2.171   5.165
 7518SOL    HW223454   3.979   2.166   5.019
 7519SOL     OW23455   2.785   6.496   4.982
 7519SOL    HW123456   2.829   6.528   4.898
 7519SOL    HW223457   2.787   6.396   4.985
 7520SOL     OW23458   1.780   0.614   0.764
 7520SOL    HW123459   1.867   0.575   0.796
 7520SOL    HW223460   1.707   0.587   0.827
 7521SOL     OW23461   4.615   1.575   5.438
 7521SOL    HW123462   4.622   1.639   5.360
 7521SOL    HW223463   4.662   1.490   5.415
 7522SOL     OW23464   1.521   6.701   4.046
 7522SOL    HW123465   1.499   6.625   3.985
 7522SOL    HW223466   1.519   6.787   3.995
 7523SOL     OW23467   5.363   1.639   7.005
 7523SOL    HW123468   5.437   1.625   6.940
 7523SOL    HW223469   5.275   1.633   6.957
 7524SOL     OW23470   0.169   4.053   4.919
 7524SOL    HW123471   0.205   4.091   5.004
 7524SOL    HW223472   0.178   4.120   4.845
 7525SOL     OW23473   2.583   5.081   5.575
 7525SOL    HW123474   2.500   5.043   5.616
 7525SOL    HW223475   2.647   5.107   5.646
 7526SOL     OW23476   1.033   3.646   1.124
 7526SOL    HW123477   0.967   3.594   1.179
 7526SOL    HW223478   1.005   3.646   1.028
 7527SOL     OW23479   2.806   5.166   2.681
 7527SOL    HW123480   2.773   5.074   2.701
 7527SOL    HW223481   2.845   5.168   2.589
 7528SOL     OW23482   6.494   2.538   0.174
 7528SOL    HW123483   6.520   2.530   0.078
 7528SOL    HW223484   6.409   2.489   0.190
 7529SOL     OW23485   5.795   2.896   4.696
 7529SOL    HW123486   5.889   2.928   4.685
 7529SOL    HW223487   5.771   2.837   4.618
 7530SOL     OW23488   1.989   2.211   3.339
 7530SOL    HW123489   1.919   2.155   3.385
 7530SOL    HW223490   2.044   2.152   3.279
 7531SOL     OW23491   4.579   1.697   4.149
 7531SOL    HW123492   4.566   1.698   4.050
 7531SOL    HW223493   4.513   1.757   4.193
 7532SOL     OW23494   4.560   4.536   6.565
 7532SOL    HW123495   4.486   4.505   6.625
 7532SOL    HW223496   4.645   4.542   6.617
 7533SOL     OW23497   4.533   4.544   0.797
 7533SOL    HW123498   4.473   4.557   0.876
 7533SOL    HW223499   4.618   4.499   0.826
 7534SOL     OW23500   4.035   6.326   5.066
 7534SOL    HW123501   4.107   6.394   5.056
 7534SOL    HW223502   4.051   6.271   5.148
 7535SOL     OW23503   0.077   6.788   4.783
 7535SOL    HW123504   0.077   6.742   4.694
 7535SOL    HW223505   0.052   6.884   4.770
 7536SOL     OW23506   5.813   6.941   2.866
 7536SOL    HW123507   5.780   7.015   2.808
 7536SOL    HW223508   5.901   6.967   2.906
 7537SOL     OW23509   2.628   0.257   2.069
 7537SOL    HW123510   2.530   0.260   2.086
 7537SOL    HW223511   2.644   0.252   1.970
 7538SOL     OW23512   0.353   4.751   6.964
 7538SOL    HW123513   0.261   4.771   6.996
 7538SOL    HW223514   0.410   4.721   0.022
 7539SOL     OW23515   6.580   0.179   4.919
 7539SOL    HW123516   6.677   0.189   4.894
 7539SOL    HW223517   6.525   0.173   4.836
 7540SOL     OW23518   5.244   3.690   3.820
 7540SOL    HW123519   5.225   3.623   3.748
 7540SOL    HW223520   5.253   3.781   3.780
 7541SOL     OW23521   1.954   4.077   6.959
 7541SOL    HW123522   1.871   4.030   6.989
 7541SOL    HW223523   2.019   4.010   6.923
 7542SOL     OW23524   6.235   6.289   4.795
 7542SOL    HW123525   6.277   6.253   4.712
 7542SOL    HW223526   6.252   6.388   4.800
 7543SOL     OW23527   2.000   0.445   0.568
 7543SOL    HW123528   1.903   0.442   0.545
 7543SOL    HW223529   2.053   0.467   0.486
 7544SOL     OW23530   6.127   1.822   4.966
 7544SOL    HW123531   6.200   1.778   5.017
 7544SOL    HW223532   6.132   1.796   4.870
 7545SOL     OW23533   1.051   5.687   4.860
 7545SOL    HW123534   0.967   5.666   4.809
 7545SOL    HW223535   1.099   5.603   4.882
 7546SOL     OW23536   2.340   3.240   1.687
 7546SOL    HW123537   2.366   3.319   1.743
 7546SOL    HW223538   2.419   3.180   1.674
 7547SOL     OW23539   4.052   0.479   1.893
 7547SOL    HW123540   4.111   0.536   1.951
 7547SOL    HW223541   4.052   0.515   1.800
 7548SOL     OW23542   2.452   2.375   6.208
 7548SOL    HW123543   2.532   2.352   6.152
 7548SOL    HW223544   2.387   2.427   6.153
 7549SOL     OW23545   5.100   0.541   5.341
 7549SOL    HW123546   5.109   0.606   5.265
 7549SOL    HW223547   5.047   0.462   5.310
 7550SOL     OW23548   2.863   5.843   4.869
 7550SOL    HW123549   2.853   5.759   4.816
 7550SOL    HW223550   2.905   5.913   4.811
 7551SOL     OW23551   6.128   2.891   6.595
 7551SOL    HW123552   6.183   2.896   6.678
 7551SOL    HW223553   6.127   2.797   6.560
 7552SOL     OW23554   2.781   6.697   4.329
 7552SOL    HW123555   2.846   6.718   4.256
 7552SOL    HW223556   2.819   6.627   4.389
 7553SOL     OW23557   6.563   0.091   5.552
 7553SOL    HW123558   6.531   0.185   5.556
 7553SOL    HW223559   6.518   0.043   5.477
 7554SOL     OW23560   4.977   1.954   1.867
 7554SOL    HW123561   4.984   2.029   1.932
 7554SOL    HW223562   5.003   1.868   1.913
 7555SOL     OW23563   5.012   5.961   4.148
 7555SOL    HW123564   5.092   5.978   4.206
 7555SOL    HW223565   5.040   5.909   4.068
 7556SOL     OW23566   0.654   5.978   0.862
 7556SOL    HW123567   0.739   5.969   0.810
 7556SOL    HW223568   0.636   6.075   0.879
 7557SOL     OW23569   4.260   6.024   0.198
 7557SOL    HW123570   4.251   6.042   0.100
 7557SOL    HW223571   4.293   5.931   0.212
 7558SOL     OW23572   1.616   1.464   4.115
 7558SOL    HW123573   1.653   1.552   4.088
 7558SOL    HW223574   1.646   1.393   4.051
 7559SOL     OW23575   1.327   6.750   4.932
 7559SOL    HW123576   1.380   6.720   5.011
 7559SOL    HW223577   1.355   6.699   4.851
 7560SOL     OW23578   0.902   0.817   5.426
 7560SOL    HW123579   0.900   0.794   5.329
 7560SOL    HW223580   0.970   0.889   5.441
 7561SOL     OW23581   5.260   1.523   5.774
 7561SOL    HW123582   5.222   1.485   5.858
 7561SOL    HW223583   5.186   1.555   5.715
 7562SOL     OW23584   1.933   5.547   3.686
 7562SOL    HW123585   1.974   5.542   3.777
 7562SOL    HW223586   1.887   5.635   3.675
 7563SOL     OW23587   2.856   6.350   3.245
 7563SOL    HW123588   2.883   6.368   3.340
 7563SOL    HW223589   2.776   6.406   3.222
 7564SOL     OW23590   5.562   3.641   6.156
 7564SOL    HW123591   5.589   3.570   6.090
 7564SOL    HW223592   5.510   3.600   6.230
 7565SOL     OW23593   6.563   3.755   5.709
 7565SOL    HW123594   6.657   3.733   5.734
 7565SOL    HW223595   6.508   3.671   5.712
 7566SOL     OW23596   5.135   4.267   1.615
 7566SOL    HW123597   5.064   4.262   1.544
 7566SOL    HW223598   5.099   4.230   1.701
 7567SOL     OW23599   1.459   0.326   2.691
 7567SOL    HW123600   1.518   0.319   2.771
 7567SOL    HW223601   1.381   0.384   2.712
 7568SOL     OW23602   0.249   4.206   1.174
 7568SOL    HW123603   0.280   4.111   1.171
 7568SOL    HW223604   0.201   4.223   1.260
 7569SOL     OW23605   4.562   3.838   1.269
 7569SOL    HW123606   4.555   3.921   1.324
 7569SOL    HW223607   4.642   3.843   1.210
 7570SOL     OW23608   0.948   2.260   1.685
 7570SOL    HW123609   0.902   2.185   1.638
 7570SOL    HW223610   0.997   2.316   1.619
 7571SOL     OW23611   5.344   1.813   3.729
 7571SOL    HW123612   5.378   1.799   3.636
 7571SOL    HW223613   5.301   1.729   3.762
 7572SOL     OW23614   4.694   6.902   2.275
 7572SOL    HW123615   4.637   6.961   2.333
 7572SOL    HW223616   4.785   6.895   2.314
 7573SOL     OW23617   3.327   0.091   6.097
 7573SOL    HW123618   3.396   0.150   6.056
 7573SOL    HW223619   3.255   0.148   6.137
 7574SOL     OW23620   1.127   3.341   2.891
 7574SOL    HW123621   1.172   3.399   2.822
 7574SOL    HW223622   1.034   3.373   2.906
 7575SOL     OW23623   6.865   0.075   6.868
 7575SOL    HW123624   6.868   0.107   6.773
 7575SOL    HW223625   6.816   0.141   6.924
 7576SOL     OW23626   4.947   3.042   6.997
 7576SOL    HW123627   5.043   3.064   7.013
 7576SOL    HW223628   4.894   3.126   6.987
 7577SOL     OW23629   0.186   0.283   5.675
 7577SOL    HW123630   0.237   0.202   5.646
 7577SOL    HW223631   0.248   0.360   5.685
 7578SOL     OW23632   6.055   5.457   2.303
 7578SOL    HW123633   5.961   5.491   2.294
 7578SOL    HW223634   6.061   5.364   2.267
 7579SOL     OW23635   1.289   1.631   6.547
 7579SOL    HW123636   1.343   1.564   6.498
 7579SOL    HW223637   1.319   1.636   6.642
 7580SOL     OW23638   2.457   5.103   2.437
 7580SOL    HW123639   2.489   5.138   2.349
 7580SOL    HW223640   2.485   5.008   2.449
 7581SOL     OW23641   0.515   0.032   0.982
 7581SOL    HW123642   0.461   6.973   0.952
 7581SOL    HW223643   0.611   0.019   0.955
 7582SOL     OW23644   1.544   0.581   5.731
 7582SOL    HW123645   1.569   0.557   5.824
 7582SOL    HW223646   1.558   0.502   5.671
 7583SOL     OW23647   5.901   3.950   2.680
 7583SOL    HW123648   5.858   3.859   2.676
 7583SOL    HW223649   5.832   4.018   2.706
 7584SOL     OW23650   0.287   1.102   3.584
 7584SOL    HW123651   0.199   1.149   3.579
 7584SOL    HW223652   0.349   1.156   3.641
 7585SOL     OW23653   0.753   0.959   6.094
 7585SOL    HW123654   0.778   0.956   5.998
 7585SOL    HW223655   0.836   0.954   6.150
 7586SOL     OW23656   2.044   6.605   3.780
 7586SOL    HW123657   2.054   6.634   3.685
 7586SOL    HW223658   2.130   6.617   3.828
 7587SOL     OW23659   5.841   0.650   2.367
 7587SOL    HW123660   5.750   0.630   2.402
 7587SOL    HW223661   5.909   0.597   2.418
 7588SOL     OW23662   2.133   3.516   4.539
 7588SOL    HW123663   2.186   3.543   4.619
 7588SOL    HW223664   2.114   3.596   4.483
 7589SOL     OW23665   6.404   6.698   2.053
 7589SOL    HW123666   6.378   6.614   2.006
 7589SOL    HW223667   6.323   6.746   2.085
 7590SOL     OW23668   5.600   0.765   6.645
 7590SOL    HW123669   5.661   0.697   6.604
 7590SOL    HW223670   5.506   0.732   6.644
 7591SOL     OW23671   3.791   4.160   5.063
 7591SOL    HW123672   3.793   4.171   4.964
 7591SOL    HW223673   3.863   4.097   5.091
 7592SOL     OW23674   6.990   6.918   3.082
 7592SOL    HW123675   0.013   6.939   2.994
 7592SOL    HW223676   6.946   7.000   3.119
 7593SOL     OW23677   6.726   1.926   6.227
 7593SOL    HW123678   6.725   2.026   6.235
 7593SOL    HW223679   6.641   1.889   6.264
 7594SOL     OW23680   6.440   4.101   6.141
 7594SOL    HW123681   6.459   4.176   6.077
 7594SOL    HW223682   6.443   4.014   6.093
 7595SOL     OW23683   0.435   3.514   0.433
 7595SOL    HW123684   0.432   3.613   0.414
 7595SOL    HW223685   0.517   3.493   0.486
 7596SOL     OW23686   3.276   1.777   6.649
 7596SOL    HW123687   3.178   1.797   6.640
 7596SOL    HW223688   3.298   1.763   6.745
 7597SOL     OW23689   2.580   4.732   0.206
 7597SOL    HW123690   2.568   4.787   0.289
 7597SOL    HW223691   2.655   4.771   0.151
 7598SOL     OW23692   4.698   0.689   2.526
 7598SOL    HW123693   4.739   0.636   2.452
 7598SOL    HW223694   4.771   0.725   2.586
 7599SOL     OW23695   2.812   3.130   0.319
 7599SOL    HW123696   2.826   3.177   0.406
 7599SOL    HW223697   2.796   3.197   0.247
 7600SOL     OW23698   0.693   6.730   3.967
 7600SOL    HW123699   0.708   6.670   4.045
 7600SOL    HW223700   0.738   6.817   3.983
 7601SOL     OW23701   2.968   6.111   1.003
 7601SOL    HW123702   3.052   6.062   1.028
 7601SOL    HW223703   2.901   6.048   0.966
 7602SOL     OW23704   0.187   1.018   1.411
 7602SOL    HW123705   0.095   0.979   1.415
 7602SOL    HW223706   0.181   1.118   1.411
 7603SOL     OW23707   4.229   0.868   6.662
 7603SOL    HW123708   4.220   0.851   6.564
 7603SOL    HW223709   4.270   0.788   6.706
 7604SOL     OW23710   2.552   2.047   5.678
 7604SOL    HW123711   2.606   2.064   5.595
 7604SOL    HW223712   2.471   2.106   5.677
 7605SOL     OW23713   2.704   6.176   6.553
 7605SOL    HW123714   2.802   6.179   6.539
 7605SOL    HW223715   2.681   6.101   6.615
 7606SOL     OW23716   6.504   1.168   3.576
 7606SOL    HW123717   6.533   1.137   3.486
 7606SOL    HW223718   6.412   1.135   3.595
 7607SOL     OW23719   1.761   5.461   5.393
 7607SOL    HW123720   1.817   5.454   5.476
 7607SOL    HW223721   1.711   5.376   5.379
 7608SOL     OW23722   0.636   2.753   6.333
 7608SOL    HW123723   0.658   2.789   6.242
 7608SOL    HW223724   0.670   2.659   6.341
 7609SOL     OW23725   3.074   0.159   5.103
 7609SOL    HW123726   3.000   0.198   5.049
 7609SOL    HW223727   3.037   0.088   5.163
 7610SOL     OW23728   4.480   5.806   4.784
 7610SOL    HW123729   4.572   5.830   4.817
 7610SOL    HW223730   4.430   5.759   4.857
 7611SOL     OW23731   4.443   2.252   0.112
 7611SOL    HW123732   4.409   2.186   0.179
 7611SOL    HW223733   4.396   2.340   0.125
 7612SOL     OW23734   4.889   3.165   2.209
 7612SOL    HW123735   4.838   3.117   2.137
 7612SOL    HW223736   4.837   3.245   2.239
 7613SOL     OW23737   6.827   0.676   6.728
 7613SOL    HW123738   6.886   0.627   6.792
 7613SOL    HW223739   6.797   0.762   6.770
 7614SOL     OW23740   5.792   5.195   6.570
 7614SOL    HW123741   5.695   5.175   6.555
 7614SOL    HW223742   5.841   5.191   6.482
 7615SOL     OW23743   5.086   3.195   6.551
 7615SOL    HW123744   5.090   3.291   6.525
 7615SOL    HW223745   4.998   3.176   6.594
 7616SOL     OW23746   6.314   6.662   1.679
 7616SOL    HW123747   6.371   6.734   1.720
 7616SOL    HW223748   6.237   6.641   1.740
 7617SOL     OW23749   5.587   4.626   3.024
 7617SOL    HW123750   5.620   4.634   3.119
 7617SOL    HW223751   5.591   4.716   2.981
 7618SOL     OW23752   2.773   2.450   0.153
 7618SOL    HW123753   2.819   2.484   0.071
 7618SOL    HW223754   2.741   2.357   0.136
 7619SOL     OW23755   0.274   0.534   4.810
 7619SOL    HW123756   0.304   0.612   4.756
 7619SOL    HW223757   0.202   0.485   4.761
 7620SOL     OW23758   3.169   4.081   0.518
 7620SOL    HW123759   3.260   4.049   0.545
 7620SOL    HW223760   3.143   4.036   0.433
 7621SOL     OW23761   5.862   4.671   0.717
 7621SOL    HW123762   5.836   4.713   0.630
 7621SOL    HW223763   5.895   4.742   0.780
 7622SOL     OW23764   2.420   3.785   0.588
 7622SOL    HW123765   2.466   3.842   0.657
 7622SOL    HW223766   2.486   3.753   0.521
 7623SOL     OW23767   5.045   5.144   3.336
 7623SOL    HW123768   5.039   5.056   3.287
 7623SOL    HW223769   5.061   5.217   3.270
 7624SOL     OW23770   6.881   2.725   2.877
 7624SOL    HW123771   6.876   2.755   2.972
 7624SOL    HW223772   6.963   2.764   2.834
 7625SOL     OW23773   4.808   0.577   2.285
 7625SOL    HW123774   4.906   0.557   2.276
 7625SOL    HW223775   4.783   0.650   2.221
 7626SOL     OW23776   4.584   6.290   0.462
 7626SOL    HW123777   4.560   6.387   0.455
 7626SOL    HW223778   4.602   6.268   0.558
 7627SOL     OW23779   4.532   2.679   5.613
 7627SOL    HW123780   4.438   2.705   5.594
 7627SOL    HW223781   4.536   2.582   5.639
 7628SOL     OW23782   3.642   2.764   0.896
 7628SOL    HW123783   3.698   2.684   0.917
 7628SOL    HW223784   3.546   2.736   0.884
 7629SOL     OW23785   6.014   2.818   4.077
 7629SOL    HW123786   6.024   2.723   4.046
 7629SOL    HW223787   5.945   2.864   4.021
 7630SOL     OW23788   1.439   5.979   3.915
 7630SOL    HW123789   1.437   6.020   3.824
 7630SOL    HW223790   1.521   5.922   3.925
 7631SOL     OW23791   1.376   1.026   6.582
 7631SOL    HW123792   1.361   1.102   6.518
 7631SOL    HW223793   1.289   1.002   6.624
 7632SOL     OW23794   4.187   5.586   1.186
 7632SOL    HW123795   4.114   5.549   1.244
 7632SOL    HW223796   4.271   5.532   1.200
 7633SOL     OW23797   5.090   0.540   2.294
 7633SOL    HW123798   5.140   0.464   2.252
 7633SOL    HW223799   5.113   0.625   2.247
 7634SOL     OW23800   0.540   2.096   0.019
 7634SOL    HW123801   0.555   2.194   0.033
 7634SOL    HW223802   0.532   2.051   0.108
 7635SOL     OW23803   1.858   2.966   5.738
 7635SOL    HW123804   1.769   2.924   5.752
 7635SOL    HW223805   1.847   3.064   5.722
 7636SOL     OW23806   0.004   3.033   3.451
 7636SOL    HW123807   0.040   3.101   3.515
 7636SOL    HW223808   0.079   2.996   3.396
 7637SOL     OW23809   1.893   4.071   4.712
 7637SOL    HW123810   1.861   4.140   4.777
 7637SOL    HW223811   1.972   4.023   4.751
 7638SOL     OW23812   6.898   6.883   0.673
 7638SOL    HW123813   6.936   6.971   0.702
 7638SOL    HW223814   6.799   6.891   0.662
 7639SOL     OW23815   2.333   6.058   0.576
 7639SOL    HW123816   2.377   5.997   0.510
 7639SOL    HW223817   2.368   6.040   0.668
 7640SOL     OW23818   3.476   0.302   0.870
 7640SOL    HW123819   3.400   0.246   0.838
 7640SOL    HW223820   3.498   0.278   0.964
 7641SOL     OW23821   6.283   4.159   5.646
 7641SOL    HW123822   6.190   4.131   5.668
 7641SOL    HW223823   6.337   4.078   5.620
 7642SOL     OW23824   5.682   1.121   3.821
 7642SOL    HW123825   5.666   1.094   3.726
 7642SOL    HW223826   5.780   1.140   3.834
 7643SOL     OW23827   5.069   2.231   3.941
 7643SOL    HW123828   4.995   2.170   3.969
 7643SOL    HW223829   5.142   2.177   3.898
 7644SOL     OW23830   5.410   4.006   0.413
 7644SOL    HW123831   5.421   3.950   0.331
 7644SOL    HW223832   5.467   3.970   0.487
 7645SOL     OW23833   5.505   4.498   6.254
 7645SOL    HW123834   5.485   4.401   6.242
 7645SOL    HW223835   5.518   4.518   6.351
 7646SOL     OW23836   6.535   1.347   2.648
 7646SOL    HW123837   6.462   1.317   2.586
 7646SOL    HW223838   6.566   1.268   2.702
 7647SOL     OW23839   6.913   1.903   4.157
 7647SOL    HW123840   6.918   1.886   4.059
 7647SOL    HW223841   6.994   1.953   4.187
 7648SOL     OW23842   1.731   2.507   0.792
 7648SOL    HW123843   1.695   2.596   0.822
 7648SOL    HW223844   1.812   2.484   0.846
 7649SOL     OW23845   4.452   0.746   0.713
 7649SOL    HW123846   4.371   0.699   0.748
 7649SOL    HW223847   4.473   0.713   0.621
 7650SOL     OW23848   3.680   2.855   0.240
 7650SOL    HW123849   3.619   2.806   0.177
 7650SOL    HW223850   3.774   2.848   0.207
 7651SOL     OW23851   3.875   5.684   6.297
 7651SOL    HW123852   3.895   5.609   6.233
 7651SOL    HW223853   3.848   5.766   6.245
 7652SOL     OW23854   0.396   0.990   4.873
 7652SOL    HW123855   0.493   1.010   4.862
 7652SOL    HW223856   0.372   0.990   4.970
 7653SOL     OW23857   1.998   6.723   5.990
 7653SOL    HW123858   1.965   6.661   6.062
 7653SOL    HW223859   2.083   6.687   5.952
 7654SOL     OW23860   6.643   2.686   5.683
 7654SOL    HW123861   6.742   2.675   5.674
 7654SOL    HW223862   6.605   2.608   5.734
 7655SOL     OW23863   2.707   1.854   5.432
 7655SOL    HW123864   2.674   1.948   5.429
 7655SOL    HW223865   2.672   1.804   5.353
 7656SOL     OW23866   6.485   3.550   0.195
 7656SOL    HW123867   6.420   3.490   0.242
 7656SOL    HW223868   6.577   3.533   0.230
 7657SOL     OW23869   1.279   4.092   4.805
 7657SOL    HW123870   1.247   4.156   4.736
 7657SOL    HW223871   1.209   4.023   4.823
 7658SOL     OW23872   2.863   0.520   1.059
 7658SOL    HW123873   2.774   0.495   1.020
 7658SOL    HW223874   2.923   0.440   1.059
 7659SOL     OW23875   5.290   4.409   5.157
 7659SOL    HW123876   5.220   4.465   5.111
 7659SOL    HW223877   5.260   4.314   5.160
 7660SOL     OW23878   6.988   6.294   4.785
 7660SOL    HW123879   6.956   6.239   4.862
 7660SOL    HW223880   0.001   6.382   4.819
 7661SOL     OW23881   1.801   0.382   4.757
 7661SOL    HW123882   1.871   0.375   4.828
 7661SOL    HW223883   1.758   0.472   4.761
 7662SOL     OW23884   6.747   6.683   1.617
 7662SOL    HW123885   6.799   6.601   1.639
 7662SOL    HW223886   6.684   6.704   1.693
 7663SOL     OW23887   1.805   5.781   3.679
 7663SOL    HW123888   1.735   5.758   3.612
 7663SOL    HW223889   1.763   5.796   3.768
 7664SOL     OW23890   5.747   2.302   3.157
 7664SOL    HW123891   5.820   2.258   3.105
 7664SOL    HW223892   5.699   2.234   3.212
 7665SOL     OW23893   1.565   6.696   5.048
 7665SOL    HW123894   1.598   6.660   5.136
 7665SOL    HW223895   1.588   6.631   4.976
 7666SOL     OW23896   6.608   5.058   4.350
 7666SOL    HW123897   6.638   4.962   4.358
 7666SOL    HW223898   6.650   5.112   4.422
 7667SOL     OW23899   4.384   5.400   1.200
 7667SOL    HW123900   4.317   5.341   1.247
 7667SOL    HW223901   4.453   5.344   1.156
 7668SOL     OW23902   1.826   5.324   0.639
 7668SOL    HW123903   1.886   5.398   0.608
 7668SOL    HW223904   1.881   5.249   0.676
 7669SOL     OW23905   4.226   2.424   6.603
 7669SOL    HW123906   4.218   2.483   6.683
 7669SOL    HW223907   4.137   2.412   6.561
 7670SOL     OW23908   1.257   0.433   0.811
 7670SOL    HW123909   1.237   0.471   0.901
 7670SOL    HW223910   1.233   0.336   0.809
 7671SOL     OW23911   3.577   1.139   1.962
 7671SOL    HW123912   3.517   1.218   1.946
 7671SOL    HW223913   3.604   1.099   1.874
 7672SOL     OW23914   5.802   2.839   2.984
 7672SOL    HW123915   5.710   2.866   3.015
 7672SOL    HW223916   5.794   2.770   2.912
 7673SOL     OW23917   1.817   6.251   5.209
 7673SOL    HW123918   1.915   6.242   5.224
 7673SOL    HW223919   1.778   6.162   5.184
 7674SOL     OW23920   3.724   5.345   3.857
 7674SOL    HW123921   3.637   5.393   3.859
 7674SOL    HW223922   3.738   5.305   3.766
 7675SOL     OW23923   3.668   6.747   3.056
 7675SOL    HW123924   3.667   6.717   3.151
 7675SOL    HW223925   3.743   6.702   3.007
 7676SOL     OW23926   3.278   2.961   4.295
 7676SOL    HW123927   3.272   2.869   4.256
 7676SOL    HW223928   3.355   3.009   4.253
 7677SOL     OW23929   0.335   6.629   0.700
 7677SOL    HW123930   0.329   6.539   0.744
 7677SOL    HW223931   0.259   6.639   0.635
 7678SOL     OW23932   3.084   1.128   5.353
 7678SOL    HW123933   3.094   1.066   5.431
 7678SOL    HW223934   3.174   1.165   5.328
 7679SOL     OW23935   3.277   5.870   3.994
 7679SOL    HW123936   3.372   5.883   4.020
 7679SOL    HW223937   3.253   5.933   3.920
 7680SOL     OW23938   1.149   6.195   4.057
 7680SOL    HW123939   1.215   6.265   4.080
 7680SOL    HW223940   1.063   6.212   4.104
 7681SOL     OW23941   1.965   1.851   5.946
 7681SOL    HW123942   2.023   1.923   5.983
 7681SOL    HW223943   1.952   1.865   5.848
 7682SOL     OW23944   3.177   0.168   1.791
 7682SOL    HW123945   3.276   0.182   1.789
 7682SOL    HW223946   3.132   0.254   1.816
 7683SOL     OW23947   1.651   4.223   4.157
 7683SOL    HW123948   1.700   4.301   4.119
 7683SOL    HW223949   1.584   4.190   4.090
 7684SOL     OW23950   4.903   3.522   1.540
 7684SOL    HW123951   4.886   3.591   1.470
 7684SOL    HW223952   4.888   3.563   1.631
 7685SOL     OW23953   2.188   0.222   6.992
 7685SOL    HW123954   2.192   0.313   6.950
 7685SOL    HW223955   2.126   0.164   6.940
 7686SOL     OW23956   6.101   0.897   4.939
 7686SOL    HW123957   6.160   0.876   4.861
 7686SOL    HW223958   6.019   0.840   4.936
 7687SOL     OW23959   5.841   3.843   5.355
 7687SOL    HW123960   5.754   3.796   5.357
 7687SOL    HW223961   5.852   3.897   5.439
 7688SOL     OW23962   6.718   3.084   0.762
 7688SOL    HW123963   6.818   3.083   0.758
 7688SOL    HW223964   6.680   3.043   0.679
 7689SOL     OW23965   5.263   6.787   3.076
 7689SOL    HW123966   5.184   6.848   3.077
 7689SOL    HW223967   5.247   6.712   3.011
 7690SOL     OW23968   6.209   4.244   2.275
 7690SOL    HW123969   6.119   4.239   2.232
 7690SOL    HW223970   6.266   4.169   2.242
 7691SOL     OW23971   5.141   2.932   4.175
 7691SOL    HW123972   5.050   2.893   4.183
 7691SOL    HW223973   5.204   2.864   4.137
 7692SOL     OW23974   2.022   6.415   2.172
 7692SOL    HW123975   1.938   6.447   2.128
 7692SOL    HW223976   2.101   6.462   2.132
 7693SOL     OW23977   2.422   2.268   0.891
 7693SOL    HW123978   2.402   2.350   0.837
 7693SOL    HW223979   2.521   2.262   0.907
 7694SOL     OW23980   4.430   2.648   1.346
 7694SOL    HW123981   4.365   2.573   1.356
 7694SOL    HW223982   4.495   2.646   1.422
 7695SOL     OW23983   5.065   6.866   3.984
 7695SOL    HW123984   5.127   6.843   3.909
 7695SOL    HW223985   4.973   6.835   3.961
 7696SOL     OW23986   2.322   1.135   5.485
 7696SOL    HW123987   2.265   1.118   5.405
 7696SOL    HW223988   2.265   1.137   5.567
 7697SOL     OW23989   5.749   6.804   3.101
 7697SOL    HW123990   5.777   6.709   3.114
 7697SOL    HW223991   5.828   6.859   3.076
 7698SOL     OW23992   5.836   1.797   1.426
 7698SOL    HW123993   5.881   1.711   1.405
 7698SOL    HW223994   5.863   1.867   1.360
 7699SOL     OW23995   3.943   5.937   6.047
 7699SOL    HW123996   3.952   5.867   5.976
 7699SOL    HW223997   3.850   5.937   6.082
 7700SOL     OW23998   5.933   4.728   1.535
 7700SOL    HW123999   5.888   4.674   1.607
 7700SOL    HW224000   5.869   4.798   1.502
 7701SOL     OW24001   3.348   2.018   6.426
 7701SOL    HW124002   3.321   1.947   6.490
 7701SOL    HW224003   3.417   1.983   6.363
 7702SOL     OW24004   5.993   6.485   5.874
 7702SOL    HW124005   5.927   6.502   5.948
 7702SOL    HW224006   6.010   6.387   5.868
 7703SOL     OW24007   0.489   6.056   0.212
 7703SOL    HW124008   0.559   6.048   0.283
 7703SOL    HW224009   0.532   6.079   0.125
 7704SOL     OW24010   1.568   2.726   4.891
 7704SOL    HW124011   1.606   2.656   4.831
 7704SOL    HW224012   1.549   2.686   4.981
 7705SOL     OW24013   0.985   4.207   0.508
 7705SOL    HW124014   1.072   4.165   0.481
 7705SOL    HW224015   0.967   4.285   0.449
 7706SOL     OW24016   3.456   3.677   1.908
 7706SOL    HW124017   3.537   3.619   1.896
 7706SOL    HW224018   3.415   3.659   1.998
 7707SOL     OW24019   6.819   5.442   5.627
 7707SOL    HW124020   6.902   5.491   5.655
 7707SOL    HW224021   6.771   5.496   5.558
 7708SOL     OW24022   0.713   0.221   3.610
 7708SOL    HW124023   0.637   0.186   3.665
 7708SOL    HW224024   0.776   0.273   3.667
 7709SOL     OW24025   6.683   4.479   1.294
 7709SOL    HW124026   6.641   4.420   1.225
 7709SOL    HW224027   6.662   4.444   1.385
 7710SOL     OW24028   6.174   3.534   2.760
 7710SOL    HW124029   6.096   3.534   2.698
 7710SOL    HW224030   6.196   3.628   2.787
 7711SOL     OW24031   1.268   4.841   3.190
 7711SOL    HW124032   1.299   4.770   3.253
 7711SOL    HW224033   1.170   4.833   3.176
 7712SOL     OW24034   1.230   4.358   4.698
 7712SOL    HW124035   1.174   4.346   4.780
 7712SOL    HW224036   1.252   4.454   4.686
 7713SOL     OW24037   0.646   5.863   7.008
 7713SOL    HW124038   0.562   5.831   6.965
 7713SOL    HW224039   0.694   5.924   6.946
 7714SOL     OW24040   5.778   1.793   4.892
 7714SOL    HW124041   5.840   1.723   4.928
 7714SOL    HW224042   5.788   1.799   4.793
 7715SOL     OW24043   3.913   3.566   6.484
 7715SOL    HW124044   3.949   3.570   6.578
 7715SOL    HW224045   3.839   3.633   6.474
 7716SOL     OW24046   1.844   0.907   0.160
 7716SOL    HW124047   1.801   0.901   0.070
 7716SOL    HW224048   1.775   0.930   0.229
 7717SOL     OW24049   0.704   2.020   5.912
 7717SOL    HW124050   0.772   1.947   5.924
 7717SOL    HW224051   0.618   1.992   5.954
 7718SOL     OW24052   0.550   3.693   3.547
 7718SOL    HW124053   0.606   3.713   3.466
 7718SOL    HW224054   0.523   3.779   3.591
 7719SOL     OW24055   2.284   6.640   5.087
 7719SOL    HW124056   2.365   6.628   5.029
 7719SOL    HW224057   2.275   6.561   5.148
 7720SOL     OW24058   4.717   0.986   6.259
 7720SOL    HW124059   4.697   1.082   6.241
 7720SOL    HW224060   4.648   0.949   6.322
 7721SOL     OW24061   5.509   5.726   2.564
 7721SOL    HW124062   5.568   5.645   2.568
 7721SOL    HW224063   5.536   5.784   2.487
 7722SOL     OW24064   0.129   6.414   4.558
 7722SOL    HW124065   0.078   6.362   4.627
 7722SOL    HW224066   0.226   6.395   4.567
 7723SOL     OW24067   3.729   4.313   6.243
 7723SOL    HW124068   3.759   4.313   6.339
 7723SOL    HW224069   3.675   4.396   6.226
 7724SOL     OW24070   0.984   4.147   6.749
 7724SOL    HW124071   0.986   4.061   6.697
 7724SOL    HW224072   1.037   4.216   6.701
 7725SOL     OW24073   5.340   3.347   4.764
 7725SOL    HW124074   5.303   3.429   4.808
 7725SOL    HW224075   5.436   3.362   4.741
 7726SOL     OW24076   1.585   2.959   0.780
 7726SOL    HW124077   1.622   2.964   0.873
 7726SOL    HW224078   1.661   2.961   0.715
 7727SOL     OW24079   5.953   0.069   3.062
 7727SOL    HW124080   5.964   0.156   3.108
 7727SOL    HW224081   5.966   7.014   3.127
 7728SOL     OW24082   2.071   3.191   5.524
 7728SOL    HW124083   2.108   3.256   5.591
 7728SOL    HW224084   1.986   3.152   5.561
 7729SOL     OW24085   0.333   0.922   2.845
 7729SOL    HW124086   0.364   0.945   2.753
 7729SOL    HW224087   0.275   0.841   2.841
 7730SOL     OW24088   5.962   3.188   6.664
 7730SOL    HW124089   5.915   3.100   6.670
 7730SOL    HW224090   6.022   3.189   6.584
 7731SOL     OW24091   0.124   0.866   5.826
 7731SOL    HW124092   0.131   0.826   5.918
 7731SOL    HW224093   0.062   0.811   5.771
 7732SOL     OW24094   3.943   1.118   0.417
 7732SOL    HW124095   3.949   1.218   0.418
 7732SOL    HW224096   3.907   1.087   0.329
 7733SOL     OW24097   5.638   6.094   1.496
 7733SOL    HW124098   5.571   6.169   1.497
 7733SOL    HW224099   5.718   6.121   1.443
 7734SOL     OW24100   3.376   3.907   3.965
 7734SOL    HW124101   3.283   3.901   4.001
 7734SOL    HW224102   3.385   3.849   3.884
 7735SOL     OW24103   0.665   5.501   0.606
 7735SOL    HW124104   0.634   5.547   0.689
 7735SOL    HW224105   0.761   5.476   0.616
 7736SOL     OW24106   2.017   1.741   0.728
 7736SOL    HW124107   2.013   1.673   0.654
 7736SOL    HW224108   1.993   1.697   0.814
 7737SOL     OW24109   4.805   4.467   6.409
 7737SOL    HW124110   4.833   4.440   6.317
 7737SOL    HW224111   4.716   4.512   6.405
 7738SOL     OW24112   1.778   0.904   5.499
 7738SOL    HW124113   1.774   0.835   5.572
 7738SOL    HW224114   1.854   0.883   5.439
 7739SOL     OW24115   0.833   2.938   6.158
 7739SOL    HW124116   0.810   3.025   6.114
 7739SOL    HW224117   0.913   2.950   6.217
 7740SOL     OW24118   2.234   0.332   3.978
 7740SOL    HW124119   2.273   0.326   4.070
 7740SOL    HW224120   2.149   0.384   3.982
 7741SOL     OW24121   6.129   4.361   6.223
 7741SOL    HW124122   6.137   4.280   6.164
 7741SOL    HW224123   6.211   4.418   6.211
 7742SOL     OW24124   4.685   2.639   4.069
 7742SOL    HW124125   4.649   2.675   3.983
 7742SOL    HW224126   4.747   2.562   4.050
 7743SOL     OW24127   3.616   0.972   6.071
 7743SOL    HW124128   3.685   0.900   6.071
 7743SOL    HW224129   3.526   0.930   6.084
 7744SOL     OW24130   0.120   5.971   4.703
 7744SOL    HW124131   0.029   5.993   4.737
 7744SOL    HW224132   0.119   5.969   4.603
 7745SOL     OW24133   2.878   0.099   0.440
 7745SOL    HW124134   2.857   0.152   0.522
 7745SOL    HW224135   2.847   0.005   0.452
 7746SOL     OW24136   6.724   6.168   1.032
 7746SOL    HW124137   6.790   6.240   1.011
 7746SOL    HW224138   6.647   6.206   1.083
 7747SOL     OW24139   6.876   5.899   0.628
 7747SOL    HW124140   6.961   5.939   0.663
 7747SOL    HW224141   6.837   5.839   0.697
 7748SOL     OW24142   4.569   1.351   5.697
 7748SOL    HW124143   4.474   1.382   5.704
 7748SOL    HW224144   4.570   1.257   5.664
 7749SOL     OW24145   3.106   3.798   2.456
 7749SOL    HW124146   3.063   3.743   2.528
 7749SOL    HW224147   3.124   3.741   2.376
 7750SOL     OW24148   5.377   3.976   5.817
 7750SOL    HW124149   5.315   3.935   5.751
 7750SOL    HW224150   5.379   3.921   5.901
 7751SOL     OW24151   0.483   1.570   4.406
 7751SOL    HW124152   0.423   1.627   4.350
 7751SOL    HW224153   0.434   1.539   4.487
 7752SOL     OW24154   5.538   4.204   6.188
 7752SOL    HW124155   5.510   4.202   6.092
 7752SOL    HW224156   5.525   4.113   6.228
 7753SOL     OW24157   2.214   1.117   4.941
 7753SOL    HW124158   2.193   1.205   4.899
 7753SOL    HW224159   2.279   1.130   5.015
 7754SOL     OW24160   6.552   1.388   0.644
 7754SOL    HW124161   6.650   1.400   0.627
 7754SOL    HW224162   6.535   1.294   0.674
 7755SOL     OW24163   1.439   6.152   5.462
 7755SOL    HW124164   1.403   6.191   5.377
 7755SOL    HW224165   1.538   6.160   5.463
 7756SOL     OW24166   3.523   6.501   2.726
 7756SOL    HW124167   3.552   6.410   2.695
 7756SOL    HW224168   3.434   6.494   2.771
 7757SOL     OW24169   3.341   1.337   5.284
 7757SOL    HW124170   3.386   1.396   5.216
 7757SOL    HW224171   3.268   1.389   5.329
 7758SOL     OW24172   2.681   1.162   6.246
 7758SOL    HW124173   2.607   1.106   6.208
 7758SOL    HW224174   2.768   1.133   6.205
 7759SOL     OW24175   2.210   6.799   4.698
 7759SOL    HW124176   2.164   6.766   4.780
 7759SOL    HW224177   2.148   6.858   4.647
 7760SOL     OW24178   5.483   1.698   2.753
 7760SOL    HW124179   5.567   1.751   2.752
 7760SOL    HW224180   5.407   1.755   2.722
 7761SOL     OW24181   4.584   0.721   6.960
 7761SOL    HW124182   4.660   0.657   6.963
 7761SOL    HW224183   4.596   0.789   0.012
 7762SOL     OW24184   1.866   2.238   0.812
 7762SOL    HW124185   1.840   2.278   0.724
 7762SOL    HW224186   1.950   2.185   0.801
 7763SOL     OW24187   2.038   2.948   0.674
 7763SOL    HW124188   2.052   3.000   0.759
 7763SOL    HW224189   2.089   2.862   0.680
 7764SOL     OW24190   3.573   3.373   2.058
 7764SOL    HW124191   3.603   3.288   2.100
 7764SOL    HW224192   3.491   3.406   2.104
 7765SOL     OW24193   0.767   1.744   2.038
 7765SOL    HW124194   0.685   1.802   2.039
 7765SOL    HW224195   0.829   1.772   2.110
 7766SOL     OW24196   6.727   3.486   0.275
 7766SOL    HW124197   6.781   3.402   0.285
 7766SOL    HW224198   6.780   3.553   0.223
 7767SOL     OW24199   6.101   3.825   4.706
 7767SOL    HW124200   6.091   3.903   4.768
 7767SOL    HW224201   6.178   3.841   4.644
 7768SOL     OW24202   4.226   5.180   1.301
 7768SOL    HW124203   4.222   5.144   1.208
 7768SOL    HW224204   4.133   5.196   1.335
 7769SOL     OW24205   4.901   1.563   3.758
 7769SOL    HW124206   4.888   1.574   3.856
 7769SOL    HW224207   4.891   1.467   3.733
 7770SOL     OW24208   2.870   6.607   1.316
 7770SOL    HW124209   2.785   6.577   1.274
 7770SOL    HW224210   2.852   6.688   1.373
 7771SOL     OW24211   2.149   0.689   4.328
 7771SOL    HW124212   2.058   0.648   4.320
 7771SOL    HW224213   2.218   0.617   4.329
 7772SOL     OW24214   5.534   0.851   5.948
 7772SOL    HW124215   5.558   0.947   5.958
 7772SOL    HW224216   5.438   0.837   5.969
 7773SOL     OW24217   4.143   4.481   6.174
 7773SOL    HW124218   4.099   4.400   6.134
 7773SOL    HW224219   4.230   4.497   6.129
 7774SOL     OW24220   4.153   1.384   0.177
 7774SOL    HW124221   4.087   1.352   0.246
 7774SOL    HW224222   4.210   1.307   0.148
 7775SOL     OW24223   0.935   6.537   1.493
 7775SOL    HW124224   0.921   6.438   1.502
 7775SOL    HW224225   0.932   6.562   1.396
 7776SOL     OW24226   2.901   4.405   1.154
 7776SOL    HW124227   2.993   4.422   1.189
 7776SOL    HW224228   2.900   4.416   1.055
 7777SOL     OW24229   0.370   0.546   6.824
 7777SOL    HW124230   0.290   0.485   6.821
 7777SOL    HW224231   0.355   0.624   6.764
 7778SOL     OW24232   5.070   2.271   2.508
 7778SOL    HW124233   5.017   2.351   2.534
 7778SOL    HW224234   5.015   2.189   2.522
 7779SOL     OW24235   4.490   3.172   0.415
 7779SOL    HW124236   4.516   3.267   0.395
 7779SOL    HW224237   4.391   3.167   0.429
 7780SOL     OW24238   1.741   0.565   4.291
 7780SOL    HW124239   1.649   0.539   4.321
 7780SOL    HW224240   1.745   0.664   4.280
 7781SOL     OW24241   2.421   4.068   5.549
 7781SOL    HW124242   2.364   4.047   5.627
 7781SOL    HW224243   2.364   4.100   5.473
 7782SOL     OW24244   5.128   4.668   0.109
 7782SOL    HW124245   5.084   4.598   0.165
 7782SOL    HW224246   5.168   4.625   0.028
 7783SOL     OW24247   3.466   6.058   6.706
 7783SOL    HW124248   3.411   6.039   6.788
 7783SOL    HW224249   3.560   6.081   6.734
 7784SOL     OW24250   6.573   3.208   0.350
 7784SOL    HW124251   6.575   3.249   0.442
 7784SOL    HW224252   6.502   3.138   0.346
 7785SOL     OW24253   1.580   6.489   6.036
 7785SOL    HW124254   1.483   6.486   6.059
 7785SOL    HW224255   1.597   6.567   5.975
 7786SOL     OW24256   4.015   4.029   5.162
 7786SOL    HW124257   3.978   3.966   5.094
 7786SOL    HW224258   4.073   3.979   5.226
 7787SOL     OW24259   3.225   1.990   5.702
 7787SOL    HW124260   3.274   1.995   5.789
 7787SOL    HW224261   3.288   2.009   5.626
 7788SOL     OW24262   6.780   2.417   1.545
 7788SOL    HW124263   6.803   2.429   1.642
 7788SOL    HW224264   6.817   2.330   1.512
 7789SOL     OW24265   0.613   0.390   1.687
 7789SOL    HW124266   0.642   0.302   1.649
 7789SOL    HW224267   0.690   0.432   1.736
 7790SOL     OW24268   6.938   3.622   2.936
 7790SOL    HW124269   6.992   3.667   2.865
 7790SOL    HW224270   6.895   3.691   2.994
 7791SOL     OW24271   6.857   5.764   6.046
 7791SOL    HW124272   6.934   5.827   6.055
 7791SOL    HW224273   6.808   5.758   6.133
 7792SOL     OW24274   1.405   6.018   6.525
 7792SOL    HW124275   1.389   5.994   6.621
 7792SOL    HW224276   1.317   6.029   6.479
 7793SOL     OW24277   2.402   0.166   6.432
 7793SOL    HW124278   2.388   0.238   6.363
 7793SOL    HW224279   2.414   0.208   6.522
 7794SOL     OW24280   5.132   4.809   2.830
 7794SOL    HW124281   5.042   4.840   2.801
 7794SOL    HW224282   5.176   4.760   2.754
 7795SOL     OW24283   2.245   3.931   6.195
 7795SOL    HW124284   2.289   4.020   6.211
 7795SOL    HW224285   2.306   3.872   6.143
 7796SOL     OW24286   4.043   3.794   3.704
 7796SOL    HW124287   4.032   3.803   3.605
 7796SOL    HW224288   4.000   3.871   3.749
 7797SOL     OW24289   1.479   6.093   3.669
 7797SOL    HW124290   1.537   6.110   3.589
 7797SOL    HW224291   1.396   6.148   3.662
 7798SOL     OW24292   5.186   5.390   6.142
 7798SOL    HW124293   5.147   5.382   6.051
 7798SOL    HW224294   5.113   5.413   6.207
 7799SOL     OW24295   5.784   5.912   1.141
 7799SOL    HW124296   5.686   5.931   1.140
 7799SOL    HW224297   5.833   5.994   1.169
 7800SOL     OW24298   0.837   6.466   2.534
 7800SOL    HW124299   0.891   6.400   2.586
 7800SOL    HW224300   0.856   6.454   2.436
 7801SOL     OW24301   4.181   2.386   5.484
 7801SOL    HW124302   4.101   2.331   5.460
 7801SOL    HW224303   4.216   2.358   5.573
 7802SOL     OW24304   5.719   2.201   6.376
 7802SOL    HW124305   5.747   2.244   6.290
 7802SOL    HW224306   5.725   2.269   6.450
 7803SOL     OW24307   3.316   3.163   5.937
 7803SOL    HW124308   3.411   3.160   5.908
 7803SOL    HW224309   3.288   3.258   5.952
 7804SOL     OW24310   4.771   0.732   5.659
 7804SOL    HW124311   4.853   0.716   5.604
 7804SOL    HW224312   4.793   0.721   5.756
 7805SOL     OW24313   5.457   3.010   1.894
 7805SOL    HW124314   5.483   3.058   1.810
 7805SOL    HW224315   5.403   2.929   1.871
 7806SOL     OW24316   5.183   2.512   0.662
 7806SOL    HW124317   5.242   2.540   0.586
 7806SOL    HW224318   5.220   2.547   0.748
 7807SOL     OW24319   0.786   4.392   6.540
 7807SOL    HW124320   0.807   4.324   6.470
 7807SOL    HW224321   0.857   4.463   6.541
 7808SOL     OW24322   0.140   1.804   4.802
 7808SOL    HW124323   0.130   1.881   4.740
 7808SOL    HW224324   0.137   1.837   4.896
 7809SOL     OW24325   1.258   5.862   5.705
 7809SOL    HW124326   1.354   5.884   5.688
 7809SOL    HW224327   1.252   5.807   5.789
 7810SOL     OW24328   3.078   1.240   0.215
 7810SOL    HW124329   3.160   1.245   0.159
 7810SOL    HW224330   3.094   1.287   0.302
 7811SOL     OW24331   6.432   4.358   5.118
 7811SOL    HW124332   6.451   4.274   5.066
 7811SOL    HW224333   6.334   4.368   5.131
 7812SOL     OW24334   1.180   1.771   3.795
 7812SOL    HW124335   1.175   1.718   3.711
 7812SOL    HW224336   1.094   1.761   3.846
 7813SOL     OW24337   5.631   1.197   1.583
 7813SOL    HW124338   5.584   1.161   1.663
 7813SOL    HW224339   5.589   1.284   1.556
 7814SOL     OW24340   1.924   2.963   3.676
 7814SOL    HW124341   1.856   2.988   3.607
 7814SOL    HW224342   1.946   2.866   3.667
 7815SOL     OW24343   6.717   2.256   5.133
 7815SOL    HW124344   6.666   2.336   5.101
 7815SOL    HW224345   6.763   2.278   5.219
 7816SOL     OW24346   0.160   4.622   5.137
 7816SOL    HW124347   0.095   4.546   5.143
 7816SOL    HW224348   0.237   4.605   5.198
 7817SOL     OW24349   5.502   2.979   5.505
 7817SOL    HW124350   5.527   3.002   5.411
 7817SOL    HW224351   5.521   2.882   5.522
 7818SOL     OW24352   6.066   2.874   3.405
 7818SOL    HW124353   6.116   2.815   3.469
 7818SOL    HW224354   6.013   2.941   3.456
 7819SOL     OW24355   1.450   1.329   0.704
 7819SOL    HW124356   1.506   1.405   0.673
 7819SOL    HW224357   1.412   1.350   0.794
 7820SOL     OW24358   2.540   6.558   5.434
 7820SOL    HW124359   2.596   6.541   5.353
 7820SOL    HW224360   2.545   6.479   5.495
 7821SOL     OW24361   3.041   6.011   1.337
 7821SOL    HW124362   2.951   5.995   1.297
 7821SOL    HW224363   3.053   6.108   1.356
 7822SOL     OW24364   0.553   6.617   4.968
 7822SOL    HW124365   0.494   6.592   4.891
 7822SOL    HW224366   0.649   6.607   4.942
 7823SOL     OW24367   2.231   3.350   5.684
 7823SOL    HW124368   2.253   3.446   5.664
 7823SOL    HW224369   2.312   3.293   5.667
 7824SOL     OW24370   0.980   3.442   5.511
 7824SOL    HW124371   1.045   3.439   5.435
 7824SOL    HW224372   0.918   3.519   5.499
 7825SOL     OW24373   2.077   1.023   0.247
 7825SOL    HW124374   2.020   0.963   0.191
 7825SOL    HW224375   2.054   1.010   0.344
 7826SOL     OW24376   0.416   4.307   5.822
 7826SOL    HW124377   0.363   4.251   5.886
 7826SOL    HW224378   0.425   4.399   5.859
 7827SOL     OW24379   6.101   4.961   3.489
 7827SOL    HW124380   6.188   5.000   3.459
 7827SOL    HW224381   6.118   4.875   3.537
 7828SOL     OW24382   1.086   5.992   5.541
 7828SOL    HW124383   1.047   5.971   5.452
 7828SOL    HW224384   1.140   5.914   5.573
 7829SOL     OW24385   4.363   4.869   1.081
 7829SOL    HW124386   4.453   4.893   1.116
 7829SOL    HW224387   4.372   4.795   1.015
 7830SOL     OW24388   1.668   5.585   4.061
 7830SOL    HW124389   1.669   5.615   4.156
 7830SOL    HW224390   1.733   5.510   4.049
 7831SOL     OW24391   1.638   0.082   6.995
 7831SOL    HW124392   1.658   0.030   0.058
 7831SOL    HW224393   1.722   0.095   6.943
 7832SOL     OW24394   0.261   0.852   5.084
 7832SOL    HW124395   0.211   0.797   5.151
 7832SOL    HW224396   0.196   0.893   5.020
 7833SOL     OW24397   0.736   0.545   2.778
 7833SOL    HW124398   0.688   0.618   2.730
 7833SOL    HW224399   0.787   0.489   2.712
 7834SOL     OW24400   0.798   3.215   4.683
 7834SOL    HW124401   0.728   3.285   4.694
 7834SOL    HW224402   0.861   3.219   4.760
 7835SOL     OW24403   3.276   3.025   5.620
 7835SOL    HW124404   3.229   2.987   5.700
 7835SOL    HW224405   3.209   3.068   5.560
 7836SOL     OW24406   2.973   3.591   4.937
 7836SOL    HW124407   2.979   3.545   4.848
 7836SOL    HW224408   2.968   3.522   5.010
 7837SOL     OW24409   0.353   5.668   0.212
 7837SOL    HW124410   0.331   5.760   0.244
 7837SOL    HW224411   0.450   5.649   0.231
 7838SOL     OW24412   4.098   4.822   0.883
 7838SOL    HW124413   4.051   4.874   0.954
 7838SOL    HW224414   4.178   4.873   0.852
 7839SOL     OW24415   5.641   3.792   4.239
 7839SOL    HW124416   5.697   3.753   4.313
 7839SOL    HW224417   5.645   3.732   4.160
 7840SOL     OW24418   2.306   1.988   3.422
 7840SOL    HW124419   2.323   2.081   3.391
 7840SOL    HW224420   2.359   1.924   3.366
 7841SOL     OW24421   4.412   2.449   6.005
 7841SOL    HW124422   4.452   2.445   6.096
 7841SOL    HW224423   4.328   2.394   6.003
 7842SOL     OW24424   0.833   0.259   1.024
 7842SOL    HW124425   0.905   0.300   1.080
 7842SOL    HW224426   0.827   0.161   1.043
 7843SOL     OW24427   6.439   6.203   2.051
 7843SOL    HW124428   6.437   6.104   2.065
 7843SOL    HW224429   6.423   6.249   2.138
 7844SOL     OW24430   2.975   6.769   2.232
 7844SOL    HW124431   3.045   6.840   2.241
 7844SOL    HW224432   2.977   6.732   2.139
 7845SOL     OW24433   6.945   3.494   1.984
 7845SOL    HW124434   0.019   3.461   1.998
 7845SOL    HW224435   6.889   3.470   2.064
 7846SOL     OW24436   0.611   1.920   0.515
 7846SOL    HW124437   0.536   1.939   0.578
 7846SOL    HW224438   0.666   2.003   0.505
 7847SOL     OW24439   5.674   3.764   5.714
 7847SOL    HW124440   5.675   3.864   5.704
 7847SOL    HW224441   5.760   3.734   5.756
 7848SOL     OW24442   5.169   5.210   0.235
 7848SOL    HW124443   5.113   5.164   0.167
 7848SOL    HW224444   5.196   5.145   0.307
 7849SOL     OW24445   4.824   5.243   6.711
 7849SOL    HW124446   4.905   5.185   6.698
 7849SOL    HW224447   4.844   5.336   6.678
 7850SOL     OW24448   6.806   0.964   3.344
 7850SOL    HW124449   6.824   0.960   3.443
 7850SOL    HW224450   6.856   0.892   3.298
 7851SOL     OW24451   1.276   3.744   0.571
 7851SOL    HW124452   1.274   3.824   0.511
 7851SOL    HW224453   1.217   3.672   0.534
 7852SOL     OW24454   1.514   3.376   5.543
 7852SOL    HW124455   1.568   3.439   5.599
 7852SOL    HW224456   1.574   3.332   5.476
 7853SOL     OW24457   4.609   3.289   1.690
 7853SOL    HW124458   4.704   3.316   1.671
 7853SOL    HW224459   4.608   3.207   1.746
 7854SOL     OW24460   3.996   1.171   1.428
 7854SOL    HW124461   3.968   1.249   1.483
 7854SOL    HW224462   3.969   1.086   1.474
 7855SOL     OW24463   5.017   6.040   3.464
 7855SOL    HW124464   5.048   6.135   3.461
 7855SOL    HW224465   4.995   6.009   3.372
 7856SOL     OW24466   2.120   6.232   6.397
 7856SOL    HW124467   2.075   6.201   6.314
 7856SOL    HW224468   2.188   6.165   6.427
 7857SOL     OW24469   7.007   4.693   0.189
 7857SOL    HW124470   6.962   4.631   0.124
 7857SOL    HW224471   6.938   4.738   0.246
 7858SOL     OW24472   0.270   4.135   6.570
 7858SOL    HW124473   0.304   4.058   6.516
 7858SOL    HW224474   0.187   4.171   6.526
 7859SOL     OW24475   4.815   2.550   1.755
 7859SOL    HW124476   4.812   2.639   1.802
 7859SOL    HW224477   4.833   2.478   1.822
 7860SOL     OW24478   2.781   1.943   3.071
 7860SOL    HW124479   2.724   2.010   3.119
 7860SOL    HW224480   2.791   1.971   2.976
 7861SOL     OW24481   1.617   5.583   0.501
 7861SOL    HW124482   1.683   5.657   0.511
 7861SOL    HW224483   1.528   5.613   0.535
 7862SOL     OW24484   0.865   0.429   6.744
 7862SOL    HW124485   0.776   0.475   6.751
 7862SOL    HW224486   0.900   0.411   6.835
 7863SOL     OW24487   0.634   4.911   3.889
 7863SOL    HW124488   0.564   4.909   3.959
 7863SOL    HW224489   0.623   4.993   3.833
 7864SOL     OW24490   3.208   5.625   4.998
 7864SOL    HW124491   3.170   5.705   4.950
 7864SOL    HW224492   3.141   5.592   5.064
 7865SOL     OW24493   6.536   5.580   3.909
 7865SOL    HW124494   6.516   5.482   3.917
 7865SOL    HW224495   6.452   5.628   3.882
 7866SOL     OW24496   1.184   1.017   5.395
 7866SOL    HW124497   1.163   0.953   5.321
 7866SOL    HW224498   1.105   1.023   5.457
 7867SOL     OW24499   4.572   6.100   2.406
 7867SOL    HW124500   4.486   6.075   2.451
 7867SOL    HW224501   4.569   6.197   2.381
 7868SOL     OW24502   4.178   6.219   1.419
 7868SOL    HW124503   4.190   6.226   1.518
 7868SOL    HW224504   4.148   6.126   1.396
 7869SOL     OW24505   5.678   4.957   0.126
 7869SOL    HW124506   5.581   4.948   0.105
 7869SOL    HW224507   5.688   5.008   0.212
 7870SOL     OW24508   6.874   0.701   3.260
 7870SOL    HW124509   6.840   0.681   3.169
 7870SOL    HW224510   6.925   0.622   3.295
 7871SOL     OW24511   4.928   0.654   0.702
 7871SOL    HW124512   4.975   0.619   0.621
 7871SOL    HW224513   4.883   0.740   0.681
 7872SOL     OW24514   6.808   5.399   3.807
 7872SOL    HW124515   6.781   5.356   3.893
 7872SOL    HW224516   6.739   5.466   3.781
 7873SOL     OW24517   4.976   2.381   6.655
 7873SOL    HW124518   4.921   2.349   6.732
 7873SOL    HW224519   5.019   2.468   6.678
 7874SOL     OW24520   6.077   2.119   0.780
 7874SOL    HW124521   6.021   2.179   0.722
 7874SOL    HW224522   6.172   2.150   0.778
 7875SOL     OW24523   6.563   5.120   0.032
 7875SOL    HW124524   6.596   5.029   0.056
 7875SOL    HW224525   6.514   5.116   6.965
 7876SOL     OW24526   1.117   6.548   2.615
 7876SOL    HW124527   1.068   6.635   2.608
 7876SOL    HW224528   1.214   6.565   2.635
 7877SOL     OW24529   0.987   3.119   1.897
 7877SOL    HW124530   0.965   3.142   1.802
 7877SOL    HW224531   1.045   3.037   1.898
 7878SOL     OW24532   3.984   0.596   2.261
 7878SOL    HW124533   4.061   0.626   2.318
 7878SOL    HW224534   3.930   0.527   2.311
 7879SOL     OW24535   2.720   5.904   1.721
 7879SOL    HW124536   2.690   5.999   1.720
 7879SOL    HW224537   2.742   5.877   1.814
 7880SOL     OW24538   1.583   5.013   2.703
 7880SOL    HW124539   1.586   4.917   2.732
 7880SOL    HW224540   1.611   5.019   2.607
 7881SOL     OW24541   4.673   2.751   2.969
 7881SOL    HW124542   4.619   2.675   3.006
 7881SOL    HW224543   4.693   2.734   2.873
 7882SOL     OW24544   0.056   2.836   0.122
 7882SOL    HW124545   6.983   2.800   0.117
 7882SOL    HW224546   0.120   2.762   0.143
 7883SOL     OW24547   0.457   0.325   4.783
 7883SOL    HW124548   0.489   0.298   4.874
 7883SOL    HW224549   0.380   0.389   4.792
 7884SOL     OW24550   1.403   2.848   3.929
 7884SOL    HW124551   1.304   2.847   3.915
 7884SOL    HW224552   1.440   2.755   3.920
 7885SOL     OW24553   6.491   6.046   0.140
 7885SOL    HW124554   6.482   6.009   0.048
 7885SOL    HW224555   6.587   6.056   0.163
 7886SOL     OW24556   4.749   3.237   0.214
 7886SOL    HW124557   4.692   3.213   0.293
 7886SOL    HW224558   4.777   3.332   0.220
 7887SOL     OW24559   4.266   1.856   6.411
 7887SOL    HW124560   4.282   1.898   6.500
 7887SOL    HW224561   4.170   1.831   6.402
 7888SOL     OW24562   4.307   6.086   4.298
 7888SOL    HW124563   4.297   6.095   4.199
 7888SOL    HW224564   4.299   5.990   4.324
 7889SOL     OW24565   6.528   4.475   3.439
 7889SOL    HW124566   6.576   4.535   3.374
 7889SOL    HW224567   6.493   4.530   3.515
 7890SOL     OW24568   2.186   4.032   3.261
 7890SOL    HW124569   2.274   4.071   3.290
 7890SOL    HW224570   2.125   4.023   3.340
 7891SOL     OW24571   0.223   4.169   2.805
 7891SOL    HW124572   0.188   4.234   2.872
 7891SOL    HW224573   0.175   4.181   2.718
 7892SOL     OW24574   2.358   2.557   4.534
 7892SOL    HW124575   2.298   2.487   4.573
 7892SOL    HW224576   2.335   2.646   4.574
 7893SOL     OW24577   5.087   6.131   1.534
 7893SOL    HW124578   5.167   6.071   1.528
 7893SOL    HW224579   5.074   6.160   1.629
 7894SOL     OW24580   2.769   0.212   0.874
 7894SOL    HW124581   2.717   0.149   0.931
 7894SOL    HW224582   2.851   0.241   0.923
 7895SOL     OW24583   1.152   1.733   4.541
 7895SOL    HW124584   1.148   1.765   4.447
 7895SOL    HW224585   1.059   1.722   4.577
 7896SOL     OW24586   3.609   1.788   6.912
 7896SOL    HW124587   3.691   1.749   6.870
 7896SOL    HW224588   3.623   1.886   6.929
 7897SOL     OW24589   3.305   3.752   0.455
 7897SOL    HW124590   3.221   3.706   0.482
 7897SOL    HW224591   3.327   3.824   0.521
 7898SOL     OW24592   5.310   0.862   4.414
 7898SOL    HW124593   5.345   0.866   4.508
 7898SOL    HW224594   5.249   0.783   4.404
 7899SOL     OW24595   4.469   0.759   1.631
 7899SOL    HW124596   4.383   0.778   1.679
 7899SOL    HW224597   4.473   0.812   1.547
 7900SOL     OW24598   0.303   5.726   1.300
 7900SOL    HW124599   0.237   5.663   1.258
 7900SOL    HW224600   0.291   5.725   1.399
 7901SOL     OW24601   5.559   4.794   1.265
 7901SOL    HW124602   5.580   4.794   1.167
 7901SOL    HW224603   5.511   4.710   1.289
 7902SOL     OW24604   4.660   5.031   6.334
 7902SOL    HW124605   4.592   4.960   6.316
 7902SOL    HW224606   4.625   5.094   6.404
 7903SOL     OW24607   1.325   2.315   2.091
 7903SOL    HW124608   1.313   2.345   1.997
 7903SOL    HW224609   1.267   2.235   2.109
 7904SOL     OW24610   5.470   1.788   3.499
 7904SOL    HW124611   5.472   1.757   3.404
 7904SOL    HW224612   5.536   1.734   3.553
 7905SOL     OW24613   2.560   2.442   1.607
 7905SOL    HW124614   2.650   2.400   1.601
 7905SOL    HW224615   2.491   2.371   1.622
 7906SOL     OW24616   1.538   4.201   6.854
 7906SOL    HW124617   1.533   4.104   6.832
 7906SOL    HW224618   1.622   4.240   6.815
 7907SOL     OW24619   0.535   2.690   3.327
 7907SOL    HW124620   0.598   2.749   3.379
 7907SOL    HW224621   0.581   2.605   3.303
 7908SOL     OW24622   0.869   0.958   3.248
 7908SOL    HW124623   0.858   0.898   3.169
 7908SOL    HW224624   0.876   0.903   3.331
 7909SOL     OW24625   3.992   5.677   5.198
 7909SOL    HW124626   4.036   5.587   5.187
 7909SOL    HW224627   3.924   5.672   5.271
 7910SOL     OW24628   6.083   3.187   5.911
 7910SOL    HW124629   6.169   3.233   5.932
 7910SOL    HW224630   6.078   3.101   5.962
 7911SOL     OW24631   6.693   5.905   6.568
 7911SOL    HW124632   6.622   5.835   6.577
 7911SOL    HW224633   6.783   5.863   6.581
 7912SOL     OW24634   6.447   5.400   5.163
 7912SOL    HW124635   6.407   5.308   5.164
 7912SOL    HW224636   6.543   5.395   5.191
 7913SOL     OW24637   1.670   6.043   6.878
 7913SOL    HW124638   1.719   6.028   6.792
 7913SOL    HW224639   1.690   5.968   6.941
 7914SOL     OW24640   6.075   4.108   0.964
 7914SOL    HW124641   6.117   4.087   0.876
 7914SOL    HW224642   5.999   4.045   0.981
 7915SOL     OW24643   2.883   1.592   2.860
 7915SOL    HW124644   2.848   1.500   2.843
 7915SOL    HW224645   2.856   1.653   2.786
 7916SOL     OW24646   3.569   3.461   4.812
 7916SOL    HW124647   3.518   3.441   4.895
 7916SOL    HW224648   3.648   3.519   4.835
 7917SOL     OW24649   3.642   4.052   3.676
 7917SOL    HW124650   3.724   4.032   3.731
 7917SOL    HW224651   3.578   4.106   3.731
 7918SOL     OW24652   6.585   1.807   1.618
 7918SOL    HW124653   6.590   1.907   1.617
 7918SOL    HW224654   6.555   1.776   1.708
 7919SOL     OW24655   5.446   3.459   2.594
 7919SOL    HW124656   5.475   3.442   2.688
 7919SOL    HW224657   5.349   3.480   2.592
 7920SOL     OW24658   6.964   6.494   0.461
 7920SOL    HW124659   7.017   6.451   0.535
 7920SOL    HW224660   6.925   6.423   0.402
 7921SOL     OW24661   3.346   5.059   1.899
 7921SOL    HW124662   3.286   4.980   1.906
 7921SOL    HW224663   3.441   5.029   1.907
 7922SOL     OW24664   1.333   3.922   4.511
 7922SOL    HW124665   1.315   3.848   4.577
 7922SOL    HW224666   1.406   3.981   4.547
 7923SOL     OW24667   1.694   3.108   2.192
 7923SOL    HW124668   1.777   3.074   2.146
 7923SOL    HW224669   1.705   3.100   2.291
 7924SOL     OW24670   2.532   2.051   3.716
 7924SOL    HW124671   2.517   2.149   3.706
 7924SOL    HW224672   2.553   2.011   3.626
 7925SOL     OW24673   1.079   1.429   0.270
 7925SOL    HW124674   1.050   1.411   0.176
 7925SOL    HW224675   1.172   1.394   0.283
 7926SOL     OW24676   3.342   0.947   1.826
 7926SOL    HW124677   3.301   1.009   1.893
 7926SOL    HW224678   3.297   0.858   1.831
 7927SOL     OW24679   4.376   4.644   4.374
 7927SOL    HW124680   4.446   4.573   4.366
 7927SOL    HW224681   4.339   4.664   4.283
 7928SOL     OW24682   0.619   3.905   1.338
 7928SOL    HW124683   0.651   3.937   1.249
 7928SOL    HW224684   0.680   3.834   1.373
 7929SOL     OW24685   3.927   3.885   4.950
 7929SOL    HW124686   3.919   3.928   4.860
 7929SOL    HW224687   3.995   3.812   4.945
 7930SOL     OW24688   3.567   6.953   1.934
 7930SOL    HW124689   3.493   6.919   1.992
 7930SOL    HW224690   3.580   0.031   1.951
 7931SOL     OW24691   2.245   2.975   5.567
 7931SOL    HW124692   2.180   3.051   5.569
 7931SOL    HW224693   2.196   2.890   5.551
 7932SOL     OW24694   3.144   1.798   0.930
 7932SOL    HW124695   3.226   1.853   0.914
 7932SOL    HW224696   3.065   1.845   0.891
 7933SOL     OW24697   1.870   1.096   6.323
 7933SOL    HW124698   1.918   1.167   6.271
 7933SOL    HW224699   1.771   1.107   6.310
 7934SOL     OW24700   4.464   2.455   5.742
 7934SOL    HW124701   4.383   2.399   5.722
 7934SOL    HW224702   4.480   2.454   5.841
 7935SOL     OW24703   4.614   5.097   2.413
 7935SOL    HW124704   4.530   5.044   2.407
 7935SOL    HW224705   4.601   5.172   2.479
 7936SOL     OW24706   4.180   5.921   1.822
 7936SOL    HW124707   4.084   5.894   1.816
 7936SOL    HW224708   4.206   5.929   1.918
 7937SOL     OW24709   5.659   1.955   6.443
 7937SOL    HW124710   5.662   2.054   6.451
 7937SOL    HW224711   5.694   1.927   6.353
 7938SOL     OW24712   6.316   4.501   4.512
 7938SOL    HW124713   6.272   4.590   4.503
 7938SOL    HW224714   6.397   4.497   4.454
 7939SOL     OW24715   6.129   5.749   4.065
 7939SOL    HW124716   6.176   5.789   4.143
 7939SOL    HW224717   6.031   5.769   4.071
 7940SOL     OW24718   2.037   5.872   0.635
 7940SOL    HW124719   2.136   5.874   0.651
 7940SOL    HW224720   2.014   5.937   0.563
 7941SOL     OW24721   1.103   0.534   1.399
 7941SOL    HW124722   1.195   0.510   1.369
 7941SOL    HW224723   1.048   0.561   1.320
 7942SOL     OW24724   0.643   6.395   1.271
 7942SOL    HW124725   0.554   6.404   1.227
 7942SOL    HW224726   0.715   6.421   1.206
 7943SOL     OW24727   6.119   2.663   5.976
 7943SOL    HW124728   6.058   2.701   5.907
 7943SOL    HW224729   6.181   2.597   5.932
 7944SOL     OW24730   6.261   3.737   1.821
 7944SOL    HW124731   6.280   3.715   1.916
 7944SOL    HW224732   6.344   3.775   1.778
 7945SOL     OW24733   6.103   6.173   0.203
 7945SOL    HW124734   6.168   6.098   0.195
 7945SOL    HW224735   6.019   6.141   0.247
 7946SOL     OW24736   1.765   1.316   5.808
 7946SOL    HW124737   1.687   1.367   5.845
 7946SOL    HW224738   1.731   1.240   5.753
 7947SOL     OW24739   3.635   5.492   6.456
 7947SOL    HW124740   3.634   5.513   6.554
 7947SOL    HW224741   3.708   5.428   6.436
 7948SOL     OW24742   1.377   4.880   4.579
 7948SOL    HW124743   1.401   4.822   4.501
 7948SOL    HW224744   1.283   4.911   4.569
 7949SOL     OW24745   0.090   3.800   4.324
 7949SOL    HW124746   0.039   3.768   4.404
 7949SOL    HW224747   0.164   3.735   4.303
 7950SOL     OW24748   2.753   5.874   3.323
 7950SOL    HW124749   2.777   5.777   3.327
 7950SOL    HW224750   2.672   5.886   3.264
 7951SOL     OW24751   2.424   3.356   0.756
 7951SOL    HW124752   2.452   3.294   0.830
 7951SOL    HW224753   2.467   3.326   0.670
 7952SOL     OW24754   6.308   3.530   0.731
 7952SOL    HW124755   6.344   3.593   0.800
 7952SOL    HW224756   6.373   3.524   0.655
 7953SOL     OW24757   2.030   4.363   1.525
 7953SOL    HW124758   1.933   4.369   1.501
 7953SOL    HW224759   2.067   4.277   1.491
 7954SOL     OW24760   6.176   5.467   3.975
 7954SOL    HW124761   6.195   5.434   3.883
 7954SOL    HW224762   6.201   5.563   3.982
 7955SOL     OW24763   1.728   6.337   6.638
 7955SOL    HW124764   1.660   6.284   6.587
 7955SOL    HW224765   1.816   6.290   6.635
 7956SOL     OW24766   5.270   5.954   3.580
 7956SOL    HW124767   5.289   5.996   3.669
 7956SOL    HW224768   5.171   5.959   3.562
 7957SOL     OW24769   1.227   3.010   1.416
 7957SOL    HW124770   1.272   2.967   1.338
 7957SOL    HW224771   1.275   3.096   1.438
 7958SOL     OW24772   2.186   5.978   3.281
 7958SOL    HW124773   2.095   5.973   3.239
 7958SOL    HW224774   2.214   5.886   3.311
 7959SOL     OW24775   4.386   4.590   1.005
 7959SOL    HW124776   4.288   4.574   1.005
 7959SOL    HW224777   4.429   4.536   1.077
 7960SOL     OW24778   1.731   2.260   1.285
 7960SOL    HW124779   1.647   2.228   1.328
 7960SOL    HW224780   1.709   2.319   1.207
 7961SOL     OW24781   1.704   6.404   0.261
 7961SOL    HW124782   1.604   6.394   0.261
 7961SOL    HW224783   1.732   6.464   0.186
 7962SOL     OW24784   1.515   6.907   2.651
 7962SOL    HW124785   1.450   6.867   2.715
 7962SOL    HW224786   1.470   6.920   2.562
 7963SOL     OW24787   0.196   6.087   6.435
 7963SOL    HW124788   0.243   6.172   6.458
 7963SOL    HW224789   0.262   6.018   6.407
 7964SOL     OW24790   6.222   5.434   3.704
 7964SOL    HW124791   6.179   5.422   3.615
 7964SOL    HW224792   6.293   5.365   3.717
 7965SOL     OW24793   3.827   1.899   1.257
 7965SOL    HW124794   3.748   1.957   1.278
 7965SOL    HW224795   3.821   1.814   1.310
 7966SOL     OW24796   0.166   1.877   4.342
 7966SOL    HW124797   0.217   1.820   4.278
 7966SOL    HW224798   0.092   1.824   4.383
 7967SOL     OW24799   1.971   0.416   4.285
 7967SOL    HW124800   1.879   0.454   4.287
 7967SOL    HW224801   1.972   0.334   4.228
 7968SOL     OW24802   2.360   1.195   6.851
 7968SOL    HW124803   2.327   1.264   6.786
 7968SOL    HW224804   2.331   1.220   6.943
 7969SOL     OW24805   4.303   2.265   3.389
 7969SOL    HW124806   4.221   2.300   3.434
 7969SOL    HW224807   4.328   2.176   3.428
 7970SOL     OW24808   0.745   4.879   2.960
 7970SOL    HW124809   0.750   4.978   2.964
 7970SOL    HW224810   0.669   4.847   3.017
 7971SOL     OW24811   3.882   1.921   3.109
 7971SOL    HW124812   3.843   1.892   3.021
 7971SOL    HW224813   3.821   1.895   3.183
 7972SOL     OW24814   5.336   5.483   0.925
 7972SOL    HW124815   5.259   5.456   0.983
 7972SOL    HW224816   5.421   5.460   0.970
 7973SOL     OW24817   6.037   2.067   2.712
 7973SOL    HW124818   5.961   2.052   2.648
 7973SOL    HW224819   6.001   2.065   2.805
 7974SOL     OW24820   4.580   6.316   4.572
 7974SOL    HW124821   4.533   6.229   4.584
 7974SOL    HW224822   4.670   6.312   4.616
 7975SOL     OW24823   2.039   1.409   2.175
 7975SOL    HW124824   2.014   1.329   2.229
 7975SOL    HW224825   2.001   1.400   2.083
 7976SOL     OW24826   0.032   6.305   6.218
 7976SOL    HW124827   6.986   6.334   6.148
 7976SOL    HW224828   0.084   6.384   6.249
 7977SOL     OW24829   5.375   6.169   1.304
 7977SOL    HW124830   5.441   6.221   1.359
 7977SOL    HW224831   5.335   6.229   1.235
 7978SOL     OW24832   3.093   1.483   6.117
 7978SOL    HW124833   3.075   1.580   6.101
 7978SOL    HW224834   3.010   1.438   6.151
 7979SOL     OW24835   5.027   5.604   4.209
 7979SOL    HW124836   4.953   5.595   4.142
 7979SOL    HW224837   4.989   5.605   4.301
 7980SOL     OW24838   2.626   1.256   1.149
 7980SOL    HW124839   2.579   1.302   1.074
 7980SOL    HW224840   2.626   1.157   1.133
 7981SOL     OW24841   0.062   6.082   2.555
 7981SOL    HW124842   0.065   6.017   2.631
 7981SOL    HW224843   0.137   6.063   2.491
 7982SOL     OW24844   0.351   2.671   1.311
 7982SOL    HW124845   0.425   2.704   1.253
 7982SOL    HW224846   0.374   2.581   1.346
 7983SOL     OW24847   5.407   1.996   0.937
 7983SOL    HW124848   5.425   2.076   0.880
 7983SOL    HW224849   5.310   1.995   0.962
 7984SOL     OW24850   5.889   0.975   6.923
 7984SOL    HW124851   5.795   0.943   6.937
 7984SOL    HW224852   5.943   0.957   7.005
 7985SOL     OW24853   0.959   1.605   0.641
 7985SOL    HW124854   0.882   1.610   0.577
 7985SOL    HW224855   1.035   1.556   0.598
 7986SOL     OW24856   5.038   3.591   0.900
 7986SOL    HW124857   5.064   3.678   0.860
 7986SOL    HW224858   5.034   3.521   0.828
 7987SOL     OW24859   1.066   3.836   5.402
 7987SOL    HW124860   1.138   3.781   5.445
 7987SOL    HW224861   1.107   3.914   5.354
 7988SOL     OW24862   2.462   1.181   5.102
 7988SOL    HW124863   2.502   1.159   5.191
 7988SOL    HW224864   2.376   1.230   5.116
 7989SOL     OW24865   2.891   3.727   7.018
 7989SOL    HW124866   2.867   3.824   7.016
 7989SOL    HW224867   2.842   3.683   0.074
 7990SOL     OW24868   2.274   2.784   4.657
 7990SOL    HW124869   2.245   2.771   4.751
 7990SOL    HW224870   2.245   2.874   4.625
 7991SOL     OW24871   2.535   3.112   5.974
 7991SOL    HW124872   2.493   3.203   5.975
 7991SOL    HW224873   2.475   3.047   6.019
 7992SOL     OW24874   2.813   1.274   0.138
 7992SOL    HW124875   2.822   1.338   0.062
 7992SOL    HW224876   2.898   1.270   0.190
 7993SOL     OW24877   3.411   5.899   6.293
 7993SOL    HW124878   3.465   5.890   6.376
 7993SOL    HW224879   3.382   5.994   6.283
 7994SOL     OW24880   5.388   0.145   4.804
 7994SOL    HW124881   5.437   0.129   4.719
 7994SOL    HW224882   5.420   0.231   4.845
 7995SOL     OW24883   4.211   4.991   2.175
 7995SOL    HW124884   4.134   5.055   2.183
 7995SOL    HW224885   4.261   5.009   2.091
 7996SOL     OW24886   4.370   2.049   5.564
 7996SOL    HW124887   4.445   2.086   5.510
 7996SOL    HW224888   4.384   1.951   5.579
 7997SOL     OW24889   5.370   3.304   1.024
 7997SOL    HW124890   5.303   3.233   0.999
 7997SOL    HW224891   5.335   3.394   0.999
 7998SOL     OW24892   6.909   5.631   6.307
 7998SOL    HW124893   6.823   5.580   6.315
 7998SOL    HW224894   6.918   5.667   6.214
 7999SOL     OW24895   3.113   2.310   6.038
 7999SOL    HW124896   3.158   2.353   5.959
 7999SOL    HW224897   3.163   2.227   6.063
 8000SOL     OW24898   5.245   0.885   5.659
 8000SOL    HW124899   5.165   0.836   5.625
 8000SOL    HW224900   5.314   0.891   5.587
 8001SOL     OW24901   2.915   4.914   1.291
 8001SOL    HW124902   2.862   4.860   1.225
 8001SOL    HW224903   2.988   4.858   1.329
 8002SOL     OW24904   4.264   2.253   5.705
 8002SOL    HW124905   4.285   2.170   5.653
 8002SOL    HW224906   4.216   2.228   5.789
 8003SOL     OW24907   4.842   5.433   3.155
 8003SOL    HW124908   4.790   5.503   3.205
 8003SOL    HW224909   4.798   5.415   3.068
 8004SOL     OW24910   1.536   4.888   3.594
 8004SOL    HW124911   1.541   4.977   3.548
 8004SOL    HW224912   1.596   4.889   3.674
 8005SOL     OW24913   2.758   1.142   2.587
 8005SOL    HW124914   2.721   1.218   2.640
 8005SOL    HW224915   2.697   1.063   2.596
 8006SOL     OW24916   4.832   5.710   3.017
 8006SOL    HW124917   4.916   5.673   3.057
 8006SOL    HW224918   4.838   5.706   2.917
 8007SOL     OW24919   0.693   1.312   3.760
 8007SOL    HW124920   0.593   1.321   3.760
 8007SOL    HW224921   0.720   1.235   3.818
 8008SOL     OW24922   6.665   4.754   1.278
 8008SOL    HW124923   6.678   4.784   1.183
 8008SOL    HW224924   6.657   4.655   1.281
 8009SOL     OW24925   6.561   6.327   3.095
 8009SOL    HW124926   6.636   6.393   3.089
 8009SOL    HW224927   6.474   6.375   3.086
 8010SOL     OW24928   2.230   1.877   6.730
 8010SOL    HW124929   2.248   1.893   6.827
 8010SOL    HW224930   2.307   1.910   6.676
 8011SOL     OW24931   1.627   3.252   0.203
 8011SOL    HW124932   1.720   3.270   0.172
 8011SOL    HW224933   1.563   3.264   0.127
 8012SOL     OW24934   2.059   5.860   3.635
 8012SOL    HW124935   1.963   5.850   3.659
 8012SOL    HW224936   2.075   5.825   3.542
 8013SOL     OW24937   6.533   5.776   4.285
 8013SOL    HW124938   6.607   5.833   4.318
 8013SOL    HW224939   6.480   5.826   4.216
 8014SOL     OW24940   2.320   0.437   6.310
 8014SOL    HW124941   2.271   0.525   6.308
 8014SOL    HW224942   2.330   0.402   6.217
 8015SOL     OW24943   1.911   1.143   0.898
 8015SOL    HW124944   1.918   1.043   0.901
 8015SOL    HW224945   1.916   1.174   0.804
 8016SOL     OW24946   4.701   5.264   1.797
 8016SOL    HW124947   4.684   5.298   1.705
 8016SOL    HW224948   4.781   5.312   1.835
 8017SOL     OW24949   6.430   3.857   4.824
 8017SOL    HW124950   6.499   3.928   4.836
 8017SOL    HW224951   6.461   3.773   4.867
 8018SOL     OW24952   4.836   3.144   3.549
 8018SOL    HW124953   4.836   3.182   3.456
 8018SOL    HW224954   4.885   3.057   3.550
 8019SOL     OW24955   3.600   5.463   1.174
 8019SOL    HW124956   3.638   5.556   1.166
 8019SOL    HW224957   3.534   5.461   1.249
 8020SOL     OW24958   5.407   6.578   6.957
 8020SOL    HW124959   5.443   6.648   7.018
 8020SOL    HW224960   5.394   6.617   6.866
 8021SOL     OW24961   6.481   1.009   2.211
 8021SOL    HW124962   6.431   0.929   2.242
 8021SOL    HW224963   6.532   1.049   2.287
 8022SOL     OW24964   6.058   4.747   4.020
 8022SOL    HW124965   5.990   4.820   4.010
 8022SOL    HW224966   6.021   4.674   4.077
 8023SOL     OW24967   0.092   5.377   3.534
 8023SOL    HW124968   0.055   5.364   3.626
 8023SOL    HW224969   0.116   5.473   3.521
 8024SOL     OW24970   4.613   5.907   3.859
 8024SOL    HW124971   4.692   5.913   3.798
 8024SOL    HW224972   4.642   5.865   3.946
 8025SOL     OW24973   2.450   6.200   7.013
 8025SOL    HW124974   2.415   6.144   0.068
 8025SOL    HW224975   2.390   6.189   6.933
 8026SOL     OW24976   3.203   2.019   6.859
 8026SOL    HW124977   3.240   1.950   6.922
 8026SOL    HW224978   3.250   2.106   6.875
 8027SOL     OW24979   4.278   3.601   5.754
 8027SOL    HW124980   4.210   3.568   5.819
 8027SOL    HW224981   4.256   3.566   5.663
 8028SOL     OW24982   6.393   5.053   1.023
 8028SOL    HW124983   6.451   4.998   0.963
 8028SOL    HW224984   6.331   4.993   1.074
 8029SOL     OW24985   3.355   4.321   6.000
 8029SOL    HW124986   3.260   4.354   6.001
 8029SOL    HW224987   3.393   4.332   5.908
 8030SOL     OW24988   0.376   3.534   2.265
 8030SOL    HW124989   0.455   3.556   2.323
 8030SOL    HW224990   0.406   3.481   2.186
 8031SOL     OW24991   3.874   6.312   0.321
 8031SOL    HW124992   3.796   6.264   0.362
 8031SOL    HW224993   3.956   6.297   0.376
 8032SOL     OW24994   4.496   3.463   5.299
 8032SOL    HW124995   4.513   3.434   5.393
 8032SOL    HW224996   4.583   3.479   5.252
 8033SOL     OW24997   5.962   1.163   2.388
 8033SOL    HW124998   5.888   1.118   2.337
 8033SOL    HW224999   5.923   1.230   2.451
 8034SOL     OW25000   6.432   2.822   5.813
 8034SOL    HW125001   6.370   2.761   5.764
 8034SOL    HW225002   6.522   2.779   5.819
 8035SOL     OW25003   5.905   5.935   6.092
 8035SOL    HW125004   5.846   6.003   6.048
 8035SOL    HW225005   5.984   5.916   6.034
 8036SOL     OW25006   1.547   3.554   1.719
 8036SOL    HW125007   1.526   3.458   1.739
 8036SOL    HW225008   1.630   3.581   1.767
 8037SOL     OW25009   1.885   2.903   1.674
 8037SOL    HW125010   1.974   2.944   1.695
 8037SOL    HW225011   1.846   2.865   1.758
 8038SOL     OW25012   5.686   0.523   3.792
 8038SOL    HW125013   5.780   0.516   3.758
 8038SOL    HW225014   5.641   0.601   3.749
 8039SOL     OW25015   2.250   5.734   3.448
 8039SOL    HW125016   2.242   5.643   3.487
 8039SOL    HW225017   2.324   5.784   3.493
 8040SOL     OW25018   5.825   6.416   6.448
 8040SOL    HW125019   5.791   6.432   6.541
 8040SOL    HW225020   5.816   6.319   6.426
 8041SOL     OW25021   2.932   2.853   1.000
 8041SOL    HW125022   3.011   2.792   0.996
 8041SOL    HW225023   2.912   2.875   1.096
 8042SOL     OW25024   1.849   4.743   6.965
 8042SOL    HW125025   1.804   4.674   6.908
 8042SOL    HW225026   1.905   4.697   0.015
 8043SOL     OW25027   3.248   0.650   1.171
 8043SOL    HW125028   3.226   0.632   1.267
 8043SOL    HW225029   3.299   0.735   1.164
 8044SOL     OW25030   2.960   2.624   1.416
 8044SOL    HW125031   3.030   2.657   1.353
 8044SOL    HW225032   2.932   2.532   1.389
 8045SOL     OW25033   5.707   2.806   4.124
 8045SOL    HW125034   5.698   2.711   4.156
 8045SOL    HW225035   5.623   2.856   4.142
 8046SOL     OW25036   6.129   5.553   5.191
 8046SOL    HW125037   6.128   5.618   5.115
 8046SOL    HW225038   6.181   5.471   5.164
 8047SOL     OW25039   2.993   6.776   4.142
 8047SOL    HW125040   3.061   6.828   4.194
 8047SOL    HW225041   3.038   6.699   4.098
 8048SOL     OW25042   5.387   0.516   5.481
 8048SOL    HW125043   5.411   0.423   5.511
 8048SOL    HW225044   5.322   0.511   5.406
 8049SOL     OW25045   2.333   6.414   6.217
 8049SOL    HW125046   2.349   6.368   6.304
 8049SOL    HW225047   2.309   6.510   6.234
 8050SOL     OW25048   0.488   3.611   1.974
 8050SOL    HW125049   0.557   3.544   1.944
 8050SOL    HW225050   0.398   3.582   1.942
 8051SOL     OW25051   2.221   2.306   4.333
 8051SOL    HW125052   2.253   2.390   4.289
 8051SOL    HW225053   2.192   2.328   4.427
 8052SOL     OW25054   4.251   0.943   3.044
 8052SOL    HW125055   4.164   0.895   3.045
 8052SOL    HW225056   4.260   0.998   3.127
 8053SOL     OW25057   4.858   3.749   1.333
 8053SOL    HW125058   4.880   3.686   1.258
 8053SOL    HW225059   4.762   3.775   1.328
 8054SOL     OW25060   4.814   6.482   4.586
 8054SOL    HW125061   4.771   6.468   4.497
 8054SOL    HW225062   4.911   6.505   4.574
 8055SOL     OW25063   1.226   0.224   5.013
 8055SOL    HW125064   1.214   0.175   5.099
 8055SOL    HW225065   1.294   0.177   4.957
 8056SOL     OW25066   4.812   1.133   2.830
 8056SOL    HW125067   4.716   1.111   2.810
 8056SOL    HW225068   4.826   1.131   2.929
 8057SOL     OW25069   3.484   0.139   3.546
 8057SOL    HW125070   3.481   0.112   3.450
 8057SOL    HW225071   3.504   0.237   3.553
 8058SOL     OW25072   1.968   0.680   2.992
 8058SOL    HW125073   1.975   0.779   2.977
 8058SOL    HW225074   1.889   0.660   3.049
 8059SOL     OW25075   1.791   1.299   3.979
 8059SOL    HW125076   1.790   1.199   3.970
 8059SOL    HW225077   1.869   1.336   3.928
 8060SOL     OW25078   1.192   2.839   5.413
 8060SOL    HW125079   1.209   2.917   5.474
 8060SOL    HW225080   1.093   2.822   5.408
 8061SOL     OW25081   5.025   6.528   3.105
 8061SOL    HW125082   5.011   6.581   3.189
 8061SOL    HW225083   5.005   6.586   3.026
 8062SOL     OW25084   1.828   1.651   1.245
 8062SOL    HW125085   1.825   1.588   1.323
 8062SOL    HW225086   1.776   1.612   1.169
 8063SOL     OW25087   3.020   1.866   5.841
 8063SOL    HW125088   2.954   1.941   5.835
 8063SOL    HW225089   3.108   1.895   5.803
 8064SOL     OW25090   5.445   2.168   6.049
 8064SOL    HW125091   5.389   2.126   6.120
 8064SOL    HW225092   5.394   2.242   6.005
 8065SOL     OW25093   4.384   0.647   6.512
 8065SOL    HW125094   4.455   0.584   6.480
 8065SOL    HW225095   4.383   0.647   6.612
 8066SOL     OW25096   0.366   0.358   1.796
 8066SOL    HW125097   0.311   0.405   1.726
 8066SOL    HW225098   0.462   0.357   1.767
 8067SOL     OW25099   4.547   1.768   2.822
 8067SOL    HW125100   4.519   1.679   2.786
 8067SOL    HW225101   4.468   1.828   2.829
 8068SOL     OW25102   6.583   4.160   3.202
 8068SOL    HW125103   6.612   4.126   3.113
 8068SOL    HW225104   6.639   4.240   3.226
 8069SOL     OW25105   6.974   5.658   2.338
 8069SOL    HW125106   7.006   5.749   2.365
 8069SOL    HW225107   6.887   5.667   2.289
 8070SOL     OW25108   3.974   0.800   2.636
 8070SOL    HW125109   4.001   0.833   2.546
 8070SOL    HW225110   3.944   0.705   2.629
 8071SOL     OW25111   5.972   4.895   0.103
 8071SOL    HW125112   5.880   4.888   0.064
 8071SOL    HW225113   6.031   4.943   0.038
 8072SOL     OW25114   3.563   0.395   3.416
 8072SOL    HW125115   3.635   0.462   3.438
 8072SOL    HW225116   3.487   0.442   3.372
 8073SOL     OW25117   5.359   0.441   6.428
 8073SOL    HW125118   5.417   0.363   6.401
 8073SOL    HW225119   5.263   0.419   6.411
 8074SOL     OW25120   3.256   4.720   6.994
 8074SOL    HW125121   3.265   4.653   6.921
 8074SOL    HW225122   3.329   4.708   0.041
 8075SOL     OW25123   6.774   1.588   3.935
 8075SOL    HW125124   6.686   1.591   3.983
 8075SOL    HW225125   6.805   1.493   3.928
 8076SOL     OW25126   4.799   2.340   6.853
 8076SOL    HW125127   4.715   2.286   6.862
 8076SOL    HW225128   4.777   2.437   6.869
 8077SOL     OW25129   0.628   0.569   6.744
 8077SOL    HW125130   0.628   0.620   6.659
 8077SOL    HW225131   0.534   0.551   6.773
 8078SOL     OW25132   6.582   4.051   1.198
 8078SOL    HW125133   6.631   4.003   1.125
 8078SOL    HW225134   6.484   4.046   1.181
 8079SOL     OW25135   1.507   2.903   0.266
 8079SOL    HW125136   1.532   2.949   0.180
 8079SOL    HW225137   1.591   2.873   0.312
 8080SOL     OW25138   3.622   5.075   0.013
 8080SOL    HW125139   3.599   5.089   6.936
 8080SOL    HW225140   3.581   4.990   0.045
 8081SOL     OW25141   5.147   2.276   4.395
 8081SOL    HW125142   5.244   2.268   4.418
 8081SOL    HW225143   5.118   2.370   4.406
 8082SOL     OW25144   0.027   3.634   5.407
 8082SOL    HW125145   6.957   3.631   5.451
 8082SOL    HW225146   0.016   3.622   5.308
 8083SOL     OW25147   6.732   2.009   4.976
 8083SOL    HW125148   6.748   2.086   5.037
 8083SOL    HW225149   6.635   2.002   4.954
 8084SOL     OW25150   5.954   0.367   6.682
 8084SOL    HW125151   6.047   0.366   6.645
 8084SOL    HW225152   5.892   0.322   6.617
 8085SOL     OW25153   5.263   2.449   1.844
 8085SOL    HW125154   5.321   2.466   1.764
 8085SOL    HW225155   5.262   2.531   1.902
 8086SOL     OW25156   3.247   4.781   6.506
 8086SOL    HW125157   3.338   4.751   6.536
 8086SOL    HW225158   3.177   4.731   6.557
 8087SOL     OW25159   1.867   3.876   1.049
 8087SOL    HW125160   1.964   3.855   1.038
 8087SOL    HW225161   1.830   3.908   0.961
 8088SOL     OW25162   4.894   0.812   3.313
 8088SOL    HW125163   4.836   0.839   3.237
 8088SOL    HW225164   4.977   0.868   3.313
 8089SOL     OW25165   6.956   2.437   0.237
 8089SOL    HW125166   6.872   2.414   0.287
 8089SOL    HW225167   7.001   2.514   0.281
 8090SOL     OW25168   5.236   1.094   4.824
 8090SOL    HW125169   5.292   1.120   4.903
 8090SOL    HW225170   5.140   1.091   4.851
 8091SOL     OW25171   1.854   3.570   4.885
 8091SOL    HW125172   1.805   3.485   4.867
 8091SOL    HW225173   1.890   3.570   4.978
 8092SOL     OW25174   6.157   2.349   3.895
 8092SOL    HW125175   6.174   2.262   3.848
 8092SOL    HW225176   6.240   2.380   3.940
 8093SOL     OW25177   6.180   4.841   0.918
 8093SOL    HW125178   6.244   4.810   0.847
 8093SOL    HW225179   6.146   4.761   0.968
 8094SOL     OW25180   0.984   3.533   4.312
 8094SOL    HW125181   0.895   3.570   4.336
 8094SOL    HW225182   0.972   3.451   4.255
 8095SOL     OW25183   6.614   3.282   5.185
 8095SOL    HW125184   6.650   3.200   5.228
 8095SOL    HW225185   6.558   3.256   5.106
 8096SOL     OW25186   3.938   0.256   0.766
 8096SOL    HW125187   3.966   0.345   0.731
 8096SOL    HW225188   3.995   0.185   0.726
 8097SOL     OW25189   5.356   2.065   3.882
 8097SOL    HW125190   5.362   2.129   3.805
 8097SOL    HW225191   5.373   1.972   3.849
 8098SOL     OW25192   2.175   2.193   4.069
 8098SOL    HW125193   2.114   2.118   4.042
 8098SOL    HW225194   2.173   2.203   4.169
 8099SOL     OW25195   4.078   0.111   4.015
 8099SOL    HW125196   4.149   0.156   3.962
 8099SOL    HW225197   4.114   0.083   4.104
 8100SOL     OW25198   6.134   6.408   1.454
 8100SOL    HW125199   6.090   6.363   1.532
 8100SOL    HW225200   6.229   6.430   1.477
 8101SOL     OW25201   1.448   4.739   2.542
 8101SOL    HW125202   1.412   4.750   2.450
 8101SOL    HW225203   1.546   4.719   2.538
 8102SOL     OW25204   6.348   0.281   5.382
 8102SOL    HW125205   6.379   0.297   5.288
 8102SOL    HW225206   6.413   0.321   5.446
 8103SOL     OW25207   2.888   2.248   2.541
 8103SOL    HW125208   2.901   2.230   2.444
 8103SOL    HW225209   2.808   2.197   2.574
 8104SOL     OW25210   2.504   0.395   5.802
 8104SOL    HW125211   2.534   0.478   5.848
 8104SOL    HW225212   2.556   0.316   5.836
 8105SOL     OW25213   2.413   2.547   2.656
 8105SOL    HW125214   2.485   2.483   2.683
 8105SOL    HW225215   2.379   2.595   2.737
 8106SOL     OW25216   0.178   4.655   6.728
 8106SOL    HW125217   0.191   4.593   6.805
 8106SOL    HW225218   0.267   4.678   6.689
 8107SOL     OW25219   0.717   5.013   6.460
 8107SOL    HW125220   0.815   5.002   6.478
 8107SOL    HW225221   0.676   4.923   6.444
 8108SOL     OW25222   1.957   2.065   6.377
 8108SOL    HW125223   1.906   1.982   6.352
 8108SOL    HW225224   1.986   2.058   6.472
 8109SOL     OW25225   0.208   5.614   5.135
 8109SOL    HW125226   0.204   5.514   5.139
 8109SOL    HW225227   0.227   5.651   5.226
 8110SOL     OW25228   1.027   4.986   0.495
 8110SOL    HW125229   1.033   5.033   0.583
 8110SOL    HW225230   1.109   5.007   0.441
 8111SOL     OW25231   3.274   6.509   4.335
 8111SOL    HW125232   3.315   6.418   4.342
 8111SOL    HW225233   3.317   6.570   4.401
 8112SOL     OW25234   3.986   1.773   4.224
 8112SOL    HW125235   3.939   1.840   4.166
 8112SOL    HW225236   4.008   1.814   4.312
 8113SOL     OW25237   3.068   2.114   6.377
 8113SOL    HW125238   3.148   2.085   6.428
 8113SOL    HW225239   3.077   2.211   6.354
 8114SOL     OW25240   2.752   3.606   1.357
 8114SOL    HW125241   2.720   3.676   1.294
 8114SOL    HW225242   2.731   3.633   1.451
 8115SOL     OW25243   4.150   2.929   1.432
 8115SOL    HW125244   4.065   2.964   1.391
 8115SOL    HW225245   4.130   2.891   1.522
 8116SOL     OW25246   5.983   1.832   5.707
 8116SOL    HW125247   5.964   1.795   5.616
 8116SOL    HW225248   5.906   1.889   5.736
 8117SOL     OW25249   3.146   2.932   5.213
 8117SOL    HW125250   3.142   2.844   5.262
 8117SOL    HW225251   3.151   3.006   5.279
 8118SOL     OW25252   1.264   2.172   4.150
 8118SOL    HW125253   1.273   2.165   4.249
 8118SOL    HW225254   1.305   2.091   4.107
 8119SOL     OW25255   1.364   0.120   2.209
 8119SOL    HW125256   1.343   0.031   2.167
 8119SOL    HW225257   1.279   0.168   2.228
 8120SOL     OW25258   4.748   4.216   2.156
 8120SOL    HW125259   4.796   4.139   2.114
 8120SOL    HW225260   4.684   4.256   2.091
 8121SOL     OW25261   6.781   6.259   3.699
 8121SOL    HW125262   6.848   6.286   3.767
 8121SOL    HW225263   6.769   6.333   3.632
 8122SOL     OW25264   0.414   4.710   1.391
 8122SOL    HW125265   0.409   4.680   1.486
 8122SOL    HW225266   0.417   4.810   1.387
 8123SOL     OW25267   1.325   4.876   5.870
 8123SOL    HW125268   1.263   4.919   5.805
 8123SOL    HW225269   1.279   4.865   5.958
 8124SOL     OW25270   1.396   6.009   2.249
 8124SOL    HW125271   1.316   6.022   2.191
 8124SOL    HW225272   1.479   6.035   2.198
 8125SOL     OW25273   4.620   4.922   3.534
 8125SOL    HW125274   4.708   4.969   3.542
 8125SOL    HW225275   4.569   4.961   3.457
 8126SOL     OW25276   0.167   4.392   1.934
 8126SOL    HW125277   0.255   4.370   1.976
 8126SOL    HW225278   0.138   4.483   1.963
 8127SOL     OW25279   4.568   5.283   0.366
 8127SOL    HW125280   4.633   5.245   0.300
 8127SOL    HW225281   4.551   5.379   0.344
 8128SOL     OW25282   3.835   2.398   5.511
 8128SOL    HW125283   3.848   2.345   5.594
 8128SOL    HW225284   3.818   2.494   5.534
 8129SOL     OW25285   5.019   5.125   6.533
 8129SOL    HW125286   5.084   5.200   6.549
 8129SOL    HW225287   4.992   5.125   6.437
 8130SOL     OW25288   0.842   0.092   6.232
 8130SOL    HW125289   0.766   0.027   6.222
 8130SOL    HW225290   0.878   0.087   6.325
 8131SOL     OW25291   2.679   1.705   1.487
 8131SOL    HW125292   2.612   1.648   1.534
 8131SOL    HW225293   2.639   1.795   1.468
 8132SOL     OW25294   5.761   4.672   3.269
 8132SOL    HW125295   5.845   4.636   3.230
 8132SOL    HW225296   5.725   4.608   3.337
 8133SOL     OW25297   0.200   5.366   2.508
 8133SOL    HW125298   0.159   5.286   2.552
 8133SOL    HW225299   0.188   5.446   2.568
 8134SOL     OW25300   3.612   3.308   1.400
 8134SOL    HW125301   3.587   3.214   1.424
 8134SOL    HW225302   3.688   3.306   1.335
 8135SOL     OW25303   4.445   5.789   2.492
 8135SOL    HW125304   4.386   5.842   2.553
 8135SOL    HW225305   4.422   5.810   2.397
 8136SOL     OW25306   2.254   5.383   1.132
 8136SOL    HW125307   2.269   5.400   1.229
 8136SOL    HW225308   2.320   5.316   1.099
 8137SOL     OW25309   3.479   4.396   5.753
 8137SOL    HW125310   3.459   4.492   5.775
 8137SOL    HW225311   3.458   4.379   5.657
 8138SOL     OW25312   4.306   0.898   4.023
 8138SOL    HW125313   4.286   0.838   3.946
 8138SOL    HW225314   4.222   0.944   4.053
 8139SOL     OW25315   2.029   2.791   5.841
 8139SOL    HW125316   2.122   2.827   5.853
 8139SOL    HW225317   1.967   2.865   5.817
 8140SOL     OW25318   5.026   1.842   1.388
 8140SOL    HW125319   5.070   1.924   1.350
 8140SOL    HW225320   4.959   1.807   1.323
 8141SOL     OW25321   5.868   2.266   5.147
 8141SOL    HW125322   5.844   2.218   5.062
 8141SOL    HW225323   5.928   2.208   5.202
 8142SOL     OW25324   3.885   5.584   0.232
 8142SOL    HW125325   3.930   5.666   0.200
 8142SOL    HW225326   3.796   5.607   0.272
 8143SOL     OW25327   5.553   5.122   0.793
 8143SOL    HW125328   5.635   5.102   0.846
 8143SOL    HW225329   5.476   5.134   0.855
 8144SOL     OW25330   1.781   5.513   6.546
 8144SOL    HW125331   1.782   5.423   6.591
 8144SOL    HW225332   1.726   5.507   6.463
 8145SOL     OW25333   4.877   5.285   5.614
 8145SOL    HW125334   4.791   5.333   5.596
 8145SOL    HW225335   4.954   5.343   5.587
 8146SOL     OW25336   7.000   6.200   5.742
 8146SOL    HW125337   6.982   6.298   5.749
 8146SOL    HW225338   6.990   6.157   5.832
 8147SOL     OW25339   2.316   6.515   4.676
 8147SOL    HW125340   2.220   6.541   4.681
 8147SOL    HW225341   2.359   6.560   4.598
 8148SOL     OW25342   4.811   4.928   0.411
 8148SOL    HW125343   4.766   4.850   0.455
 8148SOL    HW225344   4.769   4.944   0.321
 8149SOL     OW25345   1.374   6.391   4.544
 8149SOL    HW125346   1.462   6.376   4.499
 8149SOL    HW225347   1.378   6.354   4.637
 8150SOL     OW25348   0.739   4.037   0.525
 8150SOL    HW125349   0.699   4.011   0.437
 8150SOL    HW225350   0.827   4.080   0.510
 8151SOL     OW25351   6.176   4.242   2.684
 8151SOL    HW125352   6.241   4.315   2.664
 8151SOL    HW225353   6.210   4.156   2.647
 8152SOL     OW25354   5.024   2.038   4.430
 8152SOL    HW125355   5.058   2.125   4.395
 8152SOL    HW225356   4.924   2.035   4.420
 8153SOL     OW25357   0.166   1.570   1.103
 8153SOL    HW125358   0.082   1.612   1.068
 8153SOL    HW225359   0.245   1.607   1.054
 8154SOL     OW25360   6.848   0.260   4.819
 8154SOL    HW125361   6.873   0.344   4.867
 8154SOL    HW225362   6.849   0.276   4.720
 8155SOL     OW25363   1.509   4.313   4.629
 8155SOL    HW125364   1.417   4.348   4.648
 8155SOL    HW225365   1.507   4.213   4.622
 8156SOL     OW25366   1.188   3.669   0.180
 8156SOL    HW125367   1.115   3.722   0.224
 8156SOL    HW225368   1.265   3.729   0.159
 8157SOL     OW25369   6.264   4.866   5.497
 8157SOL    HW125370   6.275   4.808   5.577
 8157SOL    HW225371   6.343   4.856   5.437
 8158SOL     OW25372   6.910   5.312   6.364
 8158SOL    HW125373   6.899   5.343   6.269
 8158SOL    HW225374   6.820   5.290   6.402
 8159SOL     OW25375   2.556   6.002   4.790
 8159SOL    HW125376   2.567   5.904   4.807
 8159SOL    HW225377   2.499   6.042   4.862
 8160SOL     OW25378   4.865   3.223   2.911
 8160SOL    HW125379   4.847   3.141   2.966
 8160SOL    HW225380   4.931   3.201   2.840
 8161SOL     OW25381   0.043   1.940   1.185
 8161SOL    HW125382   0.035   2.011   1.254
 8161SOL    HW225383   0.071   1.980   1.098
 8162SOL     OW25384   6.698   6.188   6.340
 8162SOL    HW125385   6.776   6.223   6.391
 8162SOL    HW225386   6.725   6.106   6.289
 8163SOL     OW25387   3.709   5.554   6.058
 8163SOL    HW125388   3.780   5.489   6.085
 8163SOL    HW225389   3.653   5.577   6.138
 8164SOL     OW25390   5.322   2.083   0.326
 8164SOL    HW125391   5.350   2.006   0.268
 8164SOL    HW225392   5.236   2.061   0.372
 8165SOL     OW25393   1.677   2.209   6.076
 8165SOL    HW125394   1.583   2.217   6.108
 8165SOL    HW225395   1.679   2.148   5.996
 8166SOL     OW25396   3.349   2.081   3.494
 8166SOL    HW125397   3.442   2.091   3.458
 8166SOL    HW225398   3.285   2.133   3.436
 8167SOL     OW25399   1.829   1.864   2.098
 8167SOL    HW125400   1.792   1.930   2.033
 8167SOL    HW225401   1.765   1.854   2.175
 8168SOL     OW25402   1.175   6.016   2.864
 8168SOL    HW125403   1.220   6.102   2.841
 8168SOL    HW225404   1.084   6.014   2.823
 8169SOL     OW25405   5.386   4.608   6.748
 8169SOL    HW125406   5.468   4.553   6.758
 8169SOL    HW225407   5.407   4.692   6.697
 8170SOL     OW25408   0.127   4.858   3.034
 8170SOL    HW125409   0.208   4.916   3.038
 8170SOL    HW225410   0.120   4.817   2.944
 8171SOL     OW25411   1.203   1.391   1.800
 8171SOL    HW125412   1.256   1.437   1.728
 8171SOL    HW225413   1.261   1.323   1.845
 8172SOL     OW25414   1.669   4.520   0.459
 8172SOL    HW125415   1.658   4.555   0.365
 8172SOL    HW225416   1.727   4.440   0.458
 8173SOL     OW25417   5.189   0.482   1.342
 8173SOL    HW125418   5.098   0.487   1.300
 8173SOL    HW225419   5.181   0.498   1.440
 8174SOL     OW25420   2.923   6.223   3.940
 8174SOL    HW125421   3.005   6.258   3.985
 8174SOL    HW225422   2.935   6.227   3.841
 8175SOL     OW25423   1.247   2.479   6.147
 8175SOL    HW125424   1.199   2.532   6.216
 8175SOL    HW225425   1.280   2.540   6.075
 8176SOL     OW25426   2.401   4.582   0.352
 8176SOL    HW125427   2.486   4.623   0.317
 8176SOL    HW225428   2.358   4.645   0.417
 8177SOL     OW25429   3.486   1.401   2.328
 8177SOL    HW125430   3.472   1.385   2.230
 8177SOL    HW225431   3.430   1.337   2.380
 8178SOL     OW25432   2.465   6.474   0.916
 8178SOL    HW125433   2.501   6.431   0.834
 8178SOL    HW225434   2.440   6.404   0.983
 8179SOL     OW25435   6.307   6.213   4.411
 8179SOL    HW125436   6.332   6.305   4.440
 8179SOL    HW225437   6.209   6.199   4.426
 8180SOL     OW25438   3.481   5.096   0.682
 8180SOL    HW125439   3.520   5.145   0.604
 8180SOL    HW225440   3.416   5.027   0.649
 8181SOL     OW25441   5.990   0.951   6.673
 8181SOL    HW125442   5.956   0.961   6.766
 8181SOL    HW225443   5.916   0.965   6.608
 8182SOL     OW25444   3.255   3.591   2.965
 8182SOL    HW125445   3.322   3.665   2.976
 8182SOL    HW225446   3.300   3.503   2.982
 8183SOL     OW25447   0.512   0.355   5.165
 8183SOL    HW125448   0.525   0.422   5.237
 8183SOL    HW225449   0.495   0.265   5.205
 8184SOL     OW25450   6.877   5.528   4.903
 8184SOL    HW125451   6.909   5.622   4.909
 8184SOL    HW225452   6.786   5.526   4.863
 8185SOL     OW25453   6.465   6.381   4.144
 8185SOL    HW125454   6.562   6.365   4.162
 8185SOL    HW225455   6.428   6.444   4.212
 8186SOL     OW25456   0.389   6.323   6.462
 8186SOL    HW125457   0.347   6.390   6.522
 8186SOL    HW225458   0.479   6.298   6.497
 8187SOL     OW25459   0.827   6.477   4.559
 8187SOL    HW125460   0.895   6.546   4.534
 8187SOL    HW225461   0.863   6.386   4.538
 8188SOL     OW25462   1.676   2.436   2.632
 8188SOL    HW125463   1.736   2.514   2.649
 8188SOL    HW225464   1.730   2.353   2.624
 8189SOL     OW25465   7.008   5.207   3.788
 8189SOL    HW125466   6.947   5.285   3.799
 8189SOL    HW225467   6.963   5.136   3.734
 8190SOL     OW25468   5.657   3.784   2.494
 8190SOL    HW125469   5.718   3.821   2.424
 8190SOL    HW225470   5.632   3.690   2.470
 8191SOL     OW25471   4.341   4.853   0.457
 8191SOL    HW125472   4.314   4.947   0.438
 8191SOL    HW225473   4.388   4.815   0.377
 8192SOL     OW25474   6.848   5.598   2.559
 8192SOL    HW125475   6.751   5.594   2.536
 8192SOL    HW225476   6.902   5.601   2.475
 8193SOL     OW25477   0.709   5.323   4.635
 8193SOL    HW125478   0.718   5.295   4.540
 8193SOL    HW225479   0.617   5.358   4.651
 8194SOL     OW25480   5.753   6.804   2.136
 8194SOL    HW125481   5.771   6.867   2.212
 8194SOL    HW225482   5.656   6.807   2.112
 8195SOL     OW25483   6.068   6.779   3.066
 8195SOL    HW125484   6.078   6.722   2.984
 8195SOL    HW225485   6.155   6.780   3.116
 8196SOL     OW25486   5.527   0.071   2.493
 8196SOL    HW125487   5.521   7.011   2.433
 8196SOL    HW225488   5.576   0.047   2.576
 8197SOL     OW25489   3.732   0.642   3.452
 8197SOL    HW125490   3.825   0.657   3.419
 8197SOL    HW225491   3.724   0.674   3.546
 8198SOL     OW25492   1.951   5.597   0.128
 8198SOL    HW125493   1.859   5.572   0.100
 8198SOL    HW225494   1.953   5.693   0.154
 8199SOL     OW25495   6.061   2.514   7.004
 8199SOL    HW125496   6.020   2.605   6.994
 8199SOL    HW225497   5.991   2.444   6.985
 8200SOL     OW25498   5.735   4.675   0.118
 8200SOL    HW125499   5.647   4.638   0.146
 8200SOL    HW225500   5.736   4.774   0.129
 8201SOL     OW25501   5.085   1.691   6.058
 8201SOL    HW125502   5.015   1.710   5.990
 8201SOL    HW225503   5.079   1.757   6.133
 8202SOL     OW25504   6.896   5.944   2.379
 8202SOL    HW125505   6.921   5.992   2.463
 8202SOL    HW225506   6.809   5.978   2.346
 8203SOL     OW25507   0.681   2.954   0.215
 8203SOL    HW125508   0.697   2.977   0.119
 8203SOL    HW225509   0.694   3.035   0.272
 8204SOL     OW25510   1.523   3.646   0.650
 8204SOL    HW125511   1.524   3.562   0.595
 8204SOL    HW225512   1.435   3.692   0.640
 8205SOL     OW25513   6.652   4.060   6.359
 8205SOL    HW125514   6.567   4.088   6.314
 8205SOL    HW225515   6.729   4.080   6.298
 8206SOL     OW25516   3.426   1.520   0.989
 8206SOL    HW125517   3.399   1.525   1.085
 8206SOL    HW225518   3.462   1.428   0.969
 8207SOL     OW25519   3.760   3.255   3.682
 8207SOL    HW125520   3.759   3.355   3.682
 8207SOL    HW225521   3.854   3.222   3.670
 8208SOL     OW25522   4.057   0.197   5.449
 8208SOL    HW125523   3.999   0.127   5.408
 8208SOL    HW225524   4.016   0.231   5.534
 8209SOL     OW25525   5.141   3.133   3.754
 8209SOL    HW125526   5.232   3.090   3.756
 8209SOL    HW225527   5.087   3.092   3.680
 8210SOL     OW25528   1.445   1.497   6.365
 8210SOL    HW125529   1.461   1.440   6.284
 8210SOL    HW225530   1.508   1.574   6.365
 8211SOL     OW25531   3.853   4.600   1.074
 8211SOL    HW125532   3.896   4.621   1.161
 8211SOL    HW225533   3.813   4.683   1.035
 8212SOL     OW25534   2.020   3.416   2.303
 8212SOL    HW125535   1.923   3.438   2.300
 8212SOL    HW225536   2.072   3.490   2.261
 8213SOL     OW25537   6.895   4.282   0.627
 8213SOL    HW125538   6.840   4.347   0.576
 8213SOL    HW225539   6.987   4.276   0.587
 8214SOL     OW25540   4.892   3.064   3.914
 8214SOL    HW125541   4.952   3.073   3.834
 8214SOL    HW225542   4.845   3.150   3.930
 8215SOL     OW25543   3.294   4.099   1.621
 8215SOL    HW125544   3.318   4.024   1.684
 8215SOL    HW225545   3.204   4.135   1.645
 8216SOL     OW25546   5.537   2.940   4.729
 8216SOL    HW125547   5.632   2.924   4.704
 8216SOL    HW225548   5.480   2.934   4.647
 8217SOL     OW25549   2.381   5.680   6.875
 8217SOL    HW125550   2.445   5.655   6.948
 8217SOL    HW225551   2.349   5.597   6.830
 8218SOL     OW25552   4.434   1.917   0.010
 8218SOL    HW125553   4.367   1.988   0.033
 8218SOL    HW225554   4.408   1.874   6.943
 8219SOL     OW25555   5.599   3.191   0.260
 8219SOL    HW125556   5.499   3.195   0.252
 8219SOL    HW225557   5.625   3.206   0.355
 8220SOL     OW25558   4.202   3.424   1.415
 8220SOL    HW125559   4.195   3.329   1.445
 8220SOL    HW225560   4.297   3.444   1.393
 8221SOL     OW25561   5.370   3.428   3.856
 8221SOL    HW125562   5.385   3.521   3.889
 8221SOL    HW225563   5.280   3.423   3.812
 8222SOL     OW25564   5.689   1.307   3.013
 8222SOL    HW125565   5.671   1.385   2.953
 8222SOL    HW225566   5.768   1.327   3.071
 8223SOL     OW25567   1.113   3.564   6.940
 8223SOL    HW125568   1.154   3.629   7.005
 8223SOL    HW225569   1.048   3.612   6.882
 8224SOL     OW25570   1.215   3.509   2.671
 8224SOL    HW125571   1.272   3.591   2.666
 8224SOL    HW225572   1.146   3.511   2.598
 8225SOL     OW25573   4.790   0.322   1.120
 8225SOL    HW125574   4.797   0.340   1.022
 8225SOL    HW225575   4.699   0.347   1.152
 8226SOL     OW25576   4.295   0.263   6.790
 8226SOL    HW125577   4.266   0.247   6.884
 8226SOL    HW225578   4.239   0.335   6.749
 8227SOL     OW25579   6.022   4.600   3.212
 8227SOL    HW125580   5.989   4.506   3.220
 8227SOL    HW225581   6.098   4.614   3.276
 8228SOL     OW25582   0.003   1.184   3.512
 8228SOL    HW125583   6.984   1.095   3.535
 8228SOL    HW225584   6.970   1.225   3.438
 8229SOL     OW25585   5.864   5.181   6.313
 8229SOL    HW125586   5.948   5.153   6.267
 8229SOL    HW225587   5.792   5.193   6.245
 8230SOL     OW25588   4.823   6.862   3.448
 8230SOL    HW125589   4.897   6.923   3.476
 8230SOL    HW225590   4.762   6.909   3.385
 8231SOL     OW25591   3.688   5.702   1.484
 8231SOL    HW125592   3.683   5.602   1.488
 8231SOL    HW225593   3.596   5.740   1.489
 8232SOL     OW25594   2.794   1.173   0.521
 8232SOL    HW125595   2.813   1.166   0.619
 8232SOL    HW225596   2.699   1.147   0.504
 8233SOL     OW25597   1.060   5.815   6.527
 8233SOL    HW125598   1.103   5.904   6.511
 8233SOL    HW225599   1.105   5.746   6.471
 8234SOL     OW25600   1.635   2.987   0.018
 8234SOL    HW125601   1.731   2.956   0.017
 8234SOL    HW225602   1.633   3.086   0.013
 8235SOL     OW25603   4.777   2.594   6.868
 8235SOL    HW125604   4.782   2.634   6.777
 8235SOL    HW225605   4.707   2.641   6.922
 8236SOL     OW25606   6.473   1.679   1.875
 8236SOL    HW125607   6.410   1.625   1.930
 8236SOL    HW225608   6.522   1.744   1.934
 8237SOL     OW25609   3.515   6.335   5.382
 8237SOL    HW125610   3.416   6.348   5.371
 8237SOL    HW225611   3.559   6.424   5.393
 8238SOL     OW25612   7.011   1.299   5.282
 8238SOL    HW125613   6.940   1.302   5.211
 8238SOL    HW225614   6.975   1.253   5.363
 8239SOL     OW25615   4.744   1.556   6.136
 8239SOL    HW125616   4.728   1.500   6.054
 8239SOL    HW225617   4.736   1.653   6.113
 8240SOL     OW25618   3.437   3.028   2.836
 8240SOL    HW125619   3.363   3.092   2.856
 8240SOL    HW225620   3.425   2.990   2.744
 8241SOL     OW25621   3.941   6.282   1.251
 8241SOL    HW125622   4.033   6.297   1.287
 8241SOL    HW225623   3.885   6.237   1.320
 8242SOL     OW25624   1.968   4.347   4.829
 8242SOL    HW125625   2.040   4.321   4.765
 8242SOL    HW225626   1.879   4.328   4.787
 8243SOL     OW25627   0.131   4.279   4.446
 8243SOL    HW125628   0.045   4.243   4.408
 8243SOL    HW225629   0.207   4.249   4.388
 8244SOL     OW25630   3.049   5.807   5.404
 8244SOL    HW125631   3.083   5.868   5.476
 8244SOL    HW225632   3.120   5.741   5.379
 8245SOL     OW25633   4.618   4.222   1.093
 8245SOL    HW125634   4.686   4.168   1.143
 8245SOL    HW225635   4.569   4.281   1.158
 8246SOL     OW25636   5.918   3.149   5.263
 8246SOL    HW125637   6.005   3.141   5.312
 8246SOL    HW225638   5.861   3.219   5.306
 8247SOL     OW25639   1.294   5.704   7.018
 8247SOL    HW125640   1.260   5.767   0.068
 8247SOL    HW225641   1.233   5.705   6.939
 8248SOL     OW25642   6.541   3.927   3.427
 8248SOL    HW125643   6.488   3.872   3.363
 8248SOL    HW225644   6.562   4.016   3.386
 8249SOL     OW25645   1.002   5.847   3.396
 8249SOL    HW125646   1.066   5.918   3.424
 8249SOL    HW225647   1.015   5.827   3.298
 8250SOL     OW25648   3.181   2.920   2.370
 8250SOL    HW125649   3.083   2.900   2.371
 8250SOL    HW225650   3.198   2.996   2.307
 8251SOL     OW25651   5.755   0.791   3.960
 8251SOL    HW125652   5.736   0.737   3.878
 8251SOL    HW225653   5.817   0.866   3.937
 8252SOL     OW25654   1.033   3.843   4.675
 8252SOL    HW125655   1.033   3.743   4.689
 8252SOL    HW225656   0.983   3.886   4.750
 8253SOL     OW25657   3.094   2.976   5.856
 8253SOL    HW125658   3.110   3.021   5.944
 8253SOL    HW225659   3.013   3.015   5.813
 8254SOL     OW25660   4.731   4.865   2.874
 8254SOL    HW125661   4.698   4.854   2.780
 8254SOL    HW225662   4.686   4.797   2.932
 8255SOL     OW25663   4.005   5.304   3.621
 8255SOL    HW125664   4.038   5.210   3.628
 8255SOL    HW225665   4.080   5.367   3.640
 8256SOL     OW25666   5.407   2.172   2.997
 8256SOL    HW125667   5.338   2.103   2.975
 8256SOL    HW225668   5.458   2.196   2.915
 8257SOL     OW25669   6.530   4.480   4.353
 8257SOL    HW125670   6.586   4.402   4.380
 8257SOL    HW225671   6.580   4.536   4.287
 8258SOL     OW25672   5.558   1.801   0.426
 8258SOL    HW125673   5.519   1.709   0.433
 8258SOL    HW225674   5.636   1.809   0.487
 8259SOL     OW25675   4.595   0.446   1.268
 8259SOL    HW125676   4.559   0.469   1.359
 8259SOL    HW225677   4.524   0.464   1.199
 8260SOL     OW25678   3.314   5.435   6.168
 8260SOL    HW125679   3.322   5.532   6.143
 8260SOL    HW225680   3.357   5.379   6.097
 8261SOL     OW25681   4.729   1.687   1.509
 8261SOL    HW125682   4.752   1.686   1.411
 8261SOL    HW225683   4.663   1.614   1.528
 8262SOL     OW25684   6.161   2.674   2.156
 8262SOL    HW125685   6.081   2.626   2.120
 8262SOL    HW225686   6.151   2.688   2.254
 8263SOL     OW25687   5.996   2.063   6.992
 8263SOL    HW125688   5.971   2.011   0.054
 8263SOL    HW225689   6.059   2.137   7.018
 8264SOL     OW25690   1.713   4.191   1.723
 8264SOL    HW125691   1.742   4.139   1.804
 8264SOL    HW225692   1.621   4.228   1.739
 8265SOL     OW25693   2.205   0.610   2.848
 8265SOL    HW125694   2.119   0.639   2.890
 8265SOL    HW225695   2.202   0.512   2.828
 8266SOL     OW25696   3.071   1.078   2.996
 8266SOL    HW125697   3.036   1.074   2.903
 8266SOL    HW225698   3.055   0.990   3.042
 8267SOL     OW25699   7.003   3.108   1.730
 8267SOL    HW125700   6.943   3.176   1.688
 8267SOL    HW225701   0.067   3.099   1.676
 8268SOL     OW25702   2.248   4.408   6.696
 8268SOL    HW125703   2.214   4.417   6.790
 8268SOL    HW225704   2.311   4.330   6.692
 8269SOL     OW25705   5.267   2.475   6.865
 8269SOL    HW125706   5.174   2.495   6.896
 8269SOL    HW225707   5.332   2.490   6.939
 8270SOL     OW25708   2.157   6.157   4.149
 8270SOL    HW125709   2.151   6.249   4.188
 8270SOL    HW225710   2.076   6.104   4.175
 8271SOL     OW25711   0.374   2.334   2.827
 8271SOL    HW125712   0.458   2.291   2.860
 8271SOL    HW225713   0.299   2.314   2.890
 8272SOL     OW25714   3.674   1.426   4.305
 8272SOL    HW125715   3.737   1.367   4.255
 8272SOL    HW225716   3.725   1.495   4.356
 8273SOL     OW25717   2.062   6.476   1.677
 8273SOL    HW125718   1.981   6.423   1.703
 8273SOL    HW225719   2.093   6.529   1.756
 8274SOL     OW25720   5.473   3.678   3.568
 8274SOL    HW125721   5.432   3.725   3.646
 8274SOL    HW225722   5.403   3.630   3.516
 8275SOL     OW25723   6.411   2.325   6.871
 8275SOL    HW125724   6.441   2.357   6.781
 8275SOL    HW225725   6.379   2.230   6.863
 8276SOL     OW25726   1.374   1.434   3.515
 8276SOL    HW125727   1.409   1.361   3.457
 8276SOL    HW225728   1.374   1.520   3.464
 8277SOL     OW25729   0.175   1.183   0.774
 8277SOL    HW125730   0.099   1.140   0.725
 8277SOL    HW225731   0.177   1.149   0.868
 8278SOL     OW25732   0.881   2.511   0.344
 8278SOL    HW125733   0.934   2.596   0.340
 8278SOL    HW225734   0.920   2.451   0.413
 8279SOL     OW25735   0.219   6.526   3.969
 8279SOL    HW125736   0.259   6.470   3.897
 8279SOL    HW225737   0.275   6.608   3.983
 8280SOL     OW25738   3.342   2.719   5.987
 8280SOL    HW125739   3.297   2.797   6.030
 8280SOL    HW225740   3.291   2.636   6.007
 8281SOL     OW25741   3.853   5.155   1.896
 8281SOL    HW125742   3.915   5.196   1.963
 8281SOL    HW225743   3.821   5.225   1.832
 8282SOL     OW25744   6.777   2.944   6.135
 8282SOL    HW125745   6.702   2.883   6.161
 8282SOL    HW225746   6.842   2.950   6.211
 8283SOL     OW25747   2.240   2.522   6.101
 8283SOL    HW125748   2.214   2.584   6.026
 8283SOL    HW225749   2.184   2.439   6.095
 8284SOL     OW25750   6.435   4.778   1.925
 8284SOL    HW125751   6.409   4.874   1.909
 8284SOL    HW225752   6.439   4.761   2.024
 8285SOL     OW25753   3.748   2.908   3.497
 8285SOL    HW125754   3.730   2.918   3.595
 8285SOL    HW225755   3.836   2.862   3.484
 8286SOL     OW25756   0.274   2.632   0.241
 8286SOL    HW125757   0.265   2.568   0.165
 8286SOL    HW225758   0.345   2.699   0.220
 8287SOL     OW25759   1.302   0.003   4.845
 8287SOL    HW125760   1.296   6.947   4.910
 8287SOL    HW225761   1.373   7.003   4.777
 8288SOL     OW25762   2.490   1.481   3.147
 8288SOL    HW125763   2.535   1.571   3.146
 8288SOL    HW225764   2.411   1.484   3.208
 8289SOL     OW25765   0.907   6.542   0.276
 8289SOL    HW125766   0.901   6.603   0.197
 8289SOL    HW225767   0.981   6.572   0.337
 8290SOL     OW25768   6.157   1.502   1.523
 8290SOL    HW125769   6.177   1.591   1.565
 8290SOL    HW225770   6.212   1.431   1.567
 8291SOL     OW25771   3.970   0.686   1.685
 8291SOL    HW125772   4.007   0.721   1.598
 8291SOL    HW225773   3.886   0.635   1.667
 8292SOL     OW25774   2.566   0.808   6.071
 8292SOL    HW125775   2.650   0.773   6.113
 8292SOL    HW225776   2.550   0.759   5.985
 8293SOL     OW25777   5.993   5.529   5.422
 8293SOL    HW125778   5.925   5.457   5.414
 8293SOL    HW225779   6.045   5.536   5.337
 8294SOL     OW25780   6.285   2.388   0.067
 8294SOL    HW125781   6.333   2.358   7.005
 8294SOL    HW225782   6.213   2.453   0.041
 8295SOL     OW25783   5.404   2.311   6.456
 8295SOL    HW125784   5.389   2.348   6.364
 8295SOL    HW225785   5.502   2.305   6.474
 8296SOL     OW25786   0.798   5.325   5.340
 8296SOL    HW125787   0.789   5.233   5.378
 8296SOL    HW225788   0.727   5.384   5.378
 8297SOL     OW25789   1.272   3.549   3.784
 8297SOL    HW125790   1.348   3.573   3.723
 8297SOL    HW225791   1.206   3.493   3.734
 8298SOL     OW25792   4.431   2.303   2.711
 8298SOL    HW125793   4.488   2.385   2.713
 8298SOL    HW225794   4.447   2.254   2.625
 8299SOL     OW25795   6.045   1.238   1.303
 8299SOL    HW125796   5.962   1.182   1.314
 8299SOL    HW225797   6.019   1.333   1.288
 8300SOL     OW25798   1.216   5.729   2.724
 8300SOL    HW125799   1.238   5.802   2.659
 8300SOL    HW225800   1.272   5.740   2.806
 8301SOL     OW25801   3.547   1.510   5.804
 8301SOL    HW125802   3.533   1.470   5.714
 8301SOL    HW225803   3.570   1.438   5.869
 8302SOL     OW25804   6.691   4.997   6.375
 8302SOL    HW125805   6.633   4.979   6.454
 8302SOL    HW225806   6.775   4.945   6.382
 8303SOL     OW25807   0.124   0.292   0.253
 8303SOL    HW125808   0.221   0.298   0.277
 8303SOL    HW225809   0.093   0.197   0.261
 8304SOL     OW25810   6.943   3.277   0.331
 8304SOL    HW125811   6.941   3.282   0.430
 8304SOL    HW225812   6.998   3.198   0.303
 8305SOL     OW25813   3.118   5.550   2.535
 8305SOL    HW125814   3.197   5.505   2.493
 8305SOL    HW225815   3.095   5.504   2.621
 8306SOL     OW25816   2.123   1.769   3.692
 8306SOL    HW125817   2.025   1.753   3.702
 8306SOL    HW225818   2.139   1.867   3.681
 8307SOL     OW25819   3.521   6.330   1.221
 8307SOL    HW125820   3.533   6.294   1.128
 8307SOL    HW225821   3.555   6.424   1.225
 8308SOL     OW25822   2.696   0.838   2.607
 8308SOL    HW125823   2.598   0.822   2.613
 8308SOL    HW225824   2.728   0.813   2.516
 8309SOL     OW25825   5.804   6.354   2.609
 8309SOL    HW125826   5.770   6.342   2.702
 8309SOL    HW225827   5.904   6.344   2.609
 8310SOL     OW25828   6.076   4.909   6.836
 8310SOL    HW125829   5.998   4.947   6.787
 8310SOL    HW225830   6.078   4.810   6.823
 8311SOL     OW25831   6.676   0.839   6.046
 8311SOL    HW125832   6.720   0.773   5.985
 8311SOL    HW225833   6.746   0.892   6.092
 8312SOL     OW25834   4.757   5.885   1.264
 8312SOL    HW125835   4.676   5.944   1.270
 8312SOL    HW225836   4.750   5.826   1.184
 8313SOL     OW25837   4.249   1.902   3.084
 8313SOL    HW125838   4.196   1.930   3.164
 8313SOL    HW225839   4.257   1.802   3.083
 8314SOL     OW25840   6.540   0.063   4.376
 8314SOL    HW125841   6.526   0.127   4.301
 8314SOL    HW225842   6.609   7.016   4.351
 8315SOL     OW25843   5.379   4.409   0.100
 8315SOL    HW125844   5.302   4.354   0.067
 8315SOL    HW225845   5.431   4.357   0.168
 8316SOL     OW25846   2.768   5.813   6.448
 8316SOL    HW125847   2.868   5.811   6.440
 8316SOL    HW225848   2.739   5.749   6.520
 8317SOL     OW25849   2.042   5.109   1.573
 8317SOL    HW125850   2.119   5.126   1.513
 8317SOL    HW225851   2.075   5.082   1.663
 8318SOL     OW25852   3.321   1.091   5.813
 8318SOL    HW125853   3.312   1.142   5.898
 8318SOL    HW225854   3.371   1.006   5.830
 8319SOL     OW25855   2.475   0.496   4.987
 8319SOL    HW125856   2.542   0.569   4.996
 8319SOL    HW225857   2.393   0.530   4.941
 8320SOL     OW25858   3.972   5.204   0.880
 8320SOL    HW125859   3.963   5.110   0.913
 8320SOL    HW225860   3.896   5.259   0.915
 8321SOL     OW25861   6.778   1.240   1.966
 8321SOL    HW125862   6.701   1.204   1.914
 8321SOL    HW225863   6.744   1.295   2.043
 8322SOL     OW25864   5.376   6.520   0.778
 8322SOL    HW125865   5.375   6.602   0.835
 8322SOL    HW225866   5.421   6.541   0.691
 8323SOL     OW25867   1.303   0.811   1.377
 8323SOL    HW125868   1.356   0.892   1.398
 8323SOL    HW225869   1.218   0.838   1.331
 8324SOL     OW25870   6.823   0.721   2.803
 8324SOL    HW125871   6.816   0.674   2.715
 8324SOL    HW225872   6.800   0.657   2.877
 8325SOL     OW25873   3.265   3.657   4.972
 8325SOL    HW125874   3.284   3.751   5.001
 8325SOL    HW225875   3.166   3.644   4.964
 8326SOL     OW25876   4.310   2.852   5.605
 8326SOL    HW125877   4.229   2.898   5.570
 8326SOL    HW225878   4.357   2.912   5.669
 8327SOL     OW25879   4.838   2.366   5.967
 8327SOL    HW125880   4.750   2.413   5.969
 8327SOL    HW225881   4.835   2.287   6.029
 8328SOL     OW25882   2.048   2.370   3.899
 8328SOL    HW125883   2.063   2.466   3.922
 8328SOL    HW225884   2.106   2.312   3.956
 8329SOL     OW25885   1.189   4.009   5.126
 8329SOL    HW125886   1.275   4.008   5.177
 8329SOL    HW225887   1.114   4.031   5.188
 8330SOL     OW25888   2.683   6.767   6.662
 8330SOL    HW125889   2.696   6.685   6.605
 8330SOL    HW225890   2.773   6.802   6.690
 8331SOL     OW25891   2.074   0.036   0.822
 8331SOL    HW125892   2.065   6.982   0.888
 8331SOL    HW225893   2.052   0.002   0.730
 8332SOL     OW25894   5.010   5.967   3.204
 8332SOL    HW125895   5.095   5.987   3.155
 8332SOL    HW225896   5.004   5.868   3.221
 8333SOL     OW25897   2.095   4.739   5.318
 8333SOL    HW125898   2.175   4.700   5.273
 8333SOL    HW225899   2.085   4.835   5.291
 8334SOL     OW25900   6.623   6.944   3.055
 8334SOL    HW125901   6.702   6.949   3.117
 8334SOL    HW225902   6.646   6.884   2.978
 8335SOL     OW25903   6.192   6.034   5.015
 8335SOL    HW125904   6.098   6.044   5.050
 8335SOL    HW225905   6.256   6.071   5.082
 8336SOL     OW25906   1.498   1.548   2.588
 8336SOL    HW125907   1.457   1.539   2.497
 8336SOL    HW225908   1.485   1.642   2.621
 8337SOL     OW25909   6.271   6.477   2.519
 8337SOL    HW125910   6.214   6.553   2.486
 8337SOL    HW225911   6.213   6.405   2.555
 8338SOL     OW25912   2.634   5.554   0.583
 8338SOL    HW125913   2.686   5.627   0.539
 8338SOL    HW225914   2.689   5.515   0.657
 8339SOL     OW25915   5.311   1.108   3.241
 8339SOL    HW125916   5.392   1.166   3.227
 8339SOL    HW225917   5.235   1.145   3.188
 8340SOL     OW25918   5.151   3.830   1.852
 8340SOL    HW125919   5.154   3.823   1.752
 8340SOL    HW225920   5.165   3.926   1.878
 8341SOL     OW25921   1.658   0.221   0.619
 8341SOL    HW125922   1.674   0.247   0.715
 8341SOL    HW225923   1.683   0.298   0.560
 8342SOL     OW25924   5.312   0.213   1.209
 8342SOL    HW125925   5.261   0.289   1.250
 8342SOL    HW225926   5.395   0.196   1.262
 8343SOL     OW25927   6.922   4.352   4.809
 8343SOL    HW125928   6.903   4.447   4.781
 8343SOL    HW225929   0.002   4.338   4.813
 8344SOL     OW25930   3.725   6.797   4.562
 8344SOL    HW125931   3.771   6.709   4.549
 8344SOL    HW225932   3.734   6.851   4.478
 8345SOL     OW25933   5.724   1.486   2.773
 8345SOL    HW125934   5.802   1.542   2.799
 8345SOL    HW225935   5.650   1.544   2.739
 8346SOL     OW25936   3.723   5.381   1.716
 8346SOL    HW125937   3.750   5.471   1.752
 8346SOL    HW225938   3.632   5.358   1.751
 8347SOL     OW25939   3.150   5.205   4.359
 8347SOL    HW125940   3.058   5.193   4.396
 8347SOL    HW225941   3.179   5.122   4.311
 8348SOL     OW25942   2.121   0.297   0.804
 8348SOL    HW125943   2.076   0.209   0.815
 8348SOL    HW225944   2.079   0.346   0.727
 8349SOL     OW25945   5.894   4.856   2.832
 8349SOL    HW125946   5.801   4.860   2.794
 8349SOL    HW225947   5.912   4.765   2.868
 8350SOL     OW25948   6.266   1.012   5.144
 8350SOL    HW125949   6.303   0.928   5.185
 8350SOL    HW225950   6.202   0.987   5.071
 8351SOL     OW25951   2.489   6.802   2.336
 8351SOL    HW125952   2.439   6.717   2.318
 8351SOL    HW225953   2.586   6.781   2.350
 8352SOL     OW25954   5.653   6.092   2.166
 8352SOL    HW125955   5.673   6.159   2.238
 8352SOL    HW225956   5.718   6.016   2.171
 8353SOL     OW25957   2.281   3.694   1.731
 8353SOL    HW125958   2.210   3.624   1.727
 8353SOL    HW225959   2.369   3.652   1.753
 8354SOL     OW25960   3.154   0.249   0.633
 8354SOL    HW125961   3.210   0.203   0.702
 8354SOL    HW225962   3.174   0.209   0.543
 8355SOL     OW25963   2.742   2.087   1.014
 8355SOL    HW125964   2.752   2.103   1.113
 8355SOL    HW225965   2.652   2.047   0.996
 8356SOL     OW25966   2.851   4.719   0.441
 8356SOL    HW125967   2.876   4.814   0.459
 8356SOL    HW225968   2.802   4.714   0.354
 8357SOL     OW25969   3.736   6.696   2.402
 8357SOL    HW125970   3.710   6.675   2.496
 8357SOL    HW225971   3.686   6.636   2.339
 8358SOL     OW25972   2.917   1.850   5.215
 8358SOL    HW125973   2.860   1.880   5.291
 8358SOL    HW225974   3.006   1.896   5.220
 8359SOL     OW25975   3.934   5.120   4.099
 8359SOL    HW125976   3.859   5.167   4.148
 8359SOL    HW225977   3.996   5.079   4.166
 8360SOL     OW25978   4.501   0.751   3.298
 8360SOL    HW125979   4.425   0.744   3.234
 8360SOL    HW225980   4.578   0.696   3.264
 8361SOL     OW25981   1.526   0.630   3.016
 8361SOL    HW125982   1.577   0.613   2.931
 8361SOL    HW225983   1.432   0.657   2.993
 8362SOL     OW25984   3.154   2.819   0.852
 8362SOL    HW125985   3.205   2.808   0.937
 8362SOL    HW225986   3.179   2.906   0.809
 8363SOL     OW25987   0.427   3.299   2.029
 8363SOL    HW125988   0.439   3.201   2.048
 8363SOL    HW225989   0.487   3.325   1.953
 8364SOL     OW25990   6.769   4.997   5.044
 8364SOL    HW125991   6.799   5.081   5.000
 8364SOL    HW225992   6.769   5.010   5.143
 8365SOL     OW25993   1.873   3.918   5.849
 8365SOL    HW125994   1.895   3.937   5.753
 8365SOL    HW225995   1.822   3.832   5.854
 8366SOL     OW25996   2.440   6.763   1.905
 8366SOL    HW125997   2.489   6.818   1.837
 8366SOL    HW225998   2.416   6.822   1.983
 8367SOL     OW25999   4.951   5.451   3.829
 8367SOL    HW126000   5.036   5.448   3.777
 8367SOL    HW226001   4.964   5.504   3.913
 8368SOL     OW26002   2.843   5.496   6.186
 8368SOL    HW126003   2.858   5.554   6.266
 8368SOL    HW226004   2.780   5.543   6.123
 8369SOL     OW26005   1.883   1.342   1.545
 8369SOL    HW126006   1.969   1.394   1.548
 8369SOL    HW226007   1.902   1.245   1.562
 8370SOL     OW26008   2.528   1.128   0.551
 8370SOL    HW126009   2.432   1.136   0.576
 8370SOL    HW226010   2.544   1.038   0.510
 8371SOL     OW26011   1.332   2.339   0.202
 8371SOL    HW126012   1.291   2.270   0.142
 8371SOL    HW226013   1.429   2.348   0.180
 8372SOL     OW26014   5.832   0.689   0.067
 8372SOL    HW126015   5.777   0.711   7.007
 8372SOL    HW226016   5.929   0.695   0.044
 8373SOL     OW26017   1.978   6.906   3.748
 8373SOL    HW126018   1.963   6.871   3.655
 8373SOL    HW226019   2.025   6.995   3.743
 8374SOL     OW26020   6.620   1.936   5.567
 8374SOL    HW126021   6.602   2.029   5.535
 8374SOL    HW226022   6.586   1.925   5.661
 8375SOL     OW26023   3.993   0.517   6.380
 8375SOL    HW126024   3.907   0.513   6.431
 8375SOL    HW226025   3.973   0.517   6.282
 8376SOL     OW26026   4.667   0.047   3.749
 8376SOL    HW126027   4.730   0.055   3.827
 8376SOL    HW226028   4.575   0.075   3.778
 8377SOL     OW26029   4.361   4.962   0.076
 8377SOL    HW126030   4.278   4.969   0.019
 8377SOL    HW226031   4.357   4.879   0.131
 8378SOL     OW26032   5.273   3.492   3.423
 8378SOL    HW126033   5.201   3.498   3.354
 8378SOL    HW226034   5.355   3.452   3.382
 8379SOL     OW26035   5.037   3.141   2.726
 8379SOL    HW126036   5.109   3.081   2.762
 8379SOL    HW226037   5.061   3.171   2.635
 8380SOL     OW26038   5.705   1.178   4.268
 8380SOL    HW126039   5.763   1.218   4.197
 8380SOL    HW226040   5.615   1.222   4.265
 8381SOL     OW26041   1.941   5.085   4.726
 8381SOL    HW126042   1.888   5.132   4.657
 8381SOL    HW226043   1.914   4.989   4.731
 8382SOL     OW26044   0.563   4.783   1.873
 8382SOL    HW126045   0.616   4.705   1.839
 8382SOL    HW226046   0.567   4.784   1.973
 8383SOL     OW26047   3.214   1.272   5.596
 8383SOL    HW126048   3.245   1.238   5.685
 8383SOL    HW226049   3.122   1.237   5.577
 8384SOL     OW26050   0.691   0.214   1.390
 8384SOL    HW126051   0.716   0.308   1.366
 8384SOL    HW226052   0.625   0.179   1.324
 8385SOL     OW26053   4.251   1.801   1.102
 8385SOL    HW126054   4.206   1.712   1.110
 8385SOL    HW226055   4.214   1.863   1.172
 8386SOL     OW26056   0.068   2.644   2.021
 8386SOL    HW126057   0.099   2.683   1.935
 8386SOL    HW226058   0.065   2.544   2.013
 8387SOL     OW26059   0.659   1.895   2.421
 8387SOL    HW126060   0.717   1.859   2.348
 8387SOL    HW226061   0.638   1.991   2.402
 8388SOL     OW26062   1.363   6.643   2.623
 8388SOL    HW126063   1.384   6.677   2.715
 8388SOL    HW226064   1.416   6.560   2.606
 8389SOL     OW26065   6.896   2.949   3.981
 8389SOL    HW126066   6.869   3.043   3.961
 8389SOL    HW226067   6.815   2.896   4.008
 8390SOL     OW26068   6.184   2.091   6.410
 8390SOL    HW126069   6.205   2.188   6.424
 8390SOL    HW226070   6.267   2.037   6.419
 8391SOL     OW26071   6.098   0.781   0.711
 8391SOL    HW126072   6.062   0.693   0.681
 8391SOL    HW226073   6.108   0.781   0.810
 8392SOL     OW26074   3.697   3.119   4.534
 8392SOL    HW126075   3.645   3.164   4.607
 8392SOL    HW226076   3.777   3.074   4.574
 8393SOL     OW26077   5.569   0.430   0.559
 8393SOL    HW126078   5.625   0.357   0.519
 8393SOL    HW226079   5.543   0.495   0.488
 8394SOL     OW26080   4.883   3.445   3.096
 8394SOL    HW126081   4.879   3.533   3.048
 8394SOL    HW226082   4.868   3.371   3.032
 8395SOL     OW26083   2.001   1.236   6.078
 8395SOL    HW126084   2.005   1.148   6.030
 8395SOL    HW226085   2.002   1.311   6.011
 8396SOL     OW26086   4.750   5.144   4.114
 8396SOL    HW126087   4.658   5.172   4.086
 8396SOL    HW226088   4.745   5.098   4.202
 8397SOL     OW26089   5.192   6.248   2.821
 8397SOL    HW126090   5.199   6.275   2.917
 8397SOL    HW226091   5.275   6.200   2.794
 8398SOL     OW26092   6.131   1.788   6.413
 8398SOL    HW126093   6.097   1.858   6.349
 8398SOL    HW226094   6.146   1.830   6.503
 8399SOL     OW26095   0.673   4.020   2.977
 8399SOL    HW126096   0.758   3.997   3.024
 8399SOL    HW226097   0.598   4.021   3.044
 8400SOL     OW26098   1.191   0.623   4.095
 8400SOL    HW126099   1.240   0.558   4.037
 8400SOL    HW226100   1.153   0.575   4.173
 8401SOL     OW26101   1.619   0.563   5.977
 8401SOL    HW126102   1.562   0.632   6.022
 8401SOL    HW226103   1.654   0.499   6.045
 8402SOL     OW26104   2.644   0.623   5.832
 8402SOL    HW126105   2.651   0.704   5.774
 8402SOL    HW226106   2.728   0.613   5.885
 8403SOL     OW26107   5.910   4.518   6.237
 8403SOL    HW126108   5.995   4.473   6.209
 8403SOL    HW226109   5.870   4.468   6.315
 8404SOL     OW26110   0.987   1.106   6.841
 8404SOL    HW126111   0.907   1.151   6.879
 8404SOL    HW226112   1.060   1.103   6.909
 8405SOL     OW26113   3.654   6.532   5.545
 8405SOL    HW126114   3.691   6.623   5.526
 8405SOL    HW226115   3.723   6.478   5.593
 8406SOL     OW26116   6.327   1.162   5.969
 8406SOL    HW126117   6.345   1.145   5.872
 8406SOL    HW226118   6.402   1.215   6.008
 8407SOL     OW26119   5.038   0.671   5.045
 8407SOL    HW126120   4.976   0.715   5.110
 8407SOL    HW226121   4.984   0.633   4.970
 8408SOL     OW26122   3.728   2.159   1.652
 8408SOL    HW126123   3.712   2.228   1.723
 8408SOL    HW226124   3.741   2.205   1.564
 8409SOL     OW26125   4.642   2.738   1.900
 8409SOL    HW126126   4.726   2.786   1.924
 8409SOL    HW226127   4.585   2.796   1.842
 8410SOL     OW26128   0.010   1.767   1.682
 8410SOL    HW126129   0.065   1.809   1.610
 8410SOL    HW226130   0.056   1.684   1.715
 8411SOL     OW26131   0.600   5.273   1.436
 8411SOL    HW126132   0.695   5.256   1.463
 8411SOL    HW226133   0.549   5.308   1.514
 8412SOL     OW26134   2.749   2.207   0.012
 8412SOL    HW126135   2.776   2.267   6.957
 8412SOL    HW226136   2.691   2.134   6.997
 8413SOL     OW26137   3.853   5.840   5.053
 8413SOL    HW126138   3.921   5.795   5.111
 8413SOL    HW226139   3.876   5.826   4.957
 8414SOL     OW26140   1.401   0.056   1.008
 8414SOL    HW126141   1.456   0.057   1.092
 8414SOL    HW226142   1.436   7.004   0.947
 8415SOL     OW26143   3.818   1.351   6.178
 8415SOL    HW126144   3.915   1.363   6.161
 8415SOL    HW226145   3.803   1.328   6.274
 8416SOL     OW26146   0.321   2.322   5.303
 8416SOL    HW126147   0.402   2.265   5.310
 8416SOL    HW226148   0.299   2.337   5.207
 8417SOL     OW26149   1.816   3.055   6.046
 8417SOL    HW126150   1.860   2.974   6.084
 8417SOL    HW226151   1.886   3.123   6.023
 8418SOL     OW26152   6.667   6.229   2.331
 8418SOL    HW126153   6.735   6.298   2.352
 8418SOL    HW226154   6.576   6.270   2.331
 8419SOL     OW26155   4.013   1.490   3.921
 8419SOL    HW126156   3.920   1.492   3.883
 8419SOL    HW226157   4.052   1.582   3.919
 8420SOL     OW26158   4.120   1.225   2.375
 8420SOL    HW126159   4.064   1.271   2.444
 8420SOL    HW226160   4.159   1.294   2.313
 8421SOL     OW26161   4.770   0.115   6.546
 8421SOL    HW126162   4.774   0.163   6.458
 8421SOL    HW226163   4.684   0.137   6.591
 8422SOL     OW26164   5.435   1.398   4.505
 8422SOL    HW126165   5.533   1.396   4.527
 8422SOL    HW226166   5.422   1.370   4.410
 8423SOL     OW26167   6.498   5.666   0.169
 8423SOL    HW126168   6.544   5.721   0.100
 8423SOL    HW226169   6.416   5.624   0.129
 8424SOL     OW26170   2.500   0.147   5.289
 8424SOL    HW126171   2.408   0.130   5.253
 8424SOL    HW226172   2.520   0.082   5.361
 8425SOL     OW26173   3.409   3.077   1.679
 8425SOL    HW126174   3.350   3.027   1.743
 8425SOL    HW226175   3.467   3.013   1.630
 8426SOL     OW26176   3.670   3.518   1.744
 8426SOL    HW126177   3.622   3.443   1.699
 8426SOL    HW226178   3.703   3.489   1.833
 8427SOL     OW26179   3.719   4.052   2.505
 8427SOL    HW126180   3.814   4.024   2.487
 8427SOL    HW226181   3.709   4.076   2.601
 8428SOL     OW26182   4.881   1.497   1.657
 8428SOL    HW126183   4.981   1.496   1.652
 8428SOL    HW226184   4.847   1.583   1.618
 8429SOL     OW26185   3.259   5.981   5.511
 8429SOL    HW126186   3.356   5.975   5.530
 8429SOL    HW226187   3.238   6.071   5.472
 8430SOL     OW26188   5.147   6.653   5.801
 8430SOL    HW126189   5.170   6.570   5.749
 8430SOL    HW226190   5.051   6.676   5.785
 8431SOL     OW26191   2.531   3.058   6.326
 8431SOL    HW126192   2.497   2.992   6.259
 8431SOL    HW226193   2.609   3.107   6.287
 8432SOL     OW26194   6.620   5.287   5.559
 8432SOL    HW126195   6.663   5.198   5.543
 8432SOL    HW226196   6.690   5.354   5.584
 8433SOL     OW26197   4.847   1.915   0.356
 8433SOL    HW126198   4.765   1.901   0.301
 8433SOL    HW226199   4.892   1.827   0.372
 8434SOL     OW26200   2.777   6.129   4.269
 8434SOL    HW126201   2.828   6.048   4.299
 8434SOL    HW226202   2.725   6.166   4.345
 8435SOL     OW26203   6.822   1.593   3.636
 8435SOL    HW126204   6.789   1.624   3.725
 8435SOL    HW226205   6.753   1.532   3.595
 8436SOL     OW26206   2.692   4.930   2.752
 8436SOL    HW126207   2.599   4.896   2.735
 8436SOL    HW226208   2.758   4.871   2.705
 8437SOL     OW26209   1.807   5.788   0.443
 8437SOL    HW126210   1.778   5.824   0.532
 8437SOL    HW226211   1.862   5.857   0.396
 8438SOL     OW26212   0.928   4.371   2.273
 8438SOL    HW126213   0.867   4.299   2.306
 8438SOL    HW226214   0.900   4.459   2.312
 8439SOL     OW26215   5.845   4.490   2.732
 8439SOL    HW126216   5.941   4.504   2.758
 8439SOL    HW226217   5.799   4.438   2.803
 8440SOL     OW26218   1.443   1.815   2.610
 8440SOL    HW126219   1.369   1.843   2.550
 8440SOL    HW226220   1.485   1.896   2.651
 8441SOL     OW26221   6.985   3.006   6.326
 8441SOL    HW126222   0.005   2.914   6.319
 8441SOL    HW226223   7.014   3.049   6.411
 8442SOL     OW26224   3.249   2.526   6.192
 8442SOL    HW126225   3.315   2.497   6.261
 8442SOL    HW226226   3.212   2.445   6.146
 8443SOL     OW26227   2.030   3.865   3.023
 8443SOL    HW126228   2.053   3.814   3.106
 8443SOL    HW226229   2.047   3.963   3.038
 8444SOL     OW26230   5.405   5.892   5.121
 8444SOL    HW126231   5.388   5.802   5.162
 8444SOL    HW226232   5.396   5.885   5.021
 8445SOL     OW26233   4.878   6.408   6.341
 8445SOL    HW126234   4.786   6.443   6.321
 8445SOL    HW226235   4.946   6.475   6.311
 8446SOL     OW26236   6.494   5.884   4.717
 8446SOL    HW126237   6.448   5.813   4.664
 8446SOL    HW226238   6.521   5.959   4.656
 8447SOL     OW26239   3.731   2.144   3.639
 8447SOL    HW126240   3.670   2.153   3.718
 8447SOL    HW226241   3.677   2.141   3.555
 8448SOL     OW26242   3.554   6.890   2.650
 8448SOL    HW126243   3.536   6.899   2.748
 8448SOL    HW226244   3.628   6.952   2.624
 8449SOL     OW26245   0.566   2.378   3.904
 8449SOL    HW126246   0.573   2.473   3.874
 8449SOL    HW226247   0.644   2.356   3.962
 8450SOL     OW26248   6.609   1.473   0.997
 8450SOL    HW126249   6.513   1.445   0.993
 8450SOL    HW226250   6.615   1.567   1.032
 8451SOL     OW26251   4.722   2.758   0.386
 8451SOL    HW126252   4.777   2.792   0.310
 8451SOL    HW226253   4.687   2.667   0.363
 8452SOL     OW26254   5.261   0.734   5.881
 8452SOL    HW126255   5.252   0.652   5.824
 8452SOL    HW226256   5.240   0.815   5.826
 8453SOL     OW26257   0.143   1.119   0.255
 8453SOL    HW126258   0.209   1.044   0.261
 8453SOL    HW226259   0.188   1.201   0.221
 8454SOL     OW26260   6.418   5.973   6.906
 8454SOL    HW126261   6.466   6.038   6.846
 8454SOL    HW226262   6.325   6.005   6.921
 8455SOL     OW26263   6.522   0.801   2.712
 8455SOL    HW126264   6.612   0.814   2.754
 8455SOL    HW226265   6.532   0.756   2.624
 8456SOL     OW26266   6.148   0.483   1.990
 8456SOL    HW126267   6.247   0.477   2.000
 8456SOL    HW226268   6.104   0.440   2.069
 8457SOL     OW26269   6.299   6.571   4.780
 8457SOL    HW126270   6.348   6.631   4.717
 8457SOL    HW226271   6.345   6.572   4.869
 8458SOL     OW26272   1.520   6.456   0.852
 8458SOL    HW126273   1.449   6.511   0.895
 8458SOL    HW226274   1.610   6.486   0.886
 8459SOL     OW26275   0.885   6.484   3.805
 8459SOL    HW126276   0.833   6.401   3.785
 8459SOL    HW226277   0.904   6.489   3.903
 8460SOL     OW26278   4.106   3.551   3.779
 8460SOL    HW126279   4.195   3.558   3.823
 8460SOL    HW226280   4.075   3.643   3.753
 8461SOL     OW26281   6.368   3.659   3.900
 8461SOL    HW126282   6.394   3.599   3.976
 8461SOL    HW226283   6.273   3.689   3.912
 8462SOL     OW26284   2.662   2.372   2.177
 8462SOL    HW126285   2.739   2.328   2.130
 8462SOL    HW226286   2.638   2.457   2.130
 8463SOL     OW26287   6.421   0.397   1.938
 8463SOL    HW126288   6.414   0.412   1.840
 8463SOL    HW226289   6.498   0.336   1.957
 8464SOL     OW26290   6.582   1.410   4.968
 8464SOL    HW126291   6.581   1.310   4.973
 8464SOL    HW226292   6.664   1.445   5.011
 8465SOL     OW26293   1.715   0.661   0.314
 8465SOL    HW126294   1.695   0.751   0.353
 8465SOL    HW226295   1.813   0.652   0.299
 8466SOL     OW26296   1.188   0.222   3.737
 8466SOL    HW126297   1.169   0.287   3.663
 8466SOL    HW226298   1.128   0.142   3.727
 8467SOL     OW26299   3.601   5.110   1.321
 8467SOL    HW126300   3.585   5.209   1.316
 8467SOL    HW226301   3.577   5.077   1.412
 8468SOL     OW26302   4.620   2.729   0.031
 8468SOL    HW126303   4.560   2.807   0.014
 8468SOL    HW226304   4.566   2.651   0.062
 8469SOL     OW26305   5.055   2.211   5.125
 8469SOL    HW126306   5.059   2.162   5.212
 8469SOL    HW226307   5.098   2.300   5.135
 8470SOL     OW26308   1.838   2.719   6.775
 8470SOL    HW126309   1.738   2.710   6.777
 8470SOL    HW226310   1.877   2.686   6.860
 8471SOL     OW26311   3.655   1.716   5.941
 8471SOL    HW126312   3.691   1.685   6.029
 8471SOL    HW226313   3.641   1.638   5.881
 8472SOL     OW26314   1.254   5.958   2.548
 8472SOL    HW126315   1.252   5.946   2.449
 8472SOL    HW226316   1.300   6.043   2.570
 8473SOL     OW26317   6.696   5.521   6.669
 8473SOL    HW126318   6.633   5.455   6.627
 8473SOL    HW226319   6.754   5.474   6.735
 8474SOL     OW26320   4.500   5.842   6.892
 8474SOL    HW126321   4.526   5.897   6.813
 8474SOL    HW226322   4.414   5.794   6.873
 8475SOL     OW26323   5.149   1.697   2.887
 8475SOL    HW126324   5.168   1.655   2.799
 8475SOL    HW226325   5.050   1.704   2.900
 8476SOL     OW26326   5.223   1.137   2.865
 8476SOL    HW126327   5.162   1.209   2.898
 8476SOL    HW226328   5.183   1.047   2.885
 8477SOL     OW26329   2.502   1.310   3.437
 8477SOL    HW126330   2.584   1.362   3.413
 8477SOL    HW226331   2.484   1.319   3.534
 8478SOL     OW26332   1.188   1.807   6.344
 8478SOL    HW126333   1.218   1.744   6.415
 8478SOL    HW226334   1.216   1.900   6.368
 8479SOL     OW26335   5.480   6.707   2.099
 8479SOL    HW126336   5.468   6.619   2.145
 8479SOL    HW226337   5.453   6.699   2.004
 8480SOL     OW26338   2.434   1.142   2.478
 8480SOL    HW126339   2.345   1.186   2.467
 8480SOL    HW226340   2.421   1.046   2.503
 8481SOL     OW26341   4.013   0.439   5.636
 8481SOL    HW126342   4.109   0.447   5.660
 8481SOL    HW226343   3.973   0.359   5.679
 8482SOL     OW26344   6.042   0.690   1.226
 8482SOL    HW126345   6.034   0.621   1.299
 8482SOL    HW226346   6.062   0.779   1.267
 8483SOL     OW26347   4.712   6.151   1.537
 8483SOL    HW126348   4.760   6.237   1.558
 8483SOL    HW226349   4.650   6.129   1.613
 8484SOL     OW26350   6.482   4.488   5.890
 8484SOL    HW126351   6.464   4.390   5.882
 8484SOL    HW226352   6.395   4.538   5.893
 8485SOL     OW26353   2.167   3.204   6.576
 8485SOL    HW126354   2.135   3.296   6.597
 8485SOL    HW226355   2.267   3.202   6.577
 8486SOL     OW26356   4.655   0.208   1.961
 8486SOL    HW126357   4.618   0.293   2.000
 8486SOL    HW226358   4.581   0.158   1.915
 8487SOL     OW26359   4.398   0.563   1.106
 8487SOL    HW126360   4.352   0.516   1.031
 8487SOL    HW226361   4.468   0.624   1.069
 8488SOL     OW26362   0.013   4.255   6.451
 8488SOL    HW126363   0.027   4.221   6.358
 8488SOL    HW226364   6.988   4.185   6.506
 8489SOL     OW26365   3.476   0.019   3.260
 8489SOL    HW126366   3.476   6.944   3.228
 8489SOL    HW226367   3.480   0.080   3.181
 8490SOL     OW26368   3.669   5.090   2.391
 8490SOL    HW126369   3.639   5.095   2.295
 8490SOL    HW226370   3.769   5.092   2.395
 8491SOL     OW26371   0.118   0.816   1.185
 8491SOL    HW126372   0.163   0.735   1.147
 8491SOL    HW226373   0.138   0.822   1.283
 8492SOL     OW26374   5.949   4.007   4.308
 8492SOL    HW126375   5.866   4.037   4.261
 8492SOL    HW226376   6.000   3.944   4.249
 8493SOL     OW26377   4.221   3.171   0.527
 8493SOL    HW126378   4.132   3.125   0.531
 8493SOL    HW226379   4.246   3.202   0.619
 8494SOL     OW26380   3.120   6.041   6.751
 8494SOL    HW126381   3.059   6.117   6.731
 8494SOL    HW226382   3.145   5.994   6.667
 8495SOL     OW26383   0.262   3.504   6.469
 8495SOL    HW126384   0.291   3.462   6.383
 8495SOL    HW226385   0.342   3.522   6.526
 8496SOL     OW26386   1.498   1.913   4.377
 8496SOL    HW126387   1.513   1.815   4.370
 8496SOL    HW226388   1.585   1.958   4.401
 8497SOL     OW26389   5.373   3.554   4.283
 8497SOL    HW126390   5.292   3.534   4.229
 8497SOL    HW226391   5.399   3.650   4.271
 8498SOL     OW26392   6.500   1.091   1.966
 8498SOL    HW126393   6.446   1.016   1.925
 8498SOL    HW226394   6.529   1.065   2.058
 8499SOL     OW26395   6.807   4.122   0.811
 8499SOL    HW126396   6.835   4.189   0.742
 8499SOL    HW226397   6.876   4.117   0.883
 8500SOL     OW26398   1.489   0.878   5.125
 8500SOL    HW126399   1.459   0.972   5.110
 8500SOL    HW226400   1.454   0.820   5.051
 8501SOL     OW26401   3.199   3.351   6.149
 8501SOL    HW126402   3.249   3.398   6.076
 8501SOL    HW226403   3.238   3.377   6.237
 8502SOL     OW26404   0.418   6.384   1.130
 8502SOL    HW126405   0.428   6.301   1.076
 8502SOL    HW226406   0.362   6.366   1.210
 8503SOL     OW26407   3.905   5.714   3.169
 8503SOL    HW126408   3.972   5.764   3.113
 8503SOL    HW226409   3.898   5.620   3.136
 8504SOL     OW26410   1.999   5.013   2.886
 8504SOL    HW126411   2.044   5.102   2.877
 8504SOL    HW226412   1.997   4.967   2.797
 8505SOL     OW26413   4.282   1.828   2.493
 8505SOL    HW126414   4.377   1.821   2.462
 8505SOL    HW226415   4.247   1.919   2.471
 8506SOL     OW26416   0.459   5.185   0.159
 8506SOL    HW126417   0.374   5.162   0.208
 8506SOL    HW226418   0.491   5.104   0.110
 8507SOL     OW26419   2.377   0.314   4.220
 8507SOL    HW126420   2.460   0.366   4.204
 8507SOL    HW226421   2.400   0.219   4.243
 8508SOL     OW26422   0.861   3.524   6.217
 8508SOL    HW126423   0.819   3.433   6.212
 8508SOL    HW226424   0.840   3.575   6.134
 8509SOL     OW26425   6.868   2.886   4.508
 8509SOL    HW126426   6.873   2.862   4.412
 8509SOL    HW226427   6.959   2.910   4.542
 8510SOL     OW26428   5.430   6.467   3.234
 8510SOL    HW126429   5.442   6.564   3.213
 8510SOL    HW226430   5.519   6.425   3.254
 8511SOL     OW26431   6.735   5.166   1.039
 8511SOL    HW126432   6.823   5.197   1.074
 8511SOL    HW226433   6.668   5.163   1.113
 8512SOL     OW26434   4.073   2.926   1.040
 8512SOL    HW126435   4.086   2.832   1.007
 8512SOL    HW226436   4.055   2.924   1.139
 8513SOL     OW26437   0.818   3.589   0.860
 8513SOL    HW126438   0.799   3.686   0.872
 8513SOL    HW226439   0.737   3.536   0.883
 8514SOL     OW26440   2.210   3.121   5.249
 8514SOL    HW126441   2.233   3.114   5.346
 8514SOL    HW226442   2.287   3.085   5.195
 8515SOL     OW26443   3.020   1.370   0.538
 8515SOL    HW126444   2.931   1.355   0.495
 8515SOL    HW226445   3.033   1.468   0.553
 8516SOL     OW26446   6.911   3.484   5.741
 8516SOL    HW126447   6.875   3.429   5.666
 8516SOL    HW226448   7.011   3.478   5.741
 8517SOL     OW26449   1.211   2.370   5.728
 8517SOL    HW126450   1.167   2.364   5.638
 8517SOL    HW226451   1.148   2.338   5.799
 8518SOL     OW26452   5.625   5.061   0.442
 8518SOL    HW126453   5.643   5.158   0.427
 8518SOL    HW226454   5.710   5.013   0.463
 8519SOL     OW26455   1.535   4.061   1.167
 8519SOL    HW126456   1.516   3.994   1.238
 8519SOL    HW226457   1.625   4.101   1.182
 8520SOL     OW26458   2.841   3.772   6.138
 8520SOL    HW126459   2.855   3.871   6.143
 8520SOL    HW226460   2.930   3.726   6.142
 8521SOL     OW26461   1.894   0.149   4.958
 8521SOL    HW126462   1.813   0.121   4.906
 8521SOL    HW226463   1.872   0.231   5.011
 8522SOL     OW26464   0.314   0.871   0.307
 8522SOL    HW126465   0.228   0.822   0.291
 8522SOL    HW226466   0.365   0.877   0.222
 8523SOL     OW26467   4.077   2.096   2.020
 8523SOL    HW126468   4.148   2.164   2.040
 8523SOL    HW226469   4.107   2.006   2.053
 8524SOL     OW26470   2.536   6.208   5.210
 8524SOL    HW126471   2.584   6.131   5.167
 8524SOL    HW226472   2.479   6.174   5.286
 8525SOL     OW26473   6.393   2.574   3.419
 8525SOL    HW126474   6.349   2.633   3.486
 8525SOL    HW226475   6.431   2.493   3.464
 8526SOL     OW26476   0.712   4.735   6.031
 8526SOL    HW126477   0.635   4.680   6.061
 8526SOL    HW226478   0.709   4.825   6.074
 8527SOL     OW26479   1.309   0.753   6.461
 8527SOL    HW126480   1.316   0.839   6.512
 8527SOL    HW226481   1.398   0.709   6.458
 8528SOL     OW26482   5.685   6.777   0.273
 8528SOL    HW126483   5.744   6.842   0.225
 8528SOL    HW226484   5.714   6.769   0.368
 8529SOL     OW26485   0.881   6.277   6.849
 8529SOL    HW126486   0.822   6.339   6.901
 8529SOL    HW226487   0.894   6.312   6.757
 8530SOL     OW26488   3.570   4.156   3.042
 8530SOL    HW126489   3.614   4.148   3.131
 8530SOL    HW226490   3.472   4.170   3.053
 8531SOL     OW26491   6.349   6.058   3.318
 8531SOL    HW126492   6.447   6.051   3.340
 8531SOL    HW226493   6.338   6.068   3.219
 8532SOL     OW26494   3.496   5.573   0.177
 8532SOL    HW126495   3.521   5.479   0.202
 8532SOL    HW226496   3.480   5.626   0.259
 8533SOL     OW26497   2.444   5.848   5.300
 8533SOL    HW126498   2.416   5.752   5.303
 8533SOL    HW226499   2.369   5.905   5.335
 8534SOL     OW26500   2.076   3.224   2.085
 8534SOL    HW126501   2.049   3.261   2.174
 8534SOL    HW226502   2.125   3.294   2.034
 8535SOL     OW26503   6.001   6.503   1.968
 8535SOL    HW126504   6.031   6.574   1.905
 8535SOL    HW226505   6.062   6.424   1.960
 8536SOL     OW26506   2.302   0.904   4.245
 8536SOL    HW126507   2.335   0.968   4.315
 8536SOL    HW226508   2.218   0.860   4.277
 8537SOL     OW26509   5.906   1.057   2.853
 8537SOL    HW126510   5.809   1.080   2.867
 8537SOL    HW226511   5.926   0.971   2.900
 8538SOL     OW26512   0.516   2.682   6.663
 8538SOL    HW126513   0.428   2.652   6.699
 8538SOL    HW226514   0.567   2.604   6.628
 8539SOL     OW26515   5.497   3.759   2.001
 8539SOL    HW126516   5.468   3.845   2.043
 8539SOL    HW226517   5.597   3.753   2.003
 8540SOL     OW26518   4.032   0.017   1.124
 8540SOL    HW126519   3.955   6.992   1.080
 8540SOL    HW226520   3.998   0.080   1.194
 8541SOL     OW26521   1.369   2.971   3.137
 8541SOL    HW126522   1.295   2.944   3.075
 8541SOL    HW226523   1.358   3.067   3.163
 8542SOL     OW26524   2.946   5.182   6.464
 8542SOL    HW126525   3.014   5.244   6.424
 8542SOL    HW226526   2.993   5.107   6.511
 8543SOL     OW26527   3.847   1.722   6.760
 8543SOL    HW126528   3.833   1.797   6.696
 8543SOL    HW226529   3.945   1.703   6.769
 8544SOL     OW26530   5.891   2.537   4.433
 8544SOL    HW126531   5.980   2.493   4.439
 8544SOL    HW226532   5.902   2.637   4.439
 8545SOL     OW26533   4.352   0.273   5.302
 8545SOL    HW126534   4.255   0.270   5.325
 8545SOL    HW226535   4.402   0.323   5.373
 8546SOL     OW26536   4.524   2.114   6.063
 8546SOL    HW126537   4.491   2.033   6.112
 8546SOL    HW226538   4.497   2.196   6.112
 8547SOL     OW26539   1.726   4.787   2.247
 8547SOL    HW126540   1.826   4.786   2.249
 8547SOL    HW226541   1.694   4.875   2.213
 8548SOL     OW26542   5.735   2.726   5.289
 8548SOL    HW126543   5.739   2.629   5.314
 8548SOL    HW226544   5.732   2.734   5.189
 8549SOL     OW26545   4.957   2.368   4.199
 8549SOL    HW126546   4.979   2.465   4.196
 8549SOL    HW226547   5.042   2.315   4.206
 8550SOL     OW26548   1.852   4.990   5.840
 8550SOL    HW126549   1.848   5.080   5.796
 8550SOL    HW226550   1.770   4.976   5.896
 8551SOL     OW26551   2.632   5.122   0.612
 8551SOL    HW126552   2.605   5.208   0.570
 8551SOL    HW226553   2.723   5.132   0.653
 8552SOL     OW26554   2.945   6.767   3.392
 8552SOL    HW126555   2.941   6.825   3.473
 8552SOL    HW226556   2.967   6.824   3.312
 8553SOL     OW26557   6.278   5.620   6.852
 8553SOL    HW126558   6.262   5.636   6.949
 8553SOL    HW226559   6.244   5.697   6.799
 8554SOL     OW26560   5.684   3.728   6.957
 8554SOL    HW126561   5.644   3.799   6.899
 8554SOL    HW226562   5.647   3.639   6.932
 8555SOL     OW26563   2.138   6.401   4.255
 8555SOL    HW126564   2.049   6.443   4.272
 8555SOL    HW226565   2.205   6.472   4.233
 8556SOL     OW26566   5.616   0.648   5.367
 8556SOL    HW126567   5.703   0.628   5.411
 8556SOL    HW226568   5.542   0.603   5.417
 8557SOL     OW26569   6.887   1.735   1.322
 8557SOL    HW126570   6.917   1.796   1.248
 8557SOL    HW226571   6.836   1.658   1.284
 8558SOL     OW26572   1.874   4.486   2.185
 8558SOL    HW126573   1.791   4.500   2.240
 8558SOL    HW226574   1.929   4.570   2.187
 8559SOL     OW26575   1.376   1.100   5.035
 8559SOL    HW126576   1.411   1.136   4.949
 8559SOL    HW226577   1.374   1.173   5.104
 8560SOL     OW26578   6.273   2.791   0.087
 8560SOL    HW126579   6.200   2.797   0.155
 8560SOL    HW226580   6.362   2.788   0.133
 8561SOL     OW26581   5.531   6.503   5.816
 8561SOL    HW126582   5.454   6.476   5.758
 8561SOL    HW226583   5.562   6.594   5.789
 8562SOL     OW26584   3.805   1.091   4.843
 8562SOL    HW126585   3.879   1.142   4.800
 8562SOL    HW226586   3.757   1.038   4.773
 8563SOL     OW26587   2.447   2.886   6.126
 8563SOL    HW126588   2.405   2.808   6.173
 8563SOL    HW226589   2.512   2.853   6.057
 8564SOL     OW26590   0.766   5.350   4.134
 8564SOL    HW126591   0.671   5.367   4.107
 8564SOL    HW226592   0.789   5.254   4.116
 8565SOL     OW26593   3.544   0.714   1.431
 8565SOL    HW126594   3.608   0.754   1.365
 8565SOL    HW226595   3.505   0.787   1.488
 8566SOL     OW26596   1.622   4.661   4.345
 8566SOL    HW126597   1.638   4.566   4.372
 8566SOL    HW226598   1.681   4.684   4.267
 8567SOL     OW26599   5.032   6.614   6.238
 8567SOL    HW126600   5.114   6.645   6.189
 8567SOL    HW226601   5.054   6.599   6.334
 8568SOL     OW26602   5.030   6.871   0.733
 8568SOL    HW126603   5.106   6.827   0.684
 8568SOL    HW226604   4.945   6.821   0.715
 8569SOL     OW26605   2.246   0.829   5.250
 8569SOL    HW126606   2.260   0.730   5.255
 8569SOL    HW226607   2.335   0.874   5.245
 8570SOL     OW26608   6.700   3.722   6.074
 8570SOL    HW126609   6.715   3.687   6.166
 8570SOL    HW226610   6.715   3.821   6.074
 8571SOL     OW26611   0.464   4.763   6.720
 8571SOL    HW126612   0.423   4.742   6.809
 8571SOL    HW226613   0.461   4.862   6.705
 8572SOL     OW26614   2.409   4.424   6.348
 8572SOL    HW126615   2.414   4.507   6.404
 8572SOL    HW226616   2.486   4.365   6.371
 8573SOL     OW26617   3.226   5.759   4.259
 8573SOL    HW126618   3.234   5.684   4.325
 8573SOL    HW226619   3.232   5.722   4.166
 8574SOL     OW26620   1.236   4.226   4.188
 8574SOL    HW126621   1.203   4.284   4.262
 8574SOL    HW226622   1.244   4.132   4.221
 8575SOL     OW26623   2.730   3.141   6.139
 8575SOL    HW126624   2.789   3.220   6.128
 8575SOL    HW226625   2.655   3.146   6.073
 8576SOL     OW26626   1.749   0.463   0.529
 8576SOL    HW126627   1.698   0.497   0.450
 8576SOL    HW226628   1.723   0.514   0.611
 8577SOL     OW26629   6.217   5.762   4.989
 8577SOL    HW126630   6.282   5.754   5.064
 8577SOL    HW226631   6.198   5.859   4.972
 8578SOL     OW26632   4.853   0.513   4.050
 8578SOL    HW126633   4.766   0.561   4.041
 8578SOL    HW226634   4.927   0.579   4.064
 8579SOL     OW26635   6.826   4.641   2.557
 8579SOL    HW126636   6.865   4.687   2.637
 8579SOL    HW226637   6.729   4.666   2.549
 8580SOL     OW26638   1.858   5.957   5.913
 8580SOL    HW126639   1.882   6.051   5.935
 8580SOL    HW226640   1.760   5.951   5.895
 8581SOL     OW26641   3.243   3.272   0.171
 8581SOL    HW126642   3.279   3.185   0.204
 8581SOL    HW226643   3.295   3.347   0.211
 8582SOL     OW26644   2.737   5.946   0.172
 8582SOL    HW126645   2.824   5.994   0.185
 8582SOL    HW226646   2.702   5.966   0.081
 8583SOL     OW26647   5.954   6.702   4.186
 8583SOL    HW126648   6.016   6.654   4.124
 8583SOL    HW226649   6.001   6.723   4.271
 8584SOL     OW26650   0.605   5.638   6.331
 8584SOL    HW126651   0.600   5.677   6.239
 8584SOL    HW226652   0.514   5.638   6.372
 8585SOL     OW26653   1.044   0.866   0.517
 8585SOL    HW126654   1.087   0.778   0.535
 8585SOL    HW226655   1.038   0.882   0.419
 8586SOL     OW26656   3.703   5.432   3.180
 8586SOL    HW126657   3.681   5.341   3.146
 8586SOL    HW226658   3.667   5.443   3.272
 8587SOL     OW26659   0.244   1.449   0.681
 8587SOL    HW126660   0.248   1.505   0.764
 8587SOL    HW226661   0.233   1.353   0.707
 8588SOL     OW26662   3.860   3.181   6.735
 8588SOL    HW126663   3.839   3.136   6.821
 8588SOL    HW226664   3.959   3.182   6.720
 8589SOL     OW26665   3.427   1.636   3.896
 8589SOL    HW126666   3.449   1.582   3.815
 8589SOL    HW226667   3.487   1.609   3.972
 8590SOL     OW26668   5.072   3.841   6.031
 8590SOL    HW126669   5.027   3.758   6.064
 8590SOL    HW226670   5.167   3.843   6.062
 8591SOL     OW26671   0.375   3.194   1.020
 8591SOL    HW126672   0.308   3.121   1.031
 8591SOL    HW226673   0.332   3.283   1.038
 8592SOL     OW26674   6.738   6.054   0.217
 8592SOL    HW126675   6.719   6.042   0.314
 8592SOL    HW226676   6.755   5.965   0.174
 8593SOL     OW26677   0.780   5.083   4.043
 8593SOL    HW126678   0.870   5.041   4.052
 8593SOL    HW226679   0.720   5.023   3.990
 8594SOL     OW26680   3.820   3.817   2.690
 8594SOL    HW126681   3.789   3.851   2.601
 8594SOL    HW226682   3.764   3.740   2.718
 8595SOL     OW26683   1.087   2.501   2.597
 8595SOL    HW126684   1.070   2.571   2.528
 8595SOL    HW226685   1.181   2.468   2.589
 8596SOL     OW26686   0.019   3.851   2.713
 8596SOL    HW126687   6.976   3.794   2.660
 8596SOL    HW226688   6.990   3.895   2.788
 8597SOL     OW26689   2.230   1.876   0.884
 8597SOL    HW126690   2.163   1.905   0.952
 8597SOL    HW226691   2.193   1.799   0.832
 8598SOL     OW26692   6.473   2.865   1.826
 8598SOL    HW126693   6.424   2.809   1.894
 8598SOL    HW226694   6.474   2.816   1.739
 8599SOL     OW26695   0.670   2.508   0.617
 8599SOL    HW126696   0.581   2.484   0.580
 8599SOL    HW226697   0.718   2.568   0.553
 8600SOL     OW26698   0.160   2.873   5.941
 8600SOL    HW126699   0.237   2.929   5.973
 8600SOL    HW226700   0.182   2.834   5.851
 8601SOL     OW26701   0.800   0.511   4.471
 8601SOL    HW126702   0.708   0.483   4.499
 8601SOL    HW226703   0.841   0.566   4.543
 8602SOL     OW26704   0.999   6.177   2.249
 8602SOL    HW126705   0.932   6.238   2.206
 8602SOL    HW226706   1.049   6.227   2.319
 8603SOL     OW26707   4.838   4.028   1.988
 8603SOL    HW126708   4.869   4.088   1.915
 8603SOL    HW226709   4.787   3.951   1.949
 8604SOL     OW26710   6.425   2.393   3.679
 8604SOL    HW126711   6.370   2.465   3.721
 8604SOL    HW226712   6.483   2.351   3.749
 8605SOL     OW26713   2.207   5.498   1.612
 8605SOL    HW126714   2.248   5.539   1.693
 8605SOL    HW226715   2.107   5.497   1.623
 8606SOL     OW26716   4.178   5.757   4.851
 8606SOL    HW126717   4.232   5.673   4.859
 8606SOL    HW226718   4.110   5.745   4.778
 8607SOL     OW26719   3.144   6.380   0.307
 8607SOL    HW126720   3.111   6.286   0.300
 8607SOL    HW226721   3.155   6.404   0.404
 8608SOL     OW26722   5.657   6.379   3.354
 8608SOL    HW126723   5.689   6.458   3.303
 8608SOL    HW226724   5.710   6.369   3.437
 8609SOL     OW26725   5.585   6.875   5.446
 8609SOL    HW126726   5.507   6.845   5.392
 8609SOL    HW226727   5.667   6.880   5.389
 8610SOL     OW26728   0.399   6.875   4.411
 8610SOL    HW126729   0.420   6.826   4.496
 8610SOL    HW226730   0.484   6.906   4.369
 8611SOL     OW26731   1.716   1.783   2.591
 8611SOL    HW126732   1.755   1.726   2.519
 8611SOL    HW226733   1.616   1.771   2.592
 8612SOL     OW26734   5.272   3.222   4.496
 8612SOL    HW126735   5.220   3.285   4.438
 8612SOL    HW226736   5.305   3.271   4.577
 8613SOL     OW26737   1.577   0.563   0.954
 8613SOL    HW126738   1.569   0.465   0.933
 8613SOL    HW226739   1.512   0.587   1.026
 8614SOL     OW26740   1.627   2.951   3.549
 8614SOL    HW126741   1.623   2.857   3.585
 8614SOL    HW226742   1.678   2.951   3.463
 8615SOL     OW26743   4.683   1.846   6.041
 8615SOL    HW126744   4.591   1.833   6.005
 8615SOL    HW226745   4.678   1.905   6.122
 8616SOL     OW26746   0.762   3.223   1.089
 8616SOL    HW126747   0.710   3.156   1.035
 8616SOL    HW226748   0.818   3.278   1.028
 8617SOL     OW26749   6.511   3.512   0.552
 8617SOL    HW126750   6.517   3.493   0.454
 8617SOL    HW226751   6.559   3.440   0.602
 8618SOL     OW26752   3.238   1.247   3.120
 8618SOL    HW126753   3.238   1.334   3.071
 8618SOL    HW226754   3.181   1.181   3.071
 8619SOL     OW26755   4.024   6.426   0.757
 8619SOL    HW126756   4.073   6.364   0.696
 8619SOL    HW226757   4.001   6.379   0.842
 8620SOL     OW26758   5.951   6.089   4.079
 8620SOL    HW126759   5.924   6.148   4.155
 8620SOL    HW226760   5.944   5.993   4.108
 8621SOL     OW26761   4.936   1.269   3.794
 8621SOL    HW126762   4.885   1.267   3.880
 8621SOL    HW226763   5.034   1.267   3.813
 8622SOL     OW26764   5.180   4.988   5.776
 8622SOL    HW126765   5.189   4.915   5.843
 8622SOL    HW226766   5.097   5.040   5.795
 8623SOL     OW26767   5.900   1.637   3.888
 8623SOL    HW126768   5.969   1.584   3.838
 8623SOL    HW226769   5.812   1.590   3.882
 8624SOL     OW26770   6.916   2.837   3.616
 8624SOL    HW126771   6.963   2.899   3.553
 8624SOL    HW226772   6.817   2.852   3.609
 8625SOL     OW26773   3.184   1.490   6.953
 8625SOL    HW126774   3.152   1.418   6.892
 8625SOL    HW226775   3.276   1.467   6.985
 8626SOL     OW26776   3.171   3.879   1.510
 8626SOL    HW126777   3.184   3.891   1.412
 8626SOL    HW226778   3.191   3.965   1.557
 8627SOL     OW26779   3.128   0.194   6.462
 8627SOL    HW126780   3.037   0.177   6.501
 8627SOL    HW226781   3.198   0.177   6.531
 8628SOL     OW26782   5.980   0.411   1.780
 8628SOL    HW126783   6.034   0.400   1.697
 8628SOL    HW226784   6.036   0.450   1.853
 8629SOL     OW26785   1.160   6.365   3.305
 8629SOL    HW126786   1.248   6.397   3.341
 8629SOL    HW226787   1.086   6.412   3.353
 8630SOL     OW26788   5.189   4.844   4.269
 8630SOL    HW126789   5.091   4.854   4.284
 8630SOL    HW226790   5.231   4.935   4.266
 8631SOL     OW26791   3.820   0.003   3.135
 8631SOL    HW126792   3.816   6.934   3.180
 8631SOL    HW226793   3.815   0.076   3.203
 8632SOL     OW26794   2.680   0.994   2.985
 8632SOL    HW126795   2.748   0.940   2.935
 8632SOL    HW226796   2.723   1.040   3.062
 8633SOL     OW26797   6.109   6.446   2.886
 8633SOL    HW126798   6.120   6.518   2.818
 8633SOL    HW226799   6.198   6.414   2.916
 8634SOL     OW26800   5.460   6.981   1.400
 8634SOL    HW126801   5.530   0.018   1.357
 8634SOL    HW226802   5.442   6.901   1.342
 8635SOL     OW26803   6.196   3.852   5.723
 8635SOL    HW126804   6.111   3.904   5.715
 8635SOL    HW226805   6.230   3.858   5.817
 8636SOL     OW26806   5.771   4.910   1.441
 8636SOL    HW126807   5.702   4.874   1.378
 8636SOL    HW226808   5.823   4.982   1.397
 8637SOL     OW26809   0.531   0.639   1.982
 8637SOL    HW126810   0.580   0.720   1.950
 8637SOL    HW226811   0.490   0.591   1.904
 8638SOL     OW26812   6.489   4.719   0.912
 8638SOL    HW126813   6.501   4.757   0.820
 8638SOL    HW226814   6.576   4.723   0.961
 8639SOL     OW26815   5.799   2.641   3.866
 8639SOL    HW126816   5.758   2.694   3.941
 8639SOL    HW226817   5.775   2.545   3.876
 8640SOL     OW26818   4.976   5.576   1.181
 8640SOL    HW126819   5.053   5.640   1.186
 8640SOL    HW226820   4.908   5.611   1.117
 8641SOL     OW26821   5.115   5.255   3.949
 8641SOL    HW126822   5.101   5.313   4.029
 8641SOL    HW226823   5.159   5.308   3.876
 8642SOL     OW26824   4.557   0.984   1.059
 8642SOL    HW126825   4.590   0.893   1.084
 8642SOL    HW226826   4.528   1.033   1.141
 8643SOL     OW26827   4.718   6.942   0.144
 8643SOL    HW126828   4.722   0.017   0.111
 8643SOL    HW226829   4.806   6.918   0.185
 8644SOL     OW26830   6.136   3.147   5.406
 8644SOL    HW126831   6.141   3.171   5.503
 8644SOL    HW226832   6.185   3.215   5.352
 8645SOL     OW26833   6.360   3.671   2.084
 8645SOL    HW126834   6.432   3.717   2.031
 8645SOL    HW226835   6.392   3.655   2.177
 8646SOL     OW26836   4.273   6.308   0.129
 8646SOL    HW126837   4.221   6.361   0.196
 8646SOL    HW226838   4.285   6.215   0.162
 8647SOL     OW26839   4.915   4.954   1.872
 8647SOL    HW126840   4.917   5.048   1.838
 8647SOL    HW226841   5.009   4.923   1.889
 8648SOL     OW26842   6.525   0.761   4.761
 8648SOL    HW126843   6.594   0.820   4.804
 8648SOL    HW226844   6.531   0.669   4.800
 8649SOL     OW26845   6.704   2.961   5.682
 8649SOL    HW126846   6.669   2.868   5.677
 8649SOL    HW226847   6.796   2.964   5.643
 8650SOL     OW26848   0.363   5.572   1.764
 8650SOL    HW126849   0.327   5.580   1.857
 8650SOL    HW226850   0.345   5.479   1.730
 8651SOL     OW26851   4.650   3.447   0.962
 8651SOL    HW126852   4.675   3.543   0.952
 8651SOL    HW226853   4.584   3.438   1.037
 8652SOL     OW26854   1.001   2.669   4.620
 8652SOL    HW126855   0.919   2.712   4.584
 8652SOL    HW226856   1.082   2.716   4.584
 8653SOL     OW26857   5.152   3.523   6.488
 8653SOL    HW126858   5.114   3.535   6.580
 8653SOL    HW226859   5.238   3.471   6.494
 8654SOL     OW26860   1.955   4.537   1.767
 8654SOL    HW126861   1.986   4.503   1.679
 8654SOL    HW226862   1.937   4.461   1.829
 8655SOL     OW26863   5.212   6.344   3.092
 8655SOL    HW126864   5.153   6.423   3.082
 8655SOL    HW226865   5.292   6.369   3.146
 8656SOL     OW26866   6.614   1.836   2.043
 8656SOL    HW126867   6.580   1.916   2.092
 8656SOL    HW226868   6.707   1.854   2.011
 8657SOL     OW26869   2.837   4.978   0.424
 8657SOL    HW126870   2.854   5.025   0.338
 8657SOL    HW226871   2.746   5.003   0.458
 8658SOL     OW26872   1.070   6.477   5.278
 8658SOL    HW126873   1.063   6.390   5.229
 8658SOL    HW226874   1.072   6.459   5.377
 8659SOL     OW26875   3.263   6.887   3.948
 8659SOL    HW126876   3.214   6.823   3.888
 8659SOL    HW226877   3.205   6.910   4.026
 8660SOL     OW26878   4.886   4.155   0.380
 8660SOL    HW126879   4.970   4.201   0.409
 8660SOL    HW226880   4.909   4.076   0.323
 8661SOL     OW26881   6.361   2.365   2.291
 8661SOL    HW126882   6.306   2.282   2.307
 8661SOL    HW226883   6.342   2.431   2.364
 8662SOL     OW26884   0.266   1.311   0.116
 8662SOL    HW126885   0.252   1.397   0.167
 8662SOL    HW226886   0.360   1.280   0.128
 8663SOL     OW26887   3.043   5.287   0.145
 8663SOL    HW126888   3.030   5.376   0.102
 8663SOL    HW226889   3.132   5.250   0.118
 8664SOL     OW26890   4.651   4.080   1.401
 8664SOL    HW126891   4.646   4.089   1.501
 8664SOL    HW226892   4.747   4.077   1.373
 8665SOL     OW26893   5.390   5.197   4.062
 8665SOL    HW126894   5.293   5.220   4.052
 8665SOL    HW226895   5.399   5.102   4.090
 8666SOL     OW26896   6.995   4.628   4.723
 8666SOL    HW126897   6.911   4.682   4.731
 8666SOL    HW226898   0.043   4.663   4.787
 8667SOL     OW26899   5.298   3.175   3.046
 8667SOL    HW126900   5.251   3.255   3.007
 8667SOL    HW226901   5.235   3.126   3.106
 8668SOL     OW26902   3.251   0.582   4.817
 8668SOL    HW126903   3.241   0.661   4.757
 8668SOL    HW226904   3.302   0.510   4.769
 8669SOL     OW26905   3.392   6.249   6.529
 8669SOL    HW126906   3.418   6.189   6.604
 8669SOL    HW226907   3.471   6.305   6.503
 8670SOL     OW26908   4.072   5.086   2.884
 8670SOL    HW126909   4.052   5.005   2.830
 8670SOL    HW226910   4.162   5.123   2.858
 8671SOL     OW26911   6.050   5.269   1.085
 8671SOL    HW126912   6.062   5.296   0.990
 8671SOL    HW226913   6.136   5.284   1.135
 8672SOL     OW26914   3.958   5.731   4.690
 8672SOL    HW126915   3.906   5.646   4.701
 8672SOL    HW226916   3.931   5.776   4.605
 8673SOL     OW26917   4.904   2.101   0.025
 8673SOL    HW126918   4.991   2.142   0.052
 8673SOL    HW226919   4.860   2.158   6.976
 8674SOL     OW26920   0.245   0.040   2.389
 8674SOL    HW126921   0.244   7.007   2.475
 8674SOL    HW226922   0.259   6.997   2.312
 8675SOL     OW26923   2.709   2.237   1.818
 8675SOL    HW126924   2.739   2.299   1.890
 8675SOL    HW226925   2.745   2.268   1.730
 8676SOL     OW26926   5.533   1.710   4.120
 8676SOL    HW126927   5.464   1.719   4.191
 8676SOL    HW226928   5.623   1.733   4.156
 8677SOL     OW26929   2.276   3.792   5.313
 8677SOL    HW126930   2.239   3.831   5.397
 8677SOL    HW226931   2.339   3.857   5.271
 8678SOL     OW26932   1.055   1.335   5.999
 8678SOL    HW126933   1.083   1.414   5.944
 8678SOL    HW226934   1.024   1.366   6.088
 8679SOL     OW26935   6.186   2.516   4.596
 8679SOL    HW126936   6.132   2.433   4.576
 8679SOL    HW226937   6.158   2.552   4.685
 8680SOL     OW26938   0.665   3.110   5.963
 8680SOL    HW126939   0.748   3.160   5.940
 8680SOL    HW226940   0.597   3.124   5.891
 8681SOL     OW26941   4.158   4.222   1.440
 8681SOL    HW126942   4.097   4.156   1.485
 8681SOL    HW226943   4.246   4.178   1.422
 8682SOL     OW26944   1.613   5.844   2.657
 8682SOL    HW126945   1.561   5.929   2.647
 8682SOL    HW226946   1.568   5.770   2.608
 8683SOL     OW26947   4.512   3.857   6.766
 8683SOL    HW126948   4.432   3.868   6.824
 8683SOL    HW226949   4.595   3.873   6.820
 8684SOL     OW26950   6.588   2.326   3.881
 8684SOL    HW126951   6.627   2.244   3.921
 8684SOL    HW226952   6.661   2.391   3.860
 8685SOL     OW26953   0.488   2.572   5.335
 8685SOL    HW126954   0.583   2.565   5.365
 8685SOL    HW226955   0.455   2.481   5.311
 8686SOL     OW26956   6.014   0.907   4.489
 8686SOL    HW126957   6.001   0.920   4.587
 8686SOL    HW226958   5.935   0.944   4.440
 8687SOL     OW26959   3.815   1.161   2.804
 8687SOL    HW126960   3.861   1.211   2.731
 8687SOL    HW226961   3.878   1.149   2.881
 8688SOL     OW26962   6.849   6.433   1.776
 8688SOL    HW126963   6.788   6.370   1.728
 8688SOL    HW226964   6.943   6.421   1.742
 8689SOL     OW26965   4.722   4.555   1.586
 8689SOL    HW126966   4.708   4.499   1.505
 8689SOL    HW226967   4.672   4.515   1.663
 8690SOL     OW26968   1.497   0.391   1.846
 8690SOL    HW126969   1.560   0.357   1.777
 8690SOL    HW226970   1.519   0.486   1.867
 8691SOL     OW26971   5.513   1.312   6.706
 8691SOL    HW126972   5.596   1.309   6.650
 8691SOL    HW226973   5.489   1.408   6.724
 8692SOL     OW26974   1.572   1.462   3.792
 8692SOL    HW126975   1.574   1.493   3.887
 8692SOL    HW226976   1.502   1.391   3.782
 8693SOL     OW26977   4.922   2.761   6.656
 8693SOL    HW126978   5.013   2.800   6.668
 8693SOL    HW226979   4.917   2.712   6.568
 8694SOL     OW26980   3.484   0.395   6.271
 8694SOL    HW126981   3.440   0.480   6.299
 8694SOL    HW226982   3.441   0.362   6.187
 8695SOL     OW26983   4.134   3.706   4.893
 8695SOL    HW126984   4.096   3.734   4.805
 8695SOL    HW226985   4.231   3.684   4.881
 8696SOL     OW26986   2.262   5.409   6.904
 8696SOL    HW126987   2.318   5.332   6.871
 8696SOL    HW226988   2.171   5.403   6.862
 8697SOL     OW26989   5.115   5.367   6.557
 8697SOL    HW126990   5.099   5.351   6.654
 8697SOL    HW226991   5.090   5.461   6.534
 8698SOL     OW26992   6.070   6.029   5.418
 8698SOL    HW126993   6.013   5.947   5.424
 8698SOL    HW226994   6.140   6.026   5.489
 8699SOL     OW26995   2.149   1.267   4.278
 8699SOL    HW126996   2.063   1.295   4.322
 8699SOL    HW226997   2.216   1.340   4.287
 8700SOL     OW26998   2.638   0.617   5.446
 8700SOL    HW126999   2.659   0.665   5.531
 8700SOL    HW227000   2.686   0.529   5.444
 8701SOL     OW27001   0.711   0.457   3.451
 8701SOL    HW127002   0.804   0.449   3.416
 8701SOL    HW227003   0.701   0.399   3.532
 8702SOL     OW27004   4.241   0.171   6.196
 8702SOL    HW127005   4.228   0.082   6.240
 8702SOL    HW227006   4.270   0.238   6.264
 8703SOL     OW27007   1.454   4.471   1.347
 8703SOL    HW127008   1.411   4.401   1.404
 8703SOL    HW227009   1.486   4.429   1.261
 8704SOL     OW27010   1.175   4.519   2.232
 8704SOL    HW127011   1.198   4.486   2.141
 8704SOL    HW227012   1.096   4.467   2.267
 8705SOL     OW27013   4.561   6.563   4.440
 8705SOL    HW127014   4.584   6.478   4.488
 8705SOL    HW227015   4.557   6.545   4.342
 8706SOL     OW27016   5.163   0.133   6.659
 8706SOL    HW127017   5.090   0.069   6.683
 8706SOL    HW227018   5.230   0.086   6.601
 8707SOL     OW27019   3.885   1.552   5.839
 8707SOL    HW127020   3.847   1.642   5.859
 8707SOL    HW227021   3.891   1.539   5.740
 8708SOL     OW27022   3.823   1.589   1.134
 8708SOL    HW127023   3.915   1.610   1.168
 8708SOL    HW227024   3.758   1.594   1.210
 8709SOL     OW27025   5.090   3.375   6.937
 8709SOL    HW127026   5.150   3.324   6.875
 8709SOL    HW227027   4.996   3.343   6.927
 8710SOL     OW27028   6.535   3.738   4.210
 8710SOL    HW127029   6.458   3.801   4.225
 8710SOL    HW227030   6.500   3.651   4.173
 8711SOL     OW27031   2.023   1.563   4.359
 8711SOL    HW127032   1.965   1.483   4.370
 8711SOL    HW227033   2.028   1.613   4.445
 8712SOL     OW27034   3.310   0.112   6.651
 8712SOL    HW127035   3.310   0.095   6.750
 8712SOL    HW227036   3.401   0.143   6.623
 8713SOL     OW27037   6.327   5.091   3.398
 8713SOL    HW127038   6.380   5.141   3.330
 8713SOL    HW227039   6.384   5.074   3.479
 8714SOL     OW27040   2.039   1.278   3.609
 8714SOL    HW127041   2.062   1.182   3.595
 8714SOL    HW227042   1.959   1.302   3.554
 8715SOL     OW27043   5.187   0.416   2.812
 8715SOL    HW127044   5.157   0.415   2.716
 8715SOL    HW227045   5.193   0.510   2.844
 8716SOL     OW27046   1.552   0.712   2.598
 8716SOL    HW127047   1.480   0.782   2.598
 8716SOL    HW227048   1.523   0.635   2.540
 8717SOL     OW27049   4.569   4.246   0.822
 8717SOL    HW127050   4.584   4.231   0.920
 8717SOL    HW227051   4.487   4.302   0.809
 8718SOL     OW27052   6.843   2.565   6.321
 8718SOL    HW127053   6.923   2.505   6.309
 8718SOL    HW227054   6.798   2.578   6.233
 8719SOL     OW27055   6.387   1.032   5.656
 8719SOL    HW127056   6.426   0.998   5.571
 8719SOL    HW227057   6.350   1.123   5.642
 8720SOL     OW27058   5.207   3.309   5.138
 8720SOL    HW127059   5.223   3.277   5.044
 8720SOL    HW227060   5.132   3.374   5.138
 8721SOL     OW27061   6.913   0.471   4.966
 8721SOL    HW127062   6.859   0.552   4.989
 8721SOL    HW227063   7.005   0.480   5.005
 8722SOL     OW27064   3.695   2.436   0.365
 8722SOL    HW127065   3.722   2.515   0.420
 8722SOL    HW227066   3.627   2.382   0.415
 8723SOL     OW27067   0.414   5.798   0.842
 8723SOL    HW127068   0.492   5.856   0.817
 8723SOL    HW227069   0.361   5.777   0.761
 8724SOL     OW27070   4.450   5.655   6.377
 8724SOL    HW127071   4.477   5.559   6.371
 8724SOL    HW227072   4.488   5.706   6.300
 8725SOL     OW27073   2.609   6.549   0.384
 8725SOL    HW127074   2.673   6.559   0.308
 8725SOL    HW227075   2.533   6.491   0.356
 8726SOL     OW27076   0.230   6.496   0.449
 8726SOL    HW127077   0.258   6.497   0.353
 8726SOL    HW227078   0.136   6.529   0.457
 8727SOL     OW27079   5.275   6.224   2.007
 8727SOL    HW127080   5.252   6.280   1.928
 8727SOL    HW227081   5.371   6.239   2.033
 8728SOL     OW27082   1.900   5.509   5.631
 8728SOL    HW127083   1.874   5.424   5.677
 8728SOL    HW227084   1.979   5.549   5.677
 8729SOL     OW27085   4.803   5.727   4.358
 8729SOL    HW127086   4.714   5.727   4.403
 8729SOL    HW227087   4.791   5.708   4.261
 8730SOL     OW27088   6.155   6.719   1.305
 8730SOL    HW127089   6.166   6.791   1.373
 8730SOL    HW227090   6.111   6.639   1.348
 8731SOL     OW27091   0.909   1.760   3.180
 8731SOL    HW127092   0.839   1.809   3.231
 8731SOL    HW227093   0.884   1.756   3.084
 8732SOL     OW27094   6.459   6.387   2.306
 8732SOL    HW127095   6.406   6.439   2.373
 8732SOL    HW227096   6.486   6.448   2.231
 8733SOL     OW27097   6.719   0.533   0.328
 8733SOL    HW127098   6.670   0.532   0.415
 8733SOL    HW227099   6.677   0.467   0.266
 8734SOL     OW27100   5.961   0.033   1.265
 8734SOL    HW127101   5.887   0.098   1.246
 8734SOL    HW227102   5.931   6.960   1.244
 8735SOL     OW27103   0.413   2.982   6.038
 8735SOL    HW127104   0.496   3.019   5.998
 8735SOL    HW227105   0.402   3.016   6.132
 8736SOL     OW27106   0.701   5.060   5.845
 8736SOL    HW127107   0.720   4.983   5.785
 8736SOL    HW227108   0.785   5.110   5.863
 8737SOL     OW27109   3.886   5.693   6.872
 8737SOL    HW127110   3.968   5.736   6.909
 8737SOL    HW227111   3.876   5.716   6.776
 8738SOL     OW27112   1.018   4.098   5.326
 8738SOL    HW127113   1.012   4.153   5.409
 8738SOL    HW227114   0.928   4.089   5.284
 8739SOL     OW27115   1.130   3.217   5.153
 8739SOL    HW127116   1.145   3.313   5.131
 8739SOL    HW227117   1.213   3.165   5.135
 8740SOL     OW27118   1.042   6.217   0.531
 8740SOL    HW127119   1.042   6.263   0.443
 8740SOL    HW227120   1.081   6.126   0.521
 8741SOL     OW27121   1.276   3.125   2.012
 8741SOL    HW127122   1.259   3.035   1.971
 8741SOL    HW227123   1.250   3.196   1.947
 8742SOL     OW27124   4.651   5.039   1.395
 8742SOL    HW127125   4.557   5.055   1.427
 8742SOL    HW227126   4.696   4.972   1.454
 8743SOL     OW27127   3.334   5.411   2.436
 8743SOL    HW127128   3.397   5.487   2.415
 8743SOL    HW227129   3.381   5.346   2.496
 8744SOL     OW27130   3.197   3.614   5.266
 8744SOL    HW127131   3.163   3.557   5.192
 8744SOL    HW227132   3.237   3.556   5.337
 8745SOL     OW27133   5.606   1.976   5.909
 8745SOL    HW127134   5.553   2.043   5.960
 8745SOL    HW227135   5.546   1.902   5.879
 8746SOL     OW27136   5.212   3.586   4.886
 8746SOL    HW127137   5.116   3.558   4.891
 8746SOL    HW227138   5.230   3.630   4.798
 8747SOL     OW27139   1.232   1.875   4.302
 8747SOL    HW127140   1.232   1.799   4.237
 8747SOL    HW227141   1.324   1.887   4.339
 8748SOL     OW27142   3.200   0.787   6.438
 8748SOL    HW127143   3.183   0.756   6.532
 8748SOL    HW227144   3.115   0.824   6.399
 8749SOL     OW27145   4.125   1.294   3.730
 8749SOL    HW127146   4.112   1.354   3.651
 8749SOL    HW227147   4.111   1.346   3.814
 8750SOL     OW27148   2.085   6.766   4.962
 8750SOL    HW127149   2.146   6.708   5.016
 8750SOL    HW227150   2.021   6.813   5.023
 8751SOL     OW27151   1.736   6.328   2.751
 8751SOL    HW127152   1.697   6.252   2.804
 8751SOL    HW227153   1.805   6.293   2.689
 8752SOL     OW27154   2.319   0.735   6.733
 8752SOL    HW127155   2.284   0.824   6.761
 8752SOL    HW227156   2.302   0.722   6.635
 8753SOL     OW27157   5.188   2.001   4.999
 8753SOL    HW127158   5.121   1.991   4.926
 8753SOL    HW227159   5.167   2.082   5.053
 8754SOL     OW27160   1.403   0.933   5.544
 8754SOL    HW127161   1.419   1.005   5.611
 8754SOL    HW227162   1.343   0.967   5.471
 8755SOL     OW27163   2.106   2.516   0.619
 8755SOL    HW127164   2.091   2.562   0.707
 8755SOL    HW227165   2.062   2.568   0.546
 8756SOL     OW27166   3.350   4.878   5.230
 8756SOL    HW127167   3.292   4.951   5.265
 8756SOL    HW227168   3.367   4.812   5.302
 8757SOL     OW27169   3.145   5.427   3.321
 8757SOL    HW127170   3.204   5.505   3.340
 8757SOL    HW227171   3.154   5.360   3.394
 8758SOL     OW27172   4.933   6.644   2.649
 8758SOL    HW127173   4.926   6.689   2.560
 8758SOL    HW227174   5.007   6.576   2.646
 8759SOL     OW27175   5.187   0.280   5.579
 8759SOL    HW127176   5.279   0.294   5.541
 8759SOL    HW227177   5.125   0.249   5.507
 8760SOL     OW27178   1.786   2.635   3.434
 8760SOL    HW127179   1.702   2.668   3.477
 8760SOL    HW227180   1.825   2.561   3.488
 8761SOL     OW27181   4.785   5.872   1.555
 8761SOL    HW127182   4.740   5.955   1.585
 8761SOL    HW227183   4.718   5.810   1.514
 8762SOL     OW27184   1.780   5.151   1.402
 8762SOL    HW127185   1.709   5.081   1.413
 8762SOL    HW227186   1.858   5.129   1.459
 8763SOL     OW27187   6.842   5.872   6.900
 8763SOL    HW127188   6.875   5.830   6.816
 8763SOL    HW227189   6.909   5.860   6.973
 8764SOL     OW27190   2.859   2.011   6.576
 8764SOL    HW127191   2.897   2.102   6.558
 8764SOL    HW227192   2.791   2.018   6.650
 8765SOL     OW27193   5.596   0.316   4.934
 8765SOL    HW127194   5.602   0.403   4.886
 8765SOL    HW227195   5.679   0.301   4.987
 8766SOL     OW27196   2.410   4.351   2.844
 8766SOL    HW127197   2.498   4.392   2.819
 8766SOL    HW227198   2.383   4.381   2.935
 8767SOL     OW27199   3.792   0.992   5.357
 8767SOL    HW127200   3.710   1.037   5.394
 8767SOL    HW227201   3.814   1.033   5.268
 8768SOL     OW27202   0.973   4.346   1.182
 8768SOL    HW127203   0.973   4.300   1.094
 8768SOL    HW227204   0.879   4.359   1.214
 8769SOL     OW27205   1.755   0.338   6.666
 8769SOL    HW127206   1.768   0.437   6.676
 8769SOL    HW227207   1.657   0.316   6.671
 8770SOL     OW27208   5.971   1.671   3.076
 8770SOL    HW127209   5.929   1.761   3.067
 8770SOL    HW227210   6.063   1.680   3.114
 8771SOL     OW27211   3.047   3.111   4.746
 8771SOL    HW127212   2.971   3.131   4.684
 8771SOL    HW227213   3.131   3.101   4.692
 8772SOL     OW27214   0.251   0.122   6.844
 8772SOL    HW127215   0.206   0.075   6.920
 8772SOL    HW227216   0.326   0.178   6.880
 8773SOL     OW27217   2.998   1.604   3.277
 8773SOL    HW127218   3.072   1.568   3.333
 8773SOL    HW227219   2.911   1.590   3.325
 8774SOL     OW27220   1.175   1.440   0.563
 8774SOL    HW127221   1.265   1.406   0.589
 8774SOL    HW227222   1.163   1.429   0.465
 8775SOL     OW27223   6.129   6.407   4.259
 8775SOL    HW127224   6.036   6.440   4.272
 8775SOL    HW227225   6.135   6.358   4.172
 8776SOL     OW27226   3.381   3.317   5.679
 8776SOL    HW127227   3.401   3.351   5.587
 8776SOL    HW227228   3.336   3.228   5.672
 8777SOL     OW27229   6.103   5.529   3.014
 8777SOL    HW127230   6.189   5.482   3.035
 8777SOL    HW227231   6.098   5.614   3.066
 8778SOL     OW27232   0.946   2.990   3.018
 8778SOL    HW127233   0.939   2.916   3.085
 8778SOL    HW227234   0.856   3.007   2.978
 8779SOL     OW27235   1.913   4.573   0.825
 8779SOL    HW127236   1.966   4.492   0.798
 8779SOL    HW227237   1.955   4.614   0.906
 8780SOL     OW27238   2.326   6.119   5.355
 8780SOL    HW127239   2.258   6.093   5.286
 8780SOL    HW227240   2.281   6.158   5.434
 8781SOL     OW27241   0.798   3.110   2.656
 8781SOL    HW127242   0.772   3.121   2.752
 8781SOL    HW227243   0.844   3.022   2.644
 8782SOL     OW27244   5.554   0.879   4.163
 8782SOL    HW127245   5.546   0.976   4.185
 8782SOL    HW227246   5.600   0.868   4.074
 8783SOL     OW27247   5.695   2.411   6.187
 8783SOL    HW127248   5.660   2.434   6.097
 8783SOL    HW227249   5.767   2.475   6.213
 8784SOL     OW27250   4.938   4.004   6.219
 8784SOL    HW127251   5.006   3.966   6.156
 8784SOL    HW227252   4.865   3.937   6.233
 8785SOL     OW27253   4.944   4.284   6.180
 8785SOL    HW127254   4.926   4.186   6.181
 8785SOL    HW227255   4.885   4.328   6.112
 8786SOL     OW27256   2.143   5.662   6.606
 8786SOL    HW127257   2.128   5.563   6.613
 8786SOL    HW227258   2.063   5.710   6.643
 8787SOL     OW27259   0.849   2.306   6.423
 8787SOL    HW127260   0.927   2.323   6.483
 8787SOL    HW227261   0.860   2.217   6.379
 8788SOL     OW27262   1.393   1.494   5.258
 8788SOL    HW127263   1.388   1.395   5.268
 8788SOL    HW227264   1.355   1.538   5.340
 8789SOL     OW27265   7.016   1.738   0.160
 8789SOL    HW127266   6.934   1.795   0.171
 8789SOL    HW227267   0.012   1.688   0.245
 8790SOL     OW27268   4.335   1.170   0.077
 8790SOL    HW127269   4.412   1.133   0.129
 8790SOL    HW227270   4.341   1.138   7.002
 8791SOL     OW27271   6.026   6.242   5.614
 8791SOL    HW127272   5.975   6.189   5.682
 8791SOL    HW227273   6.019   6.198   5.525
 8792SOL     OW27274   5.644   6.579   2.287
 8792SOL    HW127275   5.737   6.564   2.253
 8792SOL    HW227276   5.587   6.501   2.265
 8793SOL     OW27277   1.302   5.338   2.895
 8793SOL    HW127278   1.374   5.366   2.958
 8793SOL    HW227279   1.326   5.366   2.802
 8794SOL     OW27280   2.322   6.940   2.069
 8794SOL    HW127281   2.278   6.903   2.151
 8794SOL    HW227282   2.351   0.015   2.086
 8795SOL     OW27283   3.562   6.883   4.324
 8795SOL    HW127284   3.641   6.944   4.331
 8795SOL    HW227285   3.542   6.866   4.227
 8796SOL     OW27286   3.968   1.934   4.457
 8796SOL    HW127287   3.896   1.934   4.526
 8796SOL    HW227288   3.999   2.028   4.442
 8797SOL     OW27289   6.893   5.708   6.682
 8797SOL    HW127290   6.974   5.657   6.710
 8797SOL    HW227291   6.817   5.644   6.665
 8798SOL     OW27292   3.669   3.553   5.548
 8798SOL    HW127293   3.732   3.477   5.562
 8798SOL    HW227294   3.711   3.620   5.487
 8799SOL     OW27295   4.168   0.982   2.096
 8799SOL    HW127296   4.144   1.014   2.187
 8799SOL    HW227297   4.252   0.928   2.101
 8800SOL     OW27298   4.261   3.838   0.594
 8800SOL    HW127299   4.260   3.773   0.670
 8800SOL    HW227300   4.309   3.922   0.622
 8801SOL     OW27301   2.892   6.792   5.622
 8801SOL    HW127302   2.989   6.815   5.628
 8801SOL    HW227303   2.861   6.798   5.527
 8802SOL     OW27304   1.645   6.428   1.263
 8802SOL    HW127305   1.700   6.452   1.343
 8802SOL    HW227306   1.660   6.495   1.191
 8803SOL     OW27307   3.826   5.795   2.178
 8803SOL    HW127308   3.882   5.719   2.147
 8803SOL    HW227309   3.879   5.880   2.172
 8804SOL     OW27310   3.278   0.687   1.461
 8804SOL    HW127311   3.375   0.684   1.435
 8804SOL    HW227312   3.256   0.607   1.516
 8805SOL     OW27313   6.863   0.642   4.005
 8805SOL    HW127314   6.933   0.709   3.980
 8805SOL    HW227315   6.778   0.689   4.025
 8806SOL     OW27316   1.879   4.890   6.737
 8806SOL    HW127317   1.967   4.933   6.716
 8806SOL    HW227318   1.877   4.865   6.834
 8807SOL     OW27319   1.630   4.966   6.278
 8807SOL    HW127320   1.696   4.892   6.274
 8807SOL    HW227321   1.607   4.986   6.373
 8808SOL     OW27322   6.161   2.218   1.220
 8808SOL    HW127323   6.092   2.260   1.160
 8808SOL    HW227324   6.188   2.283   1.290
 8809SOL     OW27325   5.858   4.101   6.861
 8809SOL    HW127326   5.790   4.144   6.921
 8809SOL    HW227327   5.929   4.167   6.838
 8810SOL     OW27328   5.325   1.687   4.291
 8810SOL    HW127329   5.290   1.666   4.382
 8810SOL    HW227330   5.273   1.764   4.253
 8811SOL     OW27331   0.559   0.949   3.573
 8811SOL    HW127332   0.478   0.908   3.529
 8811SOL    HW227333   0.567   0.916   3.666
 8812SOL     OW27334   2.048   0.860   0.521
 8812SOL    HW127335   2.015   0.788   0.582
 8812SOL    HW227336   2.138   0.834   0.485
 8813SOL     OW27337   0.774   5.616   0.964
 8813SOL    HW127338   0.853   5.644   1.018
 8813SOL    HW227339   0.690   5.637   1.015
 8814SOL     OW27340   5.741   6.815   6.221
 8814SOL    HW127341   5.835   6.820   6.189
 8814SOL    HW227342   5.713   6.720   6.230
 8815SOL     OW27343   6.265   4.662   3.317
 8815SOL    HW127344   6.327   4.590   3.285
 8815SOL    HW227345   6.293   4.692   3.408
 8816SOL     OW27346   0.675   5.825   2.400
 8816SOL    HW127347   0.768   5.848   2.373
 8816SOL    HW227348   0.652   5.733   2.367
 8817SOL     OW27349   1.750   3.971   5.048
 8817SOL    HW127350   1.817   3.964   4.975
 8817SOL    HW227351   1.664   4.005   5.011
 8818SOL     OW27352   0.092   4.900   5.133
 8818SOL    HW127353   0.053   4.962   5.202
 8818SOL    HW227354   0.104   4.810   5.173
 8819SOL     OW27355   0.495   1.298   4.666
 8819SOL    HW127356   0.577   1.349   4.692
 8819SOL    HW227357   0.451   1.261   4.749
 8820SOL     OW27358   1.585   2.343   3.307
 8820SOL    HW127359   1.572   2.244   3.309
 8820SOL    HW227360   1.649   2.370   3.379
 8821SOL     OW27361   1.369   6.075   0.031
 8821SOL    HW127362   1.437   6.097   0.101
 8821SOL    HW227363   1.365   6.149   6.983
 8822SOL     OW27364   1.498   1.961   3.517
 8822SOL    HW127365   1.502   1.866   3.548
 8822SOL    HW227366   1.511   1.965   3.418
 8823SOL     OW27367   2.507   5.340   0.493
 8823SOL    HW127368   2.547   5.333   0.401
 8823SOL    HW227369   2.532   5.427   0.534
 8824SOL     OW27370   5.241   4.515   1.728
 8824SOL    HW127371   5.165   4.553   1.780
 8824SOL    HW227372   5.223   4.419   1.706
 8825SOL     OW27373   2.630   1.999   6.765
 8825SOL    HW127374   2.632   1.899   6.767
 8825SOL    HW227375   2.593   2.034   6.851
 8826SOL     OW27376   5.458   0.402   1.358
 8826SOL    HW127377   5.367   0.443   1.361
 8826SOL    HW227378   5.515   0.442   1.430
 8827SOL     OW27379   6.856   1.288   4.124
 8827SOL    HW127380   6.913   1.258   4.201
 8827SOL    HW227381   6.788   1.354   4.156
 8828SOL     OW27382   1.630   5.745   2.940
 8828SOL    HW127383   1.644   5.809   2.865
 8828SOL    HW227384   1.572   5.787   3.010
 8829SOL     OW27385   6.967   0.870   1.455
 8829SOL    HW127386   6.869   0.852   1.448
 8829SOL    HW227387   7.014   0.789   1.491
 8830SOL     OW27388   1.265   1.744   1.241
 8830SOL    HW127389   1.328   1.667   1.236
 8830SOL    HW227390   1.176   1.717   1.204
 8831SOL     OW27391   0.151   0.151   0.803
 8831SOL    HW127392   0.116   0.148   0.709
 8831SOL    HW227393   0.250   0.133   0.802
 8832SOL     OW27394   6.354   0.807   1.549
 8832SOL    HW127395   6.335   0.709   1.558
 8832SOL    HW227396   6.269   0.859   1.559
 8833SOL     OW27397   6.958   5.295   1.157
 8833SOL    HW127398   6.883   5.358   1.175
 8833SOL    HW227399   7.007   5.277   1.242
 8834SOL     OW27400   6.560   4.466   4.783
 8834SOL    HW127401   6.466   4.479   4.812
 8834SOL    HW227402   6.581   4.369   4.778
 8835SOL     OW27403   1.174   1.686   0.786
 8835SOL    HW127404   1.251   1.624   0.801
 8835SOL    HW227405   1.108   1.643   0.725
 8836SOL     OW27406   5.029   2.312   1.373
 8836SOL    HW127407   4.992   2.394   1.415
 8836SOL    HW227408   4.959   2.240   1.373
 8837SOL     OW27409   0.607   2.902   2.183
 8837SOL    HW127410   0.581   2.880   2.277
 8837SOL    HW227411   0.706   2.900   2.174
 8838SOL     OW27412   1.780   6.379   3.134
 8838SOL    HW127413   1.733   6.291   3.130
 8838SOL    HW227414   1.717   6.452   3.107
 8839SOL     OW27415   5.697   5.091   5.191
 8839SOL    HW127416   5.776   5.119   5.138
 8839SOL    HW227417   5.653   5.171   5.231
 8840SOL     OW27418   4.309   0.594   1.980
 8840SOL    HW127419   4.347   0.514   2.027
 8840SOL    HW227420   4.335   0.677   2.030
 8841SOL     OW27421   4.086   6.909   3.093
 8841SOL    HW127422   4.136   6.921   3.008
 8841SOL    HW227423   3.994   6.948   3.085
 8842SOL     OW27424   1.702   1.507   2.151
 8842SOL    HW127425   1.795   1.471   2.144
 8842SOL    HW227426   1.636   1.432   2.157
 8843SOL     OW27427   0.398   2.873   3.828
 8843SOL    HW127428   0.304   2.886   3.860
 8843SOL    HW227429   0.459   2.936   3.876
 8844SOL     OW27430   5.617   1.882   6.898
 8844SOL    HW127431   5.712   1.898   6.873
 8844SOL    HW227432   5.566   1.850   6.819
 8845SOL     OW27433   5.616   2.916   0.234
 8845SOL    HW127434   5.623   3.016   0.230
 8845SOL    HW227435   5.639   2.886   0.327
 8846SOL     OW27436   3.238   4.982   4.228
 8846SOL    HW127437   3.304   4.941   4.165
 8846SOL    HW227438   3.263   4.959   4.322
 8847SOL     OW27439   1.842   1.924   3.718
 8847SOL    HW127440   1.852   1.834   3.761
 8847SOL    HW227441   1.763   1.923   3.656
 8848SOL     OW27442   0.057   1.132   3.846
 8848SOL    HW127443   0.130   1.063   3.847
 8848SOL    HW227444   6.993   1.092   3.884
 8849SOL     OW27445   2.973   6.858   1.596
 8849SOL    HW127446   3.054   6.803   1.574
 8849SOL    HW227447   2.897   6.797   1.619
 8850SOL     OW27448   3.223   1.480   0.318
 8850SOL    HW127449   3.221   1.461   0.417
 8850SOL    HW227450   3.315   1.508   0.292
 8851SOL     OW27451   2.306   3.852   1.194
 8851SOL    HW127452   2.264   3.838   1.284
 8851SOL    HW227453   2.381   3.787   1.182
 8852SOL     OW27454   1.059   2.670   4.891
 8852SOL    HW127455   1.024   2.674   4.798
 8852SOL    HW227456   1.028   2.750   4.942
 8853SOL     OW27457   5.043   0.452   1.953
 8853SOL    HW127458   5.123   0.488   2.001
 8853SOL    HW227459   4.993   0.390   2.012
 8854SOL     OW27460   6.993   2.732   4.980
 8854SOL    HW127461   6.972   2.809   4.920
 8854SOL    HW227462   6.926   2.660   4.966
 8855SOL     OW27463   5.226   4.785   1.072
 8855SOL    HW127464   5.300   4.718   1.063
 8855SOL    HW227465   5.222   4.841   0.990
 8856SOL     OW27466   6.357   0.795   5.290
 8856SOL    HW127467   6.419   0.730   5.247
 8856SOL    HW227468   6.287   0.746   5.341
 8857SOL     OW27469   6.938   2.270   7.015
 8857SOL    HW127470   6.962   2.316   0.081
 8857SOL    HW227471   0.001   2.252   6.962
 8858SOL     OW27472   0.713   5.099   5.450
 8858SOL    HW127473   0.724   5.002   5.430
 8858SOL    HW227474   0.639   5.112   5.515
 8859SOL     OW27475   0.652   6.229   3.322
 8859SOL    HW127476   0.650   6.323   3.288
 8859SOL    HW227477   0.570   6.181   3.290
 8860SOL     OW27478   0.109   2.629   3.170
 8860SOL    HW127479   0.156   2.600   3.086
 8860SOL    HW227480   0.177   2.652   3.240
 8861SOL     OW27481   3.423   2.637   0.881
 8861SOL    HW127482   3.391   2.696   0.955
 8861SOL    HW227483   3.373   2.551   0.883
 8862SOL     OW27484   4.496   4.736   4.611
 8862SOL    HW127485   4.446   4.687   4.539
 8862SOL    HW227486   4.432   4.764   4.682
 8863SOL     OW27487   1.852   3.777   1.671
 8863SOL    HW127488   1.822   3.785   1.766
 8863SOL    HW227489   1.879   3.682   1.653
 8864SOL     OW27490   6.867   2.046   4.721
 8864SOL    HW127491   6.840   2.038   4.817
 8864SOL    HW227492   6.785   2.045   4.664
 8865SOL     OW27493   2.109   1.477   0.619
 8865SOL    HW127494   2.172   1.493   0.696
 8865SOL    HW227495   2.053   1.396   0.638
 8866SOL     OW27496   6.089   0.972   2.016
 8866SOL    HW127497   6.138   1.053   2.048
 8866SOL    HW227498   6.007   0.959   2.071
 8867SOL     OW27499   5.680   2.426   3.942
 8867SOL    HW127500   5.700   2.331   3.964
 8867SOL    HW227501   5.599   2.431   3.884
 8868SOL     OW27502   0.565   2.633   3.818
 8868SOL    HW127503   0.617   2.656   3.735
 8868SOL    HW227504   0.477   2.680   3.815
 8869SOL     OW27505   3.894   0.396   3.148
 8869SOL    HW127506   3.893   0.489   3.184
 8869SOL    HW227507   3.837   0.338   3.206
 8870SOL     OW27508   1.092   0.844   1.211
 8870SOL    HW127509   1.018   0.831   1.278
 8870SOL    HW227510   1.090   0.770   1.145
 8871SOL     OW27511   6.731   6.769   6.932
 8871SOL    HW127512   6.790   6.845   6.961
 8871SOL    HW227513   6.779   6.683   6.946
 8872SOL     OW27514   6.565   5.345   3.589
 8872SOL    HW127515   6.656   5.330   3.626
 8872SOL    HW227516   6.496   5.318   3.656
 8873SOL     OW27517   1.616   1.298   3.196
 8873SOL    HW127518   1.571   1.316   3.109
 8873SOL    HW227519   1.553   1.251   3.258
 8874SOL     OW27520   2.554   6.322   0.704
 8874SOL    HW127521   2.504   6.264   0.769
 8874SOL    HW227522   2.643   6.280   0.685
 8875SOL     OW27523   6.906   2.853   4.238
 8875SOL    HW127524   6.927   2.760   4.208
 8875SOL    HW227525   6.914   2.916   4.161
 8876SOL     OW27526   4.948   0.170   0.779
 8876SOL    HW127527   4.939   0.124   0.690
 8876SOL    HW227528   4.938   0.103   0.852
 8877SOL     OW27529   1.266   4.451   1.995
 8877SOL    HW127530   1.250   4.358   1.963
 8877SOL    HW227531   1.308   4.504   1.922
 8878SOL     OW27532   4.897   3.953   2.269
 8878SOL    HW127533   4.910   3.854   2.261
 8878SOL    HW227534   4.875   3.991   2.179
 8879SOL     OW27535   6.639   4.863   3.823
 8879SOL    HW127536   6.687   4.777   3.842
 8879SOL    HW227537   6.566   4.876   3.890
 8880SOL     OW27538   4.214   1.617   2.623
 8880SOL    HW127539   4.187   1.656   2.711
 8880SOL    HW227540   4.227   1.690   2.556
 8881SOL     OW27541   3.887   6.280   2.792
 8881SOL    HW127542   3.791   6.259   2.778
 8881SOL    HW227543   3.904   6.294   2.890
 8882SOL     OW27544   3.857   1.065   0.163
 8882SOL    HW127545   3.836   1.162   0.150
 8882SOL    HW227546   3.861   1.020   0.074
 8883SOL     OW27547   0.583   6.745   2.828
 8883SOL    HW127548   0.601   6.661   2.777
 8883SOL    HW227549   0.561   6.818   2.764
 8884SOL     OW27550   4.455   1.696   5.987
 8884SOL    HW127551   4.489   1.620   6.042
 8884SOL    HW227552   4.405   1.660   5.909
 8885SOL     OW27553   5.106   5.443   0.499
 8885SOL    HW127554   5.193   5.435   0.450
 8885SOL    HW227555   5.044   5.371   0.469
 8886SOL     OW27556   4.219   0.125   0.919
 8886SOL    HW127557   4.159   0.075   0.857
 8886SOL    HW227558   4.196   0.104   1.014
 8887SOL     OW27559   4.155   0.683   2.425
 8887SOL    HW127560   4.210   0.688   2.509
 8887SOL    HW227561   4.124   0.775   2.401
 8888SOL     OW27562   3.682   1.768   2.139
 8888SOL    HW127563   3.600   1.740   2.090
 8888SOL    HW227564   3.707   1.861   2.113
 8889SOL     OW27565   1.473   4.455   6.959
 8889SOL    HW127566   1.489   4.359   6.937
 8889SOL    HW227567   1.522   4.513   6.894
 8890SOL     OW27568   2.126   5.852   6.964
 8890SOL    HW127569   2.097   5.757   6.962
 8890SOL    HW227570   2.223   5.858   6.943
 8891SOL     OW27571   5.612   3.668   5.467
 8891SOL    HW127572   5.632   3.684   5.564
 8891SOL    HW227573   5.536   3.726   5.438
 8892SOL     OW27574   2.566   5.094   5.875
 8892SOL    HW127575   2.658   5.056   5.872
 8892SOL    HW227576   2.566   5.177   5.931
 8893SOL     OW27577   0.993   4.584   5.178
 8893SOL    HW127578   0.968   4.680   5.162
 8893SOL    HW227579   1.011   4.570   5.276
 8894SOL     OW27580   6.327   2.024   1.788
 8894SOL    HW127581   6.319   1.926   1.769
 8894SOL    HW227582   6.277   2.046   1.871
 8895SOL     OW27583   0.477   3.276   2.435
 8895SOL    HW127584   0.384   3.244   2.453
 8895SOL    HW227585   0.489   3.367   2.474
 8896SOL     OW27586   0.574   0.543   3.840
 8896SOL    HW127587   0.501   0.486   3.878
 8896SOL    HW227588   0.554   0.565   3.745
 8897SOL     OW27589   1.376   4.774   4.328
 8897SOL    HW127590   1.342   4.829   4.251
 8897SOL    HW227591   1.462   4.731   4.303
 8898SOL     OW27592   6.251   5.177   2.501
 8898SOL    HW127593   6.193   5.254   2.528
 8898SOL    HW227594   6.197   5.093   2.503
 8899SOL     OW27595   2.021   4.755   2.267
 8899SOL    HW127596   2.084   4.830   2.246
 8899SOL    HW227597   2.072   4.682   2.313
 8900SOL     OW27598   4.453   1.779   5.017
 8900SOL    HW127599   4.517   1.853   4.996
 8900SOL    HW227600   4.396   1.760   4.938
 8901SOL     OW27601   0.932   5.199   5.906
 8901SOL    HW127602   0.938   5.204   5.806
 8901SOL    HW227603   1.023   5.184   5.945
 8902SOL     OW27604   1.088   4.088   6.430
 8902SOL    HW127605   1.086   3.993   6.401
 8902SOL    HW227606   1.169   4.133   6.392
 8903SOL     OW27607   0.507   1.417   4.158
 8903SOL    HW127608   0.521   1.476   4.238
 8903SOL    HW227609   0.415   1.432   4.122
 8904SOL     OW27610   6.238   1.200   2.083
 8904SOL    HW127611   6.310   1.247   2.033
 8904SOL    HW227612   6.258   1.204   2.181
 8905SOL     OW27613   1.306   5.350   1.167
 8905SOL    HW127614   1.373   5.342   1.240
 8905SOL    HW227615   1.340   5.305   1.084
 8906SOL     OW27616   6.646   1.154   6.066
 8906SOL    HW127617   6.626   1.062   6.102
 8906SOL    HW227618   6.616   1.159   5.971
 8907SOL     OW27619   2.780   3.014   5.264
 8907SOL    HW127620   2.683   3.014   5.238
 8907SOL    HW227621   2.835   3.050   5.189
 8908SOL     OW27622   2.052   6.097   5.293
 8908SOL    HW127623   2.016   6.039   5.220
 8908SOL    HW227624   2.013   6.069   5.380
 8909SOL     OW27625   2.626   6.199   1.751
 8909SOL    HW127626   2.595   6.215   1.845
 8909SOL    HW227627   2.573   6.258   1.689
 8910SOL     OW27628   1.003   0.750   3.695
 8910SOL    HW127629   0.974   0.746   3.791
 8910SOL    HW227630   1.097   0.782   3.691
 8911SOL     OW27631   4.959   2.713   4.351
 8911SOL    HW127632   4.939   2.716   4.254
 8911SOL    HW227633   5.037   2.652   4.367
 8912SOL     OW27634   3.674   3.669   3.401
 8912SOL    HW127635   3.747   3.696   3.338
 8912SOL    HW227636   3.610   3.744   3.413
 8913SOL     OW27637   5.070   5.668   0.290
 8913SOL    HW127638   5.035   5.640   0.379
 8913SOL    HW227639   4.994   5.693   0.231
 8914SOL     OW27640   5.379   4.628   4.638
 8914SOL    HW127641   5.424   4.679   4.712
 8914SOL    HW227642   5.433   4.546   4.616
 8915SOL     OW27643   2.667   1.675   3.070
 8915SOL    HW127644   2.708   1.613   3.003
 8915SOL    HW227645   2.719   1.760   3.074
 8916SOL     OW27646   6.483   6.740   2.304
 8916SOL    HW127647   6.466   6.724   2.207
 8916SOL    HW227648   6.426   6.817   2.335
 8917SOL     OW27649   5.464   2.730   0.111
 8917SOL    HW127650   5.516   2.800   0.160
 8917SOL    HW227651   5.525   2.656   0.083
 8918SOL     OW27652   1.577   3.145   2.924
 8918SOL    HW127653   1.517   3.179   2.851
 8918SOL    HW227654   1.672   3.160   2.899
 8919SOL     OW27655   0.217   2.272   3.426
 8919SOL    HW127656   0.243   2.343   3.361
 8919SOL    HW227657   0.150   2.309   3.491
 8920SOL     OW27658   1.571   1.579   0.302
 8920SOL    HW127659   1.556   1.496   0.249
 8920SOL    HW227660   1.557   1.560   0.399
 8921SOL     OW27661   1.534   1.818   1.977
 8921SOL    HW127662   1.579   1.789   2.061
 8921SOL    HW227663   1.488   1.740   1.935
 8922SOL     OW27664   3.552   5.469   3.419
 8922SOL    HW127665   3.461   5.510   3.426
 8922SOL    HW227666   3.611   5.507   3.491
 8923SOL     OW27667   2.545   2.418   3.943
 8923SOL    HW127668   2.591   2.400   4.030
 8923SOL    HW227669   2.486   2.341   3.919
 8924SOL     OW27670   6.298   4.926   4.862
 8924SOL    HW127671   6.377   4.911   4.804
 8924SOL    HW227672   6.224   4.864   4.835
 8925SOL     OW27673   0.583   6.190   3.857
 8925SOL    HW127674   0.602   6.144   3.944
 8925SOL    HW227675   0.510   6.257   3.870
 8926SOL     OW27676   5.888   2.307   6.875
 8926SOL    HW127677   5.930   2.216   6.879
 8926SOL    HW227678   5.922   2.355   6.794
 8927SOL     OW27679   1.322   1.248   6.414
 8927SOL    HW127680   1.291   1.207   6.328
 8927SOL    HW227681   1.356   1.340   6.396
 8928SOL     OW27682   6.651   6.716   4.826
 8928SOL    HW127683   6.588   6.764   4.765
 8928SOL    HW227684   6.697   6.783   4.885
 8929SOL     OW27685   0.403   1.604   3.751
 8929SOL    HW127686   0.362   1.693   3.773
 8929SOL    HW227687   0.497   1.601   3.785
 8930SOL     OW27688   2.302   5.598   2.083
 8930SOL    HW127689   2.281   5.512   2.130
 8930SOL    HW227690   2.304   5.673   2.149
 8931SOL     OW27691   4.850   3.695   0.028
 8931SOL    HW127692   4.847   3.637   0.110
 8931SOL    HW227693   4.945   3.705   7.018
 8932SOL     OW27694   0.750   3.219   2.297
 8932SOL    HW127695   0.755   3.153   2.222
 8932SOL    HW227696   0.654   3.241   2.315
 8933SOL     OW27697   5.003   2.642   5.572
 8933SOL    HW127698   4.926   2.687   5.526
 8933SOL    HW227699   5.087   2.658   5.520
 8934SOL     OW27700   2.555   5.743   2.669
 8934SOL    HW127701   2.583   5.823   2.616
 8934SOL    HW227702   2.629   5.719   2.733
 8935SOL     OW27703   0.068   5.969   6.654
 8935SOL    HW127704   0.006   5.893   6.632
 8935SOL    HW227705   0.125   5.989   6.574
 8936SOL     OW27706   4.536   3.504   0.162
 8936SOL    HW127707   4.524   3.483   0.259
 8936SOL    HW227708   4.632   3.522   0.144
 8937SOL     OW27709   0.347   1.848   6.676
 8937SOL    HW127710   0.413   1.896   6.618
 8937SOL    HW227711   0.345   1.751   6.653
 8938SOL     OW27712   5.046   5.185   1.845
 8938SOL    HW127713   5.145   5.191   1.854
 8938SOL    HW227714   5.021   5.191   1.748
 8939SOL     OW27715   6.218   1.906   4.334
 8939SOL    HW127716   6.165   1.981   4.294
 8939SOL    HW227717   6.202   1.902   4.432
 8940SOL     OW27718   5.442   6.708   1.816
 8940SOL    HW127719   5.458   6.805   1.793
 8940SOL    HW227720   5.367   6.673   1.760
 8941SOL     OW27721   3.992   1.838   0.120
 8941SOL    HW127722   4.072   1.881   0.079
 8941SOL    HW227723   3.942   1.786   0.051
 8942SOL     OW27724   1.210   1.892   5.947
 8942SOL    HW127725   1.177   1.808   5.903
 8942SOL    HW227726   1.226   1.962   5.877
 8943SOL     OW27727   4.783   3.259   0.541
 8943SOL    HW127728   4.726   3.302   0.612
 8943SOL    HW227729   4.766   3.161   0.539
 8944SOL     OW27730   4.595   5.189   0.660
 8944SOL    HW127731   4.686   5.151   0.677
 8944SOL    HW227732   4.577   5.190   0.562
 8945SOL     OW27733   2.079   0.464   3.682
 8945SOL    HW127734   2.117   0.433   3.769
 8945SOL    HW227735   1.980   0.447   3.681
 8946SOL     OW27736   3.818   0.074   5.403
 8946SOL    HW127737   3.743   0.017   5.437
 8946SOL    HW227738   3.803   0.095   5.307
 8947SOL     OW27739   2.890   3.534   5.601
 8947SOL    HW127740   2.937   3.516   5.687
 8947SOL    HW227741   2.925   3.618   5.560
 8948SOL     OW27742   5.236   5.258   3.501
 8948SOL    HW127743   5.176   5.225   3.427
 8948SOL    HW227744   5.302   5.187   3.523
 8949SOL     OW27745   1.582   5.523   6.323
 8949SOL    HW127746   1.519   5.447   6.308
 8949SOL    HW227747   1.633   5.542   6.239
 8950SOL     OW27748   5.087   2.431   5.287
 8950SOL    HW127749   5.015   2.407   5.353
 8950SOL    HW227750   5.080   2.528   5.263
 8951SOL     OW27751   2.854   1.350   5.589
 8951SOL    HW127752   2.811   1.438   5.609
 8951SOL    HW227753   2.879   1.346   5.493
 8952SOL     OW27754   5.182   6.587   3.471
 8952SOL    HW127755   5.237   6.614   3.551
 8952SOL    HW227756   5.198   6.651   3.396
 8953SOL     OW27757   1.591   5.343   6.821
 8953SOL    HW127758   1.596   5.262   6.763
 8953SOL    HW227759   1.496   5.366   6.839
 8954SOL     OW27760   2.447   6.823   6.210
 8954SOL    HW127761   2.404   6.734   6.194
 8954SOL    HW227762   2.407   6.865   6.291
 8955SOL     OW27763   0.181   3.469   4.021
 8955SOL    HW127764   0.202   3.422   4.107
 8955SOL    HW227765   0.105   3.532   4.036
 8956SOL     OW27766   1.699   0.446   4.009
 8956SOL    HW127767   1.685   0.508   4.087
 8956SOL    HW227768   1.628   0.375   4.009
 8957SOL     OW27769   3.135   6.031   1.716
 8957SOL    HW127770   3.103   6.079   1.798
 8957SOL    HW227771   3.139   6.095   1.639
 8958SOL     OW27772   2.810   0.443   4.501
 8958SOL    HW127773   2.865   0.437   4.584
 8958SOL    HW227774   2.817   0.358   4.449
 8959SOL     OW27775   3.370   5.529   6.476
 8959SOL    HW127776   3.321   5.611   6.445
 8959SOL    HW227777   3.461   5.527   6.434
 8960SOL     OW27778   4.359   5.810   0.843
 8960SOL    HW127779   4.412   5.854   0.771
 8960SOL    HW227780   4.278   5.767   0.804
 8961SOL     OW27781   0.486   3.010   4.499
 8961SOL    HW127782   0.465   2.914   4.519
 8961SOL    HW227783   0.585   3.023   4.496
 8962SOL     OW27784   4.275   0.723   3.796
 8962SOL    HW127785   4.331   0.800   3.767
 8962SOL    HW227786   4.231   0.682   3.717
 8963SOL     OW27787   1.013   0.496   4.266
 8963SOL    HW127788   0.950   0.553   4.318
 8963SOL    HW227789   0.962   0.437   4.203
 8964SOL     OW27790   0.726   2.175   3.340
 8964SOL    HW127791   0.759   2.137   3.426
 8964SOL    HW227792   0.781   2.138   3.264
 8965SOL     OW27793   1.554   4.716   1.244
 8965SOL    HW127794   1.574   4.657   1.166
 8965SOL    HW227795   1.523   4.660   1.321
 8966SOL     OW27796   3.435   2.107   4.639
 8966SOL    HW127797   3.428   2.156   4.727
 8966SOL    HW227798   3.524   2.063   4.632
 8967SOL     OW27799   4.974   6.823   0.429
 8967SOL    HW127800   4.985   6.803   0.332
 8967SOL    HW227801   5.041   6.770   0.482
 8968SOL     OW27802   6.249   4.285   3.749
 8968SOL    HW127803   6.333   4.235   3.727
 8968SOL    HW227804   6.270   4.383   3.755
 8969SOL     OW27805   6.392   0.155   3.869
 8969SOL    HW127806   6.477   0.103   3.874
 8969SOL    HW227807   6.323   0.102   3.818
 8970SOL     OW27808   3.099   2.859   1.264
 8970SOL    HW127809   3.181   2.869   1.321
 8970SOL    HW227810   3.108   2.779   1.206
 8971SOL     OW27811   3.188   6.700   2.526
 8971SOL    HW127812   3.113   6.653   2.480
 8971SOL    HW227813   3.275   6.670   2.486
 8972SOL     OW27814   5.762   0.515   5.568
 8972SOL    HW127815   5.706   0.492   5.647
 8972SOL    HW227816   5.770   0.436   5.508
 8973SOL     OW27817   1.667   4.571   6.804
 8973SOL    HW127818   1.759   4.542   6.779
 8973SOL    HW227819   1.633   4.635   6.736
 8974SOL     OW27820   0.992   2.778   4.106
 8974SOL    HW127821   1.058   2.721   4.155
 8974SOL    HW227822   0.992   2.753   4.009
 8975SOL     OW27823   3.660   1.014   6.388
 8975SOL    HW127824   3.599   1.014   6.309
 8975SOL    HW227825   3.751   1.045   6.361
 8976SOL     OW27826   1.483   6.138   4.130
 8976SOL    HW127827   1.454   6.070   4.062
 8976SOL    HW227828   1.437   6.225   4.112
 8977SOL     OW27829   5.930   1.897   0.181
 8977SOL    HW127830   5.943   1.905   0.280
 8977SOL    HW227831   5.844   1.850   0.162
 8978SOL     OW27832   5.474   4.301   2.623
 8978SOL    HW127833   5.570   4.272   2.625
 8978SOL    HW227834   5.437   4.287   2.532
 8979SOL     OW27835   0.933   4.837   5.199
 8979SOL    HW127836   0.998   4.882   5.139
 8979SOL    HW227837   0.845   4.885   5.196
 8980SOL     OW27838   3.173   3.060   3.682
 8980SOL    HW127839   3.252   2.999   3.689
 8980SOL    HW227840   3.130   3.069   3.772
 8981SOL     OW27841   3.348   2.402   5.467
 8981SOL    HW127842   3.253   2.398   5.436
 8981SOL    HW227843   3.402   2.334   5.416
 8982SOL     OW27844   2.770   4.870   0.077
 8982SOL    HW127845   2.720   4.955   0.089
 8982SOL    HW227846   2.865   4.882   0.106
 8983SOL     OW27847   4.930   4.229   1.006
 8983SOL    HW127848   5.013   4.283   0.989
 8983SOL    HW227849   4.884   4.213   0.919
 8984SOL     OW27850   1.531   6.434   2.558
 8984SOL    HW127851   1.609   6.418   2.619
 8984SOL    HW227852   1.552   6.402   2.466
 8985SOL     OW27853   3.381   2.973   6.493
 8985SOL    HW127854   3.372   2.949   6.396
 8985SOL    HW227855   3.459   2.923   6.533
 8986SOL     OW27856   2.523   6.246   2.015
 8986SOL    HW127857   2.498   6.343   2.019
 8986SOL    HW227858   2.610   6.232   2.063
 8987SOL     OW27859   5.325   6.581   2.624
 8987SOL    HW127860   5.403   6.521   2.606
 8987SOL    HW227861   5.241   6.537   2.593
 8988SOL     OW27862   0.732   4.457   5.188
 8988SOL    HW127863   0.669   4.464   5.111
 8988SOL    HW227864   0.807   4.522   5.175
 8989SOL     OW27865   2.083   2.644   6.891
 8989SOL    HW127866   2.112   2.718   6.830
 8989SOL    HW227867   2.066   2.561   6.838
 8990SOL     OW27868   0.357   4.662   4.509
 8990SOL    HW127869   0.258   4.647   4.503
 8990SOL    HW227870   0.383   4.737   4.449
 8991SOL     OW27871   1.243   1.785   4.937
 8991SOL    HW127872   1.237   1.874   4.983
 8991SOL    HW227873   1.260   1.800   4.840
 8992SOL     OW27874   6.253   1.162   1.473
 8992SOL    HW127875   6.320   1.236   1.480
 8992SOL    HW227876   6.178   1.191   1.414
 8993SOL     OW27877   4.538   2.481   0.716
 8993SOL    HW127878   4.484   2.409   0.760
 8993SOL    HW227879   4.593   2.527   0.786
 8994SOL     OW27880   2.151   5.588   2.517
 8994SOL    HW127881   2.185   5.650   2.446
 8994SOL    HW227882   2.191   5.497   2.503
 8995SOL     OW27883   0.594   0.407   1.080
 8995SOL    HW127884   0.672   0.352   1.050
 8995SOL    HW227885   0.579   0.481   1.014
 8996SOL     OW27886   4.393   5.937   5.645
 8996SOL    HW127887   4.446   5.854   5.664
 8996SOL    HW227888   4.381   5.988   5.731
 8997SOL     OW27889   5.675   6.772   4.800
 8997SOL    HW127890   5.667   6.838   4.875
 8997SOL    HW227891   5.587   6.766   4.751
 8998SOL     OW27892   0.041   4.012   5.300
 8998SOL    HW127893   0.050   3.996   5.398
 8998SOL    HW227894   6.979   4.067   5.282
 8999SOL     OW27895   4.214   5.801   6.490
 8999SOL    HW127896   4.135   5.765   6.440
 8999SOL    HW227897   4.297   5.756   6.456
 9000SOL     OW27898   2.025   3.942   1.547
 9000SOL    HW127899   1.952   3.891   1.594
 9000SOL    HW227900   1.995   3.964   1.454
 9001SOL     OW27901   1.641   5.107   1.133
 9001SOL    HW127902   1.676   5.201   1.131
 9001SOL    HW227903   1.705   5.047   1.086
 9002SOL     OW27904   6.672   6.527   6.485
 9002SOL    HW127905   6.593   6.465   6.490
 9002SOL    HW227906   6.665   6.594   6.559
 9003SOL     OW27907   4.860   6.450   1.152
 9003SOL    HW127908   4.887   6.524   1.213
 9003SOL    HW227909   4.822   6.488   1.068
 9004SOL     OW27910   6.122   4.820   1.987
 9004SOL    HW127911   6.178   4.872   2.051
 9004SOL    HW227912   6.174   4.742   1.953
 9005SOL     OW27913   4.926   1.075   5.060
 9005SOL    HW127914   4.909   1.036   4.970
 9005SOL    HW227915   4.858   1.147   5.078
 9006SOL     OW27916   3.390   6.161   0.367
 9006SOL    HW127917   3.316   6.211   0.413
 9006SOL    HW227918   3.395   6.189   0.272
 9007SOL     OW27919   0.135   0.306   3.469
 9007SOL    HW127920   0.080   0.238   3.421
 9007SOL    HW227921   0.231   0.293   3.447
 9008SOL     OW27922   6.805   5.084   2.082
 9008SOL    HW127923   6.771   5.100   1.989
 9008SOL    HW227924   6.896   5.124   2.092
 9009SOL     OW27925   3.312   6.638   2.143
 9009SOL    HW127926   3.359   6.588   2.216
 9009SOL    HW227927   3.331   6.736   2.153
 9010SOL     OW27928   2.164   4.839   4.776
 9010SOL    HW127929   2.096   4.768   4.798
 9010SOL    HW227930   2.143   4.922   4.827
 9011SOL     OW27931   2.569   1.704   2.040
 9011SOL    HW127932   2.599   1.719   1.946
 9011SOL    HW227933   2.644   1.664   2.093
 9012SOL     OW27934   2.216   6.319   0.288
 9012SOL    HW127935   2.177   6.338   0.378
 9012SOL    HW227936   2.289   6.384   0.268
 9013SOL     OW27937   1.947   0.507   4.562
 9013SOL    HW127938   1.980   0.457   4.481
 9013SOL    HW227939   1.894   0.445   4.619
 9014SOL     OW27940   5.542   3.300   3.060
 9014SOL    HW127941   5.464   3.238   3.051
 9014SOL    HW227942   5.627   3.247   3.061
 9015SOL     OW27943   3.993   6.234   6.300
 9015SOL    HW127944   3.923   6.162   6.299
 9015SOL    HW227945   3.988   6.284   6.386
 9016SOL     OW27946   4.556   4.362   6.070
 9016SOL    HW127947   4.622   4.362   5.995
 9016SOL    HW227948   4.565   4.277   6.122
 9017SOL     OW27949   2.776   0.456   5.624
 9017SOL    HW127950   2.759   0.412   5.536
 9017SOL    HW227951   2.692   0.458   5.678
 9018SOL     OW27952   3.228   4.949   0.302
 9018SOL    HW127953   3.246   4.921   0.396
 9018SOL    HW227954   3.201   5.045   0.300
 9019SOL     OW27955   0.394   4.602   5.312
 9019SOL    HW127956   0.479   4.571   5.270
 9019SOL    HW227957   0.400   4.594   5.411
 9020SOL     OW27958   5.473   5.537   3.595
 9020SOL    HW127959   5.526   5.619   3.619
 9020SOL    HW227960   5.534   5.458   3.592
 9021SOL     OW27961   0.252   1.553   4.534
 9021SOL    HW127962   0.173   1.611   4.516
 9021SOL    HW227963   0.314   1.600   4.597
 9022SOL     OW27964   4.844   3.167   6.659
 9022SOL    HW127965   4.775   3.239   6.656
 9022SOL    HW227966   4.822   3.102   6.731
 9023SOL     OW27967   0.332   4.402   0.981
 9023SOL    HW127968   0.321   4.376   1.077
 9023SOL    HW227969   0.274   4.481   0.962
 9024SOL     OW27970   1.822   4.774   6.289
 9024SOL    HW127971   1.796   4.747   6.382
 9024SOL    HW227972   1.837   4.692   6.234
 9025SOL     OW27973   0.171   5.962   1.971
 9025SOL    HW127974   0.267   5.987   1.981
 9025SOL    HW227975   0.129   5.956   2.062
 9026SOL     OW27976   6.040   1.285   6.846
 9026SOL    HW127977   6.053   1.274   6.747
 9026SOL    HW227978   6.087   1.368   6.877
 9027SOL     OW27979   0.150   4.381   2.965
 9027SOL    HW127980   0.149   4.386   3.065
 9027SOL    HW227981   0.068   4.424   2.929
 9028SOL     OW27982   2.904   4.805   6.829
 9028SOL    HW127983   2.824   4.830   6.775
 9028SOL    HW227984   2.883   4.815   6.926
 9029SOL     OW27985   3.951   6.279   4.816
 9029SOL    HW127986   4.000   6.333   4.748
 9029SOL    HW227987   3.984   6.302   4.908
 9030SOL     OW27988   2.951   2.193   2.285
 9030SOL    HW127989   3.049   2.174   2.271
 9030SOL    HW227990   2.918   2.251   2.210
 9031SOL     OW27991   5.312   6.729   4.853
 9031SOL    HW127992   5.312   6.815   4.904
 9031SOL    HW227993   5.345   6.746   4.760
 9032SOL     OW27994   4.911   2.915   1.043
 9032SOL    HW127995   4.825   2.920   1.094
 9032SOL    HW227996   4.901   2.961   0.955
 9033SOL     OW27997   0.995   5.995   2.642
 9033SOL    HW127998   0.934   5.927   2.601
 9033SOL    HW227999   1.090   5.976   2.615
 9034SOL     OW28000   4.262   6.463   4.968
 9034SOL    HW128001   4.283   6.561   4.970
 9034SOL    HW228002   4.228   6.439   4.877
 9035SOL     OW28003   2.078   5.662   5.803
 9035SOL    HW128004   2.029   5.679   5.889
 9035SOL    HW228005   2.167   5.708   5.807
 9036SOL     OW28006   0.418   5.118   4.829
 9036SOL    HW128007   0.325   5.105   4.865
 9036SOL    HW228008   0.471   5.035   4.843
 9037SOL     OW28009   6.834   0.752   2.409
 9037SOL    HW128010   6.809   0.773   2.315
 9037SOL    HW228011   6.784   0.672   2.440
 9038SOL     OW28012   3.171   3.821   5.815
 9038SOL    HW128013   3.096   3.833   5.750
 9038SOL    HW228014   3.227   3.904   5.816
 9039SOL     OW28015   4.611   6.345   6.226
 9039SOL    HW128016   4.619   6.408   6.149
 9039SOL    HW228017   4.549   6.384   6.294
 9040SOL     OW28018   2.724   2.112   1.275
 9040SOL    HW128019   2.674   2.042   1.325
 9040SOL    HW228020   2.688   2.202   1.300
 9041SOL     OW28021   6.714   2.592   3.598
 9041SOL    HW128022   6.702   2.591   3.499
 9041SOL    HW228023   6.797   2.643   3.621
 9042SOL     OW28024   6.154   5.128   6.362
 9042SOL    HW128025   6.192   5.064   6.296
 9042SOL    HW228026   6.177   5.098   6.455
 9043SOL     OW28027   3.272   2.934   1.868
 9043SOL    HW128028   3.216   2.853   1.850
 9043SOL    HW228029   3.368   2.907   1.872
 9044SOL     OW28030   2.094   1.259   0.375
 9044SOL    HW128031   2.050   1.195   0.313
 9044SOL    HW228032   2.112   1.345   0.327
 9045SOL     OW28033   3.512   0.552   4.319
 9045SOL    HW128034   3.497   0.637   4.371
 9045SOL    HW228035   3.589   0.564   4.257
 9046SOL     OW28036   4.109   3.676   1.867
 9046SOL    HW128037   4.044   3.659   1.941
 9046SOL    HW228038   4.070   3.744   1.804
 9047SOL     OW28039   0.507   4.163   5.599
 9047SOL    HW128040   0.475   4.222   5.673
 9047SOL    HW228041   0.597   4.127   5.621
 9048SOL     OW28042   0.924   2.796   5.350
 9048SOL    HW128043   0.906   2.856   5.272
 9048SOL    HW228044   0.844   2.738   5.367
 9049SOL     OW28045   0.249   6.420   4.939
 9049SOL    HW128046   0.297   6.398   5.024
 9049SOL    HW228047   0.170   6.477   4.961
 9050SOL     OW28048   1.005   4.271   0.056
 9050SOL    HW128049   1.044   4.350   0.010
 9050SOL    HW228050   0.916   4.249   0.015
 9051SOL     OW28051   1.678   1.364   1.378
 9051SOL    HW128052   1.701   1.286   1.320
 9051SOL    HW228053   1.720   1.351   1.468
 9052SOL     OW28054   2.219   2.820   6.724
 9052SOL    HW128055   2.315   2.800   6.704
 9052SOL    HW228056   2.212   2.913   6.760
 9053SOL     OW28057   0.476   1.202   0.510
 9053SOL    HW128058   0.471   1.127   0.576
 9053SOL    HW228059   0.475   1.165   0.417
 9054SOL     OW28060   1.175   5.431   3.128
 9054SOL    HW128061   1.207   5.392   3.042
 9054SOL    HW228062   1.248   5.488   3.167
 9055SOL     OW28063   0.678   2.902   6.565
 9055SOL    HW128064   0.612   2.868   6.631
 9055SOL    HW228065   0.658   2.863   6.475
 9056SOL     OW28066   4.952   1.014   4.184
 9056SOL    HW128067   5.047   1.038   4.204
 9056SOL    HW228068   4.914   1.079   4.118
 9057SOL     OW28069   4.816   1.208   4.034
 9057SOL    HW128070   4.740   1.144   4.046
 9057SOL    HW228071   4.791   1.297   4.072
 9058SOL     OW28072   1.717   6.486   5.619
 9058SOL    HW128073   1.795   6.548   5.620
 9058SOL    HW228074   1.636   6.535   5.587
 9059SOL     OW28075   2.212   2.021   3.669
 9059SOL    HW128076   2.268   2.015   3.586
 9059SOL    HW228077   2.254   2.087   3.732
 9060SOL     OW28078   5.932   2.273   5.542
 9060SOL    HW128079   5.920   2.237   5.450
 9060SOL    HW228080   5.912   2.202   5.609
 9061SOL     OW28081   2.536   4.813   4.020
 9061SOL    HW128082   2.491   4.736   4.065
 9061SOL    HW228083   2.475   4.852   3.951
 9062SOL     OW28084   1.710   6.579   1.692
 9062SOL    HW128085   1.747   6.489   1.713
 9062SOL    HW228086   1.611   6.573   1.678
 9063SOL     OW28087   2.715   1.727   1.801
 9063SOL    HW128088   2.681   1.818   1.778
 9063SOL    HW228089   2.803   1.712   1.755
 9064SOL     OW28090   3.991   3.863   0.526
 9064SOL    HW128091   4.082   3.833   0.555
 9064SOL    HW228092   3.993   3.884   0.428
 9065SOL     OW28093   2.850   1.070   0.836
 9065SOL    HW128094   2.933   1.023   0.866
 9065SOL    HW228095   2.865   1.169   0.840
 9066SOL     OW28096   4.800   6.512   0.237
 9066SOL    HW128097   4.804   6.412   0.237
 9066SOL    HW228098   4.764   6.544   0.149
 9067SOL     OW28099   0.283   0.718   2.147
 9067SOL    HW128100   0.307   0.798   2.202
 9067SOL    HW228101   0.357   0.698   2.083
 9068SOL     OW28102   0.611   6.306   6.219
 9068SOL    HW128103   0.647   6.251   6.143
 9068SOL    HW228104   0.513   6.319   6.206
 9069SOL     OW28105   1.237   2.771   5.722
 9069SOL    HW128106   1.301   2.711   5.675
 9069SOL    HW228107   1.143   2.743   5.703
 9070SOL     OW28108   1.568   4.039   4.581
 9070SOL    HW128109   1.620   4.052   4.497
 9070SOL    HW228110   1.612   3.969   4.637
 9071SOL     OW28111   4.935   5.546   7.010
 9071SOL    HW128112   4.917   5.450   0.011
 9071SOL    HW228113   4.852   5.599   0.006
 9072SOL     OW28114   5.711   4.184   1.134
 9072SOL    HW128115   5.777   4.233   1.077
 9072SOL    HW228116   5.674   4.247   1.203
 9073SOL     OW28117   1.618   6.941   1.481
 9073SOL    HW128118   1.662   6.861   1.520
 9073SOL    HW228119   1.686   7.014   1.469
 9074SOL     OW28120   0.653   1.044   0.874
 9074SOL    HW128121   0.689   0.956   0.907
 9074SOL    HW228122   0.698   1.068   0.788
 9075SOL     OW28123   6.142   0.151   0.778
 9075SOL    HW128124   6.230   0.194   0.757
 9075SOL    HW228125   6.155   0.085   0.852
 9076SOL     OW28126   1.633   2.814   5.749
 9076SOL    HW128127   1.610   2.787   5.656
 9076SOL    HW228128   1.635   2.734   5.809
 9077SOL     OW28129   5.322   5.523   1.916
 9077SOL    HW128130   5.406   5.495   1.870
 9077SOL    HW228131   5.330   5.618   1.945
 9078SOL     OW28132   4.925   2.830   5.040
 9078SOL    HW128133   4.866   2.817   4.960
 9078SOL    HW228134   4.975   2.917   5.031
 9079SOL     OW28135   1.185   0.552   5.493
 9079SOL    HW128136   1.223   0.631   5.540
 9079SOL    HW228137   1.233   0.469   5.523
 9080SOL     OW28138   4.271   1.195   0.715
 9080SOL    HW128139   4.347   1.138   0.748
 9080SOL    HW228140   4.278   1.205   0.616
 9081SOL     OW28141   5.813   6.273   3.764
 9081SOL    HW128142   5.733   6.231   3.722
 9081SOL    HW228143   5.806   6.373   3.756
 9082SOL     OW28144   1.912   6.916   2.166
 9082SOL    HW128145   1.835   6.925   2.102
 9082SOL    HW228146   1.956   7.005   2.177
 9083SOL     OW28147   3.967   5.200   3.096
 9083SOL    HW128148   4.009   5.291   3.094
 9083SOL    HW228149   3.997   5.148   3.017
 9084SOL     OW28150   3.498   3.695   2.395
 9084SOL    HW128151   3.595   3.715   2.378
 9084SOL    HW228152   3.452   3.777   2.428
 9085SOL     OW28153   1.513   1.972   0.882
 9085SOL    HW128154   1.515   2.050   0.820
 9085SOL    HW228155   1.597   1.971   0.937
 9086SOL     OW28156   6.771   3.376   1.129
 9086SOL    HW128157   6.866   3.378   1.097
 9086SOL    HW228158   6.716   3.441   1.076
 9087SOL     OW28159   5.212   4.331   2.064
 9087SOL    HW128160   5.180   4.399   1.998
 9087SOL    HW228161   5.144   4.320   2.136
 9088SOL     OW28162   6.282   4.915   2.221
 9088SOL    HW128163   6.354   4.978   2.190
 9088SOL    HW228164   6.303   4.883   2.314
 9089SOL     OW28165   4.931   0.926   5.903
 9089SOL    HW128166   4.914   0.994   5.832
 9089SOL    HW228167   4.972   0.971   5.983
 9090SOL     OW28168   0.208   2.539   3.923
 9090SOL    HW128169   0.148   2.459   3.921
 9090SOL    HW228170   0.164   2.614   3.874
 9091SOL     OW28171   4.145   3.122   6.049
 9091SOL    HW128172   4.152   3.213   6.008
 9091SOL    HW228173   4.229   3.070   6.031
 9092SOL     OW28174   6.894   3.842   6.270
 9092SOL    HW128175   6.870   3.845   6.367
 9092SOL    HW228176   6.968   3.777   6.256
 9093SOL     OW28177   2.833   6.078   4.721
 9093SOL    HW128178   2.740   6.049   4.742
 9093SOL    HW228179   2.835   6.120   4.630
 9094SOL     OW28180   1.596   4.119   0.535
 9094SOL    HW128181   1.606   4.176   0.616
 9094SOL    HW228182   1.619   4.024   0.557
 9095SOL     OW28183   0.575   0.426   6.116
 9095SOL    HW128184   0.562   0.484   6.036
 9095SOL    HW228185   0.658   0.372   6.105
 9096SOL     OW28186   6.529   5.302   3.948
 9096SOL    HW128187   6.565   5.221   3.995
 9096SOL    HW228188   6.468   5.273   3.874
 9097SOL     OW28189   0.743   3.994   1.096
 9097SOL    HW128190   0.809   4.057   1.055
 9097SOL    HW228191   0.676   3.967   1.027
 9098SOL     OW28192   2.020   5.584   4.476
 9098SOL    HW128193   1.924   5.606   4.494
 9098SOL    HW228194   2.025   5.502   4.419
 9099SOL     OW28195   1.692   0.616   6.651
 9099SOL    HW128196   1.635   0.641   6.730
 9099SOL    HW228197   1.773   0.674   6.649
 9100SOL     OW28198   1.434   5.095   4.260
 9100SOL    HW128199   1.436   5.063   4.355
 9100SOL    HW228200   1.528   5.110   4.228
 9101SOL     OW28201   6.268   2.107   1.519
 9101SOL    HW128202   6.307   2.113   1.611
 9101SOL    HW228203   6.176   2.070   1.524
 9102SOL     OW28204   3.751   1.087   3.210
 9102SOL    HW128205   3.677   1.027   3.181
 9102SOL    HW228206   3.714   1.170   3.250
 9103SOL     OW28207   5.836   0.888   1.379
 9103SOL    HW128208   5.847   0.887   1.279
 9103SOL    HW228209   5.771   0.817   1.406
 9104SOL     OW28210   5.036   2.836   5.764
 9104SOL    HW128211   5.037   2.804   5.859
 9104SOL    HW228212   5.011   2.760   5.704
 9105SOL     OW28213   2.798   0.701   0.349
 9105SOL    HW128214   2.883   0.755   0.349
 9105SOL    HW228215   2.806   0.627   0.415
 9106SOL     OW28216   2.579   2.640   6.042
 9106SOL    HW128217   2.589   2.627   6.141
 9106SOL    HW228218   2.608   2.557   5.995
 9107SOL     OW28219   3.911   0.557   1.198
 9107SOL    HW128220   3.890   0.504   1.279
 9107SOL    HW228221   3.964   0.638   1.223
 9108SOL     OW28222   5.611   0.085   5.607
 9108SOL    HW128223   5.606   0.061   5.704
 9108SOL    HW228224   5.620   0.002   5.553
 9109SOL     OW28225   5.485   3.657   3.118
 9109SOL    HW128226   5.505   3.738   3.063
 9109SOL    HW228227   5.553   3.647   3.190
 9110SOL     OW28228   0.449   6.317   1.866
 9110SOL    HW128229   0.459   6.383   1.940
 9110SOL    HW228230   0.470   6.225   1.901
 9111SOL     OW28231   4.965   3.500   5.485
 9111SOL    HW128232   5.018   3.554   5.550
 9111SOL    HW228233   4.913   3.430   5.533
 9112SOL     OW28234   0.406   4.665   1.675
 9112SOL    HW128235   0.454   4.700   1.754
 9112SOL    HW228236   0.376   4.571   1.693
 9113SOL     OW28237   5.253   6.986   4.934
 9113SOL    HW128238   5.297   0.045   4.891
 9113SOL    HW228239   5.162   6.973   4.894
 9114SOL     OW28240   6.865   1.302   6.007
 9114SOL    HW128241   6.781   1.261   6.042
 9114SOL    HW228242   6.944   1.264   6.056
 9115SOL     OW28243   5.234   3.685   4.633
 9115SOL    HW128244   5.320   3.706   4.586
 9115SOL    HW228245   5.168   3.649   4.567
 9116SOL     OW28246   0.776   5.227   3.479
 9116SOL    HW128247   0.834   5.245   3.558
 9116SOL    HW228248   0.829   5.237   3.395
 9117SOL     OW28249   1.980   6.633   6.685
 9117SOL    HW128250   1.920   6.663   6.759
 9117SOL    HW228251   2.024   6.546   6.710
 9118SOL     OW28252   0.308   4.848   0.815
 9118SOL    HW128253   0.335   4.827   0.909
 9118SOL    HW228254   0.212   4.876   0.814
 9119SOL     OW28255   3.781   2.005   0.973
 9119SOL    HW128256   3.801   1.941   1.047
 9119SOL    HW228257   3.824   2.093   0.993
 9120SOL     OW28258   6.864   4.740   5.010
 9120SOL    HW128259   6.824   4.832   5.003
 9120SOL    HW228260   6.957   4.747   5.047
 9121SOL     OW28261   4.339   1.261   5.126
 9121SOL    HW128262   4.293   1.335   5.077
 9121SOL    HW228263   4.407   1.218   5.066
 9122SOL     OW28264   0.326   1.598   2.432
 9122SOL    HW128265   0.318   1.615   2.530
 9122SOL    HW228266   0.369   1.677   2.388
 9123SOL     OW28267   0.603   6.196   4.761
 9123SOL    HW128268   0.591   6.184   4.860
 9123SOL    HW228269   0.627   6.108   4.720
 9124SOL     OW28270   2.940   5.360   0.469
 9124SOL    HW128271   2.911   5.308   0.549
 9124SOL    HW228272   3.020   5.316   0.428
 9125SOL     OW28273   4.752   6.515   2.020
 9125SOL    HW128274   4.701   6.543   2.102
 9125SOL    HW228275   4.850   6.520   2.038
 9126SOL     OW28276   3.716   5.343   6.863
 9126SOL    HW128277   3.732   5.247   6.841
 9126SOL    HW228278   3.743   5.360   6.958
 9127SOL     OW28279   6.043   4.004   6.527
 9127SOL    HW128280   6.137   3.977   6.545
 9127SOL    HW228281   6.039   4.101   6.504
 9128SOL     OW28282   5.229   3.092   7.005
 9128SOL    HW128283   5.281   3.008   7.015
 9128SOL    HW228284   5.262   3.142   6.925
 9129SOL     OW28285   0.724   2.148   1.413
 9129SOL    HW128286   0.703   2.099   1.328
 9129SOL    HW228287   0.816   2.122   1.444
 9130SOL     OW28288   3.155   3.941   6.512
 9130SOL    HW128289   3.060   3.910   6.523
 9130SOL    HW228290   3.185   3.923   6.419
 9131SOL     OW28291   6.527   2.810   0.815
 9131SOL    HW128292   6.536   2.711   0.818
 9131SOL    HW228293   6.570   2.845   0.732
 9132SOL     OW28294   0.831   4.730   3.859
 9132SOL    HW128295   0.754   4.790   3.882
 9132SOL    HW228296   0.889   4.718   3.940
 9133SOL     OW28297   5.151   6.688   0.577
 9133SOL    HW128298   5.246   6.656   0.579
 9133SOL    HW228299   5.089   6.610   0.585
 9134SOL     OW28300   4.897   4.058   6.485
 9134SOL    HW128301   4.921   4.064   6.389
 9134SOL    HW228302   4.804   4.022   6.494
 9135SOL     OW28303   6.554   4.911   2.371
 9135SOL    HW128304   6.544   4.970   2.291
 9135SOL    HW228305   6.559   4.967   2.454
 9136SOL     OW28306   0.242   5.072   6.830
 9136SOL    HW128307   0.243   5.124   6.916
 9136SOL    HW228308   0.155   5.024   6.822
 9137SOL     OW28309   5.909   5.500   6.157
 9137SOL    HW128310   5.986   5.555   6.188
 9137SOL    HW228311   5.938   5.406   6.142
 9138SOL     OW28312   1.856   3.941   5.566
 9138SOL    HW128313   1.947   3.976   5.545
 9138SOL    HW228314   1.827   3.878   5.493
 9139SOL     OW28315   0.533   6.712   1.278
 9139SOL    HW128316   0.602   6.785   1.276
 9139SOL    HW228317   0.528   6.669   1.187
 9140SOL     OW28318   0.453   4.285   2.648
 9140SOL    HW128319   0.392   4.238   2.711
 9140SOL    HW228320   0.543   4.242   2.650
 9141SOL     OW28321   6.990   5.579   4.277
 9141SOL    HW128322   6.906   5.526   4.282
 9141SOL    HW228323   0.019   5.574   4.364
 9142SOL     OW28324   2.050   5.612   2.964
 9142SOL    HW128325   2.057   5.695   2.909
 9142SOL    HW228326   1.965   5.613   3.016
 9143SOL     OW28327   5.241   3.384   2.286
 9143SOL    HW128328   5.309   3.455   2.272
 9143SOL    HW228329   5.185   3.406   2.366
 9144SOL     OW28330   2.816   4.944   5.414
 9144SOL    HW128331   2.799   4.909   5.322
 9144SOL    HW228332   2.728   4.963   5.458
 9145SOL     OW28333   2.729   5.340   6.567
 9145SOL    HW128334   2.792   5.297   6.502
 9145SOL    HW228335   2.764   5.429   6.594
 9146SOL     OW28336   5.283   1.109   4.300
 9146SOL    HW128337   5.261   1.135   4.394
 9146SOL    HW228338   5.287   1.009   4.293
 9147SOL     OW28339   3.525   6.785   6.233
 9147SOL    HW128340   3.462   6.859   6.258
 9147SOL    HW228341   3.562   6.743   6.316
 9148SOL     OW28342   3.603   6.096   1.989
 9148SOL    HW128343   3.580   6.002   2.012
 9148SOL    HW228344   3.528   6.157   2.015
 9149SOL     OW28345   0.846   4.035   2.060
 9149SOL    HW128346   0.897   4.109   2.016
 9149SOL    HW228347   0.864   3.950   2.012
 9150SOL     OW28348   3.676   3.483   0.090
 9150SOL    HW128349   3.700   3.540   0.012
 9150SOL    HW228350   3.738   3.502   0.166
 9151SOL     OW28351   2.183   4.325   3.532
 9151SOL    HW128352   2.249   4.333   3.606
 9151SOL    HW228353   2.094   4.359   3.562
 9152SOL     OW28354   1.592   5.414   2.343
 9152SOL    HW128355   1.675   5.443   2.295
 9152SOL    HW228356   1.544   5.346   2.287
 9153SOL     OW28357   0.972   3.225   1.285
 9153SOL    HW128358   0.902   3.191   1.222
 9153SOL    HW228359   0.974   3.166   1.367
 9154SOL     OW28360   4.360   5.337   2.350
 9154SOL    HW128361   4.391   5.261   2.292
 9154SOL    HW228362   4.317   5.300   2.433
 9155SOL     OW28363   0.280   0.355   2.050
 9155SOL    HW128364   0.348   0.323   2.115
 9155SOL    HW228365   0.322   0.365   1.960
 9156SOL     OW28366   6.736   4.375   5.763
 9156SOL    HW128367   6.705   4.332   5.678
 9156SOL    HW228368   6.665   4.437   5.797
 9157SOL     OW28369   2.497   4.696   4.940
 9157SOL    HW128370   2.489   4.790   4.974
 9157SOL    HW228371   2.590   4.663   4.954
 9158SOL     OW28372   6.986   2.679   3.832
 9158SOL    HW128373   6.966   2.586   3.803
 9158SOL    HW228374   6.965   2.743   3.759
 9159SOL     OW28375   1.594   0.321   2.983
 9159SOL    HW128376   1.507   0.358   3.017
 9159SOL    HW228377   1.576   0.232   2.940
 9160SOL     OW28378   0.025   3.446   0.111
 9160SOL    HW128379   0.024   3.427   0.210
 9160SOL    HW228380   0.058   3.540   0.096
 9161SOL     OW28381   6.234   3.103   3.143
 9161SOL    HW128382   6.324   3.068   3.117
 9161SOL    HW228383   6.168   3.028   3.142
 9162SOL     OW28384   5.587   2.002   1.880
 9162SOL    HW128385   5.631   2.091   1.876
 9162SOL    HW228386   5.657   1.930   1.888
 9163SOL     OW28387   1.253   3.972   2.826
 9163SOL    HW128388   1.303   3.891   2.795
 9163SOL    HW228389   1.193   3.948   2.901
 9164SOL     OW28390   4.213   0.899   0.953
 9164SOL    HW128391   4.311   0.884   0.969
 9164SOL    HW228392   4.196   0.905   0.855
 9165SOL     OW28393   6.786   0.169   0.256
 9165SOL    HW128394   6.723   0.195   0.329
 9165SOL    HW228395   6.737   0.168   0.168
 9166SOL     OW28396   4.008   5.455   1.772
 9166SOL    HW128397   4.096   5.498   1.787
 9166SOL    HW228398   4.016   5.385   1.701
 9167SOL     OW28399   0.861   3.341   5.053
 9167SOL    HW128400   0.933   3.274   5.069
 9167SOL    HW228401   0.785   3.296   5.005
 9168SOL     OW28402   6.276   6.814   4.983
 9168SOL    HW128403   6.324   6.877   5.045
 9168SOL    HW228404   6.329   6.730   4.973
 9169SOL     OW28405   5.676   5.933   0.364
 9169SOL    HW128406   5.601   5.997   0.385
 9169SOL    HW228407   5.660   5.893   0.274
 9170SOL     OW28408   1.242   6.630   4.646
 9170SOL    HW128409   1.261   6.544   4.597
 9170SOL    HW228410   1.316   6.695   4.630
 9171SOL     OW28411   4.397   5.385   6.565
 9171SOL    HW128412   4.307   5.420   6.595
 9171SOL    HW228413   4.408   5.403   6.467
 9172SOL     OW28414   5.135   0.305   5.908
 9172SOL    HW128415   5.234   0.294   5.899
 9172SOL    HW228416   5.092   0.286   5.820
 9173SOL     OW28417   5.615   3.966   6.839
 9173SOL    HW128418   5.701   4.017   6.841
 9173SOL    HW228419   5.542   4.022   6.879
 9174SOL     OW28420   5.378   5.209   0.051
 9174SOL    HW128421   5.298   5.242   0.101
 9174SOL    HW228422   5.417   5.130   0.098
 9175SOL     OW28423   2.257   0.509   1.593
 9175SOL    HW128424   2.226   0.589   1.540
 9175SOL    HW228425   2.336   0.468   1.548
 9176SOL     OW28426   1.017   6.824   2.282
 9176SOL    HW128427   0.996   6.726   2.277
 9176SOL    HW228428   1.016   6.853   2.378
 9177SOL     OW28429   0.422   5.726   3.395
 9177SOL    HW128430   0.365   5.761   3.321
 9177SOL    HW228431   0.509   5.694   3.358
 9178SOL     OW28432   0.719   2.692   1.321
 9178SOL    HW128433   0.800   2.751   1.318
 9178SOL    HW228434   0.704   2.653   1.230
 9179SOL     OW28435   3.619   6.262   2.612
 9179SOL    HW128436   3.594   6.253   2.516
 9179SOL    HW228437   3.666   6.179   2.642
 9180SOL     OW28438   0.818   1.479   4.092
 9180SOL    HW128439   0.869   1.520   4.168
 9180SOL    HW228440   0.767   1.400   4.126
 9181SOL     OW28441   3.051   1.958   2.677
 9181SOL    HW128442   3.101   2.040   2.651
 9181SOL    HW228443   3.088   1.879   2.629
 9182SOL     OW28444   6.200   0.184   2.632
 9182SOL    HW128445   6.167   0.132   2.711
 9182SOL    HW228446   6.234   0.273   2.662
 9183SOL     OW28447   2.562   1.621   5.815
 9183SOL    HW128448   2.624   1.550   5.848
 9183SOL    HW228449   2.481   1.580   5.775
 9184SOL     OW28450   2.976   6.504   0.123
 9184SOL    HW128451   3.057   6.449   0.139
 9184SOL    HW228452   2.903   6.475   0.186
 9185SOL     OW28453   0.651   1.079   4.927
 9185SOL    HW128454   0.707   1.088   5.009
 9185SOL    HW228455   0.706   1.099   4.846
 9186SOL     OW28456   5.267   6.670   6.077
 9186SOL    HW128457   5.311   6.589   6.115
 9186SOL    HW228458   5.228   6.648   5.988
 9187SOL     OW28459   4.390   3.158   1.228
 9187SOL    HW128460   4.391   3.058   1.225
 9187SOL    HW228461   4.370   3.189   1.321
 9188SOL     OW28462   1.957   0.824   2.207
 9188SOL    HW128463   2.034   0.858   2.153
 9188SOL    HW228464   1.911   0.902   2.251
 9189SOL     OW28465   3.061   0.429   6.893
 9189SOL    HW128466   3.057   0.446   6.795
 9189SOL    HW228467   2.985   0.476   6.939
 9190SOL     OW28468   3.432   0.682   6.317
 9190SOL    HW128469   3.356   0.709   6.376
 9190SOL    HW228470   3.431   0.738   6.234
 9191SOL     OW28471   5.213   0.475   1.628
 9191SOL    HW128472   5.178   0.390   1.668
 9191SOL    HW228473   5.283   0.513   1.688
 9192SOL     OW28474   4.284   4.708   3.311
 9192SOL    HW128475   4.201   4.754   3.278
 9192SOL    HW228476   4.297   4.729   3.408
 9193SOL     OW28477   3.745   4.018   1.831
 9193SOL    HW128478   3.670   4.057   1.884
 9193SOL    HW228479   3.719   3.926   1.800
 9194SOL     OW28480   2.685   5.554   3.382
 9194SOL    HW128481   2.758   5.585   3.321
 9194SOL    HW228482   2.691   5.454   3.393
 9195SOL     OW28483   0.237   3.805   3.477
 9195SOL    HW128484   0.285   3.735   3.424
 9195SOL    HW228485   0.186   3.864   3.414
 9196SOL     OW28486   5.657   5.558   3.229
 9196SOL    HW128487   5.574   5.511   3.260
 9196SOL    HW228488   5.692   5.513   3.146
 9197SOL     OW28489   4.581   2.622   6.598
 9197SOL    HW128490   4.496   2.648   6.551
 9197SOL    HW228491   4.651   2.601   6.530
 9198SOL     OW28492   0.072   3.532   5.146
 9198SOL    HW128493   0.170   3.523   5.166
 9198SOL    HW228494   0.049   3.478   5.065
 9199SOL     OW28495   0.613   3.397   6.655
 9199SOL    HW128496   0.694   3.407   6.713
 9199SOL    HW228497   0.537   3.446   6.696
 9200SOL     OW28498   4.267   5.952   2.095
 9200SOL    HW128499   4.273   6.037   2.149
 9200SOL    HW228500   4.357   5.910   2.090
 9201SOL     OW28501   0.498   3.057   2.754
 9201SOL    HW128502   0.412   3.025   2.795
 9201SOL    HW228503   0.502   3.030   2.658
 9202SOL     OW28504   1.998   6.353   2.978
 9202SOL    HW128505   2.087   6.322   3.013
 9202SOL    HW228506   1.936   6.368   3.055
 9203SOL     OW28507   5.399   2.351   0.108
 9203SOL    HW128508   5.382   2.322   0.202
 9203SOL    HW228509   5.476   2.299   0.071
 9204SOL     OW28510   5.234   4.093   1.882
 9204SOL    HW128511   5.273   4.125   1.968
 9204SOL    HW228512   5.297   4.112   1.807
 9205SOL     OW28513   4.937   2.547   0.553
 9205SOL    HW128514   4.949   2.629   0.497
 9205SOL    HW228515   5.025   2.522   0.594
 9206SOL     OW28516   0.125   0.502   5.108
 9206SOL    HW128517   0.094   0.582   5.158
 9206SOL    HW228518   0.195   0.528   5.042
 9207SOL     OW28519   5.685   6.515   0.619
 9207SOL    HW128520   5.595   6.531   0.578
 9207SOL    HW228521   5.720   6.427   0.590
 9208SOL     OW28522   6.230   3.708   1.436
 9208SOL    HW128523   6.155   3.751   1.386
 9208SOL    HW228524   6.198   3.677   1.525
 9209SOL     OW28525   5.089   0.392   4.254
 9209SOL    HW128526   5.149   0.400   4.175
 9209SOL    HW228527   5.036   0.307   4.248
 9210SOL     OW28528   1.495   6.481   0.585
 9210SOL    HW128529   1.407   6.441   0.557
 9210SOL    HW228530   1.520   6.445   0.675
 9211SOL     OW28531   5.378   1.110   6.223
 9211SOL    HW128532   5.330   1.144   6.143
 9211SOL    HW228533   5.312   1.086   6.294
 9212SOL     OW28534   5.906   3.596   6.108
 9212SOL    HW128535   5.862   3.588   6.198
 9212SOL    HW228536   5.856   3.541   6.042
 9213SOL     OW28537   0.280   6.559   3.335
 9213SOL    HW128538   0.278   6.658   3.327
 9213SOL    HW228539   0.317   6.519   3.251
 9214SOL     OW28540   1.583   1.068   5.306
 9214SOL    HW128541   1.544   1.006   5.239
 9214SOL    HW228542   1.632   1.015   5.376
 9215SOL     OW28543   6.703   4.584   3.822
 9215SOL    HW128544   6.703   4.487   3.846
 9215SOL    HW228545   6.725   4.594   3.725
 9216SOL     OW28546   1.757   6.808   3.170
 9216SOL    HW128547   1.761   6.755   3.086
 9216SOL    HW228548   1.844   6.856   3.184
 9217SOL     OW28549   4.190   2.050   0.105
 9217SOL    HW128550   4.231   2.043   0.196
 9217SOL    HW228551   4.138   2.135   0.098
 9218SOL     OW28552   5.254   5.713   6.024
 9218SOL    HW128553   5.198   5.631   6.024
 9218SOL    HW228554   5.199   5.791   5.992
 9219SOL     OW28555   3.504   2.882   5.625
 9219SOL    HW128556   3.478   2.790   5.593
 9219SOL    HW228557   3.424   2.942   5.622
 9220SOL     OW28558   0.141   6.699   3.656
 9220SOL    HW128559   0.082   6.768   3.700
 9220SOL    HW228560   0.237   6.724   3.670
 9221SOL     OW28561   2.625   1.245   2.287
 9221SOL    HW128562   2.608   1.341   2.311
 9221SOL    HW228563   2.568   1.186   2.344
 9222SOL     OW28564   2.372   6.145   2.658
 9222SOL    HW128565   2.441   6.106   2.597
 9222SOL    HW228566   2.413   6.216   2.715
 9223SOL     OW28567   5.597   3.078   4.978
 9223SOL    HW128568   5.548   3.035   4.902
 9223SOL    HW228569   5.562   3.170   4.993
 9224SOL     OW28570   1.989   5.912   2.208
 9224SOL    HW128571   2.045   5.841   2.251
 9224SOL    HW228572   1.982   5.990   2.270
 9225SOL     OW28573   6.976   5.924   5.573
 9225SOL    HW128574   6.909   5.980   5.622
 9225SOL    HW228575   0.033   5.981   5.545
 9226SOL     OW28576   7.007   6.552   4.892
 9226SOL    HW128577   0.012   6.643   4.858
 9226SOL    HW228578   6.908   6.541   4.889
 9227SOL     OW28579   4.813   2.672   0.781
 9227SOL    HW128580   4.792   2.600   0.715
 9227SOL    HW228581   4.872   2.741   0.738
 9228SOL     OW28582   3.624   3.924   4.137
 9228SOL    HW128583   3.552   3.918   4.068
 9228SOL    HW228584   3.586   3.960   4.222
 9229SOL     OW28585   0.026   5.875   1.349
 9229SOL    HW128586   0.026   5.780   1.318
 9229SOL    HW228587   6.985   5.929   1.291
 9230SOL     OW28588   3.246   6.385   5.434
 9230SOL    HW128589   3.224   6.474   5.394
 9230SOL    HW228590   3.237   6.389   5.533
 9231SOL     OW28591   4.961   5.580   1.963
 9231SOL    HW128592   5.041   5.561   2.020
 9231SOL    HW228593   4.974   5.537   1.874
 9232SOL     OW28594   1.544   4.847   1.662
 9232SOL    HW128595   1.477   4.921   1.650
 9232SOL    HW228596   1.629   4.886   1.699
 9233SOL     OW28597   0.990   0.994   6.199
 9233SOL    HW128598   1.032   1.077   6.236
 9233SOL    HW228599   0.981   0.926   6.272
 9234SOL     OW28600   2.767   4.097   0.678
 9234SOL    HW128601   2.866   4.087   0.687
 9234SOL    HW228602   2.744   4.193   0.663
 9235SOL     OW28603   1.193   2.180   3.224
 9235SOL    HW128604   1.194   2.193   3.125
 9235SOL    HW228605   1.255   2.106   3.249
 9236SOL     OW28606   2.160   4.198   5.939
 9236SOL    HW128607   2.207   4.282   5.911
 9236SOL    HW228608   2.089   4.220   6.005
 9237SOL     OW28609   6.493   5.874   3.628
 9237SOL    HW128610   6.463   5.816   3.705
 9237SOL    HW228611   6.488   5.970   3.655
 9238SOL     OW28612   1.992   2.125   5.733
 9238SOL    HW128613   2.088   2.104   5.714
 9238SOL    HW228614   1.937   2.043   5.719
 9239SOL     OW28615   1.781   6.001   6.603
 9239SOL    HW128616   1.738   5.967   6.520
 9239SOL    HW228617   1.832   6.085   6.582
 9240SOL     OW28618   3.408   1.754   5.488
 9240SOL    HW128619   3.448   1.836   5.528
 9240SOL    HW228620   3.332   1.722   5.544
 9241SOL     OW28621   5.572   5.844   0.108
 9241SOL    HW128622   5.492   5.903   0.095
 9241SOL    HW228623   5.553   5.754   0.069
 9242SOL     OW28624   1.916   2.876   0.089
 9242SOL    HW128625   1.926   2.780   0.116
 9242SOL    HW228626   1.978   2.896   0.013
 9243SOL     OW28627   1.850   0.216   6.884
 9243SOL    HW128628   1.853   0.286   6.955
 9243SOL    HW228629   1.826   0.258   6.797
 9244SOL     OW28630   3.767   6.072   6.377
 9244SOL    HW128631   3.703   6.149   6.381
 9244SOL    HW228632   3.749   6.010   6.453
 9245SOL     OW28633   0.588   4.370   3.402
 9245SOL    HW128634   0.524   4.315   3.456
 9245SOL    HW228635   0.645   4.424   3.464
 9246SOL     OW28636   5.130   1.636   6.868
 9246SOL    HW128637   5.083   1.570   6.810
 9246SOL    HW228638   5.115   1.728   6.833
 9247SOL     OW28639   2.866   6.422   2.107
 9247SOL    HW128640   2.946   6.444   2.051
 9247SOL    HW228641   2.785   6.419   2.049
 9248SOL     OW28642   2.912   6.886   6.737
 9248SOL    HW128643   2.999   6.838   6.729
 9248SOL    HW228644   2.928   6.983   6.751
 9249SOL     OW28645   2.676   1.716   0.487
 9249SOL    HW128646   2.687   1.678   0.395
 9249SOL    HW228647   2.669   1.641   0.553
 9250SOL     OW28648   0.983   3.818   1.949
 9250SOL    HW128649   0.996   3.736   2.005
 9250SOL    HW228650   1.059   3.828   1.885
 9251SOL     OW28651   4.227   1.486   1.005
 9251SOL    HW128652   4.225   1.394   1.045
 9251SOL    HW228653   4.180   1.485   0.917
 9252SOL     OW28654   5.943   1.541   4.866
 9252SOL    HW128655   5.922   1.468   4.801
 9252SOL    HW228656   6.018   1.597   4.830
 9253SOL     OW28657   2.936   5.322   4.148
 9253SOL    HW128658   3.013   5.278   4.195
 9253SOL    HW228659   2.881   5.253   4.101
 9254SOL     OW28660   6.167   5.857   2.068
 9254SOL    HW128661   6.248   5.847   2.010
 9254SOL    HW228662   6.113   5.773   2.065
 9255SOL     OW28663   0.650   2.906   1.760
 9255SOL    HW128664   0.675   2.896   1.664
 9255SOL    HW228665   0.716   2.857   1.817
 9256SOL     OW28666   1.259   6.376   0.499
 9256SOL    HW128667   1.209   6.290   0.497
 9256SOL    HW228668   1.202   6.449   0.462
 9257SOL     OW28669   6.394   6.544   5.425
 9257SOL    HW128670   6.484   6.556   5.382
 9257SOL    HW228671   6.341   6.629   5.414
 9258SOL     OW28672   4.926   3.741   3.348
 9258SOL    HW128673   4.882   3.687   3.419
 9258SOL    HW228674   4.942   3.684   3.267
 9259SOL     OW28675   1.470   2.861   6.289
 9259SOL    HW128676   1.396   2.870   6.222
 9259SOL    HW228677   1.520   2.947   6.294
 9260SOL     OW28678   5.507   4.572   5.136
 9260SOL    HW128679   5.554   4.566   5.048
 9260SOL    HW228680   5.423   4.519   5.132
 9261SOL     OW28681   1.169   3.275   1.084
 9261SOL    HW128682   1.089   3.296   1.028
 9261SOL    HW228683   1.147   3.293   1.180
 9262SOL     OW28684   6.500   6.317   5.738
 9262SOL    HW128685   6.403   6.336   5.723
 9262SOL    HW228686   6.550   6.331   5.652
 9263SOL     OW28687   1.785   4.411   2.484
 9263SOL    HW128688   1.845   4.357   2.542
 9263SOL    HW228689   1.693   4.372   2.485
 9264SOL     OW28690   6.026   4.059   5.680
 9264SOL    HW128691   5.936   4.042   5.639
 9264SOL    HW228692   6.019   4.133   5.747
 9265SOL     OW28693   3.916   0.733   2.048
 9265SOL    HW128694   3.955   0.824   2.062
 9265SOL    HW228695   3.930   0.678   2.131
 9266SOL     OW28696   0.165   4.595   1.324
 9266SOL    HW128697   0.114   4.681   1.322
 9266SOL    HW228698   0.262   4.613   1.308
 9267SOL     OW28699   6.603   1.233   3.825
 9267SOL    HW128700   6.573   1.238   3.729
 9267SOL    HW228701   6.702   1.251   3.829
 9268SOL     OW28702   6.846   0.195   0.695
 9268SOL    HW128703   6.779   0.221   0.625
 9268SOL    HW228704   6.799   0.174   0.781
 9269SOL     OW28705   3.544   6.651   1.541
 9269SOL    HW128706   3.563   6.559   1.573
 9269SOL    HW228707   3.509   6.706   1.617
 9270SOL     OW28708   1.982   0.751   5.320
 9270SOL    HW128709   2.000   0.679   5.387
 9270SOL    HW228710   2.066   0.802   5.302
 9271SOL     OW28711   1.186   5.652   5.924
 9271SOL    HW128712   1.207   5.577   5.860
 9271SOL    HW228713   1.125   5.619   5.995
 9272SOL     OW28714   6.422   0.071   6.005
 9272SOL    HW128715   6.465   0.013   5.936
 9272SOL    HW228716   6.370   0.015   6.069
 9273SOL     OW28717   6.099   3.893   3.338
 9273SOL    HW128718   6.071   3.867   3.431
 9273SOL    HW228719   6.036   3.962   3.303
 9274SOL     OW28720   6.945   2.749   1.772
 9274SOL    HW128721   7.007   2.813   1.816
 9274SOL    HW228722   6.881   2.798   1.713
 9275SOL     OW28723   4.205   1.569   0.501
 9275SOL    HW128724   4.202   1.628   0.421
 9275SOL    HW228725   4.290   1.515   0.499
 9276SOL     OW28726   1.587   3.677   0.900
 9276SOL    HW128727   1.547   3.663   0.810
 9276SOL    HW228728   1.681   3.643   0.901
 9277SOL     OW28729   3.390   5.688   2.868
 9277SOL    HW128730   3.401   5.600   2.822
 9277SOL    HW228731   3.382   5.673   2.967
 9278SOL     OW28732   1.047   6.750   4.331
 9278SOL    HW128733   1.020   6.732   4.426
 9278SOL    HW228734   1.145   6.734   4.321
 9279SOL     OW28735   4.070   5.847   2.426
 9279SOL    HW128736   4.101   5.766   2.376
 9279SOL    HW228737   4.045   5.918   2.360
 9280SOL     OW28738   1.538   4.301   2.144
 9280SOL    HW128739   1.615   4.356   2.177
 9280SOL    HW228740   1.464   4.362   2.117
 9281SOL     OW28741   1.287   5.458   0.690
 9281SOL    HW128742   1.258   5.447   0.785
 9281SOL    HW228743   1.208   5.445   0.629
 9282SOL     OW28744   1.526   0.222   3.578
 9282SOL    HW128745   1.604   0.283   3.570
 9282SOL    HW228746   1.466   0.234   3.499
 9283SOL     OW28747   5.454   4.859   6.612
 9283SOL    HW128748   5.355   4.874   6.613
 9283SOL    HW228749   5.493   4.897   6.528
 9284SOL     OW28750   3.827   5.898   1.310
 9284SOL    HW128751   3.776   5.829   1.362
 9284SOL    HW228752   3.763   5.965   1.272
 9285SOL     OW28753   6.690   5.910   3.023
 9285SOL    HW128754   6.708   5.838   2.956
 9285SOL    HW228755   6.678   5.869   3.113
 9286SOL     OW28756   4.929   5.528   1.688
 9286SOL    HW128757   4.981   5.605   1.650
 9286SOL    HW228758   4.970   5.442   1.659
 9287SOL     OW28759   4.615   4.385   0.115
 9287SOL    HW128760   4.702   4.388   0.066
 9287SOL    HW228761   4.629   4.414   0.210
 9288SOL     OW28762   3.564   0.740   3.982
 9288SOL    HW128763   3.496   0.668   3.981
 9288SOL    HW228764   3.521   0.828   3.961
 9289SOL     OW28765   4.723   5.756   2.499
 9289SOL    HW128766   4.747   5.689   2.429
 9289SOL    HW228767   4.627   5.781   2.490
 9290SOL     OW28768   5.170   0.225   3.317
 9290SOL    HW128769   5.159   0.219   3.416
 9290SOL    HW228770   5.237   0.158   3.287
 9291SOL     OW28771   0.569   5.457   5.436
 9291SOL    HW128772   0.593   5.421   5.526
 9291SOL    HW228773   0.504   5.394   5.392
 9292SOL     OW28774   1.889   1.505   0.462
 9292SOL    HW128775   1.974   1.508   0.514
 9292SOL    HW228776   1.906   1.537   0.368
 9293SOL     OW28777   3.926   1.143   6.449
 9293SOL    HW128778   3.935   1.052   6.409
 9293SOL    HW228779   3.998   1.202   6.413
 9294SOL     OW28780   5.426   6.448   6.096
 9294SOL    HW128781   5.442   6.455   5.998
 9294SOL    HW228782   5.463   6.361   6.130
 9295SOL     OW28783   6.272   0.473   2.710
 9295SOL    HW128784   6.362   0.511   2.729
 9295SOL    HW228785   6.201   0.537   2.741
 9296SOL     OW28786   2.056   2.738   5.567
 9296SOL    HW128787   1.985   2.674   5.535
 9296SOL    HW228788   2.039   2.761   5.663
 9297SOL     OW28789   0.042   5.260   1.778
 9297SOL    HW128790   0.036   5.268   1.878
 9297SOL    HW228791   0.018   5.347   1.736
 9298SOL     OW28792   6.290   3.791   0.356
 9298SOL    HW128793   6.277   3.710   0.298
 9298SOL    HW228794   6.217   3.857   0.338
 9299SOL     OW28795   3.958   2.185   3.805
 9299SOL    HW128796   3.869   2.194   3.761
 9299SOL    HW228797   4.027   2.231   3.749
 9300SOL     OW28798   2.549   6.478   5.799
 9300SOL    HW128799   2.545   6.477   5.899
 9300SOL    HW228800   2.579   6.389   5.765
 9301SOL     OW28801   0.794   3.632   3.971
 9301SOL    HW128802   0.773   3.556   3.910
 9301SOL    HW228803   0.792   3.600   4.066
 9302SOL     OW28804   3.232   6.312   3.588
 9302SOL    HW128805   3.237   6.285   3.684
 9302SOL    HW228806   3.285   6.248   3.533
 9303SOL     OW28807   2.896   4.140   0.237
 9303SOL    HW128808   2.856   4.084   0.310
 9303SOL    HW228809   2.822   4.187   0.188
 9304SOL     OW28810   6.044   5.629   6.514
 9304SOL    HW128811   5.954   5.619   6.557
 9304SOL    HW228812   6.033   5.625   6.415
 9305SOL     OW28813   2.349   1.958   1.225
 9305SOL    HW128814   2.345   2.042   1.280
 9305SOL    HW228815   2.259   1.941   1.185
 9306SOL     OW28816   6.070   6.516   3.260
 9306SOL    HW128817   6.090   6.421   3.236
 9306SOL    HW228818   6.143   6.576   3.226
 9307SOL     OW28819   1.954   3.525   1.100
 9307SOL    HW128820   1.910   3.604   1.143
 9307SOL    HW228821   2.050   3.521   1.128
 9308SOL     OW28822   2.334   3.035   0.816
 9308SOL    HW128823   2.346   3.055   0.719
 9308SOL    HW228824   2.382   3.102   0.871
 9309SOL     OW28825   3.535   5.025   5.900
 9309SOL    HW128826   3.559   4.982   5.987
 9309SOL    HW228827   3.567   4.968   5.825
 9310SOL     OW28828   6.127   0.151   6.100
 9310SOL    HW128829   6.092   0.243   6.116
 9310SOL    HW228830   6.125   0.099   6.186
 9311SOL     OW28831   5.140   4.290   0.327
 9311SOL    HW128832   5.183   4.211   0.284
 9311SOL    HW228833   5.206   4.334   0.388
 9312SOL     OW28834   6.291   3.275   4.361
 9312SOL    HW128835   6.259   3.224   4.440
 9312SOL    HW228836   6.297   3.373   4.384
 9313SOL     OW28837   6.927   0.087   2.027
 9313SOL    HW128838   7.011   0.081   1.974
 9313SOL    HW228839   6.922   0.176   2.072
 9314SOL     OW28840   5.796   4.257   1.629
 9314SOL    HW128841   5.710   4.306   1.643
 9314SOL    HW228842   5.837   4.234   1.717
 9315SOL     OW28843   5.267   5.268   5.473
 9315SOL    HW128844   5.365   5.275   5.492
 9315SOL    HW228845   5.246   5.175   5.442
 9316SOL     OW28846   5.406   6.140   6.790
 9316SOL    HW128847   5.480   6.073   6.793
 9316SOL    HW228848   5.411   6.191   6.704
 9317SOL     OW28849   2.695   6.726   3.267
 9317SOL    HW128850   2.701   6.795   3.195
 9317SOL    HW228851   2.784   6.683   3.281
 9318SOL     OW28852   3.239   0.127   3.854
 9318SOL    HW128853   3.220   0.103   3.759
 9318SOL    HW228854   3.284   0.049   3.900
 9319SOL     OW28855   4.126   2.670   0.986
 9319SOL    HW128856   4.180   2.695   0.905
 9319SOL    HW228857   4.122   2.570   0.993
 9320SOL     OW28858   6.542   0.547   6.753
 9320SOL    HW128859   6.590   0.555   6.841
 9320SOL    HW228860   6.445   0.530   6.770
 9321SOL     OW28861   1.185   2.502   3.936
 9321SOL    HW128862   1.235   2.537   4.015
 9321SOL    HW228863   1.109   2.445   3.968
 9322SOL     OW28864   5.402   3.656   0.755
 9322SOL    HW128865   5.344   3.589   0.801
 9322SOL    HW228866   5.491   3.615   0.734
 9323SOL     OW28867   0.524   3.074   5.084
 9323SOL    HW128868   0.463   2.996   5.090
 9323SOL    HW228869   0.490   3.137   5.014
 9324SOL     OW28870   1.002   4.017   1.571
 9324SOL    HW128871   1.073   3.946   1.568
 9324SOL    HW228872   0.955   4.020   1.483
 9325SOL     OW28873   0.516   3.568   3.116
 9325SOL    HW128874   0.557   3.603   3.032
 9325SOL    HW228875   0.554   3.477   3.136
 9326SOL     OW28876   3.684   4.858   1.090
 9326SOL    HW128877   3.691   4.883   1.186
 9326SOL    HW228878   3.655   4.938   1.037
 9327SOL     OW28879   1.838   1.856   2.849
 9327SOL    HW128880   1.917   1.916   2.838
 9327SOL    HW228881   1.807   1.825   2.759
 9328SOL     OW28882   0.898   0.134   3.445
 9328SOL    HW128883   0.831   0.174   3.507
 9328SOL    HW228884   0.853   0.065   3.387
 9329SOL     OW28885   1.362   5.124   6.468
 9329SOL    HW128886   1.439   5.158   6.522
 9329SOL    HW228887   1.377   5.146   6.371
 9330SOL     OW28888   0.664   6.105   1.323
 9330SOL    HW128889   0.643   6.202   1.325
 9330SOL    HW228890   0.633   6.063   1.409
 9331SOL     OW28891   2.572   5.728   4.840
 9331SOL    HW128892   2.638   5.671   4.890
 9331SOL    HW228893   2.575   5.705   4.743
 9332SOL     OW28894   6.064   6.386   0.399
 9332SOL    HW128895   6.158   6.419   0.395
 9332SOL    HW228896   6.048   6.320   0.326
 9333SOL     OW28897   0.726   5.743   1.319
 9333SOL    HW128898   0.772   5.779   1.400
 9333SOL    HW228899   0.674   5.817   1.275
 9334SOL     OW28900   0.073   6.261   0.190
 9334SOL    HW128901   7.015   6.274   0.129
 9334SOL    HW228902   0.155   6.241   0.135
 9335SOL     OW28903   0.198   3.425   1.152
 9335SOL    HW128904   0.200   3.485   1.232
 9335SOL    HW228905   0.106   3.421   1.114
 9336SOL     OW28906   5.009   5.813   5.819
 9336SOL    HW128907   5.080   5.879   5.845
 9336SOL    HW228908   5.033   5.770   5.732
 9337SOL     OW28909   2.931   1.661   4.997
 9337SOL    HW128910   2.987   1.697   4.922
 9337SOL    HW228911   2.925   1.729   5.070
 9338SOL     OW28912   4.400   0.072   1.824
 9338SOL    HW128913   4.367   0.115   1.908
 9338SOL    HW228914   4.367   0.123   1.745
 9339SOL     OW28915   0.613   3.479   4.410
 9339SOL    HW128916   0.665   3.529   4.342
 9339SOL    HW228917   0.589   3.388   4.375
 9340SOL     OW28918   3.006   4.789   2.129
 9340SOL    HW128919   2.932   4.728   2.102
 9340SOL    HW228920   3.065   4.807   2.050
 9341SOL     OW28921   4.707   5.673   1.787
 9341SOL    HW128922   4.778   5.602   1.783
 9341SOL    HW228923   4.700   5.718   1.699
 9342SOL     OW28924   2.749   0.890   4.592
 9342SOL    HW128925   2.846   0.916   4.600
 9342SOL    HW228926   2.729   0.866   4.497
 9343SOL     OW28927   5.786   3.748   1.142
 9343SOL    HW128928   5.788   3.764   1.043
 9343SOL    HW228929   5.854   3.806   1.187
 9344SOL     OW28930   5.574   6.351   4.782
 9344SOL    HW128931   5.593   6.397   4.695
 9344SOL    HW228932   5.564   6.253   4.766
 9345SOL     OW28933   0.100   4.885   6.606
 9345SOL    HW128934   0.122   4.792   6.634
 9345SOL    HW228935   0.156   4.910   6.526
 9346SOL     OW28936   5.265   0.884   2.420
 9346SOL    HW128937   5.301   0.825   2.492
 9346SOL    HW228938   5.220   0.963   2.462
 9347SOL     OW28939   4.894   6.825   2.458
 9347SOL    HW128940   4.843   6.883   2.522
 9347SOL    HW228941   4.987   6.860   2.449
 9348SOL     OW28942   2.573   5.211   2.201
 9348SOL    HW128943   2.517   5.249   2.128
 9348SOL    HW228944   2.637   5.144   2.162
 9349SOL     OW28945   1.224   4.651   1.377
 9349SOL    HW128946   1.242   4.749   1.363
 9349SOL    HW228947   1.306   4.599   1.353
 9350SOL     OW28948   6.590   0.802   6.983
 9350SOL    HW128949   6.491   0.811   6.994
 9350SOL    HW228950   6.615   0.705   6.990
 9351SOL     OW28951   3.949   4.079   6.380
 9351SOL    HW128952   3.867   4.062   6.326
 9351SOL    HW228953   3.934   4.159   6.438
 9352SOL     OW28954   2.767   1.884   0.111
 9352SOL    HW128955   2.786   1.807   0.171
 9352SOL    HW228956   2.847   1.903   0.054
 9353SOL     OW28957   1.273   2.941   2.388
 9353SOL    HW128958   1.175   2.934   2.369
 9353SOL    HW228959   1.311   3.020   2.340
 9354SOL     OW28960   5.694   2.299   2.336
 9354SOL    HW128961   5.703   2.399   2.336
 9354SOL    HW228962   5.602   2.274   2.368
 9355SOL     OW28963   0.466   2.206   2.075
 9355SOL    HW128964   0.505   2.259   2.000
 9355SOL    HW228965   0.421   2.269   2.140
 9356SOL     OW28966   4.486   2.505   1.994
 9356SOL    HW128967   4.494   2.494   2.093
 9356SOL    HW228968   4.531   2.590   1.966
 9357SOL     OW28969   1.810   4.293   6.871
 9357SOL    HW128970   1.795   4.354   6.948
 9357SOL    HW228971   1.878   4.224   6.896
 9358SOL     OW28972   5.431   5.072   3.558
 9358SOL    HW128973   5.423   5.033   3.650
 9358SOL    HW228974   5.454   4.999   3.494
 9359SOL     OW28975   4.275   5.397   5.625
 9359SOL    HW128976   4.207   5.323   5.619
 9359SOL    HW228977   4.366   5.358   5.637
 9360SOL     OW28978   0.819   0.369   5.389
 9360SOL    HW128979   0.880   0.377   5.310
 9360SOL    HW228980   0.765   0.285   5.380
 9361SOL     OW28981   1.157   1.560   2.532
 9361SOL    HW128982   1.083   1.586   2.470
 9361SOL    HW228983   1.235   1.528   2.478
 9362SOL     OW28984   1.393   1.877   2.951
 9362SOL    HW128985   1.406   1.786   2.911
 9362SOL    HW228986   1.452   1.887   3.031
 9363SOL     OW28987   0.604   6.649   2.275
 9363SOL    HW128988   0.560   6.648   2.365
 9363SOL    HW228989   0.628   6.743   2.250
 9364SOL     OW28990   5.843   3.749   0.866
 9364SOL    HW128991   5.845   3.846   0.890
 9364SOL    HW228992   5.921   3.728   0.807
 9365SOL     OW28993   2.793   1.106   4.249
 9365SOL    HW128994   2.710   1.082   4.299
 9365SOL    HW228995   2.816   1.032   4.186
 9366SOL     OW28996   2.474   1.935   0.991
 9366SOL    HW128997   2.445   1.957   1.084
 9366SOL    HW228998   2.393   1.916   0.934
 9367SOL     OW28999   5.422   6.839   4.626
 9367SOL    HW129000   5.466   6.923   4.658
 9367SOL    HW229001   5.362   6.860   4.549
 9368SOL     OW29002   5.875   2.857   1.248
 9368SOL    HW129003   5.784   2.876   1.285
 9368SOL    HW229004   5.868   2.785   1.178
 9369SOL     OW29005   0.261   2.456   5.861
 9369SOL    HW129006   0.318   2.402   5.924
 9369SOL    HW229007   0.320   2.510   5.801
 9370SOL     OW29008   5.605   5.476   1.864
 9370SOL    HW129009   5.688   5.440   1.905
 9370SOL    HW229010   5.622   5.567   1.826
 9371SOL     OW29011   1.784   6.977   0.767
 9371SOL    HW129012   1.849   6.908   0.799
 9371SOL    HW229013   1.802   6.998   0.671
 9372SOL     OW29014   5.410   5.834   0.500
 9372SOL    HW129015   5.434   5.749   0.452
 9372SOL    HW229016   5.420   5.911   0.438
 9373SOL     OW29017   4.770   2.790   4.806
 9373SOL    HW129018   4.794   2.801   4.709
 9373SOL    HW229019   4.682   2.743   4.813
 9374SOL     OW29020   5.115   4.261   6.775
 9374SOL    HW129021   5.203   4.226   6.744
 9374SOL    HW229022   5.056   4.277   6.696
 9375SOL     OW29023   6.237   6.459   3.744
 9375SOL    HW129024   6.164   6.403   3.704
 9375SOL    HW229025   6.219   6.555   3.725
 9376SOL     OW29026   2.679   3.397   1.785
 9376SOL    HW129027   2.737   3.407   1.866
 9376SOL    HW229028   2.601   3.338   1.808
 9377SOL     OW29029   0.009   4.365   3.489
 9377SOL    HW129030   0.078   4.389   3.421
 9377SOL    HW229031   6.944   4.339   3.442
 9378SOL     OW29032   3.997   5.759   1.541
 9378SOL    HW129033   3.962   5.835   1.486
 9378SOL    HW229034   3.977   5.672   1.496
 9379SOL     OW29035   4.563   4.718   5.030
 9379SOL    HW129036   4.481   4.669   5.001
 9379SOL    HW229037   4.589   4.687   5.122
 9380SOL     OW29038   6.998   5.663   5.632
 9380SOL    HW129039   6.996   5.759   5.604
 9380SOL    HW229040   0.026   5.655   5.719
 9381SOL     OW29041   0.446   0.888   0.081
 9381SOL    HW129042   0.405   0.930   0.000
 9381SOL    HW229043   0.535   0.930   0.099
 9382SOL     OW29044   6.176   2.166   2.306
 9382SOL    HW129045   6.110   2.242   2.309
 9382SOL    HW229046   6.137   2.086   2.352
 9383SOL     OW29047   0.103   5.252   0.023
 9383SOL    HW129048   0.089   5.348   0.046
 9383SOL    HW229049   0.014   5.207   0.013
 9384SOL     OW29050   3.162   6.977   2.259
 9384SOL    HW129051   3.122   0.047   2.238
 9384SOL    HW229052   3.187   6.973   2.356
 9385SOL     OW29053   4.204   6.606   3.348
 9385SOL    HW129054   4.297   6.602   3.386
 9385SOL    HW229055   4.209   6.612   3.249
 9386SOL     OW29056   3.381   6.722   4.507
 9386SOL    HW129057   3.462   6.753   4.557
 9386SOL    HW229058   3.314   6.796   4.503
 9387SOL     OW29059   4.516   6.130   0.941
 9387SOL    HW129060   4.523   6.156   1.037
 9387SOL    HW229061   4.557   6.040   0.928
 9388SOL     OW29062   6.417   6.978   1.124
 9388SOL    HW129063   6.444   0.054   1.125
 9388SOL    HW229064   6.411   6.944   1.218
 9389SOL     OW29065   3.134   1.313   1.220
 9389SOL    HW129066   3.035   1.303   1.219
 9389SOL    HW229067   3.177   1.225   1.242
 9390SOL     OW29068   4.020   6.690   0.881
 9390SOL    HW129069   4.020   6.605   0.830
 9390SOL    HW229070   4.097   6.691   0.945
 9391SOL     OW29071   5.146   0.302   3.592
 9391SOL    HW129072   5.088   0.383   3.607
 9391SOL    HW229073   5.201   0.286   3.674
 9392SOL     OW29074   0.498   6.921   4.890
 9392SOL    HW129075   0.505   6.825   4.916
 9392SOL    HW229076   0.476   6.929   4.793
 9393SOL     OW29077   4.894   1.810   5.331
 9393SOL    HW129078   4.966   1.871   5.366
 9393SOL    HW229079   4.932   1.753   5.258
 9394SOL     OW29080   6.686   1.497   2.492
 9394SOL    HW129081   6.774   1.511   2.537
 9394SOL    HW229082   6.623   1.452   2.556
 9395SOL     OW29083   1.611   2.552   0.099
 9395SOL    HW129084   1.575   2.521   0.186
 9395SOL    HW229085   1.697   2.504   0.080
 9396SOL     OW29086   0.544   1.520   5.027
 9396SOL    HW129087   0.538   1.423   5.002
 9396SOL    HW229088   0.617   1.563   4.975
 9397SOL     OW29089   1.744   1.878   1.016
 9397SOL    HW129090   1.749   1.778   1.016
 9397SOL    HW229091   1.754   1.911   0.922
 9398SOL     OW29092   2.540   2.003   1.507
 9398SOL    HW129093   2.603   1.980   1.581
 9398SOL    HW229094   2.472   2.069   1.540
 9399SOL     OW29095   0.080   0.727   5.241
 9399SOL    HW129096   0.053   0.815   5.281
 9399SOL    HW229097   0.087   0.659   5.314
 9400SOL     OW29098   4.274   1.382   4.355
 9400SOL    HW129099   4.229   1.380   4.266
 9400SOL    HW229100   4.243   1.304   4.410
 9401SOL     OW29101   4.278   6.856   3.978
 9401SOL    HW129102   4.264   6.811   4.066
 9401SOL    HW229103   4.189   6.870   3.934
 9402SOL     OW29104   2.150   4.453   6.254
 9402SOL    HW129105   2.244   4.421   6.267
 9402SOL    HW229106   2.150   4.533   6.195
 9403SOL     OW29107   6.316   0.259   3.458
 9403SOL    HW129108   6.333   0.234   3.363
 9403SOL    HW229109   6.398   0.302   3.496
 9404SOL     OW29110   2.306   4.520   4.884
 9404SOL    HW129111   2.373   4.589   4.912
 9404SOL    HW229112   2.314   4.440   4.943
 9405SOL     OW29113   0.254   0.628   1.048
 9405SOL    HW129114   0.236   0.619   0.950
 9405SOL    HW229115   0.281   0.538   1.085
 9406SOL     OW29116   6.483   2.081   5.229
 9406SOL    HW129117   6.496   2.102   5.326
 9406SOL    HW229118   6.554   2.127   5.175
 9407SOL     OW29119   3.460   5.497   3.823
 9407SOL    HW129120   3.398   5.514   3.900
 9407SOL    HW229121   3.414   5.517   3.737
 9408SOL     OW29122   3.509   1.552   0.266
 9408SOL    HW129123   3.539   1.625   0.328
 9408SOL    HW229124   3.517   1.464   0.313
 9409SOL     OW29125   6.123   3.956   3.761
 9409SOL    HW129126   6.182   3.978   3.839
 9409SOL    HW229127   6.055   4.027   3.749
 9410SOL     OW29128   4.390   6.655   1.729
 9410SOL    HW129129   4.376   6.684   1.824
 9410SOL    HW229130   4.414   6.734   1.673
 9411SOL     OW29131   5.147   4.467   2.634
 9411SOL    HW129132   5.077   4.501   2.697
 9411SOL    HW229133   5.226   4.528   2.636
 9412SOL     OW29134   6.813   1.670   3.264
 9412SOL    HW129135   6.761   1.646   3.182
 9412SOL    HW229136   6.910   1.658   3.247
 9413SOL     OW29137   4.257   5.423   3.632
 9413SOL    HW129138   4.307   5.339   3.610
 9413SOL    HW229139   4.318   5.502   3.622
 9414SOL     OW29140   2.358   0.274   2.172
 9414SOL    HW129141   2.324   0.347   2.230
 9414SOL    HW229142   2.291   0.252   2.101
 9415SOL     OW29143   0.834   7.016   2.167
 9415SOL    HW129144   0.863   0.079   2.119
 9415SOL    HW229145   0.906   6.947   2.160
 9416SOL     OW29146   1.206   1.697   1.835
 9416SOL    HW129147   1.277   1.630   1.858
 9416SOL    HW229148   1.119   1.650   1.821
 9417SOL     OW29149   1.019   0.324   4.026
 9417SOL    HW129150   0.945   0.383   3.994
 9417SOL    HW229151   1.104   0.346   3.977
 9418SOL     OW29152   4.243   4.327   0.613
 9418SOL    HW129153   4.279   4.415   0.584
 9418SOL    HW229154   4.263   4.312   0.710
 9419SOL     OW29155   2.767   5.987   3.584
 9419SOL    HW129156   2.755   5.933   3.501
 9419SOL    HW229157   2.679   5.996   3.631
 9420SOL     OW29158   1.019   0.435   2.607
 9420SOL    HW129159   1.102   0.452   2.661
 9420SOL    HW229160   1.023   0.487   2.522
 9421SOL     OW29161   1.671   4.479   5.369
 9421SOL    HW129162   1.677   4.384   5.336
 9421SOL    HW229163   1.615   4.532   5.305
 9422SOL     OW29164   3.553   1.224   2.916
 9422SOL    HW129165   3.635   1.176   2.886
 9422SOL    HW229166   3.472   1.178   2.880
 9423SOL     OW29167   4.567   0.313   5.146
 9423SOL    HW129168   4.580   0.389   5.083
 9423SOL    HW229169   4.477   0.320   5.190
 9424SOL     OW29170   3.183   5.940   3.463
 9424SOL    HW129171   3.135   5.859   3.429
 9424SOL    HW229172   3.145   6.022   3.420
 9425SOL     OW29173   0.302   6.001   2.406
 9425SOL    HW129174   0.376   6.053   2.364
 9425SOL    HW229175   0.321   5.903   2.398
 9426SOL     OW29176   3.379   5.958   0.915
 9426SOL    HW129177   3.426   6.044   0.935
 9426SOL    HW229178   3.295   5.953   0.970
 9427SOL     OW29179   3.373   4.940   4.548
 9427SOL    HW129180   3.446   4.947   4.615
 9427SOL    HW229181   3.285   4.931   4.595
 9428SOL     OW29182   4.327   6.493   2.132
 9428SOL    HW129183   4.243   6.522   2.086
 9428SOL    HW229184   4.400   6.559   2.114
 9429SOL     OW29185   0.678   3.352   3.052
 9429SOL    HW129186   0.731   3.380   2.972
 9429SOL    HW229187   0.650   3.256   3.042
 9430SOL     OW29188   6.069   6.724   1.813
 9430SOL    HW129189   6.010   6.777   1.873
 9430SOL    HW229190   6.076   6.770   1.724
 9431SOL     OW29191   6.252   4.558   0.583
 9431SOL    HW129192   6.206   4.568   0.495
 9431SOL    HW229193   6.204   4.490   0.638
 9432SOL     OW29194   5.839   6.479   2.910
 9432SOL    HW129195   5.937   6.461   2.904
 9432SOL    HW229196   5.817   6.561   2.857
 9433SOL     OW29197   2.280   5.327   4.651
 9433SOL    HW129198   2.291   5.403   4.715
 9433SOL    HW229199   2.323   5.350   4.564
 9434SOL     OW29200   5.935   4.426   3.534
 9434SOL    HW129201   5.855   4.413   3.477
 9434SOL    HW229202   5.914   4.489   3.608
 9435SOL     OW29203   2.907   2.520   6.136
 9435SOL    HW129204   2.981   2.463   6.101
 9435SOL    HW229205   2.872   2.578   6.062
 9436SOL     OW29206   3.479   2.420   5.716
 9436SOL    HW129207   3.549   2.490   5.727
 9436SOL    HW229208   3.456   2.410   5.620
 9437SOL     OW29209   0.488   6.353   4.600
 9437SOL    HW129210   0.446   6.296   4.529
 9437SOL    HW229211   0.531   6.295   4.669
 9438SOL     OW29212   0.055   6.421   1.644
 9438SOL    HW129213   0.144   6.377   1.630
 9438SOL    HW229214   0.016   6.448   1.556
 9439SOL     OW29215   1.530   2.560   2.074
 9439SOL    HW129216   1.550   2.466   2.047
 9439SOL    HW229217   1.595   2.589   2.144
 9440SOL     OW29218   3.073   6.505   2.992
 9440SOL    HW129219   3.032   6.414   2.986
 9440SOL    HW229220   3.003   6.575   2.975
 9441SOL     OW29221   1.479   5.196   6.215
 9441SOL    HW129222   1.570   5.154   6.209
 9441SOL    HW229223   1.458   5.241   6.128
 9442SOL     OW29224   1.156   1.942   1.704
 9442SOL    HW129225   1.178   1.845   1.712
 9442SOL    HW229226   1.235   1.997   1.730
 9443SOL     OW29227   0.842   1.745   0.908
 9443SOL    HW129228   0.883   1.697   0.830
 9443SOL    HW229229   0.851   1.843   0.895
 9444SOL     OW29230   1.524   4.092   4.933
 9444SOL    HW129231   1.438   4.099   4.884
 9444SOL    HW229232   1.590   4.156   4.893
 9445SOL     OW29233   5.576   1.964   2.305
 9445SOL    HW129234   5.631   1.903   2.362
 9445SOL    HW229235   5.558   1.920   2.217
 9446SOL     OW29236   5.218   5.096   0.475
 9446SOL    HW129237   5.266   5.018   0.515
 9446SOL    HW229238   5.262   5.181   0.503
 9447SOL     OW29239   5.456   1.047   1.740
 9447SOL    HW129240   5.375   1.077   1.789
 9447SOL    HW229241   5.503   0.977   1.793
 9448SOL     OW29242   6.101   6.747   0.369
 9448SOL    HW129243   6.105   6.800   0.284
 9448SOL    HW229244   6.014   6.698   0.374
 9449SOL     OW29245   5.758   5.174   4.597
 9449SOL    HW129246   5.754   5.171   4.497
 9449SOL    HW229247   5.670   5.147   4.635
 9450SOL     OW29248   1.752   6.211   4.105
 9450SOL    HW129249   1.657   6.194   4.129
 9450SOL    HW229250   1.758   6.233   4.007
 9451SOL     OW29251   3.851   3.280   4.855
 9451SOL    HW129252   3.883   3.359   4.906
 9451SOL    HW229253   3.793   3.224   4.913
 9452SOL     OW29254   3.530   4.544   0.524
 9452SOL    HW129255   3.561   4.472   0.586
 9452SOL    HW229256   3.605   4.607   0.505
 9453SOL     OW29257   3.130   6.623   1.135
 9453SOL    HW129258   3.160   6.718   1.146
 9453SOL    HW229259   3.060   6.603   1.204
 9454SOL     OW29260   2.238   1.966   5.990
 9454SOL    HW129261   2.232   2.015   6.077
 9454SOL    HW229262   2.334   1.945   5.970
 9455SOL     OW29263   1.838   2.137   1.631
 9455SOL    HW129264   1.776   2.211   1.605
 9455SOL    HW229265   1.856   2.080   1.550
 9456SOL     OW29266   1.262   2.727   0.254
 9456SOL    HW129267   1.233   2.707   0.161
 9456SOL    HW229268   1.348   2.778   0.253
 9457SOL     OW29269   5.756   3.691   0.229
 9457SOL    HW129270   5.727   3.679   0.134
 9457SOL    HW229271   5.851   3.660   0.238
 9458SOL     OW29272   1.332   5.762   4.036
 9458SOL    HW129273   1.250   5.772   4.092
 9458SOL    HW229274   1.353   5.849   3.992
 9459SOL     OW29275   3.756   6.203   0.788
 9459SOL    HW129276   3.823   6.230   0.858
 9459SOL    HW229277   3.757   6.270   0.713
 9460SOL     OW29278   1.426   3.551   5.359
 9460SOL    HW129279   1.509   3.553   5.303
 9460SOL    HW229280   1.433   3.476   5.425
 9461SOL     OW29281   1.463   0.520   2.431
 9461SOL    HW129282   1.413   0.554   2.352
 9461SOL    HW229283   1.403   0.461   2.486
 9462SOL     OW29284   0.429   3.483   3.670
 9462SOL    HW129285   0.508   3.428   3.695
 9462SOL    HW229286   0.459   3.562   3.617
 9463SOL     OW29287   5.263   2.322   5.797
 9463SOL    HW129288   5.292   2.381   5.722
 9463SOL    HW229289   5.180   2.359   5.838
 9464SOL     OW29290   3.905   6.556   6.157
 9464SOL    HW129291   3.808   6.578   6.155
 9464SOL    HW229292   3.927   6.491   6.085
 9465SOL     OW29293   4.276   6.467   4.141
 9465SOL    HW129294   4.355   6.527   4.133
 9465SOL    HW229295   4.307   6.372   4.147
 9466SOL     OW29296   3.472   2.034   6.785
 9466SOL    HW129297   3.516   2.054   6.873
 9466SOL    HW229298   3.410   1.956   6.796
 9467SOL     OW29299   1.033   3.081   2.292
 9467SOL    HW129300   1.090   3.150   2.247
 9467SOL    HW229301   1.008   3.112   2.384
 9468SOL     OW29302   0.358   2.600   6.272
 9468SOL    HW129303   0.276   2.610   6.214
 9468SOL    HW229304   0.374   2.684   6.322
 9469SOL     OW29305   0.522   3.871   2.606
 9469SOL    HW129306   0.433   3.855   2.648
 9469SOL    HW229307   0.567   3.948   2.653
 9470SOL     OW29308   6.097   3.624   1.650
 9470SOL    HW129309   6.166   3.662   1.711
 9470SOL    HW229310   6.053   3.545   1.693
 9471SOL     OW29311   0.037   2.428   5.722
 9471SOL    HW129312   0.126   2.422   5.767
 9471SOL    HW229313   0.015   2.525   5.705
 9472SOL     OW29314   6.080   2.465   5.145
 9472SOL    HW129315   6.003   2.401   5.141
 9472SOL    HW229316   6.161   2.420   5.107
 9473SOL     OW29317   2.828   4.635   5.564
 9473SOL    HW129318   2.841   4.716   5.508
 9473SOL    HW229319   2.855   4.554   5.512
 9474SOL     OW29320   3.655   6.010   4.436
 9474SOL    HW129321   3.698   6.057   4.359
 9474SOL    HW229322   3.563   5.981   4.411
 9475SOL     OW29323   2.807   3.132   1.405
 9475SOL    HW129324   2.834   3.124   1.501
 9475SOL    HW229325   2.850   3.214   1.366
 9476SOL     OW29326   2.909   3.048   5.511
 9476SOL    HW129327   3.002   3.061   5.475
 9476SOL    HW229328   2.844   3.045   5.435
 9477SOL     OW29329   0.987   2.340   0.511
 9477SOL    HW129330   0.898   2.305   0.539
 9477SOL    HW229331   1.053   2.265   0.507
 9478SOL     OW29332   5.876   3.626   6.588
 9478SOL    HW129333   5.970   3.644   6.559
 9478SOL    HW229334   5.842   3.705   6.640
 9479SOL     OW29335   5.808   4.762   5.173
 9479SOL    HW129336   5.751   4.748   5.092
 9479SOL    HW229337   5.898   4.795   5.145
 9480SOL     OW29338   0.068   3.640   6.297
 9480SOL    HW129339   0.034   3.547   6.305
 9480SOL    HW229340   0.134   3.658   6.370
 9481SOL     OW29341   1.143   2.870   3.574
 9481SOL    HW129342   1.194   2.936   3.519
 9481SOL    HW229343   1.050   2.904   3.589
 9482SOL     OW29344   4.304   1.663   2.185
 9482SOL    HW129345   4.402   1.661   2.168
 9482SOL    HW229346   4.279   1.591   2.250
 9483SOL     OW29347   1.667   0.925   0.734
 9483SOL    HW129348   1.635   0.841   0.690
 9483SOL    HW229349   1.711   0.984   0.665
 9484SOL     OW29350   6.775   0.421   3.397
 9484SOL    HW129351   6.743   0.510   3.428
 9484SOL    HW229352   6.727   0.349   3.447
 9485SOL     OW29353   0.069   6.994   2.831
 9485SOL    HW129354   0.133   6.918   2.847
 9485SOL    HW229355   0.102   0.029   2.754
 9486SOL     OW29356   2.642   6.778   1.395
 9486SOL    HW129357   2.543   6.790   1.386
 9486SOL    HW229358   2.662   6.741   1.486
 9487SOL     OW29359   3.488   2.911   3.392
 9487SOL    HW129360   3.484   2.898   3.293
 9487SOL    HW229361   3.584   2.912   3.421
 9488SOL     OW29362   1.784   0.203   1.784
 9488SOL    HW129363   1.726   0.149   1.845
 9488SOL    HW229364   1.880   0.186   1.805
 9489SOL     OW29365   3.061   4.956   0.575
 9489SOL    HW129366   2.982   4.979   0.519
 9489SOL    HW229367   3.032   4.942   0.670
 9490SOL     OW29368   4.414   1.817   0.362
 9490SOL    HW129369   4.465   1.780   0.285
 9490SOL    HW229370   4.322   1.779   0.362
 9491SOL     OW29371   5.803   5.904   6.368
 9491SOL    HW129372   5.844   5.928   6.280
 9491SOL    HW229373   5.865   5.932   6.442
 9492SOL     OW29374   2.499   5.557   0.990
 9492SOL    HW129375   2.574   5.538   1.053
 9492SOL    HW229376   2.414   5.520   1.028
 9493SOL     OW29377   4.780   5.523   2.345
 9493SOL    HW129378   4.870   5.504   2.382
 9493SOL    HW229379   4.744   5.441   2.300
 9494SOL     OW29380   3.541   3.201   6.301
 9494SOL    HW129381   3.605   3.219   6.376
 9494SOL    HW229382   3.473   3.275   6.298
 9495SOL     OW29383   5.145   2.537   4.455
 9495SOL    HW129384   5.240   2.543   4.426
 9495SOL    HW229385   5.136   2.575   4.547
 9496SOL     OW29386   6.982   4.078   6.695
 9496SOL    HW129387   6.915   4.005   6.709
 9496SOL    HW229388   0.048   4.054   6.739
 9497SOL     OW29389   0.913   6.403   6.267
 9497SOL    HW129390   0.939   6.497   6.290
 9497SOL    HW229391   0.830   6.403   6.211
 9498SOL     OW29392   4.570   6.544   6.520
 9498SOL    HW129393   4.505   6.487   6.469
 9498SOL    HW229394   4.628   6.593   6.456
 9499SOL     OW29395   4.641   4.120   5.499
 9499SOL    HW129396   4.586   4.054   5.550
 9499SOL    HW229397   4.738   4.105   5.518
 9500SOL     OW29398   3.759   5.948   0.720
 9500SOL    HW129399   3.757   6.043   0.753
 9500SOL    HW229400   3.712   5.889   0.786
 9501SOL     OW29401   3.255   1.913   4.715
 9501SOL    HW129402   3.337   1.962   4.683
 9501SOL    HW229403   3.195   1.977   4.764
 9502SOL     OW29404   3.821   3.377   6.232
 9502SOL    HW129405   3.772   3.355   6.316
 9502SOL    HW229406   3.784   3.323   6.156
 9503SOL     OW29407   0.856   6.126   1.130
 9503SOL    HW129408   0.835   6.100   1.224
 9503SOL    HW229409   0.928   6.196   1.130
 9504SOL     OW29410   0.113   3.078   0.921
 9504SOL    HW129411   0.063   3.073   0.834
 9504SOL    HW229412   0.048   3.077   0.997
 9505SOL     OW29413   4.923   3.221   3.243
 9505SOL    HW129414   4.841   3.166   3.228
 9505SOL    HW229415   4.907   3.314   3.209
 9506SOL     OW29416   6.362   1.958   0.932
 9506SOL    HW129417   6.265   1.946   0.951
 9506SOL    HW229418   6.403   2.015   1.002
 9507SOL     OW29419   1.723   3.208   5.452
 9507SOL    HW129420   1.671   3.126   5.427
 9507SOL    HW229421   1.746   3.259   5.370
 9508SOL     OW29422   4.094   1.338   5.608
 9508SOL    HW129423   4.100   1.322   5.706
 9508SOL    HW229424   4.038   1.419   5.590
 9509SOL     OW29425   3.676   6.782   5.718
 9509SOL    HW129426   3.615   6.703   5.715
 9509SOL    HW229427   3.771   6.751   5.716
 9510SOL     OW29428   0.059   4.243   2.610
 9510SOL    HW129429   0.052   4.316   2.542
 9510SOL    HW229430   6.998   4.185   2.604
 9511SOL     OW29431   2.324   1.692   1.437
 9511SOL    HW129432   2.385   1.757   1.390
 9511SOL    HW229433   2.231   1.705   1.405
 9512SOL     OW29434   1.905   3.651   5.483
 9512SOL    HW129435   1.955   3.580   5.434
 9512SOL    HW229436   1.857   3.710   5.417
 9513SOL     OW29437   3.174   4.958   3.763
 9513SOL    HW129438   3.181   4.918   3.672
 9513SOL    HW229439   3.261   4.947   3.811
 9514SOL     OW29440   3.188   3.176   5.409
 9514SOL    HW129441   3.133   3.260   5.411
 9514SOL    HW229442   3.261   3.186   5.341
 9515SOL     OW29443   1.553   5.638   5.284
 9515SOL    HW129444   1.608   5.559   5.310
 9515SOL    HW229445   1.586   5.719   5.333
 9516SOL     OW29446   6.296   4.447   4.795
 9516SOL    HW129447   6.257   4.447   4.703
 9516SOL    HW229448   6.227   4.477   4.861
 9517SOL     OW29449   0.463   5.316   2.433
 9517SOL    HW129450   0.365   5.335   2.424
 9517SOL    HW229451   0.480   5.263   2.516
 9518SOL     OW29452   0.962   3.116   5.347
 9518SOL    HW129453   1.034   3.146   5.284
 9518SOL    HW229454   0.880   3.092   5.294
 9519SOL     OW29455   3.293   3.327   3.593
 9519SOL    HW129456   3.367   3.313   3.528
 9519SOL    HW229457   3.242   3.242   3.604
 9520SOL     OW29458   4.772   1.427   5.887
 9520SOL    HW129459   4.815   1.509   5.849
 9520SOL    HW229460   4.705   1.392   5.821
 9521SOL     OW29461   3.938   1.703   1.483
 9521SOL    HW129462   3.872   1.631   1.505
 9521SOL    HW229463   3.960   1.756   1.565
 9522SOL     OW29464   3.765   6.484   1.121
 9522SOL    HW129465   3.783   6.515   1.214
 9522SOL    HW229466   3.829   6.410   1.098
 9523SOL     OW29467   2.547   4.633   4.648
 9523SOL    HW129468   2.459   4.597   4.677
 9523SOL    HW229469   2.589   4.685   4.723
 9524SOL     OW29470   1.854   3.630   0.493
 9524SOL    HW129471   1.937   3.664   0.450
 9524SOL    HW229472   1.877   3.559   0.560
 9525SOL     OW29473   2.620   2.632   6.351
 9525SOL    HW129474   2.703   2.687   6.364
 9525SOL    HW229475   2.622   2.554   6.414
 9526SOL     OW29476   5.420   4.532   5.993
 9526SOL    HW129477   5.459   4.528   6.085
 9526SOL    HW229478   5.321   4.525   5.999
 9527SOL     OW29479   4.210   5.936   4.635
 9527SOL    HW129480   4.116   5.958   4.660
 9527SOL    HW229481   4.259   5.903   4.716
 9528SOL     OW29482   5.099   2.394   1.106
 9528SOL    HW129483   5.076   2.352   1.194
 9528SOL    HW229484   5.032   2.466   1.085
 9529SOL     OW29485   5.895   0.177   1.937
 9529SOL    HW129486   5.887   0.274   1.915
 9529SOL    HW229487   5.873   0.163   2.034
 9530SOL     OW29488   1.096   6.119   3.673
 9530SOL    HW129489   0.999   6.141   3.666
 9530SOL    HW229490   1.109   6.043   3.737
 9531SOL     OW29491   3.531   5.858   1.746
 9531SOL    HW129492   3.532   5.863   1.846
 9531SOL    HW229493   3.455   5.801   1.716
 9532SOL     OW29494   6.771   5.220   4.495
 9532SOL    HW129495   6.852   5.161   4.487
 9532SOL    HW229496   6.782   5.301   4.438
 9533SOL     OW29497   1.013   4.399   4.064
 9533SOL    HW129498   1.072   4.319   4.077
 9533SOL    HW229499   0.929   4.386   4.116
 9534SOL     OW29500   4.965   6.087   4.532
 9534SOL    HW129501   4.961   5.990   4.556
 9534SOL    HW229502   4.885   6.110   4.476
 9535SOL     OW29503   0.034   1.646   4.206
 9535SOL    HW129504   0.046   1.639   4.305
 9535SOL    HW229505   6.989   1.719   4.185
 9536SOL     OW29506   3.405   3.490   5.455
 9536SOL    HW129507   3.481   3.534   5.503
 9536SOL    HW229508   3.421   3.492   5.357
 9537SOL     OW29509   6.865   0.852   4.572
 9537SOL    HW129510   6.952   0.841   4.620
 9537SOL    HW229511   6.844   0.950   4.563
 9538SOL     OW29512   5.596   0.592   5.085
 9538SOL    HW129513   5.507   0.547   5.080
 9538SOL    HW229514   5.618   0.610   5.181
 9539SOL     OW29515   3.562   4.176   1.986
 9539SOL    HW129516   3.492   4.147   2.052
 9539SOL    HW229517   3.616   4.251   2.026
 9540SOL     OW29518   4.055   5.042   3.335
 9540SOL    HW129519   4.132   4.991   3.295
 9540SOL    HW229520   4.018   5.105   3.266
 9541SOL     OW29521   1.601   5.321   5.850
 9541SOL    HW129522   1.592   5.387   5.776
 9541SOL    HW229523   1.689   5.274   5.842
 9542SOL     OW29524   6.346   3.725   3.284
 9542SOL    HW129525   6.321   3.695   3.192
 9542SOL    HW229526   6.288   3.801   3.312
 9543SOL     OW29527   1.819   0.869   6.030
 9543SOL    HW129528   1.732   0.883   6.078
 9543SOL    HW229529   1.856   0.779   6.053
 9544SOL     OW29530   6.111   3.334   4.771
 9544SOL    HW129531   6.177   3.387   4.718
 9544SOL    HW229532   6.112   3.365   4.866
 9545SOL     OW29533   6.456   4.200   1.576
 9545SOL    HW129534   6.449   4.299   1.557
 9545SOL    HW229535   6.382   4.152   1.528
 9546SOL     OW29536   3.455   2.771   0.067
 9546SOL    HW129537   3.400   2.763   7.004
 9546SOL    HW229538   3.408   2.725   0.143
 9547SOL     OW29539   4.206   0.611   3.578
 9547SOL    HW129540   4.305   0.599   3.575
 9547SOL    HW229541   4.161   0.521   3.575
 9548SOL     OW29542   0.929   5.213   5.610
 9548SOL    HW129543   1.026   5.238   5.601
 9548SOL    HW229544   0.898   5.169   5.526
 9549SOL     OW29545   4.708   1.286   1.407
 9549SOL    HW129546   4.754   1.373   1.427
 9549SOL    HW229547   4.777   1.215   1.391
 9550SOL     OW29548   6.886   1.905   1.967
 9550SOL    HW129549   6.940   1.867   1.891
 9550SOL    HW229550   6.829   1.979   1.933
 9551SOL     OW29551   6.547   3.089   6.904
 9551SOL    HW129552   6.590   3.108   6.992
 9551SOL    HW229553   6.464   3.145   6.894
 9552SOL     OW29554   3.078   1.669   0.159
 9552SOL    HW129555   3.130   1.603   0.215
 9552SOL    HW229556   3.092   1.649   0.062
 9553SOL     OW29557   5.038   1.506   0.106
 9553SOL    HW129558   5.099   1.545   0.037
 9553SOL    HW229559   5.047   1.407   0.106
 9554SOL     OW29560   2.554   1.026   4.385
 9554SOL    HW129561   2.526   1.061   4.474
 9554SOL    HW229562   2.600   0.937   4.397
 9555SOL     OW29563   0.604   6.486   2.698
 9555SOL    HW129564   0.688   6.477   2.644
 9555SOL    HW229565   0.579   6.397   2.736
 9556SOL     OW29566   2.328   4.903   6.590
 9556SOL    HW129567   2.334   4.804   6.603
 9556SOL    HW229568   2.359   4.949   6.673
 9557SOL     OW29569   5.030   1.006   0.289
 9557SOL    HW129570   5.010   0.998   0.191
 9557SOL    HW229571   5.019   1.101   0.318
 9558SOL     OW29572   5.730   6.026   5.654
 9558SOL    HW129573   5.727   6.026   5.554
 9558SOL    HW229574   5.712   5.933   5.688
 9559SOL     OW29575   2.439   4.325   0.290
 9559SOL    HW129576   2.365   4.261   0.274
 9559SOL    HW229577   2.402   4.418   0.299
 9560SOL     OW29578   2.371   0.234   1.837
 9560SOL    HW129579   2.317   0.316   1.857
 9560SOL    HW229580   2.466   0.260   1.820
 9561SOL     OW29581   6.788   0.900   6.860
 9561SOL    HW129582   6.742   0.946   6.784
 9561SOL    HW229583   6.721   0.852   6.916
 9562SOL     OW29584   2.052   5.818   2.766
 9562SOL    HW129585   2.139   5.772   2.750
 9562SOL    HW229586   1.985   5.788   2.698
 9563SOL     OW29587   0.483   5.475   6.916
 9563SOL    HW129588   0.535   5.405   6.964
 9563SOL    HW229589   0.433   5.531   6.983
 9564SOL     OW29590   0.792   1.595   0.198
 9564SOL    HW129591   0.752   1.687   0.205
 9564SOL    HW229592   0.856   1.592   0.122
 9565SOL     OW29593   2.312   2.159   4.775
 9565SOL    HW129594   2.311   2.128   4.870
 9565SOL    HW229595   2.385   2.111   4.725
 9566SOL     OW29596   3.016   0.432   6.612
 9566SOL    HW129597   3.034   0.371   6.535
 9566SOL    HW229598   2.929   0.408   6.655
 9567SOL     OW29599   6.848   4.409   0.894
 9567SOL    HW129600   6.873   4.365   0.807
 9567SOL    HW229601   6.868   4.507   0.889
 9568SOL     OW29602   4.723   2.291   5.652
 9568SOL    HW129603   4.747   2.226   5.725
 9568SOL    HW229604   4.641   2.342   5.679
 9569SOL     OW29605   5.526   0.526   2.201
 9569SOL    HW129606   5.591   0.561   2.133
 9569SOL    HW229607   5.572   0.459   2.259
 9570SOL     OW29608   0.729   3.726   2.509
 9570SOL    HW129609   0.657   3.786   2.544
 9570SOL    HW229610   0.752   3.753   2.416
 9571SOL     OW29611   1.723   0.876   6.949
 9571SOL    HW129612   1.664   0.927   6.886
 9571SOL    HW229613   1.714   0.778   6.931
 9572SOL     OW29614   2.913   4.803   4.853
 9572SOL    HW129615   2.879   4.740   4.923
 9572SOL    HW229616   2.864   4.787   4.767
 9573SOL     OW29617   5.595   6.972   4.253
 9573SOL    HW129618   5.517   0.013   4.268
 9573SOL    HW229619   5.632   6.987   4.161
 9574SOL     OW29620   4.653   2.597   0.996
 9574SOL    HW129621   4.723   2.637   0.936
 9574SOL    HW229622   4.697   2.556   1.076
 9575SOL     OW29623   4.923   1.034   1.686
 9575SOL    HW129624   4.978   1.059   1.606
 9575SOL    HW229625   4.837   0.994   1.656
 9576SOL     OW29626   1.603   1.120   5.628
 9576SOL    HW129627   1.628   1.192   5.563
 9576SOL    HW229628   1.659   1.039   5.610
 9577SOL     OW29629   0.512   5.531   3.015
 9577SOL    HW129630   0.605   5.566   3.016
 9577SOL    HW229631   0.495   5.482   2.930
 9578SOL     OW29632   1.895   3.115   2.859
 9578SOL    HW129633   1.918   3.180   2.930
 9578SOL    HW229634   1.946   3.137   2.775
 9579SOL     OW29635   5.492   5.297   2.510
 9579SOL    HW129636   5.393   5.287   2.521
 9579SOL    HW229637   5.539   5.220   2.553
 9580SOL     OW29638   4.829   3.941   3.931
 9580SOL    HW129639   4.831   3.902   4.023
 9580SOL    HW229640   4.856   3.872   3.864
 9581SOL     OW29641   5.026   2.153   6.349
 9581SOL    HW129642   5.024   2.106   6.438
 9581SOL    HW229643   5.121   2.164   6.319
 9582SOL     OW29644   4.667   6.640   5.275
 9582SOL    HW129645   4.619   6.708   5.219
 9582SOL    HW229646   4.745   6.605   5.224
 9583SOL     OW29647   2.513   5.300   1.132
 9583SOL    HW129648   2.532   5.211   1.175
 9583SOL    HW229649   2.597   5.355   1.132
 9584SOL     OW29650   2.126   5.218   4.429
 9584SOL    HW129651   2.214   5.179   4.401
 9584SOL    HW229652   2.136   5.262   4.519
 9585SOL     OW29653   4.488   6.514   0.993
 9585SOL    HW129654   4.413   6.456   0.961
 9585SOL    HW229655   4.516   6.485   1.085
 9586SOL     OW29656   3.160   4.942   3.149
 9586SOL    HW129657   3.162   4.864   3.086
 9586SOL    HW229658   3.157   5.027   3.097
 9587SOL     OW29659   3.660   6.318   7.014
 9587SOL    HW129660   3.748   6.291   0.033
 9587SOL    HW229661   3.589   6.256   0.028
 9588SOL     OW29662   6.375   6.096   0.439
 9588SOL    HW129663   6.369   6.166   0.509
 9588SOL    HW229664   6.465   6.053   0.442
 9589SOL     OW29665   0.971   1.042   5.567
 9589SOL    HW129666   0.895   1.105   5.548
 9589SOL    HW229667   0.999   1.051   5.662
 9590SOL     OW29668   5.226   0.281   0.428
 9590SOL    HW129669   5.209   0.345   0.503
 9590SOL    HW229670   5.167   0.201   0.438
 9591SOL     OW29671   4.857   0.820   6.509
 9591SOL    HW129672   4.955   0.838   6.499
 9591SOL    HW229673   4.807   0.861   6.432
 9592SOL     OW29674   1.590   5.714   5.020
 9592SOL    HW129675   1.592   5.737   5.117
 9592SOL    HW229676   1.561   5.793   4.967
 9593SOL     OW29677   2.675   2.212   4.532
 9593SOL    HW129678   2.637   2.122   4.550
 9593SOL    HW229679   2.775   2.205   4.526
 9594SOL     OW29680   0.258   6.331   3.516
 9594SOL    HW129681   0.221   6.409   3.566
 9594SOL    HW229682   0.267   6.355   3.419
 9595SOL     OW29683   0.524   4.038   3.554
 9595SOL    HW129684   0.587   4.114   3.568
 9595SOL    HW229685   0.448   4.067   3.495
 9596SOL     OW29686   1.298   6.241   1.368
 9596SOL    HW129687   1.344   6.153   1.350
 9596SOL    HW229688   1.308   6.300   1.288
 9597SOL     OW29689   0.904   3.431   2.228
 9597SOL    HW129690   0.873   3.341   2.260
 9597SOL    HW229691   0.914   3.492   2.306
 9598SOL     OW29692   2.607   4.700   3.446
 9598SOL    HW129693   2.588   4.637   3.522
 9598SOL    HW229694   2.621   4.648   3.362
 9599SOL     OW29695   4.827   0.251   5.185
 9599SOL    HW129696   4.737   0.294   5.182
 9599SOL    HW229697   4.817   0.152   5.189
 9600SOL     OW29698   4.055   1.294   0.827
 9600SOL    HW129699   4.003   1.379   0.818
 9600SOL    HW229700   4.120   1.287   0.751
 9601SOL     OW29701   0.902   3.853   0.864
 9601SOL    HW129702   0.991   3.812   0.844
 9601SOL    HW229703   0.915   3.937   0.916
 9602SOL     OW29704   4.154   4.486   5.536
 9602SOL    HW129705   4.203   4.400   5.523
 9602SOL    HW229706   4.196   4.557   5.480
 9603SOL     OW29707   5.479   6.895   6.115
 9603SOL    HW129708   5.567   6.860   6.148
 9603SOL    HW229709   5.425   6.819   6.080
 9604SOL     OW29710   4.647   6.608   1.611
 9604SOL    HW129711   4.700   6.635   1.692
 9604SOL    HW229712   4.552   6.593   1.637
 9605SOL     OW29713   5.135   4.947   1.463
 9605SOL    HW129714   5.123   4.981   1.370
 9605SOL    HW229715   5.072   4.995   1.524
 9606SOL     OW29716   1.406   1.456   6.845
 9606SOL    HW129717   1.337   1.408   6.789
 9606SOL    HW229718   1.496   1.441   6.805
 9607SOL     OW29719   1.656   2.227   6.896
 9607SOL    HW129720   1.631   2.306   6.840
 9607SOL    HW229721   1.577   2.166   6.903
 9608SOL     OW29722   6.452   2.591   4.609
 9608SOL    HW129723   6.451   2.689   4.631
 9608SOL    HW229724   6.359   2.560   4.590
 9609SOL     OW29725   5.038   3.388   0.724
 9609SOL    HW129726   5.037   3.407   0.626
 9609SOL    HW229727   4.950   3.352   0.752
 9610SOL     OW29728   1.309   5.122   2.693
 9610SOL    HW129729   1.397   5.086   2.722
 9610SOL    HW229730   1.275   5.188   2.761
 9611SOL     OW29731   2.463   0.407   0.558
 9611SOL    HW129732   2.434   0.430   0.465
 9611SOL    HW229733   2.556   0.371   0.557
 9612SOL     OW29734   6.864   1.353   3.853
 9612SOL    HW129735   6.933   1.387   3.789
 9612SOL    HW229736   6.908   1.314   3.933
 9613SOL     OW29737   6.072   4.364   4.409
 9613SOL    HW129738   5.985   4.412   4.403
 9613SOL    HW229739   6.146   4.431   4.418
 9614SOL     OW29740   3.966   1.622   3.379
 9614SOL    HW129741   3.962   1.522   3.377
 9614SOL    HW229742   4.027   1.652   3.452
 9615SOL     OW29743   1.892   3.674   1.376
 9615SOL    HW129744   1.991   3.686   1.382
 9615SOL    HW229745   1.864   3.594   1.430
 9616SOL     OW29746   3.776   4.118   5.892
 9616SOL    HW129747   3.757   4.211   5.860
 9616SOL    HW229748   3.757   4.053   5.819
 9617SOL     OW29749   1.030   3.194   2.532
 9617SOL    HW129750   1.012   3.284   2.492
 9617SOL    HW229751   0.960   3.173   2.601
 9618SOL     OW29752   2.336   2.516   0.756
 9618SOL    HW129753   2.248   2.492   0.715
 9618SOL    HW229754   2.320   2.576   0.834
 9619SOL     OW29755   2.094   0.081   6.751
 9619SOL    HW129756   2.148   0.124   6.679
 9619SOL    HW229757   1.999   0.073   6.722
 9620SOL     OW29758   5.508   1.156   5.043
 9620SOL    HW129759   5.492   1.063   5.078
 9620SOL    HW229760   5.605   1.166   5.019
 9621SOL     OW29761   1.826   3.647   3.322
 9621SOL    HW129762   1.749   3.706   3.347
 9621SOL    HW229763   1.814   3.557   3.363
 9622SOL     OW29764   4.396   0.021   0.164
 9622SOL    HW129765   4.385   0.117   0.191
 9622SOL    HW229766   4.461   6.996   0.226
 9623SOL     OW29767   0.538   3.232   6.421
 9623SOL    HW129768   0.633   3.200   6.424
 9623SOL    HW229769   0.515   3.274   6.509
 9624SOL     OW29770   6.235   3.056   3.826
 9624SOL    HW129771   6.255   3.154   3.821
 9624SOL    HW229772   6.273   3.019   3.911
 9625SOL     OW29773   5.241   5.982   1.912
 9625SOL    HW129774   5.251   6.078   1.939
 9625SOL    HW229775   5.289   5.967   1.825
 9626SOL     OW29776   3.918   0.503   0.372
 9626SOL    HW129777   3.821   0.496   0.395
 9626SOL    HW229778   3.946   0.599   0.374
 9627SOL     OW29779   0.439   0.099   0.624
 9627SOL    HW129780   0.532   0.070   0.646
 9627SOL    HW229781   0.429   0.197   0.642
 9628SOL     OW29782   3.438   6.905   1.644
 9628SOL    HW129783   3.536   6.919   1.634
 9628SOL    HW229784   3.401   6.970   1.710
 9629SOL     OW29785   2.367   0.420   0.803
 9629SOL    HW129786   2.401   0.409   0.710
 9629SOL    HW229787   2.293   0.355   0.819
 9630SOL     OW29788   0.348   2.369   6.425
 9630SOL    HW129789   0.345   2.454   6.372
 9630SOL    HW229790   0.379   2.294   6.366
 9631SOL     OW29791   6.632   5.371   0.847
 9631SOL    HW129792   6.688   5.313   0.906
 9631SOL    HW229793   6.535   5.352   0.865
 9632SOL     OW29794   1.905   5.496   2.727
 9632SOL    HW129795   1.945   5.533   2.810
 9632SOL    HW229796   1.909   5.565   2.655
 9633SOL     OW29797   0.195   5.192   0.281
 9633SOL    HW129798   0.142   5.133   0.342
 9633SOL    HW229799   0.149   5.198   0.192
 9634SOL     OW29800   0.179   5.793   6.140
 9634SOL    HW129801   0.135   5.879   6.166
 9634SOL    HW229802   0.185   5.733   6.220
 9635SOL     OW29803   6.303   6.159   5.914
 9635SOL    HW129804   6.355   6.235   5.953
 9635SOL    HW229805   6.215   6.151   5.961
 9636SOL     OW29806   3.806   1.146   0.653
 9636SOL    HW129807   3.779   1.240   0.632
 9636SOL    HW229808   3.860   1.109   0.578
 9637SOL     OW29809   2.512   1.507   0.030
 9637SOL    HW129810   2.531   1.475   0.123
 9637SOL    HW229811   2.545   1.440   6.984
 9638SOL     OW29812   6.576   2.599   6.570
 9638SOL    HW129813   6.509   2.666   6.537
 9638SOL    HW229814   6.663   2.645   6.587
 9639SOL     OW29815   3.810   0.132   2.204
 9639SOL    HW129816   3.839   0.196   2.132
 9639SOL    HW229817   3.761   0.183   2.275
 9640SOL     OW29818   2.209   1.644   3.086
 9640SOL    HW129819   2.240   1.735   3.058
 9640SOL    HW229820   2.115   1.631   3.056
 9641SOL     OW29821   5.013   5.522   6.309
 9641SOL    HW129822   5.029   5.569   6.396
 9641SOL    HW229823   5.005   5.589   6.235
 9642SOL     OW29824   3.239   6.959   2.803
 9642SOL    HW129825   3.188   6.921   2.880
 9642SOL    HW229826   3.181   6.961   2.722
 9643SOL     OW29827   3.822   4.966   2.153
 9643SOL    HW129828   3.727   4.937   2.154
 9643SOL    HW229829   3.827   5.066   2.148
 9644SOL     OW29830   2.308   0.955   0.837
 9644SOL    HW129831   2.345   1.035   0.883
 9644SOL    HW229832   2.244   0.908   0.898
 9645SOL     OW29833   3.058   5.031   5.643
 9645SOL    HW129834   2.976   4.994   5.598
 9645SOL    HW229835   3.048   5.130   5.653
 9646SOL     OW29836   3.457   4.912   4.083
 9646SOL    HW129837   3.554   4.927   4.105
 9646SOL    HW229838   3.446   4.906   3.984
 9647SOL     OW29839   6.250   3.148   5.675
 9647SOL    HW129840   6.341   3.145   5.717
 9647SOL    HW229841   6.184   3.186   5.739
 9648SOL     OW29842   4.369   4.035   0.782
 9648SOL    HW129843   4.463   4.068   0.789
 9648SOL    HW229844   4.326   4.038   0.872
 9649SOL     OW29845   2.277   4.592   0.798
 9649SOL    HW129846   2.338   4.548   0.863
 9649SOL    HW229847   2.218   4.523   0.755
 9650SOL     OW29848   1.718   0.579   1.384
 9650SOL    HW129849   1.760   0.643   1.321
 9650SOL    HW229850   1.674   0.629   1.458
 9651SOL     OW29851   0.763   1.878   0.108
 9651SOL    HW129852   0.862   1.882   0.094
 9651SOL    HW229853   0.717   1.890   0.020
 9652SOL     OW29854   2.147   4.510   1.196
 9652SOL    HW129855   2.072   4.541   1.256
 9652SOL    HW229856   2.229   4.494   1.251
 9653SOL     OW29857   6.290   6.473   4.459
 9653SOL    HW129858   6.248   6.527   4.532
 9653SOL    HW229859   6.219   6.439   4.398
 9654SOL     OW29860   2.321   2.808   2.630
 9654SOL    HW129861   2.399   2.864   2.602
 9654SOL    HW229862   2.331   2.716   2.593
 9655SOL     OW29863   6.197   2.148   0.146
 9655SOL    HW129864   6.233   2.240   0.131
 9655SOL    HW229865   6.239   2.108   0.227
 9656SOL     OW29866   2.627   2.043   2.214
 9656SOL    HW129867   2.610   2.140   2.230
 9656SOL    HW229868   2.547   2.001   2.173
 9657SOL     OW29869   0.533   0.431   4.511
 9657SOL    HW129870   0.454   0.449   4.452
 9657SOL    HW229871   0.502   0.387   4.595
 9658SOL     OW29872   6.190   1.442   2.638
 9658SOL    HW129873   6.156   1.456   2.545
 9658SOL    HW229874   6.174   1.347   2.665
 9659SOL     OW29875   1.645   5.710   6.688
 9659SOL    HW129876   1.667   5.806   6.702
 9659SOL    HW229877   1.726   5.662   6.654
 9660SOL     OW29878   1.229   4.077   0.447
 9660SOL    HW129879   1.256   4.074   0.544
 9660SOL    HW229880   1.304   4.114   0.393
 9661SOL     OW29881   4.025   0.847   1.194
 9661SOL    HW129882   4.091   0.847   1.119
 9661SOL    HW229883   3.966   0.927   1.187
 9662SOL     OW29884   4.744   2.357   4.009
 9662SOL    HW129885   4.738   2.297   3.930
 9662SOL    HW229886   4.804   2.316   4.078
 9663SOL     OW29887   3.276   5.754   2.626
 9663SOL    HW129888   3.315   5.725   2.714
 9663SOL    HW229889   3.217   5.681   2.591
 9664SOL     OW29890   2.827   5.867   0.986
 9664SOL    HW129891   2.822   5.891   1.083
 9664SOL    HW229892   2.842   5.769   0.977
 9665SOL     OW29893   5.844   4.929   3.611
 9665SOL    HW129894   5.934   4.966   3.585
 9665SOL    HW229895   5.793   4.905   3.529
 9666SOL     OW29896   5.556   4.968   4.985
 9666SOL    HW129897   5.598   4.878   4.972
 9666SOL    HW229898   5.594   5.012   5.066
 9667SOL     OW29899   3.010   3.365   2.841
 9667SOL    HW129900   3.083   3.297   2.849
 9667SOL    HW229901   2.988   3.401   2.932
 9668SOL     OW29902   0.196   1.326   5.009
 9668SOL    HW129903   0.222   1.422   5.011
 9668SOL    HW229904   0.216   1.283   5.097
 9669SOL     OW29905   1.246   6.776   6.960
 9669SOL    HW129906   1.161   6.791   6.909
 9669SOL    HW229907   1.263   6.677   6.968
 9670SOL     OW29908   6.308   3.840   6.625
 9670SOL    HW129909   6.349   3.900   6.556
 9670SOL    HW229910   6.380   3.791   6.673
 9671SOL     OW29911   6.678   1.697   7.002
 9671SOL    HW129912   6.752   1.693   6.936
 9671SOL    HW229913   6.690   1.776   0.041
 9672SOL     OW29914   0.158   6.671   5.876
 9672SOL    HW129915   0.217   6.689   5.797
 9672SOL    HW229916   0.150   6.572   5.888
 9673SOL     OW29917   2.163   2.141   6.194
 9673SOL    HW129918   2.252   2.153   6.240
 9673SOL    HW229919   2.092   2.124   6.263
 9674SOL     OW29920   2.687   6.476   2.353
 9674SOL    HW129921   2.691   6.574   2.367
 9674SOL    HW229922   2.763   6.447   2.294
 9675SOL     OW29923   6.767   2.381   2.089
 9675SOL    HW129924   6.839   2.312   2.089
 9675SOL    HW229925   6.779   2.442   2.167
 9676SOL     OW29926   6.522   3.176   4.216
 9676SOL    HW129927   6.454   3.198   4.286
 9676SOL    HW229928   6.604   3.232   4.229
 9677SOL     OW29929   1.968   3.595   6.013
 9677SOL    HW129930   2.063   3.606   5.987
 9677SOL    HW229931   1.952   3.636   6.102
 9678SOL     OW29932   3.423   3.385   3.064
 9678SOL    HW129933   3.440   3.435   3.149
 9678SOL    HW229934   3.511   3.363   3.021
 9679SOL     OW29935   0.444   3.580   1.551
 9679SOL    HW129936   0.486   3.643   1.616
 9679SOL    HW229937   0.513   3.550   1.485
 9680SOL     OW29938   4.503   5.264   2.601
 9680SOL    HW129939   4.404   5.253   2.612
 9680SOL    HW229940   4.526   5.361   2.599
 9681SOL     OW29941   0.949   0.763   3.989
 9681SOL    HW129942   0.883   0.810   4.047
 9681SOL    HW229943   1.038   0.759   4.036
 9682SOL     OW29944   0.678   4.198   2.214
 9682SOL    HW129945   0.628   4.152   2.287
 9682SOL    HW229946   0.747   4.135   2.176
 9683SOL     OW29947   4.413   6.887   4.664
 9683SOL    HW129948   4.367   6.850   4.745
 9683SOL    HW229949   4.430   6.985   4.677
 9684SOL     OW29950   1.505   4.197   2.881
 9684SOL    HW129951   1.567   4.200   2.803
 9684SOL    HW229952   1.497   4.104   2.916
 9685SOL     OW29953   1.743   1.042   6.640
 9685SOL    HW129954   1.805   1.103   6.689
 9685SOL    HW229955   1.649   1.060   6.670
 9686SOL     OW29956   5.976   2.577   2.667
 9686SOL    HW129957   6.075   2.592   2.679
 9686SOL    HW229958   5.946   2.617   2.581
 9687SOL     OW29959   3.032   1.160   5.064
 9687SOL    HW129960   3.063   1.194   5.153
 9687SOL    HW229961   2.933   1.170   5.057
 9688SOL     OW29962   5.648   2.160   4.216
 9688SOL    HW129963   5.589   2.102   4.273
 9688SOL    HW229964   5.660   2.117   4.127
 9689SOL     OW29965   3.061   5.415   5.754
 9689SOL    HW129966   3.070   5.470   5.837
 9689SOL    HW229967   2.969   5.424   5.718
 9690SOL     OW29968   6.186   3.652   0.093
 9690SOL    HW129969   6.153   3.715   0.022
 9690SOL    HW229970   6.269   3.606   0.060
 9691SOL     OW29971   1.182   4.479   1.079
 9691SOL    HW129972   1.106   4.430   1.122
 9691SOL    HW229973   1.246   4.510   1.149
 9692SOL     OW29974   3.185   5.261   0.712
 9692SOL    HW129975   3.168   5.351   0.752
 9692SOL    HW229976   3.201   5.270   0.614
 9693SOL     OW29977   5.886   5.758   1.398
 9693SOL    HW129978   5.900   5.719   1.306
 9693SOL    HW229979   5.971   5.799   1.429
 9694SOL     OW29980   1.033   0.875   0.244
 9694SOL    HW129981   0.961   0.874   0.174
 9694SOL    HW229982   1.119   0.903   0.202
 9695SOL     OW29983   5.915   4.450   0.089
 9695SOL    HW129984   5.876   4.540   0.107
 9695SOL    HW229985   5.854   4.379   0.126
 9696SOL     OW29986   4.189   4.189   6.986
 9696SOL    HW129987   4.288   4.191   6.968
 9696SOL    HW229988   4.169   4.239   0.050
 9697SOL     OW29989   0.223   5.955   6.876
 9697SOL    HW129990   0.150   5.934   6.811
 9697SOL    HW229991   0.295   5.886   6.869
 9698SOL     OW29992   4.786   1.660   5.681
 9698SOL    HW129993   4.881   1.664   5.649
 9698SOL    HW229994   4.725   1.655   5.602
 9699SOL     OW29995   1.596   1.995   6.501
 9699SOL    HW129996   1.514   1.985   6.557
 9699SOL    HW229997   1.660   2.056   6.546
 9700SOL     OW29998   3.954   3.091   3.343
 9700SOL    HW129999   3.932   3.075   3.439
 9700SOL    HW230000   4.011   3.173   3.335
 9701SOL     OW30001   4.102   4.821   4.025
 9701SOL    HW130002   4.050   4.809   4.109
 9701SOL    HW230003   4.172   4.891   4.038
 9702SOL     OW30004   5.268   0.337   6.795
 9702SOL    HW130005   5.226   0.259   6.748
 9702SOL    HW230006   5.365   0.342   6.771
 9703SOL     OW30007   2.332   5.834   4.424
 9703SOL    HW130008   2.419   5.861   4.465
 9703SOL    HW230009   2.343   5.823   4.326
 9704SOL     OW30010   2.967   1.300   4.337
 9704SOL    HW130011   2.943   1.379   4.393
 9704SOL    HW230012   2.895   1.230   4.345
 9705SOL     OW30013   3.028   4.119   0.733
 9705SOL    HW130014   3.095   4.087   0.801
 9705SOL    HW230015   3.068   4.110   0.642
 9706SOL     OW30016   0.272   1.826   3.836
 9706SOL    HW130017   0.203   1.761   3.866
 9706SOL    HW230018   0.227   1.908   3.800
 9707SOL     OW30019   2.704   5.578   1.148
 9707SOL    HW130020   2.802   5.596   1.147
 9707SOL    HW230021   2.672   5.572   1.242
 9708SOL     OW30022   1.472   1.717   1.584
 9708SOL    HW130023   1.571   1.734   1.588
 9708SOL    HW230024   1.426   1.798   1.547
 9709SOL     OW30025   1.282   6.317   3.682
 9709SOL    HW130026   1.244   6.409   3.672
 9709SOL    HW230027   1.208   6.250   3.683
 9710SOL     OW30028   1.808   6.645   3.895
 9710SOL    HW130029   1.884   6.638   3.832
 9710SOL    HW230030   1.816   6.729   3.949
 9711SOL     OW30031   2.187   2.905   6.299
 9711SOL    HW130032   2.243   2.824   6.317
 9711SOL    HW230033   2.106   2.878   6.248
 9712SOL     OW30034   5.181   3.928   4.758
 9712SOL    HW130035   5.086   3.898   4.770
 9712SOL    HW230036   5.239   3.849   4.738
 9713SOL     OW30037   0.769   5.811   3.548
 9713SOL    HW130038   0.813   5.796   3.637
 9713SOL    HW230039   0.839   5.829   3.479
 9714SOL     OW30040   2.266   2.220   2.176
 9714SOL    HW130041   2.308   2.184   2.093
 9714SOL    HW230042   2.166   2.213   2.168
 9715SOL     OW30043   5.670   5.708   6.229
 9715SOL    HW130044   5.741   5.639   6.214
 9715SOL    HW230045   5.707   5.785   6.281
 9716SOL     OW30046   3.664   0.470   5.973
 9716SOL    HW130047   3.698   0.422   5.892
 9716SOL    HW230048   3.571   0.438   5.993
 9717SOL     OW30049   6.134   5.285   3.484
 9717SOL    HW130050   6.187   5.220   3.429
 9717SOL    HW230051   6.048   5.306   3.437
 9718SOL     OW30052   5.702   2.560   2.317
 9718SOL    HW130053   5.708   2.583   2.220
 9718SOL    HW230054   5.755   2.627   2.370
 9719SOL     OW30055   0.133   1.146   6.908
 9719SOL    HW130056   0.100   1.226   6.858
 9719SOL    HW230057   0.170   1.175   6.997
 9720SOL     OW30058   0.687   1.342   0.663
 9720SOL    HW130059   0.589   1.335   0.645
 9720SOL    HW230060   0.735   1.368   0.580
 9721SOL     OW30061   0.755   2.070   3.576
 9721SOL    HW130062   0.679   2.122   3.615
 9721SOL    HW230063   0.831   2.067   3.641
 9722SOL     OW30064   0.132   0.276   4.198
 9722SOL    HW130065   0.207   0.263   4.133
 9722SOL    HW230066   0.083   0.189   4.210
 9723SOL     OW30067   6.257   0.812   4.725
 9723SOL    HW130068   6.333   0.757   4.759
 9723SOL    HW230069   6.201   0.758   4.662
 9724SOL     OW30070   3.780   2.787   1.560
 9724SOL    HW130071   3.834   2.847   1.620
 9724SOL    HW230072   3.765   2.699   1.606
 9725SOL     OW30073   3.913   3.090   5.908
 9725SOL    HW130074   3.987   3.088   5.975
 9725SOL    HW230075   3.852   3.167   5.927
 9726SOL     OW30076   4.960   6.136   5.096
 9726SOL    HW130077   4.887   6.085   5.142
 9726SOL    HW230078   4.926   6.173   5.010
 9727SOL     OW30079   0.151   0.721   6.564
 9727SOL    HW130080   0.154   0.628   6.527
 9727SOL    HW230081   0.056   0.753   6.566
 9728SOL     OW30082   2.682   5.689   6.045
 9728SOL    HW130083   2.684   5.688   5.945
 9728SOL    HW230084   2.752   5.753   6.078
 9729SOL     OW30085   3.584   5.834   2.019
 9729SOL    HW130086   3.674   5.798   2.043
 9729SOL    HW230087   3.523   5.759   1.996
 9730SOL     OW30088   5.049   3.792   2.731
 9730SOL    HW130089   4.988   3.801   2.652
 9730SOL    HW230090   5.126   3.856   2.721
 9731SOL     OW30091   5.593   4.392   0.649
 9731SOL    HW130092   5.544   4.459   0.704
 9731SOL    HW230093   5.530   4.321   0.617
 9732SOL     OW30094   5.376   6.422   4.397
 9732SOL    HW130095   5.441   6.377   4.336
 9732SOL    HW230096   5.321   6.352   4.444
 9733SOL     OW30097   4.832   4.563   4.490
 9733SOL    HW130098   4.773   4.503   4.544
 9733SOL    HW230099   4.780   4.598   4.412
 9734SOL     OW30100   6.303   2.474   5.811
 9734SOL    HW130101   6.280   2.378   5.793
 9734SOL    HW230102   6.264   2.532   5.740
 9735SOL     OW30103   3.301   5.044   1.298
 9735SOL    HW130104   3.368   4.973   1.279
 9735SOL    HW230105   3.344   5.118   1.351
 9736SOL     OW30106   3.787   2.004   2.070
 9736SOL    HW130107   3.735   2.084   2.042
 9736SOL    HW230108   3.884   2.029   2.079
 9737SOL     OW30109   4.913   1.555   4.572
 9737SOL    HW130110   4.970   1.500   4.633
 9737SOL    HW230111   4.817   1.531   4.585
 9738SOL     OW30112   2.770   0.393   2.261
 9738SOL    HW130113   2.700   0.379   2.191
 9738SOL    HW230114   2.783   0.309   2.313
 9739SOL     OW30115   5.304   4.699   2.616
 9739SOL    HW130116   5.291   4.783   2.562
 9739SOL    HW230117   5.399   4.669   2.607
 9740SOL     OW30118   6.580   3.336   3.385
 9740SOL    HW130119   6.659   3.276   3.391
 9740SOL    HW230120   6.501   3.291   3.427
 9741SOL     OW30121   4.106   1.723   2.852
 9741SOL    HW130122   4.065   1.814   2.860
 9741SOL    HW230123   4.152   1.699   2.937
 9742SOL     OW30124   3.946   1.340   2.562
 9742SOL    HW130125   3.882   1.378   2.495
 9742SOL    HW230126   3.933   1.386   2.650
 9743SOL     OW30127   1.494   1.191   5.887
 9743SOL    HW130128   1.460   1.109   5.934
 9743SOL    HW230129   1.522   1.166   5.794
 9744SOL     OW30130   2.004   0.222   1.365
 9744SOL    HW130131   1.989   0.221   1.266
 9744SOL    HW230132   2.100   0.201   1.385
 9745SOL     OW30133   0.687   1.204   4.129
 9745SOL    HW130134   0.721   1.176   4.219
 9745SOL    HW230135   0.613   1.271   4.142
 9746SOL     OW30136   5.959   6.965   4.728
 9746SOL    HW130137   5.917   0.031   4.758
 9746SOL    HW230138   5.901   6.922   4.659
 9747SOL     OW30139   6.946   0.127   5.723
 9747SOL    HW130140   6.921   0.109   5.819
 9747SOL    HW230141   6.993   0.214   5.717
 9748SOL     OW30142   1.810   4.823   4.527
 9748SOL    HW130143   1.744   4.768   4.475
 9748SOL    HW230144   1.887   4.846   4.468
 9749SOL     OW30145   0.846   5.095   4.798
 9749SOL    HW130146   0.793   5.145   4.729
 9749SOL    HW230147   0.875   5.158   4.870
 9750SOL     OW30148   2.515   5.583   2.426
 9750SOL    HW130149   2.480   5.490   2.424
 9750SOL    HW230150   2.534   5.610   2.520
 9751SOL     OW30151   1.242   1.930   0.855
 9751SOL    HW130152   1.342   1.943   0.853
 9751SOL    HW230153   1.219   1.843   0.812
 9752SOL     OW30154   3.136   6.680   6.084
 9752SOL    HW130155   3.186   6.682   6.171
 9752SOL    HW230156   3.083   6.764   6.074
 9753SOL     OW30157   0.146   0.365   6.782
 9753SOL    HW130158   0.142   0.395   6.878
 9753SOL    HW230159   0.170   0.268   6.779
 9754SOL     OW30160   0.030   2.974   6.622
 9754SOL    HW130161   0.040   2.942   6.717
 9754SOL    HW230162   0.062   2.903   6.560
 9755SOL     OW30163   4.471   6.086   4.629
 9755SOL    HW130164   4.378   6.079   4.594
 9755SOL    HW230165   4.473   6.054   4.724
 9756SOL     OW30166   4.361   3.022   6.530
 9756SOL    HW130167   4.387   3.067   6.444
 9756SOL    HW230168   4.440   3.019   6.591
 9757SOL     OW30169   5.736   0.607   4.173
 9757SOL    HW130170   5.645   0.577   4.202
 9757SOL    HW230171   5.731   0.641   4.079
 9758SOL     OW30172   3.581   0.240   0.407
 9758SOL    HW130173   3.626   0.210   0.492
 9758SOL    HW230174   3.623   0.193   0.330
 9759SOL     OW30175   3.067   6.150   1.959
 9759SOL    HW130176   3.123   6.225   1.995
 9759SOL    HW230177   3.074   6.072   2.020
 9760SOL     OW30178   4.770   3.791   6.273
 9760SOL    HW130179   4.692   3.776   6.212
 9760SOL    HW230180   4.824   3.708   6.280
 9761SOL     OW30181   5.148   5.351   3.179
 9761SOL    HW130182   5.202   5.431   3.204
 9761SOL    HW230183   5.066   5.380   3.130
 9762SOL     OW30184   3.735   0.950   2.312
 9762SOL    HW130185   3.670   0.990   2.376
 9762SOL    HW230186   3.774   1.023   2.255
 9763SOL     OW30187   2.353   2.168   1.685
 9763SOL    HW130188   2.392   2.201   1.772
 9763SOL    HW230189   2.265   2.124   1.702
 9764SOL     OW30190   1.333   2.946   4.191
 9764SOL    HW130191   1.370   2.924   4.101
 9764SOL    HW230192   1.381   2.893   4.261
 9765SOL     OW30193   6.939   1.804   5.310
 9765SOL    HW130194   6.994   1.876   5.353
 9765SOL    HW230195   6.984   1.715   5.323
 9766SOL     OW30196   3.222   0.689   1.834
 9766SOL    HW130197   3.138   0.701   1.781
 9766SOL    HW230198   3.235   0.592   1.853
 9767SOL     OW30199   4.299   0.520   4.887
 9767SOL    HW130200   4.336   0.601   4.932
 9767SOL    HW230201   4.215   0.492   4.932
 9768SOL     OW30202   4.703   1.985   2.955
 9768SOL    HW130203   4.656   1.918   2.897
 9768SOL    HW230204   4.636   2.032   3.012
 9769SOL     OW30205   0.044   2.648   0.406
 9769SOL    HW130206   0.131   2.625   0.362
 9769SOL    HW230207   0.061   2.672   0.502
 9770SOL     OW30208   0.319   3.151   4.698
 9770SOL    HW130209   0.384   3.114   4.632
 9770SOL    HW230210   0.281   3.076   4.752
 9771SOL     OW30211   1.920   6.619   4.197
 9771SOL    HW130212   1.871   6.704   4.179
 9771SOL    HW230213   1.856   6.542   4.194
 9772SOL     OW30214   5.641   6.474   1.271
 9772SOL    HW130215   5.665   6.418   1.192
 9772SOL    HW230216   5.724   6.509   1.314
 9773SOL     OW30217   5.643   5.301   3.629
 9773SOL    HW130218   5.699   5.355   3.566
 9773SOL    HW230219   5.591   5.233   3.577
 9774SOL     OW30220   6.294   6.125   4.134
 9774SOL    HW130221   6.335   6.161   4.050
 9774SOL    HW230222   6.308   6.189   4.208
 9775SOL     OW30223   2.657   1.413   4.549
 9775SOL    HW130224   2.736   1.380   4.602
 9775SOL    HW230225   2.574   1.374   4.588
 9776SOL     OW30226   0.441   4.392   4.524
 9776SOL    HW130227   0.411   4.335   4.448
 9776SOL    HW230228   0.420   4.487   4.505
 9777SOL     OW30229   4.760   5.359   6.364
 9777SOL    HW130230   4.805   5.270   6.352
 9777SOL    HW230231   4.823   5.432   6.337
 9778SOL     OW30232   3.160   0.740   4.604
 9778SOL    HW130233   3.126   0.831   4.627
 9778SOL    HW230234   3.134   0.716   4.511
 9779SOL     OW30235   3.190   2.198   6.638
 9779SOL    HW130236   3.136   2.201   6.722
 9779SOL    HW230237   3.246   2.116   6.637
 9780SOL     OW30238   1.807   2.935   1.287
 9780SOL    HW130239   1.857   2.849   1.295
 9780SOL    HW230240   1.764   2.956   1.374
 9781SOL     OW30241   6.936   0.459   4.282
 9781SOL    HW130242   7.016   0.419   4.236
 9781SOL    HW230243   6.907   0.398   4.356
 9782SOL     OW30244   5.667   0.236   0.380
 9782SOL    HW130245   5.754   0.203   0.343
 9782SOL    HW230246   5.591   0.196   0.328
 9783SOL     OW30247   6.146   0.021   3.773
 9783SOL    HW130248   6.046   0.017   3.777
 9783SOL    HW230249   6.185   6.981   3.842
 9784SOL     OW30250   4.880   0.921   4.815
 9784SOL    HW130251   4.932   0.969   4.744
 9784SOL    HW230252   4.895   0.822   4.807
 9785SOL     OW30253   1.176   2.557   0.751
 9785SOL    HW130254   1.087   2.590   0.718
 9785SOL    HW230255   1.174   2.550   0.851
 9786SOL     OW30256   1.347   0.127   3.185
 9786SOL    HW130257   1.272   0.097   3.243
 9786SOL    HW230258   1.402   0.048   3.158
 9787SOL     OW30259   6.097   3.574   1.024
 9787SOL    HW130260   6.035   3.632   0.971
 9787SOL    HW230261   6.183   3.623   1.039
 9788SOL     OW30262   6.950   0.149   6.290
 9788SOL    HW130263   6.850   0.152   6.290
 9788SOL    HW230264   6.982   0.110   6.203
 9789SOL     OW30265   2.222   4.364   3.978
 9789SOL    HW130266   2.150   4.308   3.937
 9789SOL    HW230267   2.245   4.327   4.069
 9790SOL     OW30268   0.423   1.356   3.672
 9790SOL    HW130269   0.405   1.452   3.692
 9790SOL    HW230270   0.436   1.343   3.574
 9791SOL     OW30271   1.130   2.117   0.523
 9791SOL    HW130272   1.071   2.037   0.517
 9791SOL    HW230273   1.216   2.098   0.475
 9792SOL     OW30274   4.602   5.265   3.070
 9792SOL    HW130275   4.665   5.191   3.093
 9792SOL    HW230276   4.620   5.296   2.976
 9793SOL     OW30277   4.715   5.936   1.987
 9793SOL    HW130278   4.684   5.857   2.040
 9793SOL    HW230279   4.811   5.923   1.962
 9794SOL     OW30280   3.796   4.346   0.258
 9794SOL    HW130281   3.806   4.407   0.337
 9794SOL    HW230282   3.801   4.399   0.174
 9795SOL     OW30283   2.362   5.088   2.882
 9795SOL    HW130284   2.406   5.134   2.806
 9795SOL    HW230285   2.330   5.155   2.948
 9796SOL     OW30286   4.018   5.091   6.344
 9796SOL    HW130287   4.052   5.108   6.437
 9796SOL    HW230288   3.935   5.144   6.329
 9797SOL     OW30289   6.797   3.527   5.169
 9797SOL    HW130290   6.797   3.591   5.246
 9797SOL    HW230291   6.733   3.452   5.189
 9798SOL     OW30292   3.653   1.524   1.767
 9798SOL    HW130293   3.580   1.456   1.777
 9798SOL    HW230294   3.652   1.586   1.845
 9799SOL     OW30295   3.913   3.669   3.214
 9799SOL    HW130296   3.878   3.712   3.131
 9799SOL    HW230297   3.949   3.578   3.191
 9800SOL     OW30298   4.105   6.295   0.464
 9800SOL    HW130299   4.131   6.383   0.424
 9800SOL    HW230300   4.187   6.239   0.480
 9801SOL     OW30301   5.564   5.280   1.696
 9801SOL    HW130302   5.587   5.362   1.750
 9801SOL    HW230303   5.642   5.257   1.637
 9802SOL     OW30304   0.689   6.377   2.195
 9802SOL    HW130305   0.613   6.412   2.140
 9802SOL    HW230306   0.654   6.340   2.281
 9803SOL     OW30307   5.667   0.253   5.985
 9803SOL    HW130308   5.696   0.283   6.076
 9803SOL    HW230309   5.708   0.165   5.965
 9804SOL     OW30310   5.284   5.933   3.865
 9804SOL    HW130311   5.371   5.885   3.871
 9804SOL    HW230312   5.216   5.887   3.921
 9805SOL     OW30313   3.341   4.448   0.362
 9805SOL    HW130314   3.401   4.484   0.433
 9805SOL    HW230315   3.246   4.459   0.391
 9806SOL     OW30316   0.749   1.173   3.083
 9806SOL    HW130317   0.667   1.147   3.032
 9806SOL    HW230318   0.765   1.107   3.156
 9807SOL     OW30319   2.055   3.769   0.706
 9807SOL    HW130320   2.108   3.778   0.790
 9807SOL    HW230321   2.112   3.794   0.628
 9808SOL     OW30322   2.263   2.247   3.123
 9808SOL    HW130323   2.264   2.276   3.027
 9808SOL    HW230324   2.212   2.161   3.131
 9809SOL     OW30325   0.357   0.195   4.063
 9809SOL    HW130326   0.295   0.128   4.022
 9809SOL    HW230327   0.383   0.166   4.154
 9810SOL     OW30328   4.834   1.639   2.943
 9810SOL    HW130329   4.793   1.582   3.014
 9810SOL    HW230330   4.792   1.730   2.946
 9811SOL     OW30331   1.309   0.356   3.058
 9811SOL    HW130332   1.319   0.262   3.093
 9811SOL    HW230333   1.212   0.379   3.053
 9812SOL     OW30334   5.970   2.765   6.950
 9812SOL    HW130335   6.055   2.809   6.921
 9812SOL    HW230336   5.892   2.823   6.924
 9813SOL     OW30337   6.281   4.338   0.239
 9813SOL    HW130338   6.246   4.271   0.174
 9813SOL    HW230339   6.212   4.408   0.256
 9814SOL     OW30340   6.577   1.162   5.808
 9814SOL    HW130341   6.507   1.112   5.758
 9814SOL    HW230342   6.667   1.141   5.770
 9815SOL     OW30343   0.086   5.249   2.059
 9815SOL    HW130344   0.158   5.181   2.054
 9815SOL    HW230345   0.098   5.305   2.141
 9816SOL     OW30346   0.045   2.281   5.233
 9816SOL    HW130347   0.053   2.361   5.175
 9816SOL    HW230348   0.036   2.310   5.329
 9817SOL     OW30349   2.026   1.782   0.371
 9817SOL    HW130350   1.967   1.735   0.306
 9817SOL    HW230351   2.109   1.728   0.386
 9818SOL     OW30352   0.347   0.276   2.569
 9818SOL    HW130353   0.283   0.352   2.557
 9818SOL    HW230354   0.348   0.219   2.487
 9819SOL     OW30355   6.327   1.246   5.279
 9819SOL    HW130356   6.299   1.328   5.230
 9819SOL    HW230357   6.283   1.166   5.238
 9820SOL     OW30358   3.123   0.669   6.692
 9820SOL    HW130359   3.216   0.642   6.716
 9820SOL    HW230360   3.078   0.593   6.644
 9821SOL     OW30361   4.522   4.191   6.336
 9821SOL    HW130362   4.468   4.270   6.364
 9821SOL    HW230363   4.552   4.141   6.417
 9822SOL     OW30364   2.977   6.918   3.621
 9822SOL    HW130365   2.892   6.967   3.641
 9822SOL    HW230366   3.047   6.983   3.593
 9823SOL     OW30367   4.035   6.057   2.786
 9823SOL    HW130368   4.002   6.151   2.785
 9823SOL    HW230369   4.038   6.024   2.881
 9824SOL     OW30370   1.648   5.890   5.352
 9824SOL    HW130371   1.727   5.844   5.394
 9824SOL    HW230372   1.677   5.941   5.272
 9825SOL     OW30373   0.396   6.539   4.759
 9825SOL    HW130374   0.431   6.486   4.681
 9825SOL    HW230375   0.316   6.494   4.797
 9826SOL     OW30376   1.480   6.354   4.798
 9826SOL    HW130377   1.453   6.272   4.849
 9826SOL    HW230378   1.559   6.396   4.842
 9827SOL     OW30379   1.707   4.643   1.590
 9827SOL    HW130380   1.688   4.593   1.674
 9827SOL    HW230381   1.666   4.734   1.595
 9828SOL     OW30382   4.750   2.028   4.336
 9828SOL    HW130383   4.682   1.956   4.348
 9828SOL    HW230384   4.789   2.022   4.244
 9829SOL     OW30385   5.597   4.091   5.724
 9829SOL    HW130386   5.662   4.099   5.799
 9829SOL    HW230387   5.519   4.035   5.754
 9830SOL     OW30388   5.999   0.341   3.197
 9830SOL    HW130389   6.087   0.326   3.152
 9830SOL    HW230390   6.015   0.373   3.291
 9831SOL     OW30391   0.954   4.886   1.270
 9831SOL    HW130392   1.016   4.928   1.203
 9831SOL    HW230393   0.998   4.805   1.310
 9832SOL     OW30394   5.781   6.083   5.393
 9832SOL    HW130395   5.862   6.025   5.406
 9832SOL    HW230396   5.790   6.135   5.309
 9833SOL     OW30397   3.836   2.940   4.214
 9833SOL    HW130398   3.896   3.017   4.236
 9833SOL    HW230399   3.786   2.912   4.296
 9834SOL     OW30400   3.144   6.113   5.966
 9834SOL    HW130401   3.100   6.065   5.889
 9834SOL    HW230402   3.222   6.059   5.999
 9835SOL     OW30403   3.838   2.969   3.739
 9835SOL    HW130404   3.913   2.958   3.804
 9835SOL    HW230405   3.763   3.019   3.784
 9836SOL     OW30406   6.550   2.936   6.662
 9836SOL    HW130407   6.623   2.870   6.682
 9836SOL    HW230408   6.541   2.999   6.740
 9837SOL     OW30409   6.255   0.639   5.038
 9837SOL    HW130410   6.191   0.595   5.101
 9837SOL    HW230411   6.220   0.729   5.012
 9838SOL     OW30412   0.259   5.844   1.051
 9838SOL    HW130413   0.280   5.783   1.127
 9838SOL    HW230414   0.324   5.828   0.977
 9839SOL     OW30415   3.771   6.703   3.715
 9839SOL    HW130416   3.820   6.659   3.639
 9839SOL    HW230417   3.742   6.795   3.687
 9840SOL     OW30418   6.482   2.402   5.307
 9840SOL    HW130419   6.431   2.424   5.224
 9840SOL    HW230420   6.496   2.485   5.361
 9841SOL     OW30421   6.714   5.694   2.263
 9841SOL    HW130422   6.640   5.688   2.196
 9841SOL    HW230423   6.676   5.709   2.354
 9842SOL     OW30424   4.209   0.471   0.318
 9842SOL    HW130425   4.208   0.372   0.330
 9842SOL    HW230426   4.126   0.511   0.357
 9843SOL     OW30427   0.259   6.979   0.501
 9843SOL    HW130428   0.325   0.004   0.562
 9843SOL    HW230429   0.173   0.009   0.503
 9844SOL     OW30430   5.677   0.774   4.390
 9844SOL    HW130431   5.753   0.709   4.383
 9844SOL    HW230432   5.636   0.786   4.300
 9845SOL     OW30433   0.752   3.382   2.580
 9845SOL    HW130434   0.727   3.285   2.585
 9845SOL    HW230435   0.671   3.436   2.556
 9846SOL     OW30436   5.857   1.925   3.002
 9846SOL    HW130437   5.811   1.923   2.913
 9846SOL    HW230438   5.867   2.019   3.032
 9847SOL     OW30439   4.270   3.459   0.199
 9847SOL    HW130440   4.365   3.461   0.169
 9847SOL    HW230441   4.210   3.479   0.121
 9848SOL     OW30442   2.883   3.464   6.408
 9848SOL    HW130443   2.934   3.405   6.470
 9848SOL    HW230444   2.945   3.529   6.364
 9849SOL     OW30445   1.706   2.126   2.419
 9849SOL    HW130446   1.732   2.136   2.515
 9849SOL    HW230447   1.635   2.193   2.397
 9850SOL     OW30448   1.981   0.447   3.970
 9850SOL    HW130449   1.884   0.427   3.983
 9850SOL    HW230450   1.998   0.544   3.988
 9851SOL     OW30451   3.623   6.291   3.620
 9851SOL    HW130452   3.720   6.300   3.596
 9851SOL    HW230453   3.571   6.364   3.577
 9852SOL     OW30454   2.546   0.590   6.706
 9852SOL    HW130455   2.465   0.647   6.721
 9852SOL    HW230456   2.629   0.643   6.723
 9853SOL     OW30457   0.151   4.104   3.882
 9853SOL    HW130458   0.167   4.012   3.845
 9853SOL    HW230459   0.093   4.155   3.818
 9854SOL     OW30460   6.358   4.020   6.903
 9854SOL    HW130461   6.445   4.009   6.950
 9854SOL    HW230462   6.330   3.932   6.864
 9855SOL     OW30463   0.214   6.158   1.060
 9855SOL    HW130464   0.129   6.168   1.113
 9855SOL    HW230465   0.270   6.086   1.100
 9856SOL     OW30466   4.495   4.526   3.400
 9856SOL    HW130467   4.490   4.437   3.444
 9856SOL    HW230468   4.405   4.550   3.362
 9857SOL     OW30469   3.943   6.725   5.713
 9857SOL    HW130470   4.015   6.735   5.644
 9857SOL    HW230471   3.969   6.775   5.795
 9858SOL     OW30472   6.829   5.353   2.697
 9858SOL    HW130473   6.919   5.353   2.739
 9858SOL    HW230474   6.814   5.440   2.650
 9859SOL     OW30475   0.452   0.020   2.825
 9859SOL    HW130476   0.536   0.030   2.879
 9859SOL    HW230477   0.379   0.076   2.866
 9860SOL     OW30478   1.293   3.788   3.457
 9860SOL    HW130479   1.332   3.794   3.549
 9860SOL    HW230480   1.194   3.773   3.464
 9861SOL     OW30481   3.924   2.111   4.067
 9861SOL    HW130482   3.934   2.147   3.975
 9861SOL    HW230483   3.872   2.026   4.064
 9862SOL     OW30484   1.396   2.911   6.561
 9862SOL    HW130485   1.300   2.940   6.563
 9862SOL    HW230486   1.424   2.894   6.467
 9863SOL     OW30487   3.468   5.609   1.959
 9863SOL    HW130488   3.477   5.513   1.934
 9863SOL    HW230489   3.376   5.626   1.995
 9864SOL     OW30490   3.012   6.287   5.099
 9864SOL    HW130491   2.946   6.256   5.031
 9864SOL    HW230492   2.966   6.301   5.186
 9865SOL     OW30493   2.442   4.903   6.129
 9865SOL    HW130494   2.492   4.827   6.087
 9865SOL    HW230495   2.423   4.973   6.060
 9866SOL     OW30496   0.872   5.853   5.007
 9866SOL    HW130497   0.780   5.827   4.978
 9866SOL    HW230498   0.938   5.786   4.974
 9867SOL     OW30499   5.152   1.558   2.671
 9867SOL    HW130500   5.204   1.550   2.586
 9867SOL    HW230501   5.082   1.487   2.675
 9868SOL     OW30502   2.292   5.245   3.084
 9868SOL    HW130503   2.335   5.333   3.065
 9868SOL    HW230504   2.195   5.260   3.106
 9869SOL     OW30505   6.144   1.799   2.705
 9869SOL    HW130506   6.066   1.750   2.746
 9869SOL    HW230507   6.120   1.895   2.694
 9870SOL     OW30508   2.296   2.943   2.866
 9870SOL    HW130509   2.300   2.871   2.935
 9870SOL    HW230510   2.303   2.902   2.775
 9871SOL     OW30511   6.043   5.230   2.772
 9871SOL    HW130512   6.104   5.232   2.693
 9871SOL    HW230513   6.070   5.156   2.834
 9872SOL     OW30514   0.025   6.678   4.537
 9872SOL    HW130515   6.956   6.676   4.491
 9872SOL    HW230516   0.066   6.586   4.536
 9873SOL     OW30517   0.639   0.763   4.796
 9873SOL    HW130518   0.565   0.782   4.732
 9873SOL    HW230519   0.601   0.753   4.888
 9874SOL     OW30520   6.931   2.509   4.386
 9874SOL    HW130521   6.973   2.563   4.313
 9874SOL    HW230522   6.907   2.419   4.351
 9875SOL     OW30523   5.566   5.782   0.747
 9875SOL    HW130524   5.517   5.818   0.667
 9875SOL    HW230525   5.555   5.845   0.824
 9876SOL     OW30526   0.781   0.286   2.981
 9876SOL    HW130527   0.757   0.357   2.915
 9876SOL    HW230528   0.880   0.288   2.998
 9877SOL     OW30529   1.844   5.577   4.945
 9877SOL    HW130530   1.851   5.614   4.852
 9877SOL    HW230531   1.755   5.600   4.984
 9878SOL     OW30532   4.836   4.195   0.756
 9878SOL    HW130533   4.740   4.220   0.765
 9878SOL    HW230534   4.855   4.167   0.662
 9879SOL     OW30535   6.088   5.091   4.230
 9879SOL    HW130536   6.083   5.189   4.213
 9879SOL    HW230537   6.094   5.073   4.328
 9880SOL     OW30538   2.591   1.741   0.777
 9880SOL    HW130539   2.646   1.780   0.703
 9880SOL    HW230540   2.568   1.812   0.843
 9881SOL     OW30541   6.574   0.163   2.880
 9881SOL    HW130542   6.646   0.162   2.811
 9881SOL    HW230543   6.566   0.072   2.921
 9882SOL     OW30544   3.122   3.988   4.746
 9882SOL    HW130545   3.105   3.996   4.648
 9882SOL    HW230546   3.042   3.948   4.791
 9883SOL     OW30547   0.701   5.275   2.786
 9883SOL    HW130548   0.678   5.190   2.739
 9883SOL    HW230549   0.760   5.331   2.727
 9884SOL     OW30550   3.559   2.707   5.286
 9884SOL    HW130551   3.530   2.756   5.204
 9884SOL    HW230552   3.479   2.687   5.342
 9885SOL     OW30553   4.740   2.270   5.223
 9885SOL    HW130554   4.772   2.243   5.133
 9885SOL    HW230555   4.816   2.263   5.288
 9886SOL     OW30556   2.309   6.165   1.369
 9886SOL    HW130557   2.270   6.078   1.340
 9886SOL    HW230558   2.246   6.239   1.346
 9887SOL     OW30559   3.468   1.448   0.009
 9887SOL    HW130560   3.497   1.499   0.090
 9887SOL    HW230561   3.437   1.357   0.036
 9888SOL     OW30562   6.281   6.836   3.923
 9888SOL    HW130563   6.380   6.828   3.936
 9888SOL    HW230564   6.234   6.782   3.993
 9889SOL     OW30565   6.503   5.937   2.131
 9889SOL    HW130566   6.497   5.847   2.086
 9889SOL    HW230567   6.556   5.928   2.215
 9890SOL     OW30568   1.743   3.343   3.390
 9890SOL    HW130569   1.683   3.334   3.469
 9890SOL    HW230570   1.700   3.301   3.310
 9891SOL     OW30571   3.464   0.204   1.733
 9891SOL    HW130572   3.513   0.198   1.646
 9891SOL    HW230573   3.530   0.216   1.807
 9892SOL     OW30574   1.895   6.100   2.907
 9892SOL    HW130575   1.940   6.071   2.823
 9892SOL    HW230576   1.932   6.188   2.936
 9893SOL     OW30577   5.807   4.537   4.393
 9893SOL    HW130578   5.760   4.494   4.317
 9893SOL    HW230579   5.846   4.624   4.364
 9894SOL     OW30580   4.898   3.442   6.081
 9894SOL    HW130581   4.799   3.448   6.096
 9894SOL    HW230582   4.917   3.452   5.983
 9895SOL     OW30583   5.493   2.973   5.860
 9895SOL    HW130584   5.551   3.054   5.855
 9895SOL    HW230585   5.425   2.976   5.787
 9896SOL     OW30586   3.207   3.965   6.220
 9896SOL    HW130587   3.278   3.902   6.187
 9896SOL    HW230588   3.248   4.054   6.241
 9897SOL     OW30589   1.266   0.747   2.915
 9897SOL    HW130590   1.283   0.842   2.888
 9897SOL    HW230591   1.217   0.745   3.002
 9898SOL     OW30592   0.513   5.363   6.653
 9898SOL    HW130593   0.494   5.398   6.745
 9898SOL    HW230594   0.584   5.419   6.609
 9899SOL     OW30595   3.763   4.988   0.687
 9899SOL    HW130596   3.676   5.030   0.710
 9899SOL    HW230597   3.837   5.035   0.735
 9900SOL     OW30598   2.917   5.528   3.549
 9900SOL    HW130599   2.840   5.564   3.497
 9900SOL    HW230600   2.997   5.520   3.489
 9901SOL     OW30601   2.928   1.515   6.440
 9901SOL    HW130602   3.019   1.475   6.431
 9901SOL    HW230603   2.869   1.453   6.492
 9902SOL     OW30604   4.182   4.798   6.583
 9902SOL    HW130605   4.161   4.843   6.496
 9902SOL    HW230606   4.231   4.862   6.643
 9903SOL     OW30607   3.229   1.284   0.876
 9903SOL    HW130608   3.179   1.365   0.905
 9903SOL    HW230609   3.204   1.262   0.781
 9904SOL     OW30610   6.252   6.065   1.688
 9904SOL    HW130611   6.273   6.009   1.768
 9904SOL    HW230612   6.337   6.091   1.643
 9905SOL     OW30613   2.116   6.867   6.588
 9905SOL    HW130614   2.125   6.923   6.670
 9905SOL    HW230615   2.075   6.779   6.611
 9906SOL     OW30616   3.023   3.377   6.618
 9906SOL    HW130617   3.107   3.326   6.641
 9906SOL    HW230618   2.990   3.424   6.700
 9907SOL     OW30619   0.732   6.914   3.213
 9907SOL    HW130620   0.717   6.848   3.287
 9907SOL    HW230621   0.826   6.904   3.178
 9908SOL     OW30622   0.107   3.200   6.175
 9908SOL    HW130623   0.048   3.135   6.224
 9908SOL    HW230624   0.092   3.191   6.077
 9909SOL     OW30625   2.284   5.729   2.313
 9909SOL    HW130626   2.375   5.689   2.325
 9909SOL    HW230627   2.279   5.816   2.360
 9910SOL     OW30628   1.031   5.602   0.476
 9910SOL    HW130629   0.948   5.631   0.524
 9910SOL    HW230630   1.050   5.507   0.497
 9911SOL     OW30631   2.786   4.771   1.767
 9911SOL    HW130632   2.805   4.691   1.825
 9911SOL    HW230633   2.766   4.741   1.674
 9912SOL     OW30634   6.274   6.590   0.118
 9912SOL    HW130635   6.284   6.687   0.138
 9912SOL    HW230636   6.178   6.568   0.103
 9913SOL     OW30637   6.249   1.834   1.374
 9913SOL    HW130638   6.310   1.911   1.391
 9913SOL    HW230639   6.160   1.868   1.344
 9914SOL     OW30640   1.999   5.213   3.719
 9914SOL    HW130641   2.097   5.219   3.700
 9914SOL    HW230642   1.948   5.219   3.633
 9915SOL     OW30643   6.209   4.793   4.471
 9915SOL    HW130644   6.194   4.892   4.463
 9915SOL    HW230645   6.238   4.757   4.382
 9916SOL     OW30646   1.460   3.013   1.247
 9916SOL    HW130647   1.411   2.942   1.197
 9916SOL    HW230648   1.543   3.038   1.197
 9917SOL     OW30649   1.927   4.423   4.433
 9917SOL    HW130650   1.834   4.395   4.459
 9917SOL    HW230651   1.992   4.388   4.499
 9918SOL     OW30652   2.834   2.016   3.927
 9918SOL    HW130653   2.833   2.107   3.885
 9918SOL    HW230654   2.801   1.948   3.861
 9919SOL     OW30655   0.804   5.734   1.802
 9919SOL    HW130656   0.790   5.692   1.891
 9919SOL    HW230657   0.733   5.702   1.739
 9920SOL     OW30658   3.529   0.670   2.817
 9920SOL    HW130659   3.557   0.575   2.829
 9920SOL    HW230660   3.594   0.717   2.757
 9921SOL     OW30661   4.594   0.091   2.430
 9921SOL    HW130662   4.515   0.094   2.369
 9921SOL    HW230663   4.630   0.184   2.442
 9922SOL     OW30664   6.264   2.458   2.567
 9922SOL    HW130665   6.233   2.373   2.609
 9922SOL    HW230666   6.270   2.530   2.636
 9923SOL     OW30667   5.627   6.945   5.874
 9923SOL    HW130668   5.556   6.937   5.944
 9923SOL    HW230669   5.710   6.983   5.914
 9924SOL     OW30670   5.889   6.621   3.810
 9924SOL    HW130671   5.805   6.594   3.763
 9924SOL    HW230672   5.867   6.685   3.884
 9925SOL     OW30673   3.955   2.316   5.302
 9925SOL    HW130674   4.008   2.395   5.272
 9925SOL    HW230675   3.874   2.347   5.352
 9926SOL     OW30676   1.728   1.320   6.484
 9926SOL    HW130677   1.768   1.344   6.395
 9926SOL    HW230678   1.739   1.222   6.500
 9927SOL     OW30679   2.296   4.305   4.227
 9927SOL    HW130680   2.277   4.217   4.270
 9927SOL    HW230681   2.379   4.345   4.267
 9928SOL     OW30682   6.515   3.435   3.094
 9928SOL    HW130683   6.512   3.423   3.193
 9928SOL    HW230684   6.451   3.372   3.050
 9929SOL     OW30685   1.535   5.142   5.034
 9929SOL    HW130686   1.492   5.083   4.966
 9929SOL    HW230687   1.592   5.086   5.095
 9930SOL     OW30688   6.869   6.507   6.932
 9930SOL    HW130689   6.880   6.462   6.844
 9930SOL    HW230690   6.867   6.438   7.005
 9931SOL     OW30691   1.200   3.868   6.918
 9931SOL    HW130692   1.164   3.875   6.825
 9931SOL    HW230693   1.281   3.810   6.917
 9932SOL     OW30694   2.005   1.674   0.992
 9932SOL    HW130695   2.087   1.618   1.005
 9932SOL    HW230696   1.972   1.705   1.081
 9933SOL     OW30697   1.895   1.558   3.294
 9933SOL    HW130698   1.926   1.574   3.200
 9933SOL    HW230699   1.966   1.508   3.344
 9934SOL     OW30700   4.492   0.798   5.609
 9934SOL    HW130701   4.473   0.770   5.515
 9934SOL    HW230702   4.588   0.778   5.631
 9935SOL     OW30703   3.487   2.415   0.043
 9935SOL    HW130704   3.509   2.511   0.062
 9935SOL    HW230705   3.560   2.357   0.078
 9936SOL     OW30706   4.613   6.198   0.707
 9936SOL    HW130707   4.578   6.179   0.800
 9936SOL    HW230708   4.658   6.116   0.672
 9937SOL     OW30709   1.286   6.760   5.520
 9937SOL    HW130710   1.233   6.701   5.581
 9937SOL    HW230711   1.369   6.790   5.566
 9938SOL     OW30712   1.612   1.774   3.335
 9938SOL    HW130713   1.636   1.677   3.348
 9938SOL    HW230714   1.652   1.806   3.249
 9939SOL     OW30715   3.104   3.543   0.572
 9939SOL    HW130716   3.052   3.534   0.656
 9939SOL    HW230717   3.113   3.453   0.528
 9940SOL     OW30718   6.296   1.340   3.051
 9940SOL    HW130719   6.202   1.322   3.078
 9940SOL    HW230720   6.347   1.254   3.049
 9941SOL     OW30721   5.907   3.077   0.618
 9941SOL    HW130722   5.919   3.001   0.554
 9941SOL    HW230723   5.920   3.044   0.712
 9942SOL     OW30724   5.284   4.395   3.057
 9942SOL    HW130725   5.310   4.330   2.985
 9942SOL    HW230726   5.293   4.488   3.022
 9943SOL     OW30727   1.821   4.748   5.204
 9943SOL    HW130728   1.818   4.679   5.132
 9943SOL    HW230729   1.915   4.757   5.238
 9944SOL     OW30730   2.294   5.493   6.354
 9944SOL    HW130731   2.304   5.406   6.403
 9944SOL    HW230732   2.316   5.569   6.416
 9945SOL     OW30733   6.271   3.403   5.318
 9945SOL    HW130734   6.334   3.461   5.369
 9945SOL    HW230735   6.232   3.456   5.242
 9946SOL     OW30736   5.573   1.903   1.311
 9946SOL    HW130737   5.569   1.820   1.366
 9946SOL    HW230738   5.481   1.931   1.286
 9947SOL     OW30739   0.037   0.573   3.439
 9947SOL    HW130740   0.065   0.480   3.464
 9947SOL    HW230741   0.115   0.622   3.400
 9948SOL     OW30742   4.938   1.347   5.325
 9948SOL    HW130743   4.843   1.359   5.296
 9948SOL    HW230744   4.946   1.262   5.377
 9949SOL     OW30745   6.801   2.955   2.679
 9949SOL    HW130746   6.882   2.992   2.632
 9949SOL    HW230747   6.784   3.008   2.762
 9950SOL     OW30748   5.120   4.470   6.385
 9950SOL    HW130749   5.111   4.568   6.406
 9950SOL    HW230750   5.030   4.427   6.393
 9951SOL     OW30751   0.058   2.448   2.287
 9951SOL    HW130752   0.035   2.352   2.271
 9951SOL    HW230753   6.993   2.502   2.288
 9952SOL     OW30754   1.749   4.372   1.504
 9952SOL    HW130755   1.709   4.313   1.574
 9952SOL    HW230756   1.746   4.467   1.535
 9953SOL     OW30757   6.070   3.689   5.306
 9953SOL    HW130758   5.997   3.751   5.334
 9953SOL    HW230759   6.151   3.705   5.362
 9954SOL     OW30760   4.591   2.643   1.570
 9954SOL    HW130761   4.670   2.583   1.586
 9954SOL    HW230762   4.594   2.720   1.634
 9955SOL     OW30763   5.937   4.871   2.327
 9955SOL    HW130764   5.954   4.777   2.296
 9955SOL    HW230765   5.841   4.894   2.313
 9956SOL     OW30766   1.733   4.696   3.440
 9956SOL    HW130767   1.662   4.760   3.468
 9956SOL    HW230768   1.703   4.644   3.360
 9957SOL     OW30769   5.371   6.873   0.435
 9957SOL    HW130770   5.297   6.901   0.373
 9957SOL    HW230771   5.459   6.905   0.398
 9958SOL     OW30772   6.260   6.356   5.288
 9958SOL    HW130773   6.288   6.430   5.351
 9958SOL    HW230774   6.164   6.367   5.265
 9959SOL     OW30775   5.910   5.398   0.172
 9959SOL    HW130776   5.870   5.482   0.134
 9959SOL    HW230777   5.972   5.358   0.104
 9960SOL     OW30778   6.083   0.746   6.128
 9960SOL    HW130779   6.097   0.827   6.072
 9960SOL    HW230780   6.025   0.681   6.078
 9961SOL     OW30781   2.794   6.957   0.007
 9961SOL    HW130782   2.807   0.036   0.017
 9961SOL    HW230783   2.787   6.934   6.930
 9962SOL     OW30784   4.386   1.531   1.782
 9962SOL    HW130785   4.476   1.563   1.813
 9962SOL    HW230786   4.371   1.438   1.815
 9963SOL     OW30787   0.736   0.227   6.485
 9963SOL    HW130788   0.660   0.234   6.419
 9963SOL    HW230789   0.747   0.315   6.532
 9964SOL     OW30790   4.673   5.550   5.444
 9964SOL    HW130791   4.616   5.476   5.408
 9964SOL    HW230792   4.652   5.564   5.540
 9965SOL     OW30793   2.250   5.463   5.389
 9965SOL    HW130794   2.222   5.553   5.423
 9965SOL    HW230795   2.229   5.456   5.292
 9966SOL     OW30796   1.981   4.235   2.271
 9966SOL    HW130797   1.990   4.203   2.365
 9966SOL    HW230798   2.007   4.331   2.266
 9967SOL     OW30799   6.515   0.650   2.217
 9967SOL    HW130800   6.593   0.663   2.156
 9967SOL    HW230801   6.432   0.684   2.173
 9968SOL     OW30802   4.305   6.114   6.544
 9968SOL    HW130803   4.256   6.034   6.508
 9968SOL    HW230804   4.342   6.093   6.634
 9969SOL     OW30805   0.529   6.719   3.095
 9969SOL    HW130806   0.569   6.801   3.136
 9969SOL    HW230807   0.528   6.729   2.996
 9970SOL     OW30808   0.654   3.323   1.590
 9970SOL    HW130809   0.688   3.416   1.573
 9970SOL    HW230810   0.655   3.271   1.504
 9971SOL     OW30811   0.347   5.460   5.965
 9971SOL    HW130812   0.426   5.519   5.983
 9971SOL    HW230813   0.376   5.381   5.911
 9972SOL     OW30814   3.259   4.847   5.670
 9972SOL    HW130815   3.179   4.905   5.686
 9972SOL    HW230816   3.302   4.872   5.583
 9973SOL     OW30817   3.762   2.148   2.733
 9973SOL    HW130818   3.668   2.171   2.759
 9973SOL    HW230819   3.764   2.119   2.637
 9974SOL     OW30820   0.328   4.188   3.432
 9974SOL    HW130821   0.295   4.237   3.513
 9974SOL    HW230822   0.252   4.173   3.369
 9975SOL     OW30823   1.655   5.034   6.992
 9975SOL    HW130824   1.564   5.034   0.014
 9975SOL    HW230825   1.711   4.964   0.016
 9976SOL     OW30826   4.410   5.541   4.518
 9976SOL    HW130827   4.449   5.480   4.449
 9976SOL    HW230828   4.313   5.554   4.500
 9977SOL     OW30829   3.668   6.631   6.034
 9977SOL    HW130830   3.611   6.676   6.103
 9977SOL    HW230831   3.616   6.619   5.950
 9978SOL     OW30832   6.917   3.227   6.981
 9978SOL    HW130833   6.953   3.294   0.026
 9978SOL    HW230834   6.822   3.206   7.003
 9979SOL     OW30835   3.158   4.058   4.106
 9979SOL    HW130836   3.177   4.091   4.198
 9979SOL    HW230837   3.084   3.991   4.109
 9980SOL     OW30838   0.508   6.764   6.864
 9980SOL    HW130839   0.583   6.823   6.895
 9980SOL    HW230840   0.546   6.690   6.808
 9981SOL     OW30841   5.523   1.437   1.547
 9981SOL    HW130842   5.539   1.534   1.530
 9981SOL    HW230843   5.442   1.407   1.497
 9982SOL     OW30844   2.869   0.834   5.099
 9982SOL    HW130845   2.966   0.842   5.124
 9982SOL    HW230846   2.830   0.925   5.088
 9983SOL     OW30847   0.611   2.310   1.861
 9983SOL    HW130848   0.612   2.406   1.833
 9983SOL    HW230849   0.595   2.252   1.781
 9984SOL     OW30850   1.571   4.520   1.043
 9984SOL    HW130851   1.572   4.535   0.944
 9984SOL    HW230852   1.507   4.447   1.065
 9985SOL     OW30853   5.644   4.886   5.991
 9985SOL    HW130854   5.685   4.811   6.044
 9985SOL    HW230855   5.561   4.917   6.036
 9986SOL     OW30856   5.835   4.209   0.259
 9986SOL    HW130857   5.906   4.217   0.329
 9986SOL    HW230858   5.804   4.114   0.253
 9987SOL     OW30859   5.129   1.864   0.786
 9987SOL    HW130860   5.056   1.929   0.764
 9987SOL    HW230861   5.213   1.891   0.739
 9988SOL     OW30862   5.129   0.094   4.073
 9988SOL    HW130863   5.133   0.152   3.991
 9988SOL    HW230864   5.110   7.019   4.046
 9989SOL     OW30865   6.570   5.283   1.550
 9989SOL    HW130866   6.609   5.374   1.541
 9989SOL    HW230867   6.643   5.216   1.562
 9990SOL     OW30868   0.434   6.195   2.787
 9990SOL    HW130869   0.394   6.105   2.806
 9990SOL    HW230870   0.494   6.222   2.863
 9991SOL     OW30871   2.172   2.965   2.156
 9991SOL    HW130872   2.124   2.954   2.244
 9991SOL    HW230873   2.171   3.061   2.129
 9992SOL     OW30874   1.794   4.068   0.318
 9992SOL    HW130875   1.767   4.025   0.232
 9992SOL    HW230876   1.721   4.056   0.385
 9993SOL     OW30877   3.731   0.244   4.283
 9993SOL    HW130878   3.748   0.281   4.192
 9993SOL    HW230879   3.633   0.242   4.300
 9994SOL     OW30880   5.916   4.971   5.403
 9994SOL    HW130881   6.008   4.997   5.375
 9994SOL    HW230882   5.872   4.920   5.329
 9995SOL     OW30883   3.991   1.829   6.078
 9995SOL    HW130884   3.922   1.765   6.112
 9995SOL    HW230885   4.075   1.780   6.056
 9996SOL     OW30886   2.852   4.542   1.391
 9996SOL    HW130887   2.759   4.574   1.408
 9996SOL    HW230888   2.854   4.489   1.306
 9997SOL     OW30889   5.648   0.032   3.189
 9997SOL    HW130890   5.709   0.110   3.186
 9997SOL    HW230891   5.679   6.982   3.125
 9998SOL     OW30892   5.606   3.488   2.395
 9998SOL    HW130893   5.602   3.402   2.346
 9998SOL    HW230894   5.539   3.488   2.469
 9999SOL     OW30895   0.805   0.253   4.401
 9999SOL    HW130896   0.755   0.203   4.471
 9999SOL    HW230897   0.809   0.350   4.426
10000SOL     OW30898   4.558   3.572   1.631
10000SOL    HW130899   4.555   3.472   1.643
10000SOL    HW230900   4.473   3.612   1.665
10001SOL     OW30901   3.761   5.952   1.626
10001SOL    HW130902   3.838   5.904   1.667
10001SOL    HW230903   3.676   5.924   1.671
10002SOL     OW30904   2.556   6.765   2.789
10002SOL    HW130905   2.508   6.695   2.842
10002SOL    HW230906   2.508   6.852   2.798
10003SOL     OW30907   0.977   1.338   2.996
10003SOL    HW130908   0.917   1.263   3.024
10003SOL    HW230909   1.009   1.386   3.078
10004SOL     OW30910   0.324   2.565   2.983
10004SOL    HW130911   0.363   2.495   2.923
10004SOL    HW230912   0.395   2.632   3.006
10005SOL     OW30913   2.000   6.184   2.316
10005SOL    HW130914   2.097   6.158   2.322
10005SOL    HW230915   1.990   6.264   2.257
10006SOL     OW30916   5.315   1.919   6.621
10006SOL    HW130917   5.260   1.915   6.705
10006SOL    HW230918   5.323   2.014   6.592
10007SOL     OW30919   1.799   5.248   3.148
10007SOL    HW130920   1.771   5.335   3.189
10007SOL    HW230921   1.765   5.243   3.054
10008SOL     OW30922   3.137   0.476   6.101
10008SOL    HW130923   3.094   0.490   6.190
10008SOL    HW230924   3.164   0.380   6.092
10009SOL     OW30925   0.969   5.147   1.868
10009SOL    HW130926   0.878   5.146   1.909
10009SOL    HW230927   0.972   5.213   1.793
10010SOL     OW30928   2.372   5.020   0.715
10010SOL    HW130929   2.424   4.970   0.784
10010SOL    HW230930   2.431   5.087   0.671
10011SOL     OW30931   3.223   3.326   6.932
10011SOL    HW130932   3.222   3.296   0.007
10011SOL    HW230933   3.268   3.415   6.925
10012SOL     OW30934   5.559   2.095   3.251
10012SOL    HW130935   5.502   2.105   3.170
10012SOL    HW230936   5.585   1.999   3.262
10013SOL     OW30937   0.338   5.873   5.813
10013SOL    HW130938   0.429   5.864   5.852
10013SOL    HW230939   0.286   5.789   5.828
10014SOL     OW30940   1.300   1.574   2.873
10014SOL    HW130941   1.293   1.497   2.809
10014SOL    HW230942   1.210   1.617   2.883
10015SOL     OW30943   4.064   0.744   0.373
10015SOL    HW130944   4.075   0.796   0.288
10015SOL    HW230945   4.152   0.737   0.420
10016SOL     OW30946   2.508   1.559   5.435
10016SOL    HW130947   2.460   1.484   5.480
10016SOL    HW230948   2.599   1.570   5.474
10017SOL     OW30949   3.080   2.037   2.974
10017SOL    HW130950   3.085   1.937   2.980
10017SOL    HW230951   3.125   2.077   3.054
10018SOL     OW30952   7.019   4.257   5.473
10018SOL    HW130953   0.097   4.237   5.478
10018SOL    HW230954   6.977   4.235   5.561
10019SOL     OW30955   0.531   1.947   2.933
10019SOL    HW130956   0.615   2.001   2.938
10019SOL    HW230957   0.522   1.906   2.843
10020SOL     OW30958   6.705   1.090   3.057
10020SOL    HW130959   6.797   1.055   3.073
10020SOL    HW230960   6.709   1.188   3.036
10021SOL     OW30961   2.351   4.429   1.923
10021SOL    HW130962   2.315   4.338   1.902
10021SOL    HW230963   2.321   4.457   2.014
10022SOL     OW30964   0.824   6.473   5.900
10022SOL    HW130965   0.857   6.557   5.942
10022SOL    HW230966   0.745   6.493   5.842
10023SOL     OW30967   1.393   1.363   4.522
10023SOL    HW130968   1.478   1.338   4.568
10023SOL    HW230969   1.370   1.459   4.543
10024SOL     OW30970   1.992   3.316   3.051
10024SOL    HW130971   2.053   3.389   3.018
10024SOL    HW230972   2.044   3.254   3.110
10025SOL     OW30973   0.123   2.174   1.316
10025SOL    HW130974   0.199   2.188   1.379
10025SOL    HW230975   0.157   2.162   1.223
10026SOL     OW30976   6.140   1.641   4.700
10026SOL    HW130977   6.219   1.584   4.719
10026SOL    HW230978   6.170   1.729   4.664
10027SOL     OW30979   3.421   1.439   5.558
10027SOL    HW130980   3.406   1.500   5.480
10027SOL    HW230981   3.352   1.366   5.558
10028SOL     OW30982   4.182   6.201   1.678
10028SOL    HW130983   4.117   6.255   1.730
10028SOL    HW230984   4.190   6.110   1.718
10029SOL     OW30985   0.188   4.841   3.692
10029SOL    HW130986   0.211   4.872   3.599
10029SOL    HW230987   0.216   4.911   3.758
10030SOL     OW30988   2.904   6.584   3.928
10030SOL    HW130989   2.886   6.519   4.002
10030SOL    HW230990   2.841   6.660   3.934
10031SOL     OW30991   2.016   6.662   3.514
10031SOL    HW130992   1.945   6.601   3.478
10031SOL    HW230993   2.027   6.740   3.453
10032SOL     OW30994   2.329   5.549   4.836
10032SOL    HW130995   2.281   5.605   4.769
10032SOL    HW230996   2.400   5.603   4.881
10033SOL     OW30997   1.933   1.309   4.429
10033SOL    HW130998   1.931   1.280   4.525
10033SOL    HW230999   1.865   1.258   4.377
10034SOL     OW31000   2.495   0.869   1.783
10034SOL    HW131001   2.466   0.851   1.877
10034SOL    HW231002   2.470   0.963   1.758
10035SOL     OW31003   0.435   2.714   2.052
10035SOL    HW131004   0.508   2.772   2.089
10035SOL    HW231005   0.367   2.697   2.123
10036SOL     OW31006   0.499   1.204   0.188
10036SOL    HW131007   0.575   1.143   0.166
10036SOL    HW231008   0.533   1.298   0.197
10037SOL     OW31009   6.218   0.931   6.312
10037SOL    HW131010   6.147   0.898   6.250
10037SOL    HW231011   6.306   0.892   6.285
10038SOL     OW31012   4.541   0.206   6.731
10038SOL    HW131013   4.602   0.212   6.810
10038SOL    HW231014   4.450   0.240   6.756
10039SOL     OW31015   6.957   4.702   0.907
10039SOL    HW131016   6.924   4.775   0.847
10039SOL    HW231017   0.011   4.737   0.966
10040SOL     OW31018   3.102   0.489   0.507
10040SOL    HW131019   3.123   0.406   0.559
10040SOL    HW231020   3.160   0.564   0.539
10041SOL     OW31021   5.965   4.724   5.799
10041SOL    HW131022   5.877   4.758   5.765
10041SOL    HW231023   5.972   4.626   5.779
10042SOL     OW31024   6.225   0.268   5.114
10042SOL    HW131025   6.135   0.261   5.156
10042SOL    HW231026   6.218   0.317   5.027
10043SOL     OW31027   0.381   0.261   3.373
10043SOL    HW131028   0.347   0.208   3.296
10043SOL    HW231029   0.477   0.286   3.357
10044SOL     OW31030   2.964   2.354   6.808
10044SOL    HW131031   2.909   2.364   6.725
10044SOL    HW231032   3.053   2.399   6.795
10045SOL     OW31033   4.136   7.014   4.733
10045SOL    HW131034   4.058   0.038   4.778
10045SOL    HW231035   4.201   6.983   4.801
10046SOL     OW31036   6.419   1.637   0.468
10046SOL    HW131037   6.454   1.730   0.468
10046SOL    HW231038   6.473   1.581   0.531
10047SOL     OW31039   1.175   2.380   3.389
10047SOL    HW131040   1.171   2.301   3.327
10047SOL    HW231041   1.242   2.446   3.355
10048SOL     OW31042   3.167   2.398   1.693
10048SOL    HW131043   3.116   2.402   1.779
10048SOL    HW231044   3.259   2.361   1.711
10049SOL     OW31045   1.136   5.131   5.030
10049SOL    HW131046   1.157   5.033   5.029
10049SOL    HW231047   1.038   5.144   5.044
10050SOL     OW31048   5.780   1.390   5.019
10050SOL    HW131049   5.856   1.439   4.975
10050SOL    HW231050   5.786   1.293   4.997
10051SOL     OW31051   5.823   1.589   0.672
10051SOL    HW131052   5.909   1.591   0.620
10051SOL    HW231053   5.746   1.590   0.609
10052SOL     OW31054   2.142   5.594   0.719
10052SOL    HW131055   2.122   5.564   0.813
10052SOL    HW231056   2.238   5.620   0.713
10053SOL     OW31057   2.996   6.480   3.447
10053SOL    HW131058   2.961   6.573   3.437
10053SOL    HW231059   3.096   6.482   3.448
10054SOL     OW31060   5.407   4.646   3.833
10054SOL    HW131061   5.484   4.584   3.851
10054SOL    HW231062   5.326   4.613   3.881
10055SOL     OW31063   5.037   2.552   7.000
10055SOL    HW131064   5.007   2.557   0.075
10055SOL    HW231065   4.958   2.537   6.941
10056SOL     OW31066   4.729   4.157   2.765
10056SOL    HW131067   4.785   4.124   2.841
10056SOL    HW231068   4.739   4.095   2.687
10057SOL     OW31069   2.021   2.396   2.921
10057SOL    HW131070   1.949   2.327   2.928
10057SOL    HW231071   2.048   2.406   2.825
10058SOL     OW31072   0.999   4.929   3.763
10058SOL    HW131073   0.934   4.864   3.800
10058SOL    HW231074   1.070   4.948   3.832
10059SOL     OW31075   4.401   5.908   1.598
10059SOL    HW131076   4.465   5.959   1.654
10059SOL    HW231077   4.308   5.938   1.618
10060SOL     OW31078   2.552   2.167   2.889
10060SOL    HW131079   2.614   2.220   2.945
10060SOL    HW231080   2.591   2.155   2.797
10061SOL     OW31081   0.140   1.858   5.698
10061SOL    HW131082   0.121   1.765   5.666
10061SOL    HW231083   0.110   1.924   5.629
10062SOL     OW31084   5.741   6.034   2.940
10062SOL    HW131085   5.791   6.012   2.856
10062SOL    HW231086   5.727   5.951   2.993
10063SOL     OW31087   0.917   2.854   2.655
10063SOL    HW131088   0.903   2.792   2.733
10063SOL    HW231089   0.848   2.835   2.585
10064SOL     OW31090   5.031   4.894   5.306
10064SOL    HW131091   5.074   4.950   5.235
10064SOL    HW231092   5.102   4.854   5.365
10065SOL     OW31093   0.487   0.383   2.791
10065SOL    HW131094   0.435   0.348   2.712
10065SOL    HW231095   0.575   0.419   2.759
10066SOL     OW31096   6.277   0.338   4.314
10066SOL    HW131097   6.338   0.275   4.267
10066SOL    HW231098   6.263   0.307   4.408
10067SOL     OW31099   4.816   6.384   3.055
10067SOL    HW131100   4.908   6.421   3.064
10067SOL    HW231101   4.749   6.458   3.068
10068SOL     OW31102   5.393   3.405   5.315
10068SOL    HW131103   5.404   3.498   5.282
10068SOL    HW231104   5.317   3.361   5.266
10069SOL     OW31105   4.828   1.054   4.468
10069SOL    HW131106   4.867   1.115   4.399
10069SOL    HW231107   4.758   0.997   4.426
10070SOL     OW31108   0.794   6.855   4.234
10070SOL    HW131109   0.878   6.823   4.278
10070SOL    HW231110   0.803   6.951   4.211
10071SOL     OW31111   4.820   4.871   5.045
10071SOL    HW131112   4.733   4.824   5.032
10071SOL    HW231113   4.873   4.823   5.115
10072SOL     OW31114   0.326   6.239   4.417
10072SOL    HW131115   0.316   6.310   4.348
10072SOL    HW231116   0.251   6.173   4.408
10073SOL     OW31117   0.243   6.985   6.618
10073SOL    HW131118   0.336   6.952   6.603
10073SOL    HW231119   0.243   0.036   6.688
10074SOL     OW31120   2.182   6.256   4.799
10074SOL    HW131121   2.276   6.243   4.832
10074SOL    HW231122   2.122   6.280   4.875
10075SOL     OW31123   1.243   2.610   4.195
10075SOL    HW131124   1.284   2.693   4.232
10075SOL    HW231125   1.257   2.535   4.258
10076SOL     OW31126   5.370   0.028   3.294
10076SOL    HW131127   5.348   6.966   3.347
10076SOL    HW231128   5.460   0.017   3.252
10077SOL     OW31129   2.599   1.153   5.536
10077SOL    HW131130   2.603   1.249   5.507
10077SOL    HW231131   2.511   1.114   5.510
10078SOL     OW31132   5.677   6.131   5.109
10078SOL    HW131133   5.656   6.228   5.115
10078SOL    HW231134   5.642   6.095   5.023
10079SOL     OW31135   0.917   3.216   5.936
10079SOL    HW131136   0.928   3.260   6.025
10079SOL    HW231137   0.966   3.269   5.867
10080SOL     OW31138   1.396   2.512   5.600
10080SOL    HW131139   1.335   2.462   5.662
10080SOL    HW231140   1.406   2.460   5.515
10081SOL     OW31141   0.326   0.868   0.856
10081SOL    HW131142   0.379   0.900   0.777
10081SOL    HW231143   0.231   0.855   0.829
10082SOL     OW31144   6.650   0.943   0.181
10082SOL    HW131145   6.632   0.881   0.105
10082SOL    HW231146   6.566   0.960   0.231
10083SOL     OW31147   5.702   1.133   4.592
10083SOL    HW131148   5.628   1.075   4.626
10083SOL    HW231149   5.698   1.137   4.492
10084SOL     OW31150   2.781   0.686   6.802
10084SOL    HW131151   2.751   0.705   6.896
10084SOL    HW231152   2.851   0.753   6.776
10085SOL     OW31153   0.981   5.672   2.571
10085SOL    HW131154   0.922   5.710   2.642
10085SOL    HW231155   1.071   5.652   2.609
10086SOL     OW31156   0.021   2.245   2.553
10086SOL    HW131157   6.947   2.223   2.527
10086SOL    HW231158   0.033   2.344   2.558
10087SOL     OW31159   1.839   0.104   3.291
10087SOL    HW131160   1.854   0.092   3.193
10087SOL    HW231161   1.864   0.197   3.318
10088SOL     OW31162   5.638   0.346   4.522
10088SOL    HW131163   5.656   0.424   4.581
10088SOL    HW231164   5.720   0.290   4.515
10089SOL     OW31165   2.215   2.497   2.353
10089SOL    HW131166   2.258   2.467   2.439
10089SOL    HW231167   2.186   2.416   2.301
10090SOL     OW31168   0.471   5.648   2.135
10090SOL    HW131169   0.426   5.719   2.190
10090SOL    HW231170   0.402   5.593   2.088
10091SOL     OW31171   0.711   1.427   4.384
10091SOL    HW131172   0.680   1.334   4.363
10091SOL    HW231173   0.636   1.479   4.424
10092SOL     OW31174   2.519   2.421   5.574
10092SOL    HW131175   2.432   2.465   5.595
10092SOL    HW231176   2.513   2.376   5.485
10093SOL     OW31177   6.842   6.754   5.676
10093SOL    HW131178   6.783   6.755   5.758
10093SOL    HW231179   6.816   6.828   5.615
10094SOL     OW31180   1.429   0.663   1.598
10094SOL    HW131181   1.422   0.731   1.525
10094SOL    HW231182   1.392   0.576   1.567
10095SOL     OW31183   0.818   2.566   5.037
10095SOL    HW131184   0.756   2.641   5.013
10095SOL    HW231185   0.910   2.587   5.005
10096SOL     OW31186   6.273   5.688   2.813
10096SOL    HW131187   6.180   5.655   2.801
10096SOL    HW231188   6.275   5.758   2.885
10097SOL     OW31189   1.386   2.230   6.078
10097SOL    HW131190   1.346   2.321   6.093
10097SOL    HW231191   1.321   2.173   6.028
10098SOL     OW31192   3.669   4.993   6.300
10098SOL    HW131193   3.571   4.979   6.311
10098SOL    HW231194   3.703   4.940   6.223
10099SOL     OW31195   1.219   3.663   4.204
10099SOL    HW131196   1.141   3.623   4.252
10099SOL    HW231197   1.198   3.672   4.107
10100SOL     OW31198   4.574   0.370   5.924
10100SOL    HW131199   4.500   0.309   5.952
10100SOL    HW231200   4.550   0.464   5.947
10101SOL     OW31201   6.986   3.998   2.450
10101SOL    HW131202   6.988   3.942   2.533
10101SOL    HW231203   0.054   4.043   2.438
10102SOL     OW31204   4.429   0.657   4.304
10102SOL    HW131205   4.383   0.746   4.298
10102SOL    HW231206   4.409   0.615   4.392
10103SOL     OW31207   0.042   2.721   0.671
10103SOL    HW131208   6.982   2.687   0.720
10103SOL    HW231209   0.115   2.740   0.736
10104SOL     OW31210   2.121   5.361   5.826
10104SOL    HW131211   2.187   5.378   5.752
10104SOL    HW231212   2.149   5.413   5.907
10105SOL     OW31213   3.670   0.431   0.066
10105SOL    HW131214   3.679   0.344   0.115
10105SOL    HW231215   3.586   0.477   0.097
10106SOL     OW31216   4.751   5.551   0.945
10106SOL    HW131217   4.651   5.550   0.943
10106SOL    HW231218   4.786   5.469   0.900
10107SOL     OW31219   5.757   1.898   6.169
10107SOL    HW131220   5.709   1.934   6.089
10107SOL    HW231221   5.854   1.925   6.165
10108SOL     OW31222   5.113   5.950   6.236
10108SOL    HW131223   5.192   5.896   6.267
10108SOL    HW231224   5.145   6.038   6.201
10109SOL     OW31225   5.255   6.190   4.104
10109SOL    HW131226   5.238   6.282   4.139
10109SOL    HW231227   5.219   6.182   4.011
10110SOL     OW31228   3.558   2.421   6.039
10110SOL    HW131229   3.502   2.442   5.959
10110SOL    HW231230   3.556   2.323   6.056
10111SOL     OW31231   0.089   2.575   1.661
10111SOL    HW131232   0.009   2.615   1.707
10111SOL    HW231233   0.141   2.648   1.616
10112SOL     OW31234   4.922   4.070   5.551
10112SOL    HW131235   4.942   3.985   5.503
10112SOL    HW231236   4.948   4.060   5.648
10113SOL     OW31237   3.115   7.007   0.948
10113SOL    HW131238   3.022   6.980   0.926
10113SOL    HW231239   3.145   6.960   1.031
10114SOL     OW31240   4.559   1.871   1.702
10114SOL    HW131241   4.608   1.824   1.628
10114SOL    HW231242   4.618   1.878   1.782
10115SOL     OW31243   1.235   1.541   4.717
10115SOL    HW131244   1.222   1.600   4.637
10115SOL    HW231245   1.312   1.576   4.772
10116SOL     OW31246   0.218   0.444   0.820
10116SOL    HW131247   0.173   0.468   0.734
10116SOL    HW231248   0.173   0.364   0.859
10117SOL     OW31249   3.967   6.790   6.007
10117SOL    HW131250   3.947   6.705   6.058
10117SOL    HW231251   3.893   6.855   6.022
10118SOL     OW31252   5.106   5.371   2.715
10118SOL    HW131253   5.121   5.276   2.742
10118SOL    HW231254   5.194   5.415   2.701
10119SOL     OW31255   1.924   0.156   6.186
10119SOL    HW131256   1.958   0.095   6.258
10119SOL    HW231257   1.975   0.242   6.188
10120SOL     OW31258   5.978   3.380   3.992
10120SOL    HW131259   6.069   3.360   4.029
10120SOL    HW231260   5.913   3.311   4.024
10121SOL     OW31261   5.952   4.497   4.065
10121SOL    HW131262   6.030   4.437   4.047
10121SOL    HW231263   5.868   4.442   4.066
10122SOL     OW31264   5.376   2.364   1.018
10122SOL    HW131265   5.421   2.392   1.103
10122SOL    HW231266   5.279   2.387   1.022
10123SOL     OW31267   0.743   6.324   0.706
10123SOL    HW131268   0.679   6.293   0.635
10123SOL    HW231269   0.699   6.316   0.795
10124SOL     OW31270   3.386   4.162   0.379
10124SOL    HW131271   3.294   4.166   0.419
10124SOL    HW231272   3.411   4.253   0.344
10125SOL     OW31273   2.589   1.071   0.089
10125SOL    HW131274   2.663   1.064   0.022
10125SOL    HW231275   2.577   1.167   0.115
10126SOL     OW31276   5.677   5.157   6.104
10126SOL    HW131277   5.596   5.197   6.063
10126SOL    HW231278   5.696   5.068   6.063
10127SOL     OW31279   3.969   4.916   5.093
10127SOL    HW131280   4.042   4.848   5.088
10127SOL    HW231281   3.884   4.872   5.122
10128SOL     OW31282   1.315   1.487   0.919
10128SOL    HW131283   1.375   1.481   0.998
10128SOL    HW231284   1.219   1.489   0.950
10129SOL     OW31285   5.262   2.769   2.974
10129SOL    HW131286   5.246   2.855   2.924
10129SOL    HW231287   5.298   2.700   2.911
10130SOL     OW31288   6.239   5.677   0.970
10130SOL    HW131289   6.250   5.611   0.895
10130SOL    HW231290   6.143   5.702   0.979
10131SOL     OW31291   0.566   0.388   0.219
10131SOL    HW131292   0.476   0.367   0.259
10131SOL    HW231293   0.555   0.458   0.148
10132SOL     OW31294   2.689   6.513   2.689
10132SOL    HW131295   2.696   6.611   2.709
10132SOL    HW231296   2.631   6.499   2.609
10133SOL     OW31297   6.050   4.437   2.499
10133SOL    HW131298   6.015   4.490   2.575
10133SOL    HW231299   6.073   4.345   2.530
10134SOL     OW31300   0.689   1.664   1.689
10134SOL    HW131301   0.765   1.640   1.749
10134SOL    HW231302   0.663   1.583   1.635
10135SOL     OW31303   3.190   6.392   2.051
10135SOL    HW131304   3.209   6.485   2.082
10135SOL    HW231305   3.176   6.333   2.130
10136SOL     OW31306   6.055   6.662   2.658
10136SOL    HW131307   5.957   6.658   2.679
10136SOL    HW231308   6.070   6.631   2.564
10137SOL     OW31309   5.710   4.394   4.086
10137SOL    HW131310   5.703   4.344   4.000
10137SOL    HW231311   5.636   4.460   4.093
10138SOL     OW31312   5.620   3.212   6.180
10138SOL    HW131313   5.698   3.207   6.242
10138SOL    HW231314   5.577   3.122   6.173
10139SOL     OW31315   4.014   3.175   2.957
10139SOL    HW131316   3.972   3.136   3.039
10139SOL    HW231317   3.952   3.162   2.879
10140SOL     OW31318   0.902   4.864   4.198
10140SOL    HW131319   0.968   4.802   4.155
10140SOL    HW231320   0.860   4.819   4.276
10141SOL     OW31321   1.698   0.432   3.459
10141SOL    HW131322   1.636   0.497   3.415
10141SOL    HW231323   1.769   0.405   3.393
10142SOL     OW31324   5.623   5.394   4.375
10142SOL    HW131325   5.710   5.437   4.351
10142SOL    HW231326   5.563   5.391   4.295
10143SOL     OW31327   4.338   6.435   1.269
10143SOL    HW131328   4.396   6.368   1.221
10143SOL    HW231329   4.295   6.391   1.348
10144SOL     OW31330   3.179   5.191   2.607
10144SOL    HW131331   3.094   5.203   2.555
10144SOL    HW231332   3.193   5.270   2.666
10145SOL     OW31333   2.367   0.350   6.066
10145SOL    HW131334   2.345   0.322   5.973
10145SOL    HW231335   2.466   0.359   6.076
10146SOL     OW31336   4.711   4.551   3.713
10146SOL    HW131337   4.789   4.569   3.773
10146SOL    HW231338   4.671   4.637   3.684
10147SOL     OW31339   5.298   5.274   4.789
10147SOL    HW131340   5.204   5.242   4.799
10147SOL    HW231341   5.299   5.371   4.764
10148SOL     OW31342   5.979   5.789   0.989
10148SOL    HW131343   5.920   5.778   0.909
10148SOL    HW231344   5.931   5.840   1.060
10149SOL     OW31345   3.723   2.705   1.297
10149SOL    HW131346   3.682   2.772   1.236
10149SOL    HW231347   3.753   2.751   1.381
10150SOL     OW31348   5.345   4.373   1.069
10150SOL    HW131349   5.273   4.383   1.138
10150SOL    HW231350   5.422   4.324   1.109
10151SOL     OW31351   0.276   4.984   5.982
10151SOL    HW131352   0.331   4.914   6.028
10151SOL    HW231353   0.219   5.031   6.049
10152SOL     OW31354   0.321   5.941   4.067
10152SOL    HW131355   0.372   5.919   3.984
10152SOL    HW231356   0.386   5.965   4.140
10153SOL     OW31357   5.632   5.545   3.930
10153SOL    HW131358   5.609   5.460   3.977
10153SOL    HW231359   5.670   5.523   3.840
10154SOL     OW31360   6.462   5.754   5.425
10154SOL    HW131361   6.492   5.833   5.478
10154SOL    HW231362   6.380   5.715   5.467
10155SOL     OW31363   4.128   1.375   5.896
10155SOL    HW131364   4.070   1.456   5.893
10155SOL    HW231365   4.073   1.293   5.883
10156SOL     OW31366   5.711   0.213   2.155
10156SOL    HW131367   5.655   0.198   2.073
10156SOL    HW231368   5.653   0.248   2.229
10157SOL     OW31369   4.869   0.334   3.314
10157SOL    HW131370   4.954   0.281   3.312
10157SOL    HW231371   4.803   0.290   3.374
10158SOL     OW31372   4.837   3.229   5.552
10158SOL    HW131373   4.843   3.151   5.614
10158SOL    HW231374   4.890   3.211   5.469
10159SOL     OW31375   1.027   0.712   6.670
10159SOL    HW131376   0.964   0.646   6.710
10159SOL    HW231377   1.118   0.670   6.662
10160SOL     OW31378   0.185   7.004   3.713
10160SOL    HW131379   0.092   6.967   3.715
10160SOL    HW231380   0.227   6.992   3.802
10161SOL     OW31381   2.773   5.553   4.942
10161SOL    HW131382   2.832   5.490   4.890
10161SOL    HW231383   2.789   5.539   5.039
10162SOL     OW31384   2.711   2.221   5.798
10162SOL    HW131385   2.638   2.167   5.757
10162SOL    HW231386   2.799   2.175   5.785
10163SOL     OW31387   0.542   3.601   5.026
10163SOL    HW131388   0.576   3.632   4.937
10163SOL    HW231389   0.518   3.680   5.082
10164SOL     OW31390   1.758   2.771   6.303
10164SOL    HW131391   1.804   2.807   6.385
10164SOL    HW231392   1.672   2.820   6.289
10165SOL     OW31393   0.317   2.082   3.594
10165SOL    HW131394   0.412   2.081   3.625
10165SOL    HW231395   0.294   2.172   3.558
10166SOL     OW31396   0.572   1.120   2.372
10166SOL    HW131397   0.663   1.151   2.344
10166SOL    HW231398   0.513   1.199   2.390
10167SOL     OW31399   4.962   0.532   0.463
10167SOL    HW131400   5.027   0.480   0.519
10167SOL    HW231401   5.010   0.579   0.390
10168SOL     OW31402   6.667   4.235   5.529
10168SOL    HW131403   6.723   4.152   5.535
10168SOL    HW231404   6.649   4.255   5.433
10169SOL     OW31405   6.604   4.201   4.845
10169SOL    HW131406   6.684   4.152   4.811
10169SOL    HW231407   6.547   4.140   4.899
10170SOL     OW31408   1.709   4.282   4.815
10170SOL    HW131409   1.673   4.333   4.893
10170SOL    HW231410   1.648   4.293   4.737
10171SOL     OW31411   6.314   2.839   6.075
10171SOL    HW131412   6.228   2.789   6.077
10171SOL    HW231413   6.342   2.855   5.980
10172SOL     OW31414   5.027   0.454   4.864
10172SOL    HW131415   5.056   0.402   4.945
10172SOL    HW231416   5.047   0.402   4.782
10173SOL     OW31417   2.080   2.384   2.626
10173SOL    HW131418   2.015   2.398   2.551
10173SOL    HW231419   2.136   2.303   2.608
10174SOL     OW31420   6.574   5.183   1.242
10174SOL    HW131421   6.573   5.221   1.335
10174SOL    HW231422   6.495   5.122   1.231
10175SOL     OW31423   5.673   2.440   5.572
10175SOL    HW131424   5.622   2.359   5.544
10175SOL    HW231425   5.751   2.453   5.511
10176SOL     OW31426   3.091   2.953   0.608
10176SOL    HW131427   3.004   2.944   0.655
10176SOL    HW231428   3.105   2.874   0.547
10177SOL     OW31429   0.647   0.048   5.698
10177SOL    HW131430   0.706   0.091   5.767
10177SOL    HW231431   0.577   7.013   5.743
10178SOL     OW31432   5.220   3.145   4.899
10178SOL    HW131433   5.255   3.052   4.907
10178SOL    HW231434   5.274   3.196   4.832
10179SOL     OW31435   6.973   3.314   0.614
10179SOL    HW131436   6.896   3.357   0.660
10179SOL    HW231437   0.037   3.334   0.664
10180SOL     OW31438   1.751   6.681   6.567
10180SOL    HW131439   1.827   6.643   6.620
10180SOL    HW231440   1.787   6.731   6.488
10181SOL     OW31441   5.509   3.250   2.232
10181SOL    HW131442   5.421   3.213   2.262
10181SOL    HW231443   5.560   3.179   2.183
10182SOL     OW31444   3.926   1.299   1.183
10182SOL    HW131445   3.964   1.388   1.157
10182SOL    HW231446   3.953   1.276   1.276
10183SOL     OW31447   1.786   1.371   6.231
10183SOL    HW131448   1.860   1.354   6.166
10183SOL    HW231449   1.783   1.468   6.254
10184SOL     OW31450   4.729   0.227   6.945
10184SOL    HW131451   4.694   0.228   0.018
10184SOL    HW231452   4.827   0.208   6.946
10185SOL     OW31453   4.244   1.154   0.447
10185SOL    HW131454   4.152   1.116   0.450
10185SOL    HW231455   4.311   1.080   0.448
10186SOL     OW31456   4.760   2.168   2.757
10186SOL    HW131457   4.812   2.250   2.778
10186SOL    HW231458   4.753   2.111   2.839
10187SOL     OW31459   6.992   2.188   2.212
10187SOL    HW131460   6.995   2.090   2.232
10187SOL    HW231461   0.034   2.208   2.135
10188SOL     OW31462   4.063   5.927   0.393
10188SOL    HW131463   3.977   5.914   0.343
10188SOL    HW231464   4.131   5.970   0.334
10189SOL     OW31465   0.678   6.913   4.452
10189SOL    HW131466   0.718   6.896   4.362
10189SOL    HW231467   0.661   7.011   4.462
10190SOL     OW31468   5.797   2.960   7.009
10190SOL    HW131469   5.792   3.059   6.992
10190SOL    HW231470   5.733   2.935   0.061
10191SOL     OW31471   6.507   4.540   6.944
10191SOL    HW131472   6.461   4.626   6.964
10191SOL    HW231473   6.598   4.558   6.907
10192SOL     OW31474   3.468   1.859   0.159
10192SOL    HW131475   3.555   1.907   0.170
10192SOL    HW231476   3.486   1.764   0.132
10193SOL     OW31477   5.355   4.456   0.769
10193SOL    HW131478   5.319   4.546   0.743
10193SOL    HW231479   5.341   4.443   0.867
10194SOL     OW31480   4.863   2.532   4.849
10194SOL    HW131481   4.792   2.463   4.861
10194SOL    HW231482   4.820   2.622   4.842
10195SOL     OW31483   5.657   5.490   2.568
10195SOL    HW131484   5.728   5.455   2.629
10195SOL    HW231485   5.577   5.429   2.571
10196SOL     OW31486   0.818   1.270   4.627
10196SOL    HW131487   0.799   1.340   4.696
10196SOL    HW231488   0.917   1.263   4.614
10197SOL     OW31489   4.942   0.635   6.786
10197SOL    HW131490   4.978   0.728   6.789
10197SOL    HW231491   4.945   0.602   6.692
10198SOL     OW31492   4.793   6.857   2.019
10198SOL    HW131493   4.743   6.872   2.105
10198SOL    HW231494   4.848   6.938   1.999
10199SOL     OW31495   0.359   2.140   5.704
10199SOL    HW131496   0.367   2.046   5.671
10199SOL    HW231497   0.282   2.184   5.660
10200SOL     OW31498   5.355   2.589   2.541
10200SOL    HW131499   5.300   2.598   2.625
10200SOL    HW231500   5.317   2.516   2.484
10201SOL     OW31501   1.797   3.275   1.010
10201SOL    HW131502   1.801   3.367   1.047
10201SOL    HW231503   1.754   3.277   0.920
10202SOL     OW31504   4.790   6.897   3.019
10202SOL    HW131505   4.746   6.857   3.100
10202SOL    HW231506   4.767   6.994   3.013
10203SOL     OW31507   0.765   3.509   5.264
10203SOL    HW131508   0.721   3.436   5.317
10203SOL    HW231509   0.776   3.479   5.169
10204SOL     OW31510   4.564   4.583   6.289
10204SOL    HW131511   4.549   4.547   6.381
10204SOL    HW231512   4.542   4.512   6.222
10205SOL     OW31513   6.858   1.680   6.758
10205SOL    HW131514   6.894   1.750   6.696
10205SOL    HW231515   6.816   1.607   6.705
10206SOL     OW31516   2.453   2.032   4.571
10206SOL    HW131517   2.442   2.032   4.472
10206SOL    HW231518   2.461   1.938   4.604
10207SOL     OW31519   2.153   2.563   6.540
10207SOL    HW131520   2.169   2.652   6.582
10207SOL    HW231521   2.084   2.572   6.468
10208SOL     OW31522   6.522   0.354   5.598
10208SOL    HW131523   6.475   0.386   5.681
10208SOL    HW231524   6.611   0.397   5.591
10209SOL     OW31525   6.980   6.492   5.717
10209SOL    HW131526   0.045   6.485   5.769
10209SOL    HW231527   6.959   6.588   5.699
10210SOL     OW31528   3.681   0.700   1.899
10210SOL    HW131529   3.604   0.763   1.899
10210SOL    HW231530   3.767   0.751   1.906
10211SOL     OW31531   5.575   5.548   6.520
10211SOL    HW131532   5.491   5.512   6.480
10211SOL    HW231533   5.652   5.528   6.460
10212SOL     OW31534   0.370   0.294   0.403
10212SOL    HW131535   0.383   0.361   0.476
10212SOL    HW231536   0.379   0.202   0.440
10213SOL     OW31537   6.749   3.219   1.712
10213SOL    HW131538   6.653   3.202   1.690
10213SOL    HW231539   6.765   3.318   1.717
10214SOL     OW31540   1.355   2.544   1.047
10214SOL    HW131541   1.351   2.535   0.947
10214SOL    HW231542   1.352   2.454   1.089
10215SOL     OW31543   3.860   3.937   2.067
10215SOL    HW131544   3.804   3.986   2.133
10215SOL    HW231545   3.834   3.965   1.974
10216SOL     OW31546   0.450   6.506   2.054
10216SOL    HW131547   0.366   6.553   2.030
10216SOL    HW231548   0.502   6.562   2.119
10217SOL     OW31549   3.478   1.783   5.228
10217SOL    HW131550   3.450   1.763   5.322
10217SOL    HW231551   3.540   1.861   5.228
10218SOL     OW31552   0.938   2.733   3.146
10218SOL    HW131553   0.880   2.707   3.069
10218SOL    HW231554   1.033   2.708   3.127
10219SOL     OW31555   0.078   5.914   2.795
10219SOL    HW131556   0.166   5.938   2.836
10219SOL    HW231557   0.004   5.949   2.852
10220SOL     OW31558   3.787   3.047   6.991
10220SOL    HW131559   3.704   3.090   0.005
10220SOL    HW231560   3.774   2.948   6.984
10221SOL     OW31561   1.241   6.121   3.133
10221SOL    HW131562   1.190   6.207   3.132
10221SOL    HW231563   1.196   6.055   3.072
10222SOL     OW31564   2.938   3.237   3.475
10222SOL    HW131565   2.913   3.141   3.487
10222SOL    HW231566   2.996   3.247   3.394
10223SOL     OW31567   3.241   6.772   0.475
10223SOL    HW131568   3.273   6.696   0.531
10223SOL    HW231569   3.145   6.757   0.450
10224SOL     OW31570   6.833   3.419   3.978
10224SOL    HW131571   6.851   3.334   3.930
10224SOL    HW231572   6.911   3.441   4.037
10225SOL     OW31573   2.137   3.812   5.593
10225SOL    HW131574   2.043   3.781   5.593
10225SOL    HW231575   2.199   3.734   5.599
10226SOL     OW31576   3.842   4.799   6.393
10226SOL    HW131577   3.784   4.877   6.367
10226SOL    HW231578   3.897   4.770   6.315
10227SOL     OW31579   5.292   4.009   0.870
10227SOL    HW131580   5.373   3.984   0.817
10227SOL    HW231581   5.320   4.065   0.948
10228SOL     OW31582   5.297   6.968   6.971
10228SOL    HW131583   5.301   0.046   6.990
10228SOL    HW231584   5.284   6.954   6.873
10229SOL     OW31585   0.605   2.193   5.284
10229SOL    HW131586   0.618   2.256   5.208
10229SOL    HW231587   0.615   2.244   5.370
10230SOL     OW31588   5.643   5.831   1.529
10230SOL    HW131589   5.646   5.929   1.513
10230SOL    HW231590   5.723   5.788   1.487
10231SOL     OW31591   0.314   4.013   2.155
10231SOL    HW131592   0.362   4.096   2.125
10231SOL    HW231593   0.243   3.990   2.088
10232SOL     OW31594   4.592   4.903   2.156
10232SOL    HW131595   4.685   4.930   2.182
10232SOL    HW231596   4.562   4.959   2.079
10233SOL     OW31597   3.476   3.501   6.073
10233SOL    HW131598   3.528   3.493   5.988
10233SOL    HW231599   3.537   3.488   6.151
10234SOL     OW31600   1.043   0.833   2.019
10234SOL    HW131601   1.018   0.895   1.946
10234SOL    HW231602   0.965   0.822   2.082
10235SOL     OW31603   1.066   0.227   2.879
10235SOL    HW131604   1.159   0.192   2.865
10235SOL    HW231605   1.069   0.312   2.931
10236SOL     OW31606   1.269   0.496   2.815
10236SOL    HW131607   1.268   0.594   2.833
10236SOL    HW231608   1.269   0.446   2.901
10237SOL     OW31609   6.964   4.131   5.719
10237SOL    HW131610   6.891   4.065   5.702
10237SOL    HW231611   0.016   4.089   5.773
10238SOL     OW31612   2.705   0.227   0.619
10238SOL    HW131613   2.638   0.157   0.594
10238SOL    HW231614   2.719   0.225   0.718
10239SOL     OW31615   1.152   2.537   5.131
10239SOL    HW131616   1.152   2.621   5.187
10239SOL    HW231617   1.154   2.562   5.034
10240SOL     OW31618   1.436   6.532   1.626
10240SOL    HW131619   1.386   6.557   1.543
10240SOL    HW231620   1.471   6.438   1.617
10241SOL     OW31621   4.352   3.723   1.711
10241SOL    HW131622   4.294   3.702   1.790
10241SOL    HW231623   4.328   3.813   1.676
10242SOL     OW31624   0.726   3.643   1.644
10242SOL    HW131625   0.775   3.690   1.571
10242SOL    HW231626   0.672   3.710   1.696
10243SOL     OW31627   3.732   5.324   2.191
10243SOL    HW131628   3.633   5.309   2.186
10243SOL    HW231629   3.757   5.395   2.125
10244SOL     OW31630   1.783   5.755   1.343
10244SOL    HW131631   1.688   5.727   1.355
10244SOL    HW231632   1.841   5.674   1.337
10245SOL     OW31633   6.276   3.767   1.129
10245SOL    HW131634   6.256   3.865   1.124
10245SOL    HW231635   6.293   3.741   1.224
10246SOL     OW31636   3.591   3.425   3.295
10246SOL    HW131637   3.543   3.364   3.359
10246SOL    HW231638   3.605   3.514   3.338
10247SOL     OW31639   0.617   3.443   4.688
10247SOL    HW131640   0.610   3.463   4.591
10247SOL    HW231641   0.623   3.528   4.740
10248SOL     OW31642   1.110   1.179   4.315
10248SOL    HW131643   1.039   1.115   4.284
10248SOL    HW231644   1.135   1.240   4.240
10249SOL     OW31645   2.573   4.726   5.973
10249SOL    HW131646   2.556   4.628   5.986
10249SOL    HW231647   2.512   4.761   5.902
10250SOL     OW31648   2.985   2.951   0.205
10250SOL    HW131649   2.951   2.914   0.119
10250SOL    HW231650   2.921   3.021   0.238
10251SOL     OW31651   0.902   0.772   5.145
10251SOL    HW131652   0.863   0.858   5.113
10251SOL    HW231653   0.874   0.698   5.084
10252SOL     OW31654   5.382   3.856   6.082
10252SOL    HW131655   5.388   3.911   6.165
10252SOL    HW231656   5.453   3.785   6.085
10253SOL     OW31657   3.641   5.648   0.419
10253SOL    HW131658   3.638   5.743   0.450
10253SOL    HW231659   3.707   5.598   0.474
10254SOL     OW31660   6.706   1.609   6.404
10254SOL    HW131661   6.689   1.536   6.338
10254SOL    HW231662   6.771   1.579   6.473
10255SOL     OW31663   4.006   4.681   1.559
10255SOL    HW131664   3.978   4.621   1.484
10255SOL    HW231665   4.062   4.629   1.623
10256SOL     OW31666   1.962   0.758   4.668
10256SOL    HW131667   1.956   0.673   4.616
10256SOL    HW231668   1.875   0.806   4.663
10257SOL     OW31669   3.321   6.210   3.006
10257SOL    HW131670   3.252   6.148   3.044
10257SOL    HW231671   3.285   6.253   2.923
10258SOL     OW31672   3.370   1.762   2.560
10258SOL    HW131673   3.447   1.746   2.498
10258SOL    HW231674   3.402   1.809   2.642
10259SOL     OW31675   2.113   3.733   3.519
10259SOL    HW131676   2.025   3.686   3.519
10259SOL    HW231677   2.098   3.832   3.526
10260SOL     OW31678   0.133   0.537   3.832
10260SOL    HW131679   0.053   0.478   3.841
10260SOL    HW231680   0.211   0.495   3.880
10261SOL     OW31681   6.736   3.902   1.459
10261SOL    HW131682   6.645   3.869   1.433
10261SOL    HW231683   6.787   3.929   1.377
10262SOL     OW31684   4.635   0.822   6.693
10262SOL    HW131685   4.718   0.788   6.648
10262SOL    HW231686   4.632   0.786   6.786
10263SOL     OW31687   5.471   0.349   2.717
10263SOL    HW131688   5.374   0.325   2.722
10263SOL    HW231689   5.493   0.381   2.625
10264SOL     OW31690   6.828   1.088   5.742
10264SOL    HW131691   6.888   1.122   5.814
10264SOL    HW231692   6.831   0.988   5.742
10265SOL     OW31693   1.779   0.883   2.658
10265SOL    HW131694   1.871   0.843   2.662
10265SOL    HW231695   1.715   0.816   2.621
10266SOL     OW31696   2.802   3.820   1.663
10266SOL    HW131697   2.862   3.794   1.740
10266SOL    HW231698   2.779   3.917   1.671
10267SOL     OW31699   6.334   0.918   0.601
10267SOL    HW131700   6.358   0.998   0.658
10267SOL    HW231701   6.241   0.889   0.622
10268SOL     OW31702   3.555   5.827   2.557
10268SOL    HW131703   3.560   5.877   2.471
10268SOL    HW231704   3.470   5.774   2.561
10269SOL     OW31705   2.621   1.739   6.833
10269SOL    HW131706   2.610   1.748   6.932
10269SOL    HW231707   2.709   1.696   6.813
10270SOL     OW31708   2.527   0.455   3.635
10270SOL    HW131709   2.483   0.536   3.596
10270SOL    HW231710   2.583   0.482   3.713
10271SOL     OW31711   2.321   1.219   0.093
10271SOL    HW131712   2.293   1.306   0.134
10271SOL    HW231713   2.296   1.144   0.154
10272SOL     OW31714   5.985   6.710   5.224
10272SOL    HW131715   5.983   6.670   5.133
10272SOL    HW231716   5.968   6.640   5.293
10273SOL     OW31717   2.296   5.664   2.722
10273SOL    HW131718   2.245   5.647   2.638
10273SOL    HW231719   2.389   5.694   2.699
10274SOL     OW31720   0.693   4.289   5.430
10274SOL    HW131721   0.619   4.225   5.452
10274SOL    HW231722   0.701   4.296   5.331
10275SOL     OW31723   0.399   1.238   1.623
10275SOL    HW131724   0.394   1.145   1.585
10275SOL    HW231725   0.309   1.281   1.617
10276SOL     OW31726   3.439   4.698   5.431
10276SOL    HW131727   3.356   4.648   5.408
10276SOL    HW231728   3.519   4.642   5.412
10277SOL     OW31729   0.503   5.375   3.433
10277SOL    HW131730   0.603   5.362   3.429
10277SOL    HW231731   0.483   5.464   3.475
10278SOL     OW31732   5.967   0.264   3.769
10278SOL    HW131733   6.043   0.202   3.749
10278SOL    HW231734   5.911   0.225   3.842
10279SOL     OW31735   1.021   4.675   4.044
10279SOL    HW131736   1.115   4.707   4.034
10279SOL    HW231737   1.022   4.578   4.070
10280SOL     OW31738   6.115   6.074   0.580
10280SOL    HW131739   6.208   6.050   0.555
10280SOL    HW231740   6.080   6.143   0.516
10281SOL     OW31741   5.801   0.146   4.799
10281SOL    HW131742   5.736   0.178   4.730
10281SOL    HW231743   5.825   0.221   4.860
10282SOL     OW31744   5.211   2.354   3.060
10282SOL    HW131745   5.288   2.301   3.025
10282SOL    HW231746   5.245   2.433   3.110
10283SOL     OW31747   6.919   2.329   0.916
10283SOL    HW131748   7.001   2.346   0.971
10283SOL    HW231749   6.944   2.329   0.819
10284SOL     OW31750   1.328   5.218   5.194
10284SOL    HW131751   1.410   5.196   5.142
10284SOL    HW231752   1.247   5.186   5.144
10285SOL     OW31753   0.041   6.804   6.245
10285SOL    HW131754   6.977   6.801   6.190
10285SOL    HW231755   0.017   6.808   6.342
10286SOL     OW31756   3.093   0.877   1.423
10286SOL    HW131757   3.157   0.801   1.432
10286SOL    HW231758   3.004   0.851   1.459
10287SOL     OW31759   0.377   5.944   2.830
10287SOL    HW131760   0.421   5.893   2.905
10287SOL    HW231761   0.424   5.924   2.744
10288SOL     OW31762   4.015   6.210   4.439
10288SOL    HW131763   4.021   6.148   4.517
10288SOL    HW231764   4.106   6.249   4.421
10289SOL     OW31765   3.745   6.368   6.760
10289SOL    HW131766   3.672   6.434   6.741
10289SOL    HW231767   3.751   6.355   6.859
10290SOL     OW31768   3.646   3.277   2.525
10290SOL    HW131769   3.717   3.287   2.455
10290SOL    HW231770   3.590   3.359   2.527
10291SOL     OW31771   3.493   2.067   2.208
10291SOL    HW131772   3.460   1.990   2.153
10291SOL    HW231773   3.534   2.135   2.148
10292SOL     OW31774   0.323   0.562   5.695
10292SOL    HW131775   0.345   0.613   5.778
10292SOL    HW231776   0.398   0.501   5.672
10293SOL     OW31777   1.823   3.241   5.699
10293SOL    HW131778   1.882   3.318   5.725
10293SOL    HW231779   1.775   3.263   5.614
10294SOL     OW31780   1.104   0.130   1.691
10294SOL    HW131781   1.056   0.103   1.608
10294SOL    HW231782   1.040   0.126   1.769
10295SOL     OW31783   2.301   1.239   0.844
10295SOL    HW131784   2.399   1.259   0.849
10295SOL    HW231785   2.278   1.203   0.754
10296SOL     OW31786   6.923   3.189   5.048
10296SOL    HW131787   6.910   3.205   5.146
10296SOL    HW231788   6.949   3.275   5.004
10297SOL     OW31789   4.501   1.301   0.912
10297SOL    HW131790   4.561   1.365   0.864
10297SOL    HW231791   4.419   1.286   0.857
10298SOL     OW31792   1.391   1.077   2.046
10298SOL    HW131793   1.304   1.072   2.095
10298SOL    HW231794   1.397   1.003   1.980
10299SOL     OW31795   5.440   6.829   2.625
10299SOL    HW131796   5.381   6.748   2.630
10299SOL    HW231797   5.520   6.808   2.570
10300SOL     OW31798   1.125   3.295   0.683
10300SOL    HW131799   1.127   3.291   0.583
10300SOL    HW231800   1.218   3.310   0.717
10301SOL     OW31801   4.481   1.390   7.001
10301SOL    HW131802   4.519   1.467   0.033
10301SOL    HW231803   4.422   1.336   0.041
10302SOL     OW31804   3.106   5.886   5.766
10302SOL    HW131805   3.018   5.920   5.735
10302SOL    HW231806   3.174   5.896   5.693
10303SOL     OW31807   0.660   4.489   5.603
10303SOL    HW131808   0.714   4.454   5.679
10303SOL    HW231809   0.660   4.423   5.528
10304SOL     OW31810   4.890   5.131   0.716
10304SOL    HW131811   4.902   5.156   0.620
10304SOL    HW231812   4.878   5.032   0.724
10305SOL     OW31813   2.997   3.390   5.133
10305SOL    HW131814   3.023   3.294   5.124
10305SOL    HW231815   2.921   3.400   5.196
10306SOL     OW31816   3.722   1.051   1.691
10306SOL    HW131817   3.764   1.026   1.604
10306SOL    HW231818   3.792   1.087   1.752
10307SOL     OW31819   1.807   6.249   4.914
10307SOL    HW131820   1.793   6.177   4.845
10307SOL    HW231821   1.892   6.232   4.963
10308SOL     OW31822   2.547   4.628   1.915
10308SOL    HW131823   2.638   4.594   1.894
10308SOL    HW231824   2.482   4.552   1.914
10309SOL     OW31825   0.333   0.798   4.671
10309SOL    HW131826   0.351   0.837   4.581
10309SOL    HW231827   0.352   0.866   4.741
10310SOL     OW31828   2.939   4.012   6.239
10310SOL    HW131829   2.954   4.109   6.259
10310SOL    HW231830   3.027   3.966   6.230
10311SOL     OW31831   5.024   6.250   0.008
10311SOL    HW131832   5.031   6.314   0.084
10311SOL    HW231833   5.115   6.235   6.988
10312SOL     OW31834   2.531   6.926   1.690
10312SOL    HW131835   2.609   6.985   1.672
10312SOL    HW231836   2.446   6.975   1.671
10313SOL     OW31837   4.879   6.399   3.367
10313SOL    HW131838   4.788   6.366   3.394
10313SOL    HW231839   4.870   6.479   3.308
10314SOL     OW31840   0.606   6.720   0.680
10314SOL    HW131841   0.513   6.686   0.692
10314SOL    HW231842   0.622   6.739   0.583
10315SOL     OW31843   5.163   4.766   3.963
10315SOL    HW131844   5.209   4.801   4.045
10315SOL    HW231845   5.138   4.843   3.904
10316SOL     OW31846   1.291   1.899   0.221
10316SOL    HW131847   1.311   1.984   0.270
10316SOL    HW231848   1.376   1.858   0.189
10317SOL     OW31849   4.333   6.307   4.456
10317SOL    HW131850   4.343   6.215   4.416
10317SOL    HW231851   4.417   6.330   4.506
10318SOL     OW31852   5.958   0.032   6.887
10318SOL    HW131853   6.055   0.037   6.912
10318SOL    HW231854   5.941   0.088   6.806
10319SOL     OW31855   1.120   4.332   4.409
10319SOL    HW131856   1.153   4.312   4.502
10319SOL    HW231857   1.113   4.431   4.398
10320SOL     OW31858   6.632   6.662   3.169
10320SOL    HW131859   6.689   6.591   3.127
10320SOL    HW231860   6.624   6.740   3.107
10321SOL     OW31861   6.082   2.483   3.445
10321SOL    HW131862   6.055   2.527   3.530
10321SOL    HW231863   6.119   2.551   3.382
10322SOL     OW31864   4.549   4.530   4.771
10322SOL    HW131865   4.472   4.531   4.835
10322SOL    HW231866   4.565   4.623   4.737
10323SOL     OW31867   0.973   4.634   6.029
10323SOL    HW131868   0.980   4.564   6.099
10323SOL    HW231869   0.879   4.670   6.027
10324SOL     OW31870   3.223   3.511   2.683
10324SOL    HW131871   3.155   3.486   2.752
10324SOL    HW231872   3.291   3.572   2.724
10325SOL     OW31873   5.928   6.008   5.101
10325SOL    HW131874   5.844   6.062   5.098
10325SOL    HW231875   5.910   5.916   5.067
10326SOL     OW31876   5.022   3.961   6.704
10326SOL    HW131877   4.975   3.997   6.624
10326SOL    HW231878   5.120   3.962   6.688
10327SOL     OW31879   1.738   5.824   0.004
10327SOL    HW131880   1.670   5.766   0.049
10327SOL    HW231881   1.821   5.826   0.059
10328SOL     OW31882   6.392   2.197   3.032
10328SOL    HW131883   6.446   2.200   3.116
10328SOL    HW231884   6.300   2.231   3.049
10329SOL     OW31885   3.544   1.993   1.851
10329SOL    HW131886   3.584   2.073   1.897
10329SOL    HW231887   3.617   1.942   1.805
10330SOL     OW31888   5.027   6.469   2.049
10330SOL    HW131889   5.034   6.450   1.951
10330SOL    HW231890   5.020   6.382   2.099
10331SOL     OW31891   5.064   5.805   5.453
10331SOL    HW131892   5.095   5.840   5.365
10331SOL    HW231893   5.143   5.777   5.507
10332SOL     OW31894   2.478   1.355   6.422
10332SOL    HW131895   2.444   1.282   6.363
10332SOL    HW231896   2.531   1.420   6.367
10333SOL     OW31897   1.642   3.722   4.011
10333SOL    HW131898   1.593   3.727   4.098
10333SOL    HW231899   1.604   3.648   3.955
10334SOL     OW31900   3.571   1.615   4.113
10334SOL    HW131901   3.557   1.682   4.185
10334SOL    HW231902   3.585   1.524   4.154
10335SOL     OW31903   1.903   3.797   3.981
10335SOL    HW131904   1.806   3.777   3.964
10335SOL    HW231905   1.959   3.745   3.917
10336SOL     OW31906   5.812   6.527   3.171
10336SOL    HW131907   5.817   6.493   3.078
10336SOL    HW231908   5.903   6.526   3.212
10337SOL     OW31909   5.802   6.640   6.728
10337SOL    HW131910   5.784   6.723   6.674
10337SOL    HW231911   5.878   6.658   6.791
10338SOL     OW31912   0.338   5.979   1.678
10338SOL    HW131913   0.289   5.992   1.764
10338SOL    HW231914   0.287   6.023   1.604
10339SOL     OW31915   5.207   2.629   6.105
10339SOL    HW131916   5.258   2.611   6.021
10339SOL    HW231917   5.110   2.610   6.090
10340SOL     OW31918   3.349   3.382   6.360
10340SOL    HW131919   3.358   3.481   6.347
10340SOL    HW231920   3.357   3.360   6.458
10341SOL     OW31921   3.686   5.174   3.088
10341SOL    HW131922   3.783   5.193   3.100
10341SOL    HW231923   3.669   5.076   3.099
10342SOL     OW31924   0.949   1.610   3.871
10342SOL    HW131925   0.887   1.580   3.943
10342SOL    HW231926   0.903   1.605   3.783
10343SOL     OW31927   4.206   5.441   1.483
10343SOL    HW131928   4.253   5.513   1.535
10343SOL    HW231929   4.198   5.359   1.540
10344SOL     OW31930   4.903   6.758   6.788
10344SOL    HW131931   4.890   6.699   6.708
10344SOL    HW231932   4.821   6.756   6.844
10345SOL     OW31933   1.076   4.300   5.035
10345SOL    HW131934   1.125   4.224   5.077
10345SOL    HW231935   1.048   4.365   5.105
10346SOL     OW31936   0.573   5.256   0.536
10346SOL    HW131937   0.585   5.352   0.563
10346SOL    HW231938   0.483   5.244   0.495
10347SOL     OW31939   0.200   2.025   5.272
10347SOL    HW131940   0.291   1.990   5.295
10347SOL    HW231941   0.207   2.120   5.243
10348SOL     OW31942   0.354   5.100   1.191
10348SOL    HW131943   0.311   5.190   1.182
10348SOL    HW231944   0.407   5.097   1.276
10349SOL     OW31945   6.713   0.155   6.556
10349SOL    HW131946   6.804   0.116   6.542
10349SOL    HW231947   6.645   0.082   6.550
10350SOL     OW31948   4.142   0.345   6.526
10350SOL    HW131949   4.061   0.286   6.525
10350SOL    HW231950   4.117   0.436   6.492
10351SOL     OW31951   4.587   5.813   6.134
10351SOL    HW131952   4.498   5.850   6.159
10351SOL    HW231953   4.659   5.865   6.181
10352SOL     OW31954   4.596   5.193   6.120
10352SOL    HW131955   4.631   5.143   6.198
10352SOL    HW231956   4.505   5.159   6.096
10353SOL     OW31957   0.396   3.718   4.624
10353SOL    HW131958   0.468   3.699   4.691
10353SOL    HW231959   0.371   3.814   4.629
10354SOL     OW31960   5.316   1.127   0.928
10354SOL    HW131961   5.294   1.138   0.831
10354SOL    HW231962   5.396   1.069   0.938
10355SOL     OW31963   0.993   4.784   3.079
10355SOL    HW131964   1.015   4.690   3.053
10355SOL    HW231965   0.897   4.804   3.055
10356SOL     OW31966   0.495   3.263   4.862
10356SOL    HW131967   0.540   3.343   4.821
10356SOL    HW231968   0.439   3.217   4.793
10357SOL     OW31969   3.074   3.110   6.099
10357SOL    HW131970   3.128   3.194   6.102
10357SOL    HW231971   2.996   3.118   6.161
10358SOL     OW31972   0.867   0.708   2.245
10358SOL    HW131973   0.792   0.766   2.277
10358SOL    HW231974   0.830   0.626   2.202
10359SOL     OW31975   1.428   1.899   0.584
10359SOL    HW131976   1.350   1.842   0.555
10359SOL    HW231977   1.403   1.995   0.579
10360SOL     OW31978   0.600   4.315   4.168
10360SOL    HW131979   0.628   4.389   4.106
10360SOL    HW231980   0.638   4.229   4.136
10361SOL     OW31981   2.846   5.552   0.278
10361SOL    HW131982   2.919   5.558   0.210
10361SOL    HW231983   2.868   5.481   0.345
10362SOL     OW31984   1.023   4.812   5.599
10362SOL    HW131985   0.951   4.838   5.663
10362SOL    HW231986   1.068   4.895   5.564
10363SOL     OW31987   5.277   0.491   4.683
10363SOL    HW131988   5.196   0.480   4.626
10363SOL    HW231989   5.274   0.580   4.729
10364SOL     OW31990   1.146   3.749   0.814
10364SOL    HW131991   1.194   3.707   0.891
10364SOL    HW231992   1.195   3.731   0.729
10365SOL     OW31993   5.626   4.879   6.872
10365SOL    HW131994   5.627   4.843   6.966
10365SOL    HW231995   5.539   4.924   6.854
10366SOL     OW31996   4.562   6.897   3.573
10366SOL    HW131997   4.567   6.979   3.629
10366SOL    HW231998   4.654   6.858   3.564
10367SOL     OW31999   6.469   1.471   3.272
10367SOL    HW132000   6.459   1.570   3.276
10367SOL    HW232001   6.380   1.428   3.292
10368SOL     OW32002   2.404   0.092   1.185
10368SOL    HW132003   2.487   0.099   1.130
10368SOL    HW232004   2.342   0.026   1.143
10369SOL     OW32005   5.210   2.931   6.545
10369SOL    HW132006   5.219   2.878   6.460
10369SOL    HW232007   5.165   3.018   6.525
10370SOL     OW32008   2.361   0.554   4.590
10370SOL    HW132009   2.274   0.540   4.544
10370SOL    HW232010   2.359   0.509   4.680
10371SOL     OW32011   4.889   6.728   5.756
10371SOL    HW132012   4.845   6.740   5.667
10371SOL    HW232013   4.820   6.702   5.823
10372SOL     OW32014   0.258   0.918   4.211
10372SOL    HW132015   0.168   0.955   4.234
10372SOL    HW232016   0.274   0.928   4.112
10373SOL     OW32017   1.350   6.308   5.254
10373SOL    HW132018   1.325   6.310   5.157
10373SOL    HW232019   1.340   6.399   5.293
10374SOL     OW32020   3.621   1.356   3.243
10374SOL    HW132021   3.582   1.335   3.154
10374SOL    HW232022   3.550   1.353   3.313
10375SOL     OW32023   6.760   2.381   1.230
10375SOL    HW132024   6.813   2.352   1.150
10375SOL    HW232025   6.782   2.322   1.307
10376SOL     OW32026   5.835   0.386   3.561
10376SOL    HW132027   5.860   0.328   3.639
10376SOL    HW232028   5.758   0.346   3.513
10377SOL     OW32029   6.719   6.673   3.439
10377SOL    HW132030   6.793   6.612   3.465
10377SOL    HW232031   6.693   6.657   3.344
10378SOL     OW32032   6.303   6.754   5.653
10378SOL    HW132033   6.300   6.665   5.698
10378SOL    HW232034   6.247   6.752   5.570
10379SOL     OW32035   4.536   1.294   4.806
10379SOL    HW132036   4.507   1.198   4.805
10379SOL    HW232037   4.624   1.303   4.759
10380SOL     OW32038   3.541   0.818   4.405
10380SOL    HW132039   3.600   0.872   4.346
10380SOL    HW232040   3.583   0.809   4.496
10381SOL     OW32041   3.109   5.428   5.196
10381SOL    HW132042   3.089   5.330   5.189
10381SOL    HW232043   3.193   5.441   5.249
10382SOL     OW32044   0.184   4.937   1.311
10382SOL    HW132045   0.225   4.923   1.401
10382SOL    HW232046   0.247   4.990   1.253
10383SOL     OW32047   5.463   3.427   1.253
10383SOL    HW132048   5.428   3.424   1.347
10383SOL    HW232049   5.395   3.386   1.191
10384SOL     OW32050   5.010   1.471   6.663
10384SOL    HW132051   5.090   1.412   6.654
10384SOL    HW232052   4.927   1.417   6.648
10385SOL     OW32053   6.387   3.014   6.456
10385SOL    HW132054   6.347   3.099   6.491
10385SOL    HW232055   6.461   2.985   6.517
10386SOL     OW32056   0.125   1.475   6.087
10386SOL    HW132057   0.168   1.530   6.159
10386SOL    HW232058   0.135   1.522   5.999
10387SOL     OW32059   1.531   3.925   2.929
10387SOL    HW132060   1.577   3.849   2.884
10387SOL    HW232061   1.467   3.889   2.997
10388SOL     OW32062   1.532   4.593   2.258
10388SOL    HW132063   1.464   4.605   2.186
10388SOL    HW232064   1.606   4.659   2.245
10389SOL     OW32065   1.812   5.624   3.144
10389SOL    HW132066   1.748   5.558   3.183
10389SOL    HW232067   1.768   5.671   3.067
10390SOL     OW32068   1.952   3.146   3.425
10390SOL    HW132069   1.886   3.222   3.430
10390SOL    HW232070   2.008   3.156   3.343
10391SOL     OW32071   3.429   5.290   4.295
10391SOL    HW132072   3.481   5.265   4.376
10391SOL    HW232073   3.332   5.293   4.317
10392SOL     OW32074   0.156   5.600   6.336
10392SOL    HW132075   0.200   5.637   6.418
10392SOL    HW232076   0.057   5.604   6.346
10393SOL     OW32077   1.534   1.643   4.337
10393SOL    HW132078   1.500   1.645   4.243
10393SOL    HW232079   1.573   1.552   4.356
10394SOL     OW32080   3.294   6.607   0.881
10394SOL    HW132081   3.211   6.643   0.924
10394SOL    HW232082   3.374   6.653   0.919
10395SOL     OW32083   1.146   0.047   3.364
10395SOL    HW132084   1.061   0.090   3.395
10395SOL    HW232085   1.178   7.003   3.434
10396SOL     OW32086   0.377   0.963   4.465
10396SOL    HW132087   0.408   1.056   4.443
10396SOL    HW232088   0.327   0.925   4.387
10397SOL     OW32089   4.657   2.765   2.669
10397SOL    HW132090   4.602   2.788   2.589
10397SOL    HW232091   4.732   2.830   2.677
10398SOL     OW32092   0.325   2.295   2.308
10398SOL    HW132093   0.341   2.262   2.401
10398SOL    HW232094   0.230   2.325   2.300
10399SOL     OW32095   6.927   2.748   5.920
10399SOL    HW132096   6.855   2.734   5.988
10399SOL    HW232097   6.995   2.811   5.956
10400SOL     OW32098   1.934   5.222   2.355
10400SOL    HW132099   1.870   5.244   2.428
10400SOL    HW232100   2.012   5.171   2.392
10401SOL     OW32101   1.068   5.911   1.140
10401SOL    HW132102   1.043   5.980   1.208
10401SOL    HW232103   1.168   5.902   1.137
10402SOL     OW32104   1.281   2.295   4.682
10402SOL    HW132105   1.186   2.268   4.668
10402SOL    HW232106   1.286   2.395   4.692
10403SOL     OW32107   5.353   1.269   3.580
10403SOL    HW132108   5.350   1.368   3.568
10403SOL    HW232109   5.446   1.237   3.566
10404SOL     OW32110   6.478   0.231   4.657
10404SOL    HW132111   6.477   0.319   4.609
10404SOL    HW232112   6.531   0.164   4.605
10405SOL     OW32113   3.593   7.000   6.050
10405SOL    HW132114   3.497   6.987   6.074
10405SOL    HW232115   3.642   6.914   6.060
10406SOL     OW32116   1.016   6.221   4.936
10406SOL    HW132117   1.068   6.243   5.018
10406SOL    HW232118   0.924   6.191   4.962
10407SOL     OW32119   3.491   0.598   0.189
10407SOL    HW132120   3.444   0.534   0.249
10407SOL    HW232121   3.512   0.682   0.239
10408SOL     OW32122   3.092   0.541   2.591
10408SOL    HW132123   3.063   0.511   2.682
10408SOL    HW232124   3.164   0.609   2.599
10409SOL     OW32125   0.238   4.614   2.087
10409SOL    HW132126   0.166   4.684   2.084
10409SOL    HW232127   0.260   4.593   2.182
10410SOL     OW32128   5.547   5.578   0.454
10410SOL    HW132129   5.633   5.628   0.446
10410SOL    HW232130   5.530   5.555   0.549
10411SOL     OW32131   2.158   4.963   2.149
10411SOL    HW132132   2.077   5.011   2.115
10411SOL    HW232133   2.230   4.967   2.079
10412SOL     OW32134   1.114   3.899   6.196
10412SOL    HW132135   1.140   3.993   6.216
10412SOL    HW232136   1.172   3.863   6.123
10413SOL     OW32137   6.749   0.984   5.115
10413SOL    HW132138   6.691   1.011   5.192
10413SOL    HW232139   6.758   1.060   5.052
10414SOL     OW32140   5.553   5.340   5.306
10414SOL    HW132141   5.497   5.352   5.224
10414SOL    HW232142   5.534   5.415   5.370
10415SOL     OW32143   6.995   4.563   2.879
10415SOL    HW132144   7.018   4.637   2.816
10415SOL    HW232145   6.909   4.521   2.853
10416SOL     OW32146   5.067   0.681   0.282
10416SOL    HW132147   5.001   0.756   0.278
10416SOL    HW232148   5.149   0.706   0.230
10417SOL     OW32149   5.112   4.569   4.431
10417SOL    HW132150   5.013   4.556   4.439
10417SOL    HW232151   5.132   4.613   4.343
10418SOL     OW32152   6.023   2.847   0.207
10418SOL    HW132153   5.965   2.849   0.126
10418SOL    HW232154   5.967   2.861   0.289
10419SOL     OW32155   0.883   6.972   4.699
10419SOL    HW132156   0.785   6.958   4.684
10419SOL    HW232157   0.896   0.004   4.784
10420SOL     OW32158   6.257   4.091   3.956
10420SOL    HW132159   6.253   4.167   3.891
10420SOL    HW232160   6.285   4.126   4.046
10421SOL     OW32161   0.446   3.518   4.005
10421SOL    HW132162   0.478   3.608   3.977
10421SOL    HW232163   0.346   3.516   4.006
10422SOL     OW32164   5.683   3.417   5.995
10422SOL    HW132165   5.644   3.356   6.064
10422SOL    HW232166   5.758   3.370   5.949
10423SOL     OW32167   2.815   5.779   1.481
10423SOL    HW132168   2.785   5.825   1.564
10423SOL    HW232169   2.758   5.699   1.465
10424SOL     OW32170   4.999   0.662   2.868
10424SOL    HW132171   4.998   0.579   2.811
10424SOL    HW232172   4.974   0.638   2.962
10425SOL     OW32173   0.372   4.745   1.082
10425SOL    HW132174   0.449   4.683   1.066
10425SOL    HW232175   0.362   4.763   1.180
10426SOL     OW32176   6.645   2.548   6.939
10426SOL    HW132177   6.709   2.612   6.898
10426SOL    HW232178   6.552   2.569   6.907
10427SOL     OW32179   6.152   0.650   3.243
10427SOL    HW132180   6.130   0.581   3.312
10427SOL    HW232181   6.113   0.738   3.270
10428SOL     OW32182   1.624   0.581   4.981
10428SOL    HW132183   1.677   0.613   5.059
10428SOL    HW232184   1.567   0.504   5.008
10429SOL     OW32185   2.090   5.266   1.924
10429SOL    HW132186   2.100   5.188   1.862
10429SOL    HW232187   2.039   5.339   1.879
10430SOL     OW32188   3.557   1.658   4.759
10430SOL    HW132189   3.466   1.685   4.790
10430SOL    HW232190   3.613   1.635   4.839
10431SOL     OW32191   4.757   2.115   3.847
10431SOL    HW132192   4.774   2.138   3.751
10431SOL    HW232193   4.659   2.116   3.865
10432SOL     OW32194   1.755   4.224   1.249
10432SOL    HW132195   1.748   4.276   1.334
10432SOL    HW232196   1.815   4.272   1.185
10433SOL     OW32197   3.366   6.623   3.732
10433SOL    HW132198   3.292   6.687   3.752
10433SOL    HW232199   3.382   6.564   3.812
10434SOL     OW32200   4.497   1.832   0.626
10434SOL    HW132201   4.473   1.739   0.654
10434SOL    HW232202   4.500   1.837   0.526
10435SOL     OW32203   2.593   1.291   1.411
10435SOL    HW132204   2.599   1.204   1.459
10435SOL    HW232205   2.591   1.275   1.312
10436SOL     OW32206   1.432   4.062   5.199
10436SOL    HW132207   1.457   4.070   5.102
10436SOL    HW232208   1.510   4.089   5.256
10437SOL     OW32209   6.711   7.005   5.204
10437SOL    HW132210   6.775   6.982   5.276
10437SOL    HW232211   6.706   0.085   5.194
10438SOL     OW32212   6.714   6.099   6.845
10438SOL    HW132213   6.783   6.163   6.811
10438SOL    HW232214   6.757   6.011   6.864
10439SOL     OW32215   5.804   5.149   5.609
10439SOL    HW132216   5.840   5.074   5.554
10439SOL    HW232217   5.862   5.161   5.691
10440SOL     OW32218   5.485   2.365   2.029
10440SOL    HW132219   5.495   2.311   2.113
10440SOL    HW232220   5.519   2.312   1.951
10441SOL     OW32221   5.273   1.837   5.784
10441SOL    HW132222   5.333   1.785   5.844
10441SOL    HW232223   5.222   1.775   5.725
10442SOL     OW32224   2.881   0.585   5.968
10442SOL    HW132225   2.923   0.566   6.057
10442SOL    HW232226   2.938   0.549   5.895
10443SOL     OW32227   0.939   1.276   6.648
10443SOL    HW132228   0.971   1.207   6.712
10443SOL    HW232229   0.889   1.347   6.699
10444SOL     OW32230   4.453   5.614   3.540
10444SOL    HW132231   4.549   5.587   3.554
10444SOL    HW232232   4.450   5.699   3.487
10445SOL     OW32233   1.609   3.051   3.808
10445SOL    HW132234   1.557   2.982   3.858
10445SOL    HW232235   1.644   3.011   3.723
10446SOL     OW32236   3.026   4.736   5.326
10446SOL    HW132237   2.957   4.798   5.364
10446SOL    HW232238   2.983   4.677   5.258
10447SOL     OW32239   1.625   2.386   3.032
10447SOL    HW132240   1.621   2.468   2.976
10447SOL    HW232241   1.587   2.406   3.123
10448SOL     OW32242   0.483   5.099   1.684
10448SOL    HW132243   0.567   5.054   1.713
10448SOL    HW232244   0.409   5.033   1.680
10449SOL     OW32245   3.998   5.503   4.208
10449SOL    HW132246   4.024   5.599   4.221
10449SOL    HW232247   3.973   5.489   4.112
10450SOL     OW32248   0.697   2.535   4.454
10450SOL    HW132249   0.647   2.468   4.508
10450SOL    HW232250   0.653   2.545   4.364
10451SOL     OW32251   2.099   2.162   5.061
10451SOL    HW132252   2.031   2.217   5.012
10451SOL    HW232253   2.114   2.202   5.151
10452SOL     OW32254   0.134   2.969   4.519
10452SOL    HW132255   0.194   2.960   4.600
10452SOL    HW232256   0.151   2.892   4.457
10453SOL     OW32257   3.244   5.566   4.003
10453SOL    HW132258   3.145   5.555   3.999
10453SOL    HW232259   3.269   5.653   3.960
10454SOL     OW32260   6.712   2.173   6.943
10454SOL    HW132261   6.639   2.236   6.968
10454SOL    HW232262   6.798   2.204   6.984
10455SOL     OW32263   0.791   6.065   2.837
10455SOL    HW132264   0.872   6.069   2.778
10455SOL    HW232265   0.748   5.975   2.829
10456SOL     OW32266   1.136   5.921   6.011
10456SOL    HW132267   1.161   5.829   5.982
10456SOL    HW232268   1.210   5.961   6.065
10457SOL     OW32269   4.502   1.688   1.109
10457SOL    HW132270   4.519   1.596   1.144
10457SOL    HW232271   4.409   1.694   1.072
10458SOL     OW32272   2.025   6.900   6.975
10458SOL    HW132273   2.111   6.852   6.961
10458SOL    HW232274   2.030   6.991   6.933
10459SOL     OW32275   5.528   6.005   1.138
10459SOL    HW132276   5.454   5.973   1.079
10459SOL    HW232277   5.489   6.055   1.215
10460SOL     OW32278   6.364   1.268   6.899
10460SOL    HW132279   6.302   1.190   6.899
10460SOL    HW232280   6.311   1.353   6.901
10461SOL     OW32281   6.621   4.015   5.881
10461SOL    HW132282   6.658   3.967   5.801
10461SOL    HW232283   6.692   4.021   5.951
10462SOL     OW32284   4.627   3.896   0.222
10462SOL    HW132285   4.553   3.855   0.276
10462SOL    HW232286   4.635   3.993   0.246
10463SOL     OW32287   4.562   2.686   5.236
10463SOL    HW132288   4.643   2.732   5.274
10463SOL    HW232289   4.482   2.745   5.247
10464SOL     OW32290   6.020   4.992   1.819
10464SOL    HW132291   6.048   4.914   1.874
10464SOL    HW232292   6.037   4.973   1.722
10465SOL     OW32293   5.170   3.843   0.520
10465SOL    HW132294   5.224   3.926   0.509
10465SOL    HW232295   5.221   3.764   0.486
10466SOL     OW32296   6.283   3.793   5.455
10466SOL    HW132297   6.383   3.795   5.452
10466SOL    HW232298   6.251   3.833   5.540
10467SOL     OW32299   0.326   3.771   6.820
10467SOL    HW132300   0.348   3.675   6.839
10467SOL    HW232301   0.241   3.776   6.767
10468SOL     OW32302   1.677   4.357   3.714
10468SOL    HW132303   1.777   4.364   3.714
10468SOL    HW232304   1.638   4.449   3.725
10469SOL     OW32305   1.449   0.502   4.287
10469SOL    HW132306   1.468   0.416   4.335
10469SOL    HW232307   1.364   0.541   4.323
10470SOL     OW32308   2.533   4.272   1.756
10470SOL    HW132309   2.528   4.296   1.659
10470SOL    HW232310   2.485   4.342   1.810
10471SOL     OW32311   1.715   4.562   6.129
10471SOL    HW132312   1.636   4.598   6.080
10471SOL    HW232313   1.689   4.480   6.180
10472SOL     OW32314   4.293   5.348   6.097
10472SOL    HW132315   4.295   5.263   6.043
10472SOL    HW232316   4.279   5.425   6.036
10473SOL     OW32317   6.271   5.916   0.233
10473SOL    HW132318   6.336   5.976   0.185
10473SOL    HW232319   6.281   5.930   0.332
10474SOL     OW32320   5.846   5.519   4.995
10474SOL    HW132321   5.753   5.489   4.974
10474SOL    HW232322   5.893   5.447   5.047
10475SOL     OW32323   6.531   6.195   1.565
10475SOL    HW132324   6.547   6.237   1.654
10475SOL    HW232325   6.562   6.256   1.493
10476SOL     OW32326   5.236   6.347   1.149
10476SOL    HW132327   5.225   6.447   1.153
10476SOL    HW232328   5.146   6.304   1.150
10477SOL     OW32329   0.244   5.823   3.187
10477SOL    HW132330   0.232   5.920   3.167
10477SOL    HW232331   0.163   5.788   3.234
10478SOL     OW32332   0.027   1.483   0.363
10478SOL    HW132333   0.121   1.452   0.368
10478SOL    HW232334   0.003   1.530   0.448
10479SOL     OW32335   0.328   4.749   2.604
10479SOL    HW132336   0.393   4.680   2.636
10479SOL    HW232337   0.375   4.813   2.544
10480SOL     OW32338   2.786   1.379   3.678
10480SOL    HW132339   2.687   1.386   3.690
10480SOL    HW232340   2.820   1.299   3.728
10481SOL     OW32341   5.722   0.612   2.046
10481SOL    HW132342   5.766   0.701   2.053
10481SOL    HW232343   5.704   0.590   1.950
10482SOL     OW32344   4.637   4.385   4.533
10482SOL    HW132345   4.593   4.408   4.620
10482SOL    HW232346   4.665   4.289   4.535
10483SOL     OW32347   6.042   1.308   6.569
10483SOL    HW132348   6.088   1.387   6.528
10483SOL    HW232349   6.024   1.240   6.499
10484SOL     OW32350   5.746   0.373   1.652
10484SOL    HW132351   5.828   0.407   1.697
10484SOL    HW232352   5.709   0.443   1.592
10485SOL     OW32353   5.747   3.434   5.528
10485SOL    HW132354   5.712   3.394   5.613
10485SOL    HW232355   5.701   3.522   5.512
10486SOL     OW32356   6.474   2.700   2.935
10486SOL    HW132357   6.523   2.692   2.848
10486SOL    HW232358   6.507   2.630   2.999
10487SOL     OW32359   3.991   0.057   2.390
10487SOL    HW132360   4.060   0.128   2.403
10487SOL    HW232361   3.934   0.080   2.312
10488SOL     OW32362   4.048   3.639   0.087
10488SOL    HW132363   3.981   3.611   0.157
10488SOL    HW232364   4.074   3.734   0.103
10489SOL     OW32365   1.300   5.497   5.242
10489SOL    HW132366   1.384   5.545   5.265
10489SOL    HW232367   1.316   5.399   5.243
10490SOL     OW32368   5.791   6.954   4.457
10490SOL    HW132369   5.860   6.895   4.414
10490SOL    HW232370   5.707   6.952   4.403
10491SOL     OW32371   0.013   5.766   4.890
10491SOL    HW132372   6.999   5.859   4.880
10491SOL    HW232373   0.068   5.759   4.974
10492SOL     OW32374   4.635   3.909   5.815
10492SOL    HW132375   4.686   3.828   5.787
10492SOL    HW232376   4.546   3.911   5.770
10493SOL     OW32377   3.487   0.999   0.180
10493SOL    HW132378   3.522   1.015   0.272
10493SOL    HW232379   3.562   0.965   0.122
10494SOL     OW32380   5.454   1.588   5.297
10494SOL    HW132381   5.459   1.686   5.275
10494SOL    HW232382   5.472   1.535   5.215
10495SOL     OW32383   0.825   0.835   0.052
10495SOL    HW132384   0.832   0.736   0.058
10495SOL    HW232385   0.785   0.861   6.984
10496SOL     OW32386   0.394   0.123   5.515
10496SOL    HW132387   0.371   0.116   5.418
10496SOL    HW232388   0.461   0.052   5.538
10497SOL     OW32389   2.561   0.781   6.445
10497SOL    HW132390   2.580   0.682   6.448
10497SOL    HW232391   2.566   0.818   6.538
10498SOL     OW32392   2.792   5.276   5.694
10498SOL    HW132393   2.805   5.242   5.787
10498SOL    HW232394   2.712   5.335   5.690
10499SOL     OW32395   3.388   6.487   2.374
10499SOL    HW132396   3.330   6.425   2.426
10499SOL    HW232397   3.438   6.546   2.438
10500SOL     OW32398   2.088   1.238   6.710
10500SOL    HW132399   2.022   1.298   6.755
10500SOL    HW232400   2.173   1.288   6.694
10501SOL     OW32401   1.660   3.467   3.063
10501SOL    HW132402   1.734   3.443   3.125
10501SOL    HW232403   1.692   3.460   2.969
10502SOL     OW32404   3.276   6.594   4.956
10502SOL    HW132405   3.197   6.597   4.895
10502SOL    HW232406   3.355   6.632   4.910
10503SOL     OW32407   2.474   3.509   6.882
10503SOL    HW132408   2.513   3.417   6.881
10503SOL    HW232409   2.438   3.529   6.974
10504SOL     OW32410   1.727   2.813   0.393
10504SOL    HW132411   1.796   2.741   0.397
10504SOL    HW232412   1.729   2.867   0.477
10505SOL     OW32413   0.739   5.041   0.463
10505SOL    HW132414   0.781   5.015   0.550
10505SOL    HW232415   0.666   5.107   0.479
10506SOL     OW32416   6.713   5.854   6.288
10506SOL    HW132417   6.752   5.852   6.380
10506SOL    HW232418   6.616   5.829   6.293
10507SOL     OW32419   3.344   0.588   3.922
10507SOL    HW132420   3.336   0.496   3.886
10507SOL    HW232421   3.278   0.600   3.997
10508SOL     OW32422   5.229   5.611   3.254
10508SOL    HW132423   5.312   5.667   3.253
10508SOL    HW232424   5.152   5.665   3.287
10509SOL     OW32425   1.904   1.246   5.258
10509SOL    HW132426   1.868   1.192   5.182
10509SOL    HW232427   1.911   1.342   5.230
10510SOL     OW32428   5.647   0.773   6.188
10510SOL    HW132429   5.593   0.790   6.106
10510SOL    HW232430   5.598   0.711   6.249
10511SOL     OW32431   6.870   2.825   2.118
10511SOL    HW132432   6.947   2.773   2.082
10511SOL    HW232433   6.847   2.899   2.055
10512SOL     OW32434   2.259   6.765   6.906
10512SOL    HW132435   2.321   6.692   6.936
10512SOL    HW232436   2.306   6.823   6.839
10513SOL     OW32437   6.737   2.652   1.317
10513SOL    HW132438   6.744   2.666   1.416
10513SOL    HW232439   6.743   2.555   1.296
10514SOL     OW32440   1.970   2.654   1.553
10514SOL    HW132441   1.927   2.741   1.575
10514SOL    HW232442   2.027   2.625   1.630
10515SOL     OW32443   7.011   3.864   4.859
10515SOL    HW132444   0.031   3.772   4.863
10515SOL    HW232445   0.062   3.932   4.880
10516SOL     OW32446   2.669   6.632   0.112
10516SOL    HW132447   2.711   6.717   0.143
10516SOL    HW232448   2.640   6.641   0.017
10517SOL     OW32449   0.566   2.214   3.676
10517SOL    HW132450   0.545   2.280   3.604
10517SOL    HW232451   0.575   2.261   3.763
10518SOL     OW32452   0.930   6.320   3.090
10518SOL    HW132453   0.947   6.221   3.094
10518SOL    HW232454   0.927   6.357   3.183
10519SOL     OW32455   3.391   3.420   5.038
10519SOL    HW132456   3.351   3.510   5.023
10519SOL    HW232457   3.460   3.425   5.109
10520SOL     OW32458   2.719   4.940   6.642
10520SOL    HW132459   2.706   4.974   6.549
10520SOL    HW232460   2.639   4.964   6.697
10521SOL     OW32461   6.516   5.626   2.050
10521SOL    HW132462   6.443   5.596   1.989
10521SOL    HW232463   6.577   5.549   2.069
10522SOL     OW32464   5.785   6.689   2.748
10522SOL    HW132465   5.738   6.690   2.660
10522SOL    HW232466   5.795   6.782   2.782
10523SOL     OW32467   5.705   6.148   6.438
10523SOL    HW132468   5.731   6.054   6.415
10523SOL    HW232469   5.698   6.158   6.537
10524SOL     OW32470   5.049   1.371   4.739
10524SOL    HW132471   5.139   1.414   4.733
10524SOL    HW232472   5.036   1.334   4.831
10525SOL     OW32473   1.833   0.242   5.198
10525SOL    HW132474   1.762   0.179   5.227
10525SOL    HW232475   1.895   0.261   5.274
10526SOL     OW32476   4.366   4.943   2.429
10526SOL    HW132477   4.346   4.856   2.474
10526SOL    HW232478   4.312   4.950   2.344
10527SOL     OW32479   1.990   2.793   4.098
10527SOL    HW132480   1.942   2.859   4.039
10527SOL    HW232481   1.923   2.733   4.142
10528SOL     OW32482   5.629   4.092   6.573
10528SOL    HW132483   5.665   4.004   6.605
10528SOL    HW232484   5.581   4.079   6.487
10529SOL     OW32485   6.883   5.734   5.341
10529SOL    HW132486   6.912   5.808   5.402
10529SOL    HW232487   6.964   5.687   5.304
10530SOL     OW32488   1.229   1.303   4.843
10530SOL    HW132489   1.228   1.372   4.771
10530SOL    HW232490   1.183   1.220   4.810
10531SOL     OW32491   3.231   2.163   4.454
10531SOL    HW132492   3.309   2.211   4.492
10531SOL    HW232493   3.231   2.171   4.354
10532SOL     OW32494   3.208   3.567   4.371
10532SOL    HW132495   3.233   3.620   4.452
10532SOL    HW232496   3.265   3.596   4.294
10533SOL     OW32497   3.211   1.151   6.283
10533SOL    HW132498   3.297   1.138   6.234
10533SOL    HW232499   3.212   1.097   6.367
10534SOL     OW32500   5.819   4.131   2.236
10534SOL    HW132501   5.776   4.216   2.207
10534SOL    HW232502   5.881   4.148   2.312
10535SOL     OW32503   6.682   1.347   1.564
10535SOL    HW132504   6.699   1.446   1.565
10535SOL    HW232505   6.723   1.307   1.482
10536SOL     OW32506   5.814   5.909   2.663
10536SOL    HW132507   5.748   5.957   2.606
10536SOL    HW232508   5.858   5.837   2.610
10537SOL     OW32509   6.327   5.358   1.216
10537SOL    HW132510   6.421   5.326   1.205
10537SOL    HW232511   6.326   5.458   1.216
10538SOL     OW32512   4.333   3.504   6.507
10538SOL    HW132513   4.293   3.462   6.589
10538SOL    HW232514   4.400   3.573   6.534
10539SOL     OW32515   1.536   3.071   5.125
10539SOL    HW132516   1.591   3.006   5.073
10539SOL    HW232517   1.512   3.032   5.214
10540SOL     OW32518   3.404   1.051   0.940
10540SOL    HW132519   3.368   1.133   0.895
10540SOL    HW232520   3.498   1.035   0.908
10541SOL     OW32521   3.222   2.684   1.747
10541SOL    HW132522   3.297   2.701   1.683
10541SOL    HW232523   3.213   2.586   1.762
10542SOL     OW32524   1.973   2.614   0.148
10542SOL    HW132525   1.950   2.530   0.198
10542SOL    HW232526   1.989   2.593   0.052
10543SOL     OW32527   2.824   0.397   4.207
10543SOL    HW132528   2.920   0.401   4.235
10543SOL    HW232529   2.808   0.312   4.156
10544SOL     OW32530   0.296   1.777   1.349
10544SOL    HW132531   0.203   1.812   1.365
10544SOL    HW232532   0.337   1.825   1.272
10545SOL     OW32533   3.584   0.690   3.220
10545SOL    HW132534   3.611   0.663   3.313
10545SOL    HW232535   3.496   0.648   3.198
10546SOL     OW32536   4.563   1.035   4.798
10546SOL    HW132537   4.654   1.058   4.831
10546SOL    HW232538   4.567   0.952   4.743
10547SOL     OW32539   4.504   5.825   2.175
10547SOL    HW132540   4.482   5.733   2.208
10547SOL    HW232541   4.597   5.848   2.202
10548SOL     OW32542   4.677   4.193   5.813
10548SOL    HW132543   4.680   4.120   5.745
10548SOL    HW232544   4.627   4.162   5.893
10549SOL     OW32545   6.965   1.276   2.606
10549SOL    HW132546   6.937   1.285   2.702
10549SOL    HW232547   6.955   1.364   2.560
10550SOL     OW32548   4.496   0.105   4.764
10550SOL    HW132549   4.498   0.096   4.863
10550SOL    HW232550   4.447   0.188   4.738
10551SOL     OW32551   2.283   2.928   5.852
10551SOL    HW132552   2.327   2.838   5.851
10551SOL    HW232553   2.302   2.974   5.765
10552SOL     OW32554   3.411   1.072   5.351
10552SOL    HW132555   3.426   1.025   5.264
10552SOL    HW232556   3.420   1.170   5.339
10553SOL     OW32557   2.649   4.576   6.597
10553SOL    HW132558   2.692   4.491   6.568
10553SOL    HW232559   2.718   4.649   6.598
10554SOL     OW32560   6.384   3.889   5.968
10554SOL    HW132561   6.395   3.792   5.991
10554SOL    HW232562   6.443   3.912   5.890
10555SOL     OW32563   3.408   2.735   0.599
10555SOL    HW132564   3.325   2.693   0.562
10555SOL    HW232565   3.426   2.699   0.691
10556SOL     OW32566   2.659   4.958   4.251
10556SOL    HW132567   2.611   4.945   4.165
10556SOL    HW232568   2.696   4.870   4.283
10557SOL     OW32569   5.425   1.604   3.267
10557SOL    HW132570   5.395   1.639   3.178
10557SOL    HW232571   5.431   1.505   3.263
10558SOL     OW32572   6.106   5.674   6.226
10558SOL    HW132573   6.092   5.760   6.177
10558SOL    HW232574   6.198   5.640   6.208
10559SOL     OW32575   4.262   3.159   1.473
10559SOL    HW132576   4.293   3.161   1.568
10559SOL    HW232577   4.223   3.069   1.453
10560SOL     OW32578   6.967   2.293   4.176
10560SOL    HW132579   6.891   2.228   4.172
10560SOL    HW232580   0.029   2.246   4.208
10561SOL     OW32581   1.644   4.378   6.290
10561SOL    HW132582   1.550   4.386   6.323
10561SOL    HW232583   1.685   4.294   6.327
10562SOL     OW32584   4.271   1.943   0.853
10562SOL    HW132585   4.284   1.881   0.930
10562SOL    HW232586   4.322   1.909   0.774
10563SOL     OW32587   2.034   2.041   2.392
10563SOL    HW132588   1.964   2.059   2.324
10563SOL    HW232589   2.105   2.111   2.387
10564SOL     OW32590   0.145   1.750   2.616
10564SOL    HW132591   0.145   1.843   2.579
10564SOL    HW232592   0.155   1.753   2.715
10565SOL     OW32593   5.360   2.274   5.209
10565SOL    HW132594   5.431   2.204   5.207
10565SOL    HW232595   5.315   2.274   5.298
10566SOL     OW32596   4.782   5.659   0.324
10566SOL    HW132597   4.728   5.610   0.255
10566SOL    HW232598   4.772   5.613   0.413
10567SOL     OW32599   2.146   5.882   4.968
10567SOL    HW132600   2.146   5.786   4.996
10567SOL    HW232601   2.238   5.921   4.980
10568SOL     OW32602   4.389   0.135   3.727
10568SOL    HW132603   4.352   0.182   3.647
10568SOL    HW232604   4.358   0.180   3.810
10569SOL     OW32605   6.641   2.002   3.851
10569SOL    HW132606   6.725   1.989   3.904
10569SOL    HW232607   6.665   2.028   3.757
10570SOL     OW32608   0.832   2.778   1.915
10570SOL    HW132609   0.914   2.723   1.899
10570SOL    HW232610   0.847   2.837   1.995
10571SOL     OW32611   7.003   0.031   4.852
10571SOL    HW132612   6.976   0.128   4.847
10571SOL    HW232613   6.940   7.002   4.911
10572SOL     OW32614   6.663   3.529   2.665
10572SOL    HW132615   6.688   3.478   2.747
10572SOL    HW232616   6.606   3.472   2.606
10573SOL     OW32617   6.531   4.736   5.498
10573SOL    HW132618   6.554   4.656   5.443
10573SOL    HW232619   6.549   4.717   5.594
10574SOL     OW32620   0.735   2.689   2.919
10574SOL    HW132621   0.829   2.664   2.896
10574SOL    HW232622   0.672   2.645   2.855
10575SOL     OW32623   0.301   0.227   6.044
10575SOL    HW132624   0.382   0.253   5.991
10575SOL    HW232625   0.232   0.299   6.037
10576SOL     OW32626   0.512   5.926   3.584
10576SOL    HW132627   0.611   5.928   3.569
10576SOL    HW232628   0.470   5.860   3.522
10577SOL     OW32629   0.529   3.242   5.756
10577SOL    HW132630   0.604   3.252   5.690
10577SOL    HW232631   0.462   3.314   5.741
10578SOL     OW32632   5.387   0.885   5.454
10578SOL    HW132633   5.383   0.882   5.354
10578SOL    HW232634   5.481   0.875   5.484
10579SOL     OW32635   5.414   6.698   1.309
10579SOL    HW132636   5.490   6.633   1.312
10579SOL    HW232637   5.352   6.674   1.234
10580SOL     OW32638   0.908   5.487   0.769
10580SOL    HW132639   0.957   5.411   0.810
10580SOL    HW232640   0.863   5.541   0.840
10581SOL     OW32641   4.157   2.255   2.656
10581SOL    HW132642   4.249   2.274   2.691
10581SOL    HW232643   4.102   2.339   2.661
10582SOL     OW32644   3.408   4.145   6.970
10582SOL    HW132645   3.457   4.100   0.025
10582SOL    HW232646   3.383   4.238   6.998
10583SOL     OW32647   4.697   0.925   1.569
10583SOL    HW132648   4.630   0.866   1.614
10583SOL    HW232649   4.735   0.878   1.490
10584SOL     OW32650   5.193   6.670   1.455
10584SOL    HW132651   5.204   6.571   1.464
10584SOL    HW232652   5.282   6.711   1.436
10585SOL     OW32653   3.085   4.241   6.449
10585SOL    HW132654   3.090   4.147   6.483
10585SOL    HW232655   3.173   4.286   6.463
10586SOL     OW32656   5.186   2.118   2.157
10586SOL    HW132657   5.169   2.162   2.068
10586SOL    HW232658   5.098   2.092   2.198
10587SOL     OW32659   0.275   3.755   0.841
10587SOL    HW132660   0.288   3.847   0.805
10587SOL    HW232661   0.279   3.757   0.941
10588SOL     OW32662   1.731   5.363   3.655
10588SOL    HW132663   1.767   5.276   3.622
10588SOL    HW232664   1.807   5.425   3.676
10589SOL     OW32665   5.622   0.785   4.660
10589SOL    HW132666   5.531   0.823   4.675
10589SOL    HW232667   5.643   0.785   4.562
10590SOL     OW32668   0.432   0.182   4.327
10590SOL    HW132669   0.359   0.182   4.395
10590SOL    HW232670   0.514   0.224   4.367
10591SOL     OW32671   1.394   2.274   1.116
10591SOL    HW132672   1.493   2.285   1.108
10591SOL    HW232673   1.372   2.178   1.132
10592SOL     OW32674   4.976   1.897   6.213
10592SOL    HW132675   4.891   1.889   6.265
10592SOL    HW232676   5.015   1.988   6.226
10593SOL     OW32677   1.796   3.835   2.312
10593SOL    HW132678   1.736   3.915   2.302
10593SOL    HW232679   1.850   3.823   2.229
10594SOL     OW32680   1.650   1.383   4.369
10594SOL    HW132681   1.642   1.283   4.377
10594SOL    HW232682   1.676   1.407   4.275
10595SOL     OW32683   1.485   5.876   4.790
10595SOL    HW132684   1.563   5.928   4.756
10595SOL    HW232685   1.459   5.807   4.723
10596SOL     OW32686   2.572   1.195   0.850
10596SOL    HW132687   2.660   1.147   0.844
10596SOL    HW232688   2.587   1.290   0.876
10597SOL     OW32689   1.808   0.362   3.702
10597SOL    HW132690   1.734   0.369   3.768
10597SOL    HW232691   1.788   0.419   3.622
10598SOL     OW32692   3.091   0.987   0.916
10598SOL    HW132693   3.163   1.052   0.938
10598SOL    HW232694   3.104   0.903   0.969
10599SOL     OW32695   4.708   6.947   6.023
10599SOL    HW132696   4.645   6.896   6.082
10599SOL    HW232697   4.799   6.906   6.028
10600SOL     OW32698   1.753   3.275   5.123
10600SOL    HW132699   1.671   3.231   5.086
10600SOL    HW232700   1.835   3.229   5.088
10601SOL     OW32701   4.643   6.295   5.375
10601SOL    HW132702   4.562   6.352   5.369
10601SOL    HW232703   4.720   6.350   5.408
10602SOL     OW32704   4.787   2.754   2.324
10602SOL    HW132705   4.756   2.823   2.259
10602SOL    HW232706   4.762   2.663   2.291
10603SOL     OW32707   0.609   5.853   5.100
10603SOL    HW132708   0.637   5.796   5.176
10603SOL    HW232709   0.535   5.808   5.050
10604SOL     OW32710   0.508   4.541   6.588
10604SOL    HW132711   0.467   4.624   6.626
10604SOL    HW232712   0.583   4.511   6.646
10605SOL     OW32713   1.418   4.712   0.461
10605SOL    HW132714   1.335   4.681   0.507
10605SOL    HW232715   1.477   4.633   0.442
10606SOL     OW32716   1.378   0.881   1.842
10606SOL    HW132717   1.405   0.941   1.767
10606SOL    HW232718   1.305   0.820   1.811
10607SOL     OW32719   5.430   4.057   0.002
10607SOL    HW132720   5.337   4.092   0.000
10607SOL    HW232721   5.443   3.999   0.083
10608SOL     OW32722   5.315   6.054   2.549
10608SOL    HW132723   5.244   6.053   2.619
10608SOL    HW232724   5.298   5.981   2.483
10609SOL     OW32725   3.920   6.640   2.979
10609SOL    HW132726   3.945   6.671   2.888
10609SOL    HW232727   4.003   6.621   3.032
10610SOL     OW32728   2.313   5.164   5.034
10610SOL    HW132729   2.389   5.111   4.996
10610SOL    HW232730   2.227   5.130   4.996
10611SOL     OW32731   4.772   2.090   5.893
10611SOL    HW132732   4.688   2.097   5.947
10611SOL    HW232733   4.851   2.108   5.952
10612SOL     OW32734   1.959   0.787   1.731
10612SOL    HW132735   1.901   0.707   1.744
10612SOL    HW232736   2.018   0.773   1.651
10613SOL     OW32737   1.768   6.473   7.002
10613SOL    HW132738   1.698   6.473   6.931
10613SOL    HW232739   1.848   6.524   6.970
10614SOL     OW32740   0.453   1.099   3.034
10614SOL    HW132741   0.394   1.109   3.114
10614SOL    HW232742   0.405   1.047   2.963
10615SOL     OW32743   0.591   6.119   5.767
10615SOL    HW132744   0.650   6.135   5.846
10615SOL    HW232745   0.596   6.023   5.739
10616SOL     OW32746   3.350   5.656   1.670
10616SOL    HW132747   3.317   5.682   1.580
10616SOL    HW232748   3.294   5.580   1.705
10617SOL     OW32749   6.496   2.168   6.336
10617SOL    HW132750   6.485   2.106   6.413
10617SOL    HW232751   6.576   2.226   6.350
10618SOL     OW32752   6.885   3.855   1.184
10618SOL    HW132753   6.793   3.818   1.196
10618SOL    HW232754   6.882   3.955   1.188
10619SOL     OW32755   0.497   3.264   4.015
10619SOL    HW132756   0.477   3.361   4.001
10619SOL    HW232757   0.512   3.246   4.112
10620SOL     OW32758   1.694   4.910   3.817
10620SOL    HW132759   1.793   4.905   3.833
10620SOL    HW232760   1.658   4.996   3.855
10621SOL     OW32761   3.463   1.011   0.650
10621SOL    HW132762   3.384   1.063   0.615
10621SOL    HW232763   3.432   0.943   0.716
10622SOL     OW32764   4.446   2.488   0.468
10622SOL    HW132765   4.502   2.496   0.550
10622SOL    HW232766   4.496   2.526   0.390
10623SOL     OW32767   6.478   1.338   4.471
10623SOL    HW132768   6.443   1.249   4.442
10623SOL    HW232769   6.438   1.409   4.413
10624SOL     OW32770   2.538   1.685   3.386
10624SOL    HW132771   2.441   1.667   3.371
10624SOL    HW232772   2.591   1.603   3.365
10625SOL     OW32773   1.011   2.441   1.505
10625SOL    HW132774   0.923   2.473   1.538
10625SOL    HW232775   1.003   2.417   1.408
10626SOL     OW32776   0.121   1.902   3.145
10626SOL    HW132777   0.200   1.957   3.172
10626SOL    HW232778   0.054   1.961   3.099
10627SOL     OW32779   3.139   5.550   4.433
10627SOL    HW132780   3.156   5.464   4.482
10627SOL    HW232781   3.054   5.543   4.381
10628SOL     OW32782   0.358   0.064   5.107
10628SOL    HW132783   0.378   0.046   5.010
10628SOL    HW232784   0.406   7.016   5.164
10629SOL     OW32785   3.481   4.068   6.609
10629SOL    HW132786   3.526   3.994   6.561
10629SOL    HW232787   3.409   4.031   6.669
10630SOL     OW32788   5.155   1.452   1.676
10630SOL    HW132789   5.165   1.377   1.611
10630SOL    HW232790   5.169   1.539   1.628
10631SOL     OW32791   1.788   6.853   4.168
10631SOL    HW132792   1.791   6.915   4.090
10631SOL    HW232793   1.695   6.852   4.205
10632SOL     OW32794   6.835   2.792   0.427
10632SOL    HW132795   6.788   2.808   0.340
10632SOL    HW232796   6.923   2.747   0.410
10633SOL     OW32797   1.634   4.905   6.625
10633SOL    HW132798   1.719   4.912   6.677
10633SOL    HW232799   1.584   4.824   6.654
10634SOL     OW32800   3.339   6.031   2.506
10634SOL    HW132801   3.417   6.079   2.465
10634SOL    HW232802   3.365   5.998   2.597
10635SOL     OW32803   0.747   0.458   1.345
10635SOL    HW132804   0.733   0.517   1.266
10635SOL    HW232805   0.826   0.489   1.397
10636SOL     OW32806   5.118   1.905   6.833
10636SOL    HW132807   5.065   1.967   6.775
10636SOL    HW232808   5.182   1.959   6.889
10637SOL     OW32809   3.509   3.780   7.008
10637SOL    HW132810   3.596   3.801   6.963
10637SOL    HW232811   3.489   3.850   0.057
10638SOL     OW32812   6.879   1.426   5.594
10638SOL    HW132813   6.789   1.418   5.636
10638SOL    HW232814   6.875   1.398   5.498
10639SOL     OW32815   3.497   1.772   4.321
10639SOL    HW132816   3.412   1.764   4.374
10639SOL    HW232817   3.575   1.774   4.383
10640SOL     OW32818   4.680   6.468   0.798
10640SOL    HW132819   4.655   6.409   0.722
10640SOL    HW232820   4.600   6.482   0.857
10641SOL     OW32821   3.661   6.800   6.925
10641SOL    HW132822   3.591   6.783   6.856
10641SOL    HW232823   3.619   6.796   7.016
10642SOL     OW32824   0.096   5.995   2.229
10642SOL    HW132825   0.165   6.004   2.301
10642SOL    HW232826   0.004   6.001   2.270
10643SOL     OW32827   3.395   3.784   6.080
10643SOL    HW132828   3.399   3.686   6.059
10643SOL    HW232829   3.446   3.835   6.011
10644SOL     OW32830   4.118   1.458   5.291
10644SOL    HW132831   4.041   1.482   5.350
10644SOL    HW232832   4.204   1.479   5.339
10645SOL     OW32833   1.629   0.985   3.143
10645SOL    HW132834   1.689   0.905   3.147
10645SOL    HW232835   1.575   0.982   3.059
10646SOL     OW32836   0.199   4.507   6.957
10646SOL    HW132837   0.283   4.546   6.994
10646SOL    HW232838   0.216   4.412   6.929
10647SOL     OW32839   6.150   6.200   1.270
10647SOL    HW132840   6.173   6.288   1.311
10647SOL    HW232841   6.235   6.153   1.243
10648SOL     OW32842   4.511   3.734   6.105
10648SOL    HW132843   4.458   3.783   6.174
10648SOL    HW232844   4.449   3.695   6.037
10649SOL     OW32845   6.508   4.834   6.157
10649SOL    HW132846   6.538   4.770   6.229
10649SOL    HW232847   6.432   4.889   6.190
10650SOL     OW32848   1.791   0.741   5.715
10650SOL    HW132849   1.735   0.661   5.735
10650SOL    HW232850   1.871   0.742   5.775
10651SOL     OW32851   1.327   0.712   5.649
10651SOL    HW132852   1.358   0.801   5.616
10651SOL    HW232853   1.406   0.656   5.672
10652SOL     OW32854   4.745   0.202   0.443
10652SOL    HW132855   4.695   0.279   0.481
10652SOL    HW232856   4.735   0.122   0.502
10653SOL     OW32857   6.177   4.361   3.407
10653SOL    HW132858   6.202   4.264   3.414
10653SOL    HW232859   6.088   4.375   3.449
10654SOL     OW32860   5.257   7.006   1.579
10654SOL    HW132861   5.318   7.016   1.500
10654SOL    HW232862   5.174   6.959   1.550
10655SOL     OW32863   2.994   5.896   0.727
10655SOL    HW132864   2.966   5.820   0.668
10655SOL    HW232865   2.994   5.867   0.822
10656SOL     OW32866   0.425   3.547   6.085
10656SOL    HW132867   0.493   3.535   6.012
10656SOL    HW232868   0.407   3.458   6.127
10657SOL     OW32869   6.088   0.397   6.927
10657SOL    HW132870   6.025   0.356   6.993
10657SOL    HW232871   6.049   0.391   6.835
10658SOL     OW32872   0.009   6.008   3.481
10658SOL    HW132873   0.092   6.017   3.536
10658SOL    HW232874   6.956   5.969   3.537
10659SOL     OW32875   6.072   1.176   1.687
10659SOL    HW132876   5.991   1.138   1.643
10659SOL    HW232877   6.143   1.193   1.618
10660SOL     OW32878   4.305   5.200   4.771
10660SOL    HW132879   4.284   5.150   4.687
10660SOL    HW232880   4.246   5.167   4.845
10661SOL     OW32881   7.014   1.105   2.031
10661SOL    HW132882   7.014   1.022   1.976
10661SOL    HW232883   6.936   1.162   2.005
10662SOL     OW32884   0.396   2.233   0.793
10662SOL    HW132885   0.391   2.249   0.695
10662SOL    HW232886   0.435   2.143   0.811
10663SOL     OW32887   0.982   2.582   2.849
10663SOL    HW132888   1.080   2.585   2.866
10663SOL    HW232889   0.965   2.543   2.758
10664SOL     OW32890   2.050   5.411   6.517
10664SOL    HW132891   2.095   5.417   6.429
10664SOL    HW232892   1.996   5.327   6.522
10665SOL     OW32893   5.966   2.039   6.597
10665SOL    HW132894   5.884   2.036   6.539
10665SOL    HW232895   6.044   2.067   6.541
10666SOL     OW32896   0.112   5.966   0.717
10666SOL    HW132897   0.186   5.904   0.691
10666SOL    HW232898   0.131   6.057   0.681
10667SOL     OW32899   3.664   2.628   5.735
10667SOL    HW132900   3.616   2.686   5.801
10667SOL    HW232901   3.762   2.630   5.754
10668SOL     OW32902   1.573   6.877   6.468
10668SOL    HW132903   1.533   6.953   6.520
10668SOL    HW232904   1.628   6.821   6.530
10669SOL     OW32905   1.836   5.946   6.304
10669SOL    HW132906   1.908   5.879   6.317
10669SOL    HW232907   1.749   5.899   6.287
10670SOL     OW32908   5.790   4.044   5.540
10670SOL    HW132909   5.723   4.082   5.604
10670SOL    HW232910   5.783   4.092   5.453
10671SOL     OW32911   2.265   2.897   3.795
10671SOL    HW132912   2.251   2.988   3.755
10671SOL    HW232913   2.249   2.902   3.894
10672SOL     OW32914   6.707   2.620   0.609
10672SOL    HW132915   6.766   2.615   0.690
10672SOL    HW232916   6.754   2.672   0.537
10673SOL     OW32917   3.237   4.011   3.598
10673SOL    HW132918   3.258   4.085   3.535
10673SOL    HW232919   3.217   3.928   3.545
10674SOL     OW32920   3.860   1.504   2.781
10674SOL    HW132921   3.760   1.498   2.782
10674SOL    HW232922   3.892   1.541   2.868
10675SOL     OW32923   1.355   1.905   5.385
10675SOL    HW132924   1.361   1.927   5.288
10675SOL    HW232925   1.428   1.952   5.435
10676SOL     OW32926   6.313   0.908   0.067
10676SOL    HW132927   6.311   0.977   7.014
10676SOL    HW232928   6.354   0.948   0.149
10677SOL     OW32929   5.024   0.271   6.417
10677SOL    HW132930   4.995   0.272   6.321
10677SOL    HW232931   5.067   0.183   6.437
10678SOL     OW32932   2.235   5.742   3.809
10678SOL    HW132933   2.154   5.758   3.866
10678SOL    HW232934   2.218   5.774   3.716
10679SOL     OW32935   6.116   5.058   4.511
10679SOL    HW132936   6.088   5.038   4.605
10679SOL    HW232937   6.175   5.139   4.512
10680SOL     OW32938   0.502   2.464   3.535
10680SOL    HW132939   0.487   2.434   3.441
10680SOL    HW232940   0.597   2.494   3.545
10681SOL     OW32941   0.774   3.070   6.976
10681SOL    HW132942   0.844   2.999   6.969
10681SOL    HW232943   0.806   3.142   0.018
10682SOL     OW32944   6.825   2.442   3.797
10682SOL    HW132945   6.768   2.488   3.730
10682SOL    HW232946   6.859   2.356   3.759
10683SOL     OW32947   0.868   0.100   4.191
10683SOL    HW132948   0.966   0.097   4.171
10683SOL    HW232949   0.850   0.170   4.260
10684SOL     OW32950   5.064   6.198   0.840
10684SOL    HW132951   5.155   6.240   0.842
10684SOL    HW232952   4.999   6.262   0.800
10685SOL     OW32953   6.477   2.169   4.144
10685SOL    HW132954   6.447   2.087   4.097
10685SOL    HW232955   6.458   2.249   4.087
10686SOL     OW32956   5.394   4.078   1.183
10686SOL    HW132957   5.371   4.112   1.274
10686SOL    HW232958   5.472   4.016   1.189
10687SOL     OW32959   0.473   5.190   0.912
10687SOL    HW132960   0.496   5.270   0.967
10687SOL    HW232961   0.526   5.111   0.943
10688SOL     OW32962   1.712   5.426   1.441
10688SOL    HW132963   1.758   5.339   1.423
10688SOL    HW232964   1.725   5.487   1.363
10689SOL     OW32965   6.820   0.899   1.903
10689SOL    HW132966   6.738   0.894   1.846
10689SOL    HW232967   6.899   0.922   1.846
10690SOL     OW32968   3.826   0.461   2.450
10690SOL    HW132969   3.770   0.538   2.419
10690SOL    HW232970   3.862   0.479   2.541
10691SOL     OW32971   5.193   1.651   1.505
10691SOL    HW132972   5.259   1.701   1.562
10691SOL    HW232973   5.129   1.716   1.464
10692SOL     OW32974   5.532   6.426   3.930
10692SOL    HW132975   5.599   6.446   3.859
10692SOL    HW232976   5.525   6.504   3.993
10693SOL     OW32977   3.989   2.227   4.659
10693SOL    HW132978   4.038   2.306   4.620
10693SOL    HW232979   4.013   2.219   4.756
10694SOL     OW32980   3.283   6.487   0.098
10694SOL    HW132981   3.227   6.470   0.179
10694SOL    HW232982   3.362   6.542   0.123
10695SOL     OW32983   5.784   3.080   5.641
10695SOL    HW132984   5.688   3.106   5.648
10695SOL    HW232985   5.797   3.018   5.564
10696SOL     OW32986   6.730   0.779   1.008
10696SOL    HW132987   6.728   0.724   0.925
10696SOL    HW232988   6.791   0.857   0.996
10697SOL     OW32989   3.030   5.916   2.868
10697SOL    HW132990   2.997   5.977   2.796
10697SOL    HW232991   2.959   5.848   2.889
10698SOL     OW32992   3.655   6.661   3.956
10698SOL    HW132993   3.558   6.641   3.939
10698SOL    HW232994   3.707   6.646   3.872
10699SOL     OW32995   0.133   3.970   3.287
10699SOL    HW132996   0.161   3.940   3.196
10699SOL    HW232997   0.034   3.981   3.290
10700SOL     OW32998   0.281   2.730   3.360
10700SOL    HW132999   0.380   2.719   3.351
10700SOL    HW233000   0.252   2.699   3.450
10701SOL     OW33001   2.125   6.810   1.577
10701SOL    HW133002   2.165   6.896   1.609
10701SOL    HW233003   2.161   6.734   1.632
10702SOL     OW33004   4.607   1.898   1.000
10702SOL    HW133005   4.670   1.949   1.057
10702SOL    HW233006   4.575   1.817   1.049
10703SOL     OW33007   3.378   4.134   4.668
10703SOL    HW133008   3.439   4.072   4.719
10703SOL    HW233009   3.320   4.184   4.733
10704SOL     OW33010   5.445   5.058   1.300
10704SOL    HW133011   5.423   5.092   1.209
10704SOL    HW233012   5.474   4.963   1.295
10705SOL     OW33013   1.001   3.139   0.239
10705SOL    HW133014   0.995   3.055   0.185
10705SOL    HW233015   0.909   3.167   0.266
10706SOL     OW33016   2.959   3.744   0.417
10706SOL    HW133017   2.991   3.745   0.322
10706SOL    HW233018   3.012   3.677   0.470
10707SOL     OW33019   6.267   0.921   6.600
10707SOL    HW133020   6.286   0.940   6.504
10707SOL    HW233021   6.168   0.924   6.616
10708SOL     OW33022   4.473   3.428   1.162
10708SOL    HW133023   4.431   3.337   1.163
10708SOL    HW233024   4.458   3.472   1.250
10709SOL     OW33025   0.706   1.166   5.335
10709SOL    HW133026   0.642   1.242   5.331
10709SOL    HW233027   0.800   1.202   5.337
10710SOL     OW33028   6.568   6.875   3.746
10710SOL    HW133029   6.560   6.901   3.649
10710SOL    HW233030   6.552   6.777   3.756
10711SOL     OW33031   2.045   4.098   4.939
10711SOL    HW133032   2.015   4.192   4.923
10711SOL    HW233033   2.131   4.100   4.992
10712SOL     OW33034   3.900   2.246   5.763
10712SOL    HW133035   3.950   2.160   5.774
10712SOL    HW233036   3.913   2.303   5.845
10713SOL     OW33037   2.605   0.222   0.209
10713SOL    HW133038   2.695   0.216   0.166
10713SOL    HW233039   2.562   0.132   0.211
10714SOL     OW33040   5.479   5.191   4.467
10714SOL    HW133041   5.479   5.163   4.563
10714SOL    HW233042   5.526   5.278   4.457
10715SOL     OW33043   5.665   6.788   2.467
10715SOL    HW133044   5.710   6.856   2.408
10715SOL    HW233045   5.642   6.707   2.414
10716SOL     OW33046   6.456   1.915   3.094
10716SOL    HW133047   6.425   1.997   3.045
10716SOL    HW233048   6.552   1.924   3.117
10717SOL     OW33049   6.892   6.593   0.782
10717SOL    HW133050   6.869   6.690   0.778
10717SOL    HW233051   6.969   6.574   0.721
10718SOL     OW33052   0.768   4.804   5.440
10718SOL    HW133053   0.728   4.714   5.456
10718SOL    HW233054   0.867   4.795   5.430
10719SOL     OW33055   3.779   6.743   3.351
10719SOL    HW133056   3.696   6.687   3.347
10719SOL    HW233057   3.854   6.689   3.390
10720SOL     OW33058   1.324   3.384   5.751
10720SOL    HW133059   1.356   3.349   5.839
10720SOL    HW233060   1.402   3.392   5.689
10721SOL     OW33061   5.389   0.420   4.425
10721SOL    HW133062   5.359   0.481   4.498
10721SOL    HW233063   5.481   0.387   4.444
10722SOL     OW33064   0.734   5.015   0.755
10722SOL    HW133065   0.648   5.022   0.704
10722SOL    HW233066   0.713   5.007   0.853
10723SOL     OW33067   6.884   4.791   6.291
10723SOL    HW133068   6.982   4.783   6.304
10723SOL    HW233069   6.838   4.712   6.333
10724SOL     OW33070   3.849   6.447   5.726
10724SOL    HW133071   3.899   6.534   5.735
10724SOL    HW233072   3.897   6.376   5.777
10725SOL     OW33073   6.528   0.333   5.133
10725SOL    HW133074   6.614   0.313   5.181
10725SOL    HW233075   6.521   0.275   5.052
10726SOL     OW33076   6.645   0.937   3.729
10726SOL    HW133077   6.628   1.034   3.710
10726SOL    HW233078   6.614   0.882   3.651
10727SOL     OW33079   5.402   5.601   5.820
10727SOL    HW133080   5.361   5.643   5.901
10727SOL    HW233081   5.422   5.505   5.839
10728SOL     OW33082   5.145   5.794   4.790
10728SOL    HW133083   5.222   5.762   4.736
10728SOL    HW233084   5.065   5.805   4.731
10729SOL     OW33085   6.410   3.268   4.657
10729SOL    HW133086   6.505   3.272   4.627
10729SOL    HW233087   6.360   3.205   4.597
10730SOL     OW33088   0.952   6.254   4.244
10730SOL    HW133089   1.008   6.290   4.318
10730SOL    HW233090   0.855   6.265   4.266
10731SOL     OW33091   5.206   4.118   5.220
10731SOL    HW133092   5.113   4.093   5.193
10731SOL    HW233093   5.203   4.165   5.308
10732SOL     OW33094   5.579   5.606   2.106
10732SOL    HW133095   5.599   5.563   2.018
10732SOL    HW233096   5.515   5.548   2.156
10733SOL     OW33097   0.838   1.790   5.920
10733SOL    HW133098   0.910   1.757   5.859
10733SOL    HW233099   0.868   1.779   6.015
10734SOL     OW33100   0.405   1.225   4.418
10734SOL    HW133101   0.306   1.223   4.434
10734SOL    HW233102   0.452   1.245   4.503
10735SOL     OW33103   0.373   0.944   2.263
10735SOL    HW133104   0.292   1.002   2.267
10735SOL    HW233105   0.455   1.000   2.272
10736SOL     OW33106   5.542   5.848   4.511
10736SOL    HW133107   5.600   5.802   4.579
10736SOL    HW233108   5.447   5.843   4.539
10737SOL     OW33109   5.635   1.305   0.674
10737SOL    HW133110   5.607   1.340   0.763
10737SOL    HW233111   5.605   1.210   0.664
10738SOL     OW33112   0.883   6.562   2.205
10738SOL    HW133113   0.923   6.517   2.126
10738SOL    HW233114   0.792   6.524   2.223
10739SOL     OW33115   5.054   2.629   4.081
10739SOL    HW133116   5.058   2.638   3.982
10739SOL    HW233117   5.146   2.610   4.116
10740SOL     OW33118   2.952   0.933   6.421
10740SOL    HW133119   2.944   0.900   6.515
10740SOL    HW233120   2.942   1.032   6.419
10741SOL     OW33121   2.424   2.673   3.941
10741SOL    HW133122   2.463   2.581   3.945
10741SOL    HW233123   2.429   2.707   3.847
10742SOL     OW33124   6.883   0.157   2.515
10742SOL    HW133125   6.795   0.115   2.534
10742SOL    HW233126   6.898   0.234   2.577
10743SOL     OW33127   4.099   3.121   6.632
10743SOL    HW133128   4.067   3.161   6.546
10743SOL    HW233129   4.195   3.094   6.623
10744SOL     OW33130   1.632   1.547   0.978
10744SOL    HW133131   1.601   1.580   0.889
10744SOL    HW233132   1.637   1.447   0.977
10745SOL     OW33133   3.837   5.515   2.021
10745SOL    HW133134   3.927   5.478   1.997
10745SOL    HW233135   3.790   5.546   1.938
10746SOL     OW33136   2.553   5.524   5.269
10746SOL    HW133137   2.650   5.541   5.282
10746SOL    HW233138   2.540   5.461   5.192
10747SOL     OW33139   6.782   0.244   5.220
10747SOL    HW133140   6.869   0.270   5.178
10747SOL    HW233141   6.778   0.282   5.313
10748SOL     OW33142   3.776   6.518   1.799
10748SOL    HW133143   3.757   6.484   1.707
10748SOL    HW233144   3.691   6.523   1.851
10749SOL     OW33145   5.240   2.295   2.735
10749SOL    HW133146   5.231   2.214   2.792
10749SOL    HW233147   5.195   2.279   2.646
10750SOL     OW33148   3.576   2.114   3.871
10750SOL    HW133149   3.565   2.129   3.969
10750SOL    HW233150   3.558   2.018   3.850
10751SOL     OW33151   5.690   6.006   3.387
10751SOL    HW133152   5.658   5.911   3.395
10751SOL    HW233153   5.692   6.033   3.291
10752SOL     OW33154   6.926   6.218   6.469
10752SOL    HW133155   6.966   6.128   6.489
10752SOL    HW233156   6.966   6.255   6.385
10753SOL     OW33157   5.020   6.965   4.773
10753SOL    HW133158   4.985   6.903   4.702
10753SOL    HW233159   5.029   0.037   4.736
10754SOL     OW33160   6.357   5.490   1.892
10754SOL    HW133161   6.375   5.524   1.800
10754SOL    HW233162   6.325   5.395   1.886
10755SOL     OW33163   0.404   1.301   2.459
10755SOL    HW133164   0.461   1.379   2.433
10755SOL    HW233165   0.323   1.333   2.507
10756SOL     OW33166   0.806   6.664   0.061
10756SOL    HW133167   0.823   6.731   7.008
10756SOL    HW233168   0.709   6.664   0.084
10757SOL     OW33169   0.156   1.997   2.484
10757SOL    HW133170   0.219   2.042   2.547
10757SOL    HW233171   0.082   2.059   2.459
10758SOL     OW33172   0.262   1.295   1.080
10758SOL    HW133173   0.251   1.386   1.040
10758SOL    HW233174   0.340   1.249   1.038
10759SOL     OW33175   3.580   5.502   5.785
10759SOL    HW133176   3.609   5.534   5.875
10759SOL    HW233177   3.575   5.580   5.722
10760SOL     OW33178   1.226   4.955   6.616
10760SOL    HW133179   1.277   5.019   6.559
10760SOL    HW233180   1.286   4.918   6.687
10761SOL     OW33181   1.690   0.583   7.015
10761SOL    HW133182   1.692   0.612   0.090
10761SOL    HW233183   1.633   0.502   7.005
10762SOL     OW33184   1.837   5.386   0.922
10762SOL    HW133185   1.772   5.437   0.866
10762SOL    HW233186   1.837   5.290   0.894
10763SOL     OW33187   5.447   1.387   1.847
10763SOL    HW133188   5.474   1.396   1.751
10763SOL    HW233189   5.380   1.458   1.870
10764SOL     OW33190   4.988   0.082   3.737
10764SOL    HW133191   5.047   0.161   3.720
10764SOL    HW233192   4.938   0.096   3.823
10765SOL     OW33193   0.238   2.813   1.881
10765SOL    HW133194   0.309   2.789   1.948
10765SOL    HW233195   0.281   2.854   1.801
10766SOL     OW33196   3.431   5.727   6.862
10766SOL    HW133197   3.505   5.752   6.924
10766SOL    HW233198   3.345   5.722   6.912
10767SOL     OW33199   1.176   5.475   0.090
10767SOL    HW133200   1.224   5.562   0.078
10767SOL    HW233201   1.087   5.479   0.045
10768SOL     OW33202   6.326   6.418   6.911
10768SOL    HW133203   6.331   6.483   6.987
10768SOL    HW233204   6.418   6.390   6.885
10769SOL     OW33205   2.911   3.339   4.555
10769SOL    HW133206   2.911   3.353   4.455
10769SOL    HW233207   2.833   3.283   4.581
10770SOL     OW33208   4.756   0.660   4.594
10770SOL    HW133209   4.711   0.571   4.598
10770SOL    HW233210   4.689   0.730   4.569
10771SOL     OW33211   5.424   6.483   5.566
10771SOL    HW133212   5.442   6.546   5.489
10771SOL    HW233213   5.492   6.410   5.564
10772SOL     OW33214   4.862   3.253   4.096
10772SOL    HW133215   4.798   3.177   4.091
10772SOL    HW233216   4.956   3.217   4.096
10773SOL     OW33217   1.162   3.538   0.427
10773SOL    HW133218   1.152   3.438   0.423
10773SOL    HW233219   1.181   3.573   0.336
10774SOL     OW33220   6.497   2.728   1.600
10774SOL    HW133221   6.443   2.731   1.516
10774SOL    HW233222   6.506   2.634   1.632
10775SOL     OW33223   2.026   4.152   6.227
10775SOL    HW133224   2.069   4.237   6.254
10775SOL    HW233225   2.091   4.076   6.234
10776SOL     OW33226   0.228   3.831   3.755
10776SOL    HW133227   0.302   3.781   3.800
10776SOL    HW233228   0.241   3.827   3.655
10777SOL     OW33229   0.423   6.944   1.859
10777SOL    HW133230   0.459   6.858   1.822
10777SOL    HW233231   0.376   6.995   1.786
10778SOL     OW33232   4.671   6.640   3.215
10778SOL    HW133233   4.620   6.621   3.131
10778SOL    HW233234   4.609   6.640   3.293
10779SOL     OW33235   5.624   3.002   5.264
10779SOL    HW133236   5.676   2.917   5.264
10779SOL    HW233237   5.668   3.068   5.202
10780SOL     OW33238   0.809   5.914   4.573
10780SOL    HW133239   0.848   5.829   4.609
10780SOL    HW233240   0.712   5.919   4.597
10781SOL     OW33241   6.020   2.983   6.075
10781SOL    HW133242   5.949   2.923   6.038
10781SOL    HW233243   6.047   2.950   6.166
10782SOL     OW33244   1.703   3.352   4.778
10782SOL    HW133245   1.755   3.266   4.774
10782SOL    HW233246   1.639   3.348   4.854
10783SOL     OW33247   1.709   4.042   4.349
10783SOL    HW133248   1.685   4.089   4.264
10783SOL    HW233249   1.797   4.075   4.381
10784SOL     OW33250   4.755   5.597   3.623
10784SOL    HW133251   4.789   5.672   3.679
10784SOL    HW233252   4.816   5.518   3.633
10785SOL     OW33253   1.636   5.762   1.800
10785SOL    HW133254   1.691   5.754   1.884
10785SOL    HW233255   1.544   5.794   1.824
10786SOL     OW33256   4.956   1.012   2.468
10786SOL    HW133257   4.919   0.955   2.541
10786SOL    HW233258   4.882   1.040   2.407
10787SOL     OW33259   3.401   1.193   3.737
10787SOL    HW133260   3.474   1.148   3.687
10787SOL    HW233261   3.424   1.289   3.752
10788SOL     OW33262   1.511   2.731   6.725
10788SOL    HW133263   1.469   2.803   6.671
10788SOL    HW233264   1.501   2.752   6.823
10789SOL     OW33265   0.297   2.637   2.634
10789SOL    HW133266   0.351   2.606   2.712
10789SOL    HW233267   0.356   2.687   2.570
10790SOL     OW33268   6.674   3.307   4.606
10790SOL    HW133269   6.705   3.219   4.572
10790SOL    HW233270   6.739   3.378   4.579
10791SOL     OW33271   2.138   2.897   3.163
10791SOL    HW133272   2.127   2.837   3.084
10791SOL    HW233273   2.103   2.851   3.244
10792SOL     OW33274   2.912   0.753   1.709
10792SOL    HW133275   2.954   0.841   1.729
10792SOL    HW233276   2.863   0.758   1.622
10793SOL     OW33277   3.958   2.200   3.471
10793SOL    HW133278   3.878   2.174   3.524
10793SOL    HW233279   4.030   2.231   3.532
10794SOL     OW33280   5.053   2.812   0.376
10794SOL    HW133281   5.132   2.754   0.359
10794SOL    HW233282   4.993   2.812   0.296
10795SOL     OW33283   5.961   2.665   3.644
10795SOL    HW133284   5.900   2.715   3.582
10795SOL    HW233285   5.910   2.632   3.723
10796SOL     OW33286   6.943   1.976   6.915
10796SOL    HW133287   6.891   2.000   6.833
10796SOL    HW233288   0.020   1.993   6.898
10797SOL     OW33289   5.709   4.665   6.732
10797SOL    HW133290   5.808   4.666   6.724
10797SOL    HW233291   5.679   4.745   6.783
10798SOL     OW33292   2.651   6.016   0.598
10798SOL    HW133293   2.619   6.053   0.511
10798SOL    HW233294   2.739   5.971   0.585
10799SOL     OW33295   2.016   0.937   2.930
10799SOL    HW133296   2.090   0.999   2.959
10799SOL    HW233297   2.026   0.917   2.833
10800SOL     OW33298   0.938   0.175   5.165
10800SOL    HW133299   0.987   0.239   5.106
10800SOL    HW233300   0.854   0.146   5.119
10801SOL     OW33301   2.694   6.421   6.648
10801SOL    HW133302   2.671   6.331   6.612
10801SOL    HW233303   2.640   6.439   6.730
10802SOL     OW33304   1.388   5.073   3.264
10802SOL    HW133305   1.358   4.979   3.246
10802SOL    HW233306   1.428   5.112   3.182
10803SOL     OW33307   0.797   4.404   4.706
10803SOL    HW133308   0.876   4.451   4.745
10803SOL    HW233309   0.747   4.356   4.778
10804SOL     OW33310   5.386   5.221   6.033
10804SOL    HW133311   5.402   5.253   5.940
10804SOL    HW233312   5.306   5.268   6.070
10805SOL     OW33313   5.790   5.453   6.388
10805SOL    HW133314   5.809   5.360   6.421
10805SOL    HW233315   5.840   5.468   6.303
10806SOL     OW33316   6.659   3.063   5.354
10806SOL    HW133317   6.731   3.018   5.406
10806SOL    HW233318   6.598   3.112   5.417
10807SOL     OW33319   4.299   2.783   5.314
10807SOL    HW133320   4.204   2.761   5.336
10807SOL    HW233321   4.347   2.809   5.397
10808SOL     OW33322   0.356   2.622   0.963
10808SOL    HW133323   0.404   2.535   0.957
10808SOL    HW233324   0.265   2.606   1.002
10809SOL     OW33325   0.880   0.889   3.507
10809SOL    HW133326   0.897   0.826   3.583
10809SOL    HW233327   0.782   0.907   3.499
10810SOL     OW33328   2.095   1.572   6.423
10810SOL    HW133329   2.049   1.487   6.395
10810SOL    HW233330   2.181   1.581   6.373
10811SOL     OW33331   4.369   5.021   6.134
10811SOL    HW133332   4.392   4.947   6.071
10811SOL    HW233333   4.284   4.999   6.182
10812SOL     OW33334   6.499   3.095   2.229
10812SOL    HW133335   6.573   3.157   2.203
10812SOL    HW233336   6.528   3.001   2.214
10813SOL     OW33337   2.673   5.644   2.155
10813SOL    HW133338   2.744   5.653   2.225
10813SOL    HW233339   2.585   5.626   2.198
10814SOL     OW33340   1.933   5.988   4.176
10814SOL    HW133341   1.962   5.961   4.268
10814SOL    HW233342   1.837   6.014   4.178
10815SOL     OW33343   5.421   2.841   6.104
10815SOL    HW133344   5.449   2.860   6.010
10815SOL    HW233345   5.357   2.764   6.104
10816SOL     OW33346   1.985   2.425   1.291
10816SOL    HW133347   2.047   2.393   1.219
10816SOL    HW233348   1.900   2.371   1.288
10817SOL     OW33349   4.003   1.370   1.963
10817SOL    HW133350   3.955   1.457   1.954
10817SOL    HW233351   3.976   1.308   1.890
10818SOL     OW33352   4.519   3.479   5.795
10818SOL    HW133353   4.498   3.387   5.831
10818SOL    HW233354   4.435   3.533   5.792
10819SOL     OW33355   2.109   3.310   4.850
10819SOL    HW133356   2.153   3.221   4.843
10819SOL    HW233357   2.013   3.303   4.823
10820SOL     OW33358   0.482   6.070   5.005
10820SOL    HW133359   0.384   6.065   4.985
10820SOL    HW233360   0.519   5.978   5.014
10821SOL     OW33361   6.951   0.609   6.119
10821SOL    HW133362   6.914   0.544   6.186
10821SOL    HW233363   6.924   0.702   6.144
10822SOL     OW33364   0.118   5.462   6.118
10822SOL    HW133365   0.145   5.513   6.200
10822SOL    HW233366   0.194   5.462   6.053
10823SOL     OW33367   2.555   2.352   0.350
10823SOL    HW133368   2.530   2.426   0.413
10823SOL    HW233369   2.626   2.383   0.288
10824SOL     OW33370   5.248   1.605   4.525
10824SOL    HW133371   5.319   1.536   4.540
10824SOL    HW233372   5.201   1.624   4.612
10825SOL     OW33373   4.454   1.917   2.186
10825SOL    HW133374   4.385   1.849   2.163
10825SOL    HW233375   4.518   1.880   2.253
10826SOL     OW33376   0.289   3.493   0.894
10826SOL    HW133377   0.283   3.497   0.993
10826SOL    HW233378   0.297   3.585   0.856
10827SOL     OW33379   0.146   3.648   4.754
10827SOL    HW133380   0.231   3.674   4.710
10827SOL    HW233381   0.165   3.592   4.834
10828SOL     OW33382   3.308   4.475   6.807
10828SOL    HW133383   3.327   4.439   6.899
10828SOL    HW233384   3.393   4.482   6.756
10829SOL     OW33385   1.625   3.811   1.329
10829SOL    HW133386   1.636   3.891   1.388
10829SOL    HW233387   1.713   3.766   1.317
10830SOL     OW33388   6.232   0.810   3.583
10830SOL    HW133389   6.167   0.767   3.646
10830SOL    HW233390   6.306   0.746   3.563
10831SOL     OW33391   5.069   3.176   2.446
10831SOL    HW133392   5.061   3.148   2.350
10831SOL    HW233393   5.165   3.183   2.470
10832SOL     OW33394   1.570   2.842   2.322
10832SOL    HW133395   1.553   2.866   2.418
10832SOL    HW233396   1.542   2.918   2.263
10833SOL     OW33397   3.506   0.398   4.720
10833SOL    HW133398   3.505   0.333   4.796
10833SOL    HW233399   3.472   0.353   4.638
10834SOL     OW33400   6.569   2.493   5.860
10834SOL    HW133401   6.470   2.484   5.853
10834SOL    HW233402   6.610   2.403   5.870
10835SOL     OW33403   0.527   0.774   1.009
10835SOL    HW133404   0.469   0.730   1.077
10835SOL    HW233405   0.471   0.805   0.932
10836SOL     OW33406   6.708   1.059   1.390
10836SOL    HW133407   6.742   1.081   1.482
10836SOL    HW233408   6.661   0.971   1.392
10837SOL     OW33409   1.536   4.906   0.623
10837SOL    HW133410   1.555   4.824   0.676
10837SOL    HW233411   1.462   4.887   0.558
10838SOL     OW33412   6.279   6.603   1.104
10838SOL    HW133413   6.375   6.604   1.129
10838SOL    HW233414   6.224   6.642   1.179
10839SOL     OW33415   2.666   1.400   6.611
10839SOL    HW133416   2.605   1.362   6.542
10839SOL    HW233417   2.624   1.389   6.701
10840SOL     OW33418   0.839   0.525   3.902
10840SOL    HW133419   0.740   0.532   3.901
10840SOL    HW233420   0.878   0.611   3.935
10841SOL     OW33421   4.446   4.220   6.940
10841SOL    HW133422   4.482   4.213   6.847
10841SOL    HW233423   4.520   4.212   7.006
10842SOL     OW33424   5.886   1.887   2.352
10842SOL    HW133425   5.975   1.841   2.357
10842SOL    HW233426   5.882   1.943   2.270
10843SOL     OW33427   1.020   2.029   1.486
10843SOL    HW133428   1.084   2.106   1.497
10843SOL    HW233429   1.037   1.961   1.557
10844SOL     OW33430   4.132   6.311   3.396
10844SOL    HW133431   4.185   6.269   3.470
10844SOL    HW233432   4.156   6.407   3.387
10845SOL     OW33433   2.479   3.659   1.100
10845SOL    HW133434   2.499   3.566   1.129
10845SOL    HW233435   2.445   3.657   1.005
10846SOL     OW33436   3.137   1.695   2.388
10846SOL    HW133437   3.142   1.739   2.298
10846SOL    HW233438   3.224   1.707   2.436
10847SOL     OW33439   5.443   2.073   4.935
10847SOL    HW133440   5.348   2.045   4.947
10847SOL    HW233441   5.447   2.171   4.917
10848SOL     OW33442   2.058   0.118   6.467
10848SOL    HW133443   2.115   0.037   6.457
10848SOL    HW233444   1.974   0.094   6.515
10849SOL     OW33445   0.675   4.912   5.203
10849SOL    HW133446   0.608   4.982   5.226
10849SOL    HW233447   0.692   4.854   5.283
10850SOL     OW33448   6.200   1.089   3.595
10850SOL    HW133449   6.243   1.001   3.609
10850SOL    HW233450   6.118   1.078   3.538
10851SOL     OW33451   5.382   3.043   0.650
10851SOL    HW133452   5.308   3.008   0.708
10851SOL    HW233453   5.460   2.981   0.654
10852SOL     OW33454   6.245   1.816   5.791
10852SOL    HW133455   6.151   1.837   5.763
10852SOL    HW233456   6.264   1.720   5.774
10853SOL     OW33457   1.477   6.571   5.416
10853SOL    HW133458   1.567   6.589   5.377
10853SOL    HW233459   1.415   6.645   5.392
10854SOL     OW33460   5.622   6.456   6.818
10854SOL    HW133461   5.660   6.538   6.774
10854SOL    HW233462   5.536   6.480   6.862
10855SOL     OW33463   0.590   6.147   6.981
10855SOL    HW133464   0.636   6.236   6.983
10855SOL    HW233465   0.556   6.129   6.889
10856SOL     OW33466   4.181   0.030   6.731
10856SOL    HW133467   4.217   0.122   6.748
10856SOL    HW233468   4.257   6.988   6.709
10857SOL     OW33469   6.038   6.594   4.613
10857SOL    HW133470   6.092   6.598   4.697
10857SOL    HW233471   5.979   6.513   4.616
10858SOL     OW33472   1.544   2.761   1.417
10858SOL    HW133473   1.525   2.858   1.400
10858SOL    HW233474   1.602   2.752   1.498
10859SOL     OW33475   2.142   5.085   2.451
10859SOL    HW133476   2.214   5.065   2.518
10859SOL    HW233477   2.100   4.999   2.421
10860SOL     OW33478   5.557   1.325   2.504
10860SOL    HW133479   5.496   1.373   2.567
10860SOL    HW233480   5.621   1.268   2.556
10861SOL     OW33481   2.763   4.774   1.099
10861SOL    HW133482   2.701   4.835   1.049
10861SOL    HW233483   2.773   4.688   1.049
10862SOL     OW33484   3.476   4.680   5.812
10862SOL    HW133485   3.411   4.730   5.755
10862SOL    HW233486   3.566   4.682   5.769
10863SOL     OW33487   0.397   0.654   4.175
10863SOL    HW133488   0.320   0.620   4.229
10863SOL    HW233489   0.404   0.753   4.186
10864SOL     OW33490   2.880   3.376   2.277
10864SOL    HW133491   2.947   3.370   2.351
10864SOL    HW233492   2.856   3.283   2.247
10865SOL     OW33493   3.923   1.749   2.591
10865SOL    HW133494   3.914   1.660   2.637
10865SOL    HW233495   3.997   1.801   2.634
10866SOL     OW33496   0.367   3.438   5.190
10866SOL    HW133497   0.461   3.466   5.168
10866SOL    HW233498   0.339   3.478   5.277
10867SOL     OW33499   5.317   3.324   0.693
10867SOL    HW133500   5.228   3.352   0.726
10867SOL    HW233501   5.316   3.226   0.673
10868SOL     OW33502   6.768   0.338   5.825
10868SOL    HW133503   6.706   0.272   5.782
10868SOL    HW233504   6.769   0.324   5.924
10869NA      NA33505   6.697   1.502   0.113
10870NA      NA33506   5.154   4.668   4.659
10871NA      NA33507   1.363   4.660   2.755
10872NA      NA33508   6.472   3.627   3.691
10873NA      NA33509   4.262   2.358   5.264
10874NA      NA33510   2.523   3.654   6.702
10875NA      NA33511   1.692   5.330   0.434
10876NA      NA33512   4.224   4.799   1.801
10877NA      NA33513   5.606   3.600   1.187
10878NA      NA33514   3.728   1.840   0.785
10879NA      NA33515   4.895   6.042   1.403
10880NA      NA33516   2.699   6.215   4.027
10881NA      NA33517   3.563   5.876   2.792
10882NA      NA33518   4.486   5.057   5.668
   7.01978   7.01978   7.01978
