Generated by trjconv : CNT in water t= 424.00000
33518
    1C        C    1   2.845   2.768   4.751
    1C        C    2   2.900   2.720   4.871
    1C        C    3   2.843   2.773   4.988
    1C        C    4   2.851   2.776   4.262
    1C        C    5   2.905   2.730   4.384
    1C        C    6   2.851   2.775   4.507
    1C        C    7   3.011   2.637   4.628
    1C        C    8   2.898   2.721   4.629
    1C        C    9   3.073   2.595   4.748
    1C        C   10   3.008   2.629   4.869
    1C        C   11   3.186   2.495   4.980
    1C        C   12   3.063   2.562   4.979
    1C        C   13   2.857   2.781   3.775
    1C        C   14   2.908   2.732   3.897
    1C        C   15   2.858   2.784   4.019
    1C        C   16   3.023   2.651   4.140
    1C        C   17   2.910   2.734   4.140
    1C        C   18   3.085   2.617   4.263
    1C        C   19   3.023   2.652   4.385
    1C        C   20   3.210   2.558   4.506
    1C        C   21   3.077   2.605   4.507
    1C        C   22   3.276   2.533   4.628
    1C        C   23   3.205   2.543   4.750
    1C        C   24   3.415   2.482   4.864
    1C        C   25   3.272   2.496   4.866
    1C        C   26   3.491   2.482   4.981
    1C        C   27   2.853   2.773   3.282
    1C        C   28   2.906   2.728   3.405
    1C        C   29   2.862   2.779   3.529
    1C        C   30   3.021   2.644   3.651
    1C        C   31   2.911   2.732   3.654
    1C        C   32   3.080   2.605   3.774
    1C        C   33   3.017   2.642   3.895
    1C        C   34   3.207   2.550   4.017
    1C        C   35   3.078   2.607   4.017
    1C        C   36   3.275   2.533   4.139
    1C        C   37   3.211   2.553   4.263
    1C        C   38   3.417   2.504   4.381
    1C        C   39   3.278   2.531   4.385
    1C        C   40   3.487   2.499   4.504
    1C        C   41   3.414   2.501   4.625
    1C        C   42   3.631   2.491   4.747
    1C        C   43   3.489   2.481   4.743
    1C        C   44   3.706   2.492   4.866
    1C        C   45   3.630   2.486   4.984
    1C        C   46   2.844   2.761   2.794
    1C        C   47   2.899   2.720   2.917
    1C        C   48   2.846   2.768   3.039
    1C        C   49   3.021   2.643   3.162
    1C        C   50   2.908   2.728   3.159
    1C        C   51   3.083   2.609   3.285
    1C        C   52   3.020   2.644   3.406
    1C        C   53   3.210   2.551   3.525
    1C        C   54   3.081   2.608   3.528
    1C        C   55   3.277   2.533   3.648
    1C        C   56   3.213   2.555   3.772
    1C        C   57   3.418   2.512   3.896
    1C        C   58   3.278   2.534   3.895
    1C        C   59   3.486   2.502   4.019
    1C        C   60   3.414   2.508   4.140
    1C        C   61   3.630   2.499   4.262
    1C        C   62   3.489   2.498   4.260
    1C        C   63   3.699   2.517   4.384
    1C        C   64   3.628   2.506   4.505
    1C        C   65   3.836   2.550   4.624
    1C        C   66   3.702   2.506   4.625
    1C        C   67   3.905   2.570   4.745
    1C        C   68   3.841   2.532   4.865
    1C        C   69   4.054   2.586   4.978
    1C        C   70   3.923   2.538   4.979
    1C        C   71   2.826   2.739   2.308
    1C        C   72   2.881   2.697   2.431
    1C        C   73   2.833   2.751   2.552
    1C        C   74   3.008   2.628   2.674
    1C        C   75   2.889   2.704   2.673
    1C        C   76   3.073   2.597   2.796
    1C        C   77   3.014   2.638   2.918
    1C        C   78   3.210   2.550   3.037
    1C        C   79   3.080   2.605   3.039
    1C        C   80   3.278   2.530   3.159
    1C        C   81   3.212   2.553   3.282
    1C        C   82   3.418   2.501   3.405
    1C        C   83   3.280   2.530   3.404
    1C        C   84   3.484   2.495   3.529
    1C        C   85   3.416   2.508   3.652
    1C        C   86   3.630   2.502   3.772
    1C        C   87   3.488   2.503   3.774
    1C        C   88   3.698   2.513   3.895
    1C        C   89   3.627   2.508   4.017
    1C        C   90   3.833   2.557   4.137
    1C        C   91   3.699   2.515   4.139
    1C        C   92   3.901   2.582   4.259
    1C        C   93   3.835   2.555   4.381
    1C        C   94   4.028   2.645   4.503
    1C        C   95   3.901   2.582   4.503
    1C        C   96   4.093   2.678   4.624
    1C        C   97   4.032   2.634   4.744
    1C        C   98   4.191   2.773   4.862
    1C        C   99   4.096   2.666   4.867
    1C        C  100   4.222   2.846   4.978
    1C        C  101   2.827   2.739   2.069
    1C        C  102   2.987   2.593   2.190
    1C        C  103   2.879   2.686   2.187
    1C        C  104   3.059   2.573   2.312
    1C        C  105   2.999   2.619   2.431
    1C        C  106   3.196   2.533   2.551
    1C        C  107   3.068   2.592   2.551
    1C        C  108   3.270   2.528   2.672
    1C        C  109   3.203   2.544   2.795
    1C        C  110   3.414   2.497   2.915
    1C        C  111   3.274   2.520   2.915
    1C        C  112   3.484   2.493   3.037
    1C        C  113   3.417   2.500   3.161
    1C        C  114   3.630   2.503   3.281
    1C        C  115   3.489   2.496   3.283
    1C        C  116   3.696   2.514   3.406
    1C        C  117   3.625   2.503   3.527
    1C        C  118   3.834   2.549   3.648
    1C        C  119   3.698   2.512   3.648
    1C        C  120   3.898   2.577   3.771
    1C        C  121   3.833   2.554   3.894
    1C        C  122   4.028   2.645   4.016
    1C        C  123   3.901   2.582   4.015
    1C        C  124   4.089   2.683   4.138
    1C        C  125   4.027   2.645   4.259
    1C        C  126   4.196   2.774   4.379
    1C        C  127   4.086   2.686   4.381
    1C        C  128   4.247   2.826   4.500
    1C        C  129   4.198   2.772   4.620
    1C        C  130   4.336   2.936   4.744
    1C        C  131   4.245   2.827   4.742
    1C        C  132   4.365   3.004   4.864
    1C        C  133   4.296   2.964   4.979
    1C        C  134   3.173   2.472   2.085
    1C        C  135   3.039   2.512   2.084
    1C        C  136   3.261   2.485   2.194
    1C        C  137   3.193   2.526   2.311
    1C        C  138   3.405   2.483   2.430
    1C        C  139   3.265   2.503   2.431
    1C        C  140   3.480   2.486   2.550
    1C        C  141   3.408   2.501   2.671
    1C        C  142   3.623   2.498   2.793
    1C        C  143   3.481   2.491   2.791
    1C        C  144   3.694   2.511   2.914
    1C        C  145   3.625   2.505   3.037
    1C        C  146   3.834   2.548   3.159
    1C        C  147   3.698   2.511   3.157
    1C        C  148   3.901   2.572   3.282
    1C        C  149   3.833   2.548   3.404
    1C        C  150   4.026   2.637   3.525
    1C        C  151   3.900   2.573   3.526
    1C        C  152   4.083   2.677   3.648
    1C        C  153   4.022   2.645   3.772
    1C        C  154   4.196   2.769   3.890
    1C        C  155   4.083   2.685   3.893
    1C        C  156   4.249   2.819   4.012
    1C        C  157   4.202   2.767   4.135
    1C        C  158   4.340   2.928   4.255
    1C        C  159   4.255   2.814   4.257
    1C        C  160   4.377   2.990   4.376
    1C        C  161   4.335   2.937   4.500
    1C        C  162   4.444   3.119   4.618
    1C        C  163   4.372   2.997   4.622
    1C        C  164   4.476   3.187   4.737
    1C        C  165   4.438   3.125   4.859
    1C        C  166   4.522   3.323   4.976
    1C        C  167   4.482   3.190   4.975
    1C        C  168   3.478   2.445   2.078
    1C        C  169   3.399   2.458   2.193
    1C        C  170   3.620   2.475   2.308
    1C        C  171   3.477   2.469   2.310
    1C        C  172   3.691   2.496   2.428
    1C        C  173   3.621   2.490   2.551
    1C        C  174   3.830   2.539   2.670
    1C        C  175   3.694   2.501   2.671
    1C        C  176   3.898   2.565   2.791
    1C        C  177   3.832   2.543   2.913
    1C        C  178   4.025   2.632   3.034
    1C        C  179   3.898   2.570   3.035
    1C        C  180   4.085   2.671   3.156
    1C        C  181   4.027   2.636   3.280
    1C        C  182   4.198   2.758   3.401
    1C        C  183   4.087   2.671   3.402
    1C        C  184   4.247   2.811   3.522
    1C        C  185   4.193   2.765   3.645
    1C        C  186   4.338   2.921   3.767
    1C        C  187   4.246   2.814   3.766
    1C        C  188   4.381   2.981   3.887
    1C        C  189   4.341   2.926   4.011
    1C        C  190   4.449   3.110   4.131
    1C        C  191   4.381   2.985   4.132
    1C        C  192   4.476   3.177   4.252
    1C        C  193   4.448   3.112   4.374
    1C        C  194   4.513   3.316   4.495
    1C        C  195   4.481   3.178   4.495
    1C        C  196   4.530   3.389   4.614
    1C        C  197   4.516   3.323   4.739
    1C        C  198   4.558   3.539   4.854
    1C        C  199   4.539   3.397   4.858
    1C        C  200   4.590   3.626   4.963
    1C        C  201   3.616   2.424   2.075
    1C        C  202   3.827   2.518   2.187
    1C        C  203   3.694   2.465   2.188
    1C        C  204   3.900   2.546   2.305
    1C        C  205   3.828   2.532   2.426
    1C        C  206   4.020   2.628   2.547
    1C        C  207   3.895   2.561   2.546
    1C        C  208   4.082   2.668   2.667
    1C        C  209   4.021   2.635   2.790
    1C        C  210   4.198   2.754   2.910
    1C        C  211   4.083   2.671   2.912
    1C        C  212   4.250   2.803   3.032
    1C        C  213   4.199   2.755   3.155
    1C        C  214   4.338   2.914   3.275
    1C        C  215   4.251   2.803   3.277
    1C        C  216   4.379   2.973   3.396
    1C        C  217   4.341   2.917   3.520
    1C        C  218   4.438   3.105   3.641
    1C        C  219   4.376   2.978   3.643
    1C        C  220   4.470   3.170   3.763
    1C        C  221   4.450   3.105   3.886
    1C        C  222   4.513   3.309   4.005
    1C        C  223   4.479   3.172   4.007
    1C        C  224   4.521   3.381   4.126
    1C        C  225   4.510   3.314   4.250
    1C        C  226   4.525   3.526   4.370
    1C        C  227   4.519   3.385   4.372
    1C        C  228   4.520   3.599   4.491
    1C        C  229   4.534   3.530   4.613
    1C        C  230   4.505   3.745   4.730
    1C        C  231   4.540   3.608   4.731
    1C        C  232   4.501   3.825   4.846
    1C        C  233   4.549   3.760   4.961
    1C        C  234   4.019   2.615   2.065
    1C        C  235   3.894   2.554   2.069
    1C        C  236   4.087   2.655   2.181
    1C        C  237   4.023   2.617   2.301
    1C        C  238   4.200   2.736   2.424
    1C        C  239   4.083   2.654   2.424
    1C        C  240   4.255   2.786   2.544
    1C        C  241   4.200   2.746   2.667
    1C        C  242   4.341   2.908   2.786
    1C        C  243   4.252   2.799   2.787
    1C        C  244   4.383   2.966   2.908
    1C        C  245   4.337   2.914   3.031
    1C        C  246   4.448   3.095   3.149
    1C        C  247   4.378   2.973   3.152
    1C        C  248   4.465   3.163   3.271
    1C        C  249   4.435   3.102   3.395
    1C        C  250   4.502   3.304   3.517
    1C        C  251   4.464   3.168   3.517
    1C        C  252   4.515   3.375   3.638
    1C        C  253   4.501   3.307   3.762
    1C        C  254   4.525   3.519   3.878
    1C        C  255   4.522   3.378   3.882
    1C        C  256   4.515   3.588   4.002
    1C        C  257   4.522   3.523   4.127
    1C        C  258   4.497   3.734   4.242
    1C        C  259   4.526   3.596   4.247
    1C        C  260   4.479   3.806   4.363
    1C        C  261   4.490   3.737   4.486
    1C        C  262   4.425   3.940   4.605
    1C        C  263   4.474   3.808   4.607
    1C        C  264   4.400   4.012   4.724
    1C        C  265   4.440   3.952   4.846
    1C        C  266   4.321   4.131   4.959
    1C        C  267   4.395   4.013   4.963
    1C        C  268   4.257   2.785   2.064
    1C        C  269   4.201   2.738   2.184
    1C        C  270   4.346   2.896   2.300
    1C        C  271   4.257   2.786   2.305
    1C        C  272   4.386   2.956   2.421
    1C        C  273   4.349   2.892   2.541
    1C        C  274   4.452   3.083   2.662
    1C        C  275   4.383   2.959   2.661
    1C        C  276   4.478   3.155   2.780
    1C        C  277   4.450   3.091   2.903
    1C        C  278   4.513   3.294   3.025
    1C        C  279   4.476   3.157   3.025
    1C        C  280   4.519   3.364   3.148
    1C        C  281   4.503   3.299   3.272
    1C        C  282   4.521   3.512   3.392
    1C        C  283   4.514   3.371   3.393
    1C        C  284   4.523   3.584   3.513
    1C        C  285   4.529   3.515   3.636
    1C        C  286   4.498   3.729   3.758
    1C        C  287   4.526   3.590   3.756
    1C        C  288   4.475   3.797   3.880
    1C        C  289   4.492   3.727   4.001
    1C        C  290   4.426   3.934   4.119
    1C        C  291   4.475   3.802   4.120
    1C        C  292   4.394   3.999   4.240
    1C        C  293   4.420   3.934   4.363
    1C        C  294   4.326   4.128   4.484
    1C        C  295   4.396   4.005   4.483
    1C        C  296   4.284   4.189   4.603
    1C        C  297   4.326   4.133   4.726
    1C        C  298   4.201   4.318   4.841
    1C        C  299   4.285   4.202   4.844
    1C        C  300   4.170   4.404   4.951
    1C        C  301   4.350   2.888   2.062
    1C        C  302   4.474   3.071   2.178
    1C        C  303   4.397   2.950   2.178
    1C        C  304   4.486   3.145   2.298
    1C        C  305   4.449   3.082   2.419
    1C        C  306   4.513   3.286   2.538
    1C        C  307   4.479   3.149   2.540
    1C        C  308   4.525   3.358   2.659
    1C        C  309   4.507   3.293   2.783
    1C        C  310   4.527   3.506   2.902
    1C        C  311   4.522   3.365   2.904
    1C        C  312   4.523   3.576   3.025
    1C        C  313   4.523   3.505   3.148
    1C        C  314   4.485   3.717   3.270
    1C        C  315   4.518   3.580   3.268
    1C        C  316   4.469   3.789   3.390
    1C        C  317   4.494   3.723   3.513
    1C        C  318   4.424   3.924   3.631
    1C        C  319   4.476   3.793   3.634
    1C        C  320   4.388   3.987   3.752
    1C        C  321   4.421   3.927   3.876
    1C        C  322   4.313   4.113   3.992
    1C        C  323   4.391   3.995   3.997
    1C        C  324   4.276   4.171   4.115
    1C        C  325   4.323   4.121   4.238
    1C        C  326   4.190   4.287   4.357
    1C        C  327   4.285   4.183   4.360
    1C        C  328   4.137   4.340   4.477
    1C        C  329   4.195   4.299   4.600
    1C        C  330   4.026   4.439   4.717
    1C        C  331   4.143   4.358   4.717
    1C        C  332   3.973   4.494   4.835
    1C        C  333   4.052   4.479   4.950
    1C        C  334   4.549   3.272   2.061
    1C        C  335   4.536   3.132   2.064
    1C        C  336   4.543   3.352   2.175
    1C        C  337   4.523   3.282   2.297
    1C        C  338   4.528   3.498   2.413
    1C        C  339   4.526   3.357   2.417
    1C        C  340   4.525   3.571   2.534
    1C        C  341   4.532   3.500   2.656
    1C        C  342   4.495   3.710   2.779
    1C        C  343   4.523   3.572   2.777
    1C        C  344   4.475   3.780   2.900
    1C        C  345   4.493   3.714   3.024
    1C        C  346   4.416   3.913   3.143
    1C        C  347   4.470   3.783   3.145
    1C        C  348   4.387   3.982   3.263
    1C        C  349   4.421   3.922   3.386
    1C        C  350   4.311   4.102   3.505
    1C        C  351   4.391   3.986   3.508
    1C        C  352   4.271   4.163   3.626
    1C        C  353   4.314   4.106   3.748
    1C        C  354   4.176   4.271   3.869
    1C        C  355   4.272   4.168   3.868
    1C        C  356   4.129   4.324   3.992
    1C        C  357   4.178   4.273   4.114
    1C        C  358   4.015   4.410   4.232
    1C        C  359   4.130   4.327   4.235
    1C        C  360   3.953   4.446   4.353
    1C        C  361   4.018   4.416   4.475
    1C        C  362   3.833   4.524   4.595
    1C        C  363   3.962   4.466   4.594
    1C        C  364   3.764   4.549   4.716
    1C        C  365   3.841   4.543   4.834
    1C        C  366   3.632   4.592   4.955
    1C        C  367   3.770   4.575   4.951
    1C        C  368   4.514   3.566   2.054
    1C        C  369   4.525   3.492   2.173
    1C        C  370   4.502   3.709   2.290
    1C        C  371   4.519   3.569   2.291
    1C        C  372   4.490   3.780   2.411
    1C        C  373   4.499   3.709   2.534
    1C        C  374   4.429   3.909   2.653
    1C        C  375   4.476   3.776   2.656
    1C        C  376   4.390   3.974   2.773
    1C        C  377   4.423   3.911   2.895
    1C        C  378   4.308   4.089   3.015
    1C        C  379   4.386   3.971   3.017
    1C        C  380   4.266   4.150   3.135
    1C        C  381   4.310   4.101   3.260
    1C        C  382   4.173   4.262   3.379
    1C        C  383   4.267   4.157   3.382
    1C        C  384   4.123   4.312   3.502
    1C        C  385   4.179   4.271   3.625
    1C        C  386   4.007   4.396   3.745
    1C        C  387   4.125   4.318   3.746
    1C        C  388   3.952   4.438   3.868
    1C        C  389   4.013   4.404   3.991
    1C        C  390   3.817   4.493   4.110
    1C        C  391   3.948   4.439   4.111
    1C        C  392   3.754   4.522   4.233
    1C        C  393   3.825   4.505   4.355
    1C        C  394   3.619   4.557   4.479
    1C        C  395   3.759   4.537   4.476
    1C        C  396   3.548   4.570   4.600
    1C        C  397   3.624   4.567   4.719
    1C        C  398   3.414   4.549   4.845
    1C        C  399   3.553   4.575   4.841
    1C        C  400   3.347   4.517   4.964
    1C        C  401   4.510   3.705   2.052
    1C        C  402   4.454   3.916   2.169
    1C        C  403   4.490   3.780   2.169
    1C        C  404   4.408   3.976   2.289
    1C        C  405   4.435   3.910   2.411
    1C        C  406   4.324   4.094   2.528
    1C        C  407   4.400   3.975   2.531
    1C        C  408   4.274   4.148   2.649
    1C        C  409   4.311   4.091   2.773
    1C        C  410   4.171   4.252   2.891
    1C        C  411   4.268   4.149   2.894
    1C        C  412   4.118   4.301   3.013
    1C        C  413   4.173   4.257   3.136
    1C        C  414   4.005   4.390   3.256
    1C        C  415   4.120   4.308   3.256
    1C        C  416   3.944   4.425   3.378
    1C        C  417   4.006   4.391   3.501
    1C        C  418   3.815   4.486   3.624
    1C        C  419   3.944   4.429   3.622
    1C        C  420   3.749   4.512   3.747
    1C        C  421   3.821   4.490   3.867
    1C        C  422   3.612   4.538   3.990
    1C        C  423   3.751   4.513   3.987
    1C        C  424   3.544   4.555   4.113
    1C        C  425   3.616   4.553   4.234
    1C        C  426   3.406   4.549   4.359
    1C        C  427   3.547   4.559   4.357
    1C        C  428   3.337   4.549   4.482
    1C        C  429   3.407   4.561   4.604
    1C        C  430   3.198   4.520   4.726
    1C        C  431   3.338   4.547   4.726
    1C        C  432   3.131   4.495   4.848
    1C        C  433   3.209   4.499   4.965
    1C        C  434   4.383   4.121   2.051
    1C        C  435   4.451   3.998   2.056
    1C        C  436   4.307   4.163   2.165
    1C        C  437   4.332   4.096   2.288
    1C        C  438   4.180   4.250   2.405
    1C        C  439   4.286   4.156   2.407
    1C        C  440   4.125   4.298   2.525
    1C        C  441   4.174   4.248   2.648
    1C        C  442   4.004   4.379   2.766
    1C        C  443   4.120   4.299   2.768
    1C        C  444   3.943   4.416   2.888
    1C        C  445   4.006   4.386   3.011
    1C        C  446   3.816   4.479   3.134
    1C        C  447   3.948   4.428   3.132
    1C        C  448   3.750   4.503   3.256
    1C        C  449   3.815   4.482   3.380
    1C        C  450   3.610   4.536   3.498
    1C        C  451   3.749   4.509   3.502
    1C        C  452   3.543   4.546   3.622
    1C        C  453   3.611   4.541   3.746
    1C        C  454   3.400   4.550   3.866
    1C        C  455   3.541   4.550   3.868
    1C        C  456   3.332   4.539   3.990
    1C        C  457   3.403   4.550   4.111
    1C        C  458   3.201   4.501   4.238
    1C        C  459   3.338   4.533   4.236
    1C        C  460   3.134   4.486   4.362
    1C        C  461   3.200   4.514   4.483
    1C        C  462   3.002   4.435   4.605
    1C        C  463   3.131   4.493   4.605
    1C        C  464   2.936   4.404   4.726
    1C        C  465   2.996   4.447   4.848
    1C        C  466   2.805   4.338   4.962
    1C        C  467   2.909   4.433   4.960
    1C        C  468   4.125   4.285   2.046
    1C        C  469   4.193   4.249   2.163
    1C        C  470   4.008   4.371   2.278
    1C        C  471   4.128   4.294   2.281
    1C        C  472   3.943   4.402   2.399
    1C        C  473   4.007   4.375   2.523
    1C        C  474   3.817   4.475   2.645
    1C        C  475   3.945   4.417   2.643
    1C        C  476   3.748   4.499   2.767
    1C        C  477   3.814   4.474   2.890
    1C        C  478   3.610   4.532   3.014
    1C        C  479   3.747   4.498   3.012
    1C        C  480   3.536   4.541   3.134
    1C        C  481   3.611   4.531   3.253
    1C        C  482   3.400   4.539   3.378
    1C        C  483   3.541   4.538   3.375
    1C        C  484   3.328   4.538   3.500
    1C        C  485   3.402   4.543   3.621
    1C        C  486   3.196   4.498   3.749
    1C        C  487   3.331   4.537   3.743
    1C        C  488   3.133   4.474   3.873
    1C        C  489   3.196   4.504   3.996
    1C        C  490   3.006   4.413   4.120
    1C        C  491   3.128   4.483   4.118
    1C        C  492   2.943   4.386   4.244
    1C        C  493   3.003   4.432   4.364
    1C        C  494   2.833   4.302   4.486
    1C        C  495   2.941   4.393   4.485
    1C        C  496   2.778   4.257   4.608
    1C        C  497   2.827   4.313   4.728
    1C        C  498   2.673   4.165   4.848
    1C        C  499   2.757   4.279   4.845
    1C        C  500   2.601   4.118   4.959
    1C        C  501   4.005   4.356   2.041
    1C        C  502   3.816   4.464   2.159
    1C        C  503   3.945   4.407   2.157
    1C        C  504   3.745   4.484   2.280
    1C        C  505   3.813   4.458   2.401
    1C        C  506   3.609   4.514   2.524
    1C        C  507   3.748   4.487   2.523
    1C        C  508   3.539   4.531   2.645
    1C        C  509   3.610   4.525   2.767
    1C        C  510   3.400   4.535   2.890
    1C        C  511   3.541   4.535   2.890
    1C        C  512   3.325   4.534   3.010
    1C        C  513   3.395   4.540   3.133
    1C        C  514   3.191   4.495   3.259
    1C        C  515   3.329   4.528   3.257
    1C        C  516   3.127   4.467   3.382
    1C        C  517   3.193   4.498   3.503
    1C        C  518   3.004   4.408   3.629
    1C        C  519   3.128   4.477   3.627
    1C        C  520   2.947   4.371   3.753
    1C        C  521   3.009   4.405   3.875
    1C        C  522   2.836   4.286   3.999
    1C        C  523   2.947   4.373   3.998
    1C        C  524   2.785   4.242   4.123
    1C        C  525   2.835   4.296   4.244
    1C        C  526   2.698   4.135   4.363
    1C        C  527   2.783   4.248   4.366
    1C        C  528   2.657   4.078   4.486
    1C        C  529   2.689   4.147   4.605
    1C        C  530   2.585   3.967   4.733
    1C        C  531   2.641   4.098   4.728
    1C        C  532   2.541   3.904   4.853
    1C        C  533   2.525   4.000   4.958
    1C        C  534   3.619   4.564   2.043
    1C        C  535   3.751   4.516   2.046
    1C        C  536   3.539   4.543   2.160
    1C        C  537   3.607   4.516   2.282
    1C        C  538   3.394   4.520   2.403
    1C        C  539   3.536   4.521   2.404
    1C        C  540   3.325   4.513   2.526
    1C        C  541   3.398   4.525   2.646
    1C        C  542   3.191   4.487   2.770
    1C        C  543   3.328   4.521   2.769
    1C        C  544   3.122   4.466   2.891
    1C        C  545   3.189   4.496   3.012
    1C        C  546   3.005   4.399   3.136
    1C        C  547   3.126   4.471   3.136
    1C        C  548   2.948   4.359   3.259
    1C        C  549   3.002   4.402   3.383
    1C        C  550   2.836   4.277   3.510
    1C        C  551   2.945   4.368   3.508
    1C        C  552   2.781   4.232   3.632
    1C        C  553   2.833   4.287   3.751
    1C        C  554   2.703   4.125   3.878
    1C        C  555   2.789   4.237   3.875
    1C        C  556   2.659   4.069   4.000
    1C        C  557   2.697   4.132   4.121
    1C        C  558   2.594   3.947   4.249
    1C        C  559   2.659   4.072   4.243
    1C        C  560   2.564   3.883   4.371
    1C        C  561   2.593   3.952   4.491
    1C        C  562   2.537   3.753   4.615
    1C        C  563   2.568   3.891   4.616
    1C        C  564   2.519   3.685   4.737
    1C        C  565   2.523   3.762   4.857
    1C        C  566   2.527   3.548   4.978
    1C        C  567   2.525   3.687   4.975
    1C        C  568   3.329   4.479   2.047
    1C        C  569   3.399   4.515   2.163
    1C        C  570   3.186   4.479   2.284
    1C        C  571   3.322   4.518   2.282
    1C        C  572   3.117   4.459   2.406
    1C        C  573   3.186   4.485   2.526
    1C        C  574   2.993   4.404   2.651
    1C        C  575   3.121   4.463   2.649
    1C        C  576   2.934   4.363   2.773
    1C        C  577   2.998   4.399   2.894
    1C        C  578   2.832   4.268   3.019
    1C        C  579   2.941   4.358   3.017
    1C        C  580   2.782   4.223   3.144
    1C        C  581   2.839   4.269   3.264
    1C        C  582   2.703   4.112   3.387
    1C        C  583   2.792   4.221   3.388
    1C        C  584   2.663   4.057   3.511
    1C        C  585   2.698   4.117   3.635
    1C        C  586   2.593   3.937   3.759
    1C        C  587   2.659   4.062   3.759
    1C        C  588   2.576   3.871   3.882
    1C        C  589   2.599   3.941   4.003
    1C        C  590   2.533   3.743   4.128
    1C        C  591   2.569   3.880   4.126
    1C        C  592   2.519   3.674   4.251
    1C        C  593   2.527   3.746   4.372
    1C        C  594   2.513   3.538   4.496
    1C        C  595   2.521   3.679   4.496
    1C        C  596   2.517   3.466   4.618
    1C        C  597   2.518   3.543   4.737
    1C        C  598   2.541   3.332   4.863
    1C        C  599   2.528   3.473   4.859
    1C        C  600   2.530   3.250   4.976
    1C        C  601   3.196   4.444   2.045
    1C        C  602   2.985   4.397   2.161
    1C        C  603   3.119   4.447   2.162
    1C        C  604   2.930   4.355   2.285
    1C        C  605   2.992   4.393   2.406
    1C        C  606   2.824   4.272   2.531
    1C        C  607   2.932   4.363   2.531
    1C        C  608   2.773   4.222   2.652
    1C        C  609   2.830   4.268   2.773
    1C        C  610   2.688   4.113   2.897
    1C        C  611   2.783   4.218   2.897
    1C        C  612   2.652   4.055   3.020
    1C        C  613   2.694   4.113   3.142
    1C        C  614   2.589   3.931   3.267
    1C        C  615   2.659   4.053   3.266
    1C        C  616   2.558   3.869   3.391
    1C        C  617   2.592   3.935   3.511
    1C        C  618   2.530   3.737   3.639
    1C        C  619   2.567   3.873   3.635
    1C        C  620   2.517   3.668   3.762
    1C        C  621   2.533   3.737   3.884
    1C        C  622   2.511   3.530   4.010
    1C        C  623   2.519   3.671   4.008
    1C        C  624   2.513   3.459   4.133
    1C        C  625   2.513   3.533   4.253
    1C        C  626   2.539   3.324   4.381
    1C        C  627   2.520   3.464   4.376
    1C        C  628   2.556   3.254   4.502
    1C        C  629   2.541   3.327   4.622
    1C        C  630   2.599   3.123   4.744
    1C        C  631   2.554   3.258   4.744
    1C        C  632   2.621   3.053   4.866
    1C        C  633   2.563   3.114   4.982
    1C        C  634   2.784   4.303   2.055
    1C        C  635   2.891   4.394   2.053
    1C        C  636   2.748   4.233   2.171
    1C        C  637   2.811   4.277   2.289
    1C        C  638   2.681   4.110   2.411
    1C        C  639   2.770   4.219   2.411
    1C        C  640   2.643   4.052   2.534
    1C        C  641   2.686   4.110   2.655
    1C        C  642   2.580   3.926   2.779
    1C        C  643   2.648   4.050   2.777
    1C        C  644   2.555   3.864   2.903
    1C        C  645   2.586   3.930   3.024
    1C        C  646   2.529   3.726   3.148
    1C        C  647   2.566   3.862   3.146
    1C        C  648   2.515   3.660   3.273
    1C        C  649   2.528   3.731   3.395
    1C        C  650   2.508   3.524   3.521
    1C        C  651   2.514   3.665   3.519
    1C        C  652   2.514   3.453   3.643
    1C        C  653   2.514   3.527   3.764
    1C        C  654   2.540   3.320   3.891
    1C        C  655   2.516   3.459   3.888
    1C        C  656   2.557   3.254   4.015
    1C        C  657   2.538   3.320   4.138
    1C        C  658   2.610   3.121   4.262
    1C        C  659   2.555   3.251   4.261
    1C        C  660   2.643   3.058   4.384
    1C        C  661   2.606   3.122   4.504
    1C        C  662   2.718   2.940   4.628
    1C        C  663   2.639   3.057   4.626
    1C        C  664   2.753   2.877   4.749
    1C        C  665   2.704   2.936   4.869
    1C        C  666   2.745   2.872   4.986
    1C        C  667   2.684   4.024   2.056
    1C        C  668   2.688   4.105   2.170
    1C        C  669   2.591   3.913   2.293
    1C        C  670   2.652   4.042   2.291
    1C        C  671   2.559   3.854   2.417
    1C        C  672   2.581   3.925   2.537
    1C        C  673   2.513   3.723   2.658
    1C        C  674   2.550   3.859   2.658
    1C        C  675   2.509   3.655   2.782
    1C        C  676   2.524   3.726   2.903
    1C        C  677   2.502   3.516   3.030
    1C        C  678   2.517   3.656   3.026
    1C        C  679   2.503   3.449   3.154
    1C        C  680   2.506   3.519   3.276
    1C        C  681   2.534   3.312   3.400
    1C        C  682   2.512   3.451   3.400
    1C        C  683   2.555   3.247   3.524
    1C        C  684   2.539   3.314   3.647
    1C        C  685   2.607   3.117   3.771
    1C        C  686   2.551   3.247   3.771
    1C        C  687   2.641   3.057   3.894
    1C        C  688   2.607   3.122   4.016
    1C        C  689   2.714   2.940   4.140
    1C        C  690   2.637   3.059   4.138
    1C        C  691   2.753   2.878   4.261
    1C        C  692   2.712   2.935   4.384
    1C        C  693   2.756   2.879   4.506
    1C        C  694   2.626   3.896   2.056
    1C        C  695   2.526   3.707   2.178
    1C        C  696   2.577   3.838   2.174
    1C        C  697   2.505   3.639   2.300
    1C        C  698   2.523   3.717   2.417
    1C        C  699   2.486   3.509   2.543
    1C        C  700   2.500   3.649   2.538
    1C        C  701   2.498   3.439   2.665
    1C        C  702   2.501   3.514   2.785
    1C        C  703   2.525   3.304   2.912
    1C        C  704   2.505   3.444   2.908
    1C        C  705   2.545   3.237   3.035
    1C        C  706   2.527   3.309   3.155
    1C        C  707   2.600   3.111   3.281
    1C        C  708   2.549   3.242   3.277
    1C        C  709   2.636   3.050   3.404
    1C        C  710   2.606   3.115   3.526
    1C        C  711   2.715   2.935   3.648
    1C        C  712   2.636   3.053   3.648
    1C        C  713   2.762   2.885   3.771
    1C        C  714   2.716   2.937   3.894
    1C        C  715   2.761   2.887   4.018
    1C        C  716   2.452   3.501   2.064
    1C        C  717   2.490   3.635   2.063
    1C        C  718   2.465   3.422   2.183
    1C        C  719   2.479   3.499   2.302
    1C        C  720   2.515   3.294   2.428
    1C        C  721   2.481   3.431   2.425
    1C        C  722   2.534   3.225   2.550
    1C        C  723   2.522   3.300   2.668
    1C        C  724   2.590   3.100   2.791
    1C        C  725   2.545   3.234   2.791
    1C        C  726   2.623   3.040   2.915
    1C        C  727   2.595   3.105   3.037
    1C        C  728   2.710   2.928   3.162
    1C        C  729   2.630   3.044   3.160
    1C        C  730   2.754   2.873   3.284
    1C        C  731   2.713   2.932   3.406
    1C        C  732   2.765   2.881   3.527
    1C        C  733   2.488   3.203   2.070
    1C        C  734   2.486   3.281   2.186
    1C        C  735   2.583   3.090   2.306
    1C        C  736   2.527   3.221   2.308
    1C        C  737   2.619   3.027   2.427
    1C        C  738   2.589   3.094   2.548
    1C        C  739   2.695   2.913   2.674
    1C        C  740   2.616   3.031   2.671
    1C        C  741   2.750   2.866   2.795
    1C        C  742   2.704   2.924   2.916
    1C        C  743   2.752   2.873   3.038
    1C        C  744   2.544   3.075   2.075
    1C        C  745   2.690   2.904   2.187
    1C        C  746   2.609   3.020   2.186
    1C        C  747   2.730   2.844   2.308
    1C        C  748   2.692   2.906   2.429
    1C        C  749   2.735   2.853   2.553
    1C        C  750   2.736   2.845   2.069
    1C        C  751   3.643   2.299   2.001
    1C        O  752   3.713   2.213   2.061
    1C        O  753   3.660   2.296   1.862
    1C        C  754   4.648   3.058   2.003
    1C        O  755   4.627   3.012   1.887
    1C        O  756   4.774   3.050   2.062
    1C        C  757   4.416   4.211   1.939
    1C        O  758   4.475   4.322   1.954
    1C        O  759   4.347   4.208   1.817
    1C        C  760   3.590   4.682   1.959
    1C        O  761   3.640   4.796   1.983
    1C        O  762   3.525   4.680   1.836
    1C        C  763   2.853   4.514   1.974
    1C        O  764   2.895   4.512   1.855
    1C        O  765   2.773   4.621   2.017
    1C        C  766   2.339   3.477   1.971
    1C        O  767   2.347   3.458   1.847
    1C        O  768   2.205   3.487   2.011
    1C        C  769   4.706   3.606   5.053
    1C        O  770   4.710   3.671   5.161
    1C        O  771   4.830   3.599   4.988
    1C        C  772   4.274   4.464   5.038
    1C        O  773   4.269   4.436   5.161
    1C        O  774   4.370   4.551   4.985
    1C        C  775   4.155   2.520   5.064
    1C        O  776   4.220   2.418   5.029
    1C        O  777   4.162   2.525   5.204
    1C        C  778   2.880   4.538   5.060
    1C        O  779   2.833   4.653   5.036
    1C        O  780   2.938   4.531   5.187
    1C        C  781   2.474   3.043   5.076
    1C        O  782   2.369   2.988   5.033
    1C        O  783   2.514   3.012   5.206
    1C        C  784   2.395   4.005   5.029
    1C        O  785   2.304   4.085   4.995
    1C        O  786   2.379   3.938   5.151
    1C        C  787   2.953   2.428   1.998
    1C        O  788   2.973   2.413   1.875
    1C        O  789   2.908   2.304   2.044
    1C        C  790   3.188   2.386   5.080
    1C        O  791   3.136   2.273   5.058
    1C        O  792   3.169   2.421   5.214
    1C        H  793   4.302   3.018   5.071
    1C        H  794   4.203   2.804   5.074
    1C        H  795   4.491   3.136   5.067
    1C        H  796   4.561   3.359   5.069
    1C        H  797   4.499   3.788   5.052
    1C        H  798   4.398   3.964   5.058
    1C        H  799   4.308   4.177   5.055
    1C        H  800   4.010   4.496   5.047
    1C        H  801   3.820   4.608   5.039
    1C        H  802   3.594   4.651   5.036
    1C        H  803   3.396   4.490   5.055
    1C        H  804   3.159   4.503   5.059
    1C        H  805   3.886   2.511   5.076
    1C        H  806   3.681   2.485   5.078
    1C        H  807   2.998   2.546   5.063
    1C        H  808   3.440   2.444   5.067
    1C        H  809   2.852   2.713   5.076
    1C        H  810   2.686   2.878   5.075
    1C        H  811   2.446   3.279   5.036
    1C        H  812   2.487   3.502   5.065
    1C        H  813   2.479   3.735   5.058
    1C        H  814   2.582   4.192   5.034
    1C        H  815   2.804   4.283   5.054
    1C        H  816   2.677   2.850   1.980
    1C        H  817   2.880   2.716   1.979
    1C        H  818   3.206   2.418   1.999
    1C        H  819   3.434   2.489   1.991
    1C        H  820   3.847   2.520   1.979
    1C        H  821   4.083   2.585   1.985
    1C        H  822   4.252   2.731   1.972
    1C        H  823   4.380   2.930   1.968
    1C        H  824   4.540   3.318   1.964
    1C        H  825   4.454   3.519   1.980
    1C        H  826   4.546   3.754   1.963
    1C        H  827   3.808   4.528   1.956
    1C        H  828   3.963   4.384   1.947
    1C        H  829   4.145   4.229   1.957
    1C        H  830   4.463   3.952   1.960
    1C        H  831   2.634   3.840   1.966
    1C        H  832   2.694   4.071   1.960
    1C        H  833   2.716   4.303   1.973
    1C        H  834   3.374   4.509   1.955
    1C        H  835   3.148   4.393   1.964
    1C        H  836   2.513   3.004   2.001
    1C        H  837   2.500   3.250   1.975
    1C        H  838   2.485   3.683   1.967
    2V3OU   H29  839   2.806   3.552   5.017
    2V3OU   C27  840   2.784   3.502   5.114
    2V3OU   H27  841   2.725   3.568   5.183
    2V3OU   H28  842   2.733   3.402   5.104
    2V3OU   O11  843   2.914   3.472   5.166
    2V3OU   C15  844   2.921   3.402   5.284
    2V3OU   C13  845   3.050   3.378   5.335
    2V3OU   C14  846   3.076   3.272   5.422
    2V3OU   C16  847   2.970   3.187   5.452
    2V3OU    H6  848   2.997   3.098   5.511
    2V3OU   C12  849   3.215   3.228   5.450
    2V3OU    O2  850   3.240   3.123   5.513
    2V3OU   C10  851   3.327   3.311   5.405
    2V3OU    C8  852   3.460   3.277   5.425
    2V3OU   O10  853   3.491   3.153   5.472
    2V3OU   H26  854   3.405   3.116   5.497
    2V3OU    C6  855   3.571   3.354   5.378
    2V3OU    C5  856   3.543   3.468   5.303
    2V3OU    C4  857   3.706   3.293   5.364
    2V3OU    H4  858   3.728   3.226   5.452
    2V3OU    H5  859   3.709   3.235   5.268
    2V3OU    C2  860   3.815   3.401   5.359
    2V3OU    O6  861   3.805   3.476   5.480
    2V3OU   H21  862   3.773   3.565   5.459
    2V3OU    C3  863   3.788   3.500   5.245
    2V3OU    H2  864   3.867   3.578   5.238
    2V3OU    H3  865   3.791   3.436   5.153
    2V3OU   C25  866   3.949   3.330   5.342
    2V3OU    O7  867   3.997   3.298   5.233
    2V3OU   C26  868   4.029   3.293   5.466
    2V3OU   H22  869   4.070   3.390   5.504
    2V3OU   H23  870   4.119   3.233   5.436
    2V3OU    O8  871   3.961   3.212   5.559
    2V3OU   H24  872   3.934   3.270   5.633
    2V3OU    C1  873   3.650   3.562   5.256
    2V3OU    H1  874   3.631   3.619   5.160
    2V3OU    O3  875   3.665   3.658   5.361
    2V3OU   C19  876   3.620   3.791   5.336
    2V3OU    H9  877   3.520   3.795   5.282
    2V3OU    O4  878   3.713   3.849   5.248
    2V3OU   C20  879   3.845   3.881   5.294
    2V3OU   H10  880   3.905   3.786   5.307
    2V3OU   C24  881   3.612   3.860   5.472
    2V3OU   H16  882   3.550   3.799   5.542
    2V3OU   H17  883   3.566   3.961   5.454
    2V3OU   C23  884   3.754   3.877   5.527
    2V3OU   H15  885   3.797   3.775   5.553
    2V3OU    N1  886   3.736   3.960   5.645
    2V3OU   H19  887   3.811   3.935   5.708
    2V3OU   H20  888   3.646   3.937   5.682
    2V3OU   C21  889   3.852   3.950   5.431
    2V3OU   H11  890   3.958   3.928   5.465
    2V3OU    O5  891   3.832   4.090   5.443
    2V3OU   H18  892   3.786   4.104   5.528
    2V3OU   C22  893   3.914   3.953   5.179
    2V3OU   H12  894   3.863   4.050   5.159
    2V3OU   H13  895   3.906   3.893   5.085
    2V3OU   H14  896   4.021   3.968   5.207
    2V3OU   C11  897   3.159   3.475   5.314
    2V3OU    O1  898   3.134   3.580   5.251
    2V3OU    C9  899   3.299   3.428   5.328
    2V3OU    C7  900   3.406   3.505   5.287
    2V3OU    O9  901   3.380   3.610   5.201
    2V3OU   H25  902   3.287   3.632   5.219
    2V3OU   C17  903   2.814   3.324   5.333
    2V3OU    H7  904   2.717   3.354   5.295
    2V3OU   C18  905   2.839   3.214   5.415
    2V3OU    H8  906   2.758   3.150   5.453
    3SOL     OW  907   3.858   3.981   4.173
    3SOL    HW1  908   3.873   3.982   4.272
    3SOL    HW2  909   3.904   3.901   4.134
    4SOL     OW  910   6.241   0.116   0.321
    4SOL    HW1  911   6.176   0.170   0.374
    4SOL    HW2  912   6.193   0.043   0.272
    5SOL     OW  913   4.190   0.876   1.159
    5SOL    HW1  914   4.153   0.894   1.250
    5SOL    HW2  915   4.289   0.867   1.164
    6SOL     OW  916   5.659   0.225   1.975
    6SOL    HW1  917   5.668   0.264   1.884
    6SOL    HW2  918   5.563   0.204   1.994
    7SOL     OW  919   2.377   4.369   3.597
    7SOL    HW1  920   2.429   4.454   3.594
    7SOL    HW2  921   2.369   4.338   3.692
    8SOL     OW  922   2.025   3.263   5.712
    8SOL    HW1  923   1.943   3.300   5.757
    8SOL    HW2  924   2.009   3.168   5.687
    9SOL     OW  925   5.949   1.078   6.623
    9SOL    HW1  926   5.913   1.109   6.535
    9SOL    HW2  927   5.970   1.157   6.680
   10SOL     OW  928   4.676   5.030   3.238
   10SOL    HW1  929   4.657   5.035   3.335
   10SOL    HW2  930   4.603   4.980   3.192
   11SOL     OW  931   2.045   0.748   0.697
   11SOL    HW1  932   1.963   0.703   0.662
   11SOL    HW2  933   2.024   0.798   0.780
   12SOL     OW  934   3.092   5.179   3.633
   12SOL    HW1  935   3.180   5.132   3.639
   12SOL    HW2  936   3.053   5.165   3.542
   13SOL     OW  937   4.500   6.134   1.791
   13SOL    HW1  938   4.542   6.125   1.881
   13SOL    HW2  939   4.563   6.100   1.721
   14SOL     OW  940   4.234   5.265   4.896
   14SOL    HW1  941   4.200   5.295   4.806
   14SOL    HW2  942   4.327   5.298   4.909
   15SOL     OW  943   7.002   5.648   6.170
   15SOL    HW1  944   6.970   5.742   6.162
   15SOL    HW2  945   6.933   5.586   6.132
   16SOL     OW  946   0.418   3.874   5.626
   16SOL    HW1  947   0.456   3.845   5.538
   16SOL    HW2  948   0.378   3.795   5.672
   17SOL     OW  949   6.290   1.159   5.509
   17SOL    HW1  950   6.245   1.182   5.595
   17SOL    HW2  951   6.385   1.191   5.513
   18SOL     OW  952   3.388   0.917   5.722
   18SOL    HW1  953   3.398   0.818   5.730
   18SOL    HW2  954   3.294   0.944   5.747
   19SOL     OW  955   1.496   1.389   2.912
   19SOL    HW1  956   1.494   1.488   2.895
   19SOL    HW2  957   1.558   1.345   2.848
   20SOL     OW  958   5.824   1.981   5.426
   20SOL    HW1  959   5.749   1.921   5.451
   20SOL    HW2  960   5.805   2.024   5.338
   21SOL     OW  961   2.747   5.440   2.510
   21SOL    HW1  962   2.764   5.424   2.413
   21SOL    HW2  963   2.670   5.503   2.520
   22SOL     OW  964   2.011   6.194   5.497
   22SOL    HW1  965   2.077   6.261   5.461
   22SOL    HW2  966   1.974   6.226   5.584
   23SOL     OW  967   5.325   4.046   1.797
   23SOL    HW1  968   5.264   4.055   1.875
   23SOL    HW2  969   5.298   4.109   1.725
   24SOL     OW  970   4.384   0.829   1.738
   24SOL    HW1  971   4.287   0.823   1.711
   24SOL    HW2  972   4.391   0.819   1.838
   25SOL     OW  973   2.105   0.433   4.144
   25SOL    HW1  974   2.166   0.362   4.108
   25SOL    HW2  975   2.159   0.501   4.193
   26SOL     OW  976   0.815   3.220   0.069
   26SOL    HW1  977   0.895   3.273   0.095
   26SOL    HW2  978   0.786   3.247   7.005
   27SOL     OW  979   6.423   1.418   0.930
   27SOL    HW1  980   6.439   1.515   0.917
   27SOL    HW2  981   6.470   1.387   1.013
   28SOL     OW  982   2.858   0.767   4.623
   28SOL    HW1  983   2.943   0.776   4.572
   28SOL    HW2  984   2.855   0.677   4.667
   29SOL     OW  985   0.059   0.561   0.657
   29SOL    HW1  986   6.991   0.545   0.633
   29SOL    HW2  987   0.118   0.512   0.594
   30SOL     OW  988   4.013   0.629   5.271
   30SOL    HW1  989   4.043   0.548   5.219
   30SOL    HW2  990   3.949   0.600   5.342
   31SOL     OW  991   1.013   3.143   5.012
   31SOL    HW1  992   1.067   3.187   4.941
   31SOL    HW2  993   0.929   3.195   5.028
   32SOL     OW  994   1.838   0.081   1.267
   32SOL    HW1  995   1.822   0.100   1.364
   32SOL    HW2  996   1.919   0.131   1.236
   33SOL     OW  997   0.507   5.149   6.006
   33SOL    HW1  998   0.419   5.115   5.973
   33SOL    HW2  999   0.506   5.249   6.005
   34SOL     OW 1000   2.499   5.080   5.271
   34SOL    HW1 1001   2.411   5.115   5.304
   34SOL    HW2 1002   2.528   5.004   5.328
   35SOL     OW 1003   3.428   2.910   0.656
   35SOL    HW1 1004   3.411   2.811   0.655
   35SOL    HW2 1005   3.423   2.943   0.751
   36SOL     OW 1006   4.965   0.384   4.255
   36SOL    HW1 1007   4.900   0.443   4.207
   36SOL    HW2 1008   4.916   0.326   4.320
   37SOL     OW 1009   2.153   1.218   3.637
   37SOL    HW1 1010   2.216   1.148   3.603
   37SOL    HW2 1011   2.086   1.239   3.565
   38SOL     OW 1012   0.395   4.641   2.407
   38SOL    HW1 1013   0.443   4.570   2.354
   38SOL    HW2 1014   0.452   4.723   2.413
   39SOL     OW 1015   6.921   5.309   6.187
   39SOL    HW1 1016   6.844   5.354   6.142
   39SOL    HW2 1017   7.004   5.324   6.132
   40SOL     OW 1018   4.132   0.777   6.163
   40SOL    HW1 1019   4.093   0.719   6.235
   40SOL    HW2 1020   4.107   0.872   6.179
   41SOL     OW 1021   6.397   3.958   1.624
   41SOL    HW1 1022   6.328   3.998   1.564
   41SOL    HW2 1023   6.487   3.993   1.597
   42SOL     OW 1024   2.386   5.926   5.949
   42SOL    HW1 1025   2.320   5.989   5.908
   42SOL    HW2 1026   2.348   5.889   6.034
   43SOL     OW 1027   4.804   6.583   4.363
   43SOL    HW1 1028   4.817   6.580   4.462
   43SOL    HW2 1029   4.774   6.675   4.336
   44SOL     OW 1030   6.202   2.036   5.824
   44SOL    HW1 1031   6.243   2.029   5.733
   44SOL    HW2 1032   6.104   2.053   5.815
   45SOL     OW 1033   3.554   4.817   0.257
   45SOL    HW1 1034   3.550   4.801   0.159
   45SOL    HW2 1035   3.586   4.910   0.276
   46SOL     OW 1036   0.645   2.975   4.586
   46SOL    HW1 1037   0.567   3.008   4.532
   46SOL    HW2 1038   0.661   3.037   4.663
   47SOL     OW 1039   6.016   3.087   1.301
   47SOL    HW1 1040   6.077   3.089   1.380
   47SOL    HW2 1041   5.998   2.992   1.275
   48SOL     OW 1042   6.676   3.677   0.436
   48SOL    HW1 1043   6.677   3.586   0.394
   48SOL    HW2 1044   6.583   3.698   0.466
   49SOL     OW 1045   3.868   3.025   0.058
   49SOL    HW1 1046   3.820   3.046   7.001
   49SOL    HW2 1047   3.820   2.953   0.108
   50SOL     OW 1048   6.451   3.727   6.561
   50SOL    HW1 1049   6.508   3.678   6.495
   50SOL    HW2 1050   6.380   3.778   6.513
   51SOL     OW 1051   2.472   5.910   2.954
   51SOL    HW1 1052   2.543   5.858   3.002
   51SOL    HW2 1053   2.404   5.943   3.020
   52SOL     OW 1054   5.937   2.601   1.675
   52SOL    HW1 1055   5.883   2.667   1.726
   52SOL    HW2 1056   5.876   2.542   1.621
   53SOL     OW 1057   3.697   0.686   2.390
   53SOL    HW1 1058   3.742   0.760   2.440
   53SOL    HW2 1059   3.750   0.663   2.309
   54SOL     OW 1060   5.272   6.925   0.409
   54SOL    HW1 1061   5.225   6.997   0.459
   54SOL    HW2 1062   5.362   6.957   0.379
   55SOL     OW 1063   1.479   3.617   6.375
   55SOL    HW1 1064   1.499   3.580   6.285
   55SOL    HW2 1065   1.461   3.715   6.367
   56SOL     OW 1066   1.249   2.385   6.865
   56SOL    HW1 1067   1.304   2.307   6.835
   56SOL    HW2 1068   1.263   2.400   6.963
   57SOL     OW 1069   4.764   0.780   6.829
   57SOL    HW1 1070   4.721   0.735   6.751
   57SOL    HW2 1071   4.696   0.795   6.901
   58SOL     OW 1072   0.762   0.597   6.376
   58SOL    HW1 1073   0.852   0.556   6.387
   58SOL    HW2 1074   0.762   0.689   6.414
   59SOL     OW 1075   5.290   3.481   5.879
   59SOL    HW1 1076   5.295   3.560   5.941
   59SOL    HW2 1077   5.215   3.493   5.814
   60SOL     OW 1078   5.367   0.220   2.651
   60SOL    HW1 1079   5.454   0.260   2.622
   60SOL    HW2 1080   5.340   0.259   2.739
   61SOL     OW 1081   6.923   0.191   4.968
   61SOL    HW1 1082   6.950   0.286   4.980
   61SOL    HW2 1083   6.824   0.186   4.954
   62SOL     OW 1084   0.125   1.954   2.413
   62SOL    HW1 1085   0.051   1.939   2.348
   62SOL    HW2 1086   0.176   2.037   2.388
   63SOL     OW 1087   4.301   6.312   5.003
   63SOL    HW1 1088   4.396   6.285   4.992
   63SOL    HW2 1089   4.241   6.239   4.969
   64SOL     OW 1090   1.075   4.560   0.350
   64SOL    HW1 1091   1.067   4.461   0.364
   64SOL    HW2 1092   1.097   4.605   0.437
   65SOL     OW 1093   0.718   0.305   5.311
   65SOL    HW1 1094   0.719   0.218   5.360
   65SOL    HW2 1095   0.789   0.365   5.347
   66SOL     OW 1096   4.303   0.743   2.385
   66SOL    HW1 1097   4.307   0.834   2.345
   66SOL    HW2 1098   4.386   0.725   2.437
   67SOL     OW 1099   0.890   2.207   1.112
   67SOL    HW1 1100   0.802   2.217   1.066
   67SOL    HW2 1101   0.958   2.174   1.047
   68SOL     OW 1102   6.704   2.657   5.851
   68SOL    HW1 1103   6.651   2.621   5.774
   68SOL    HW2 1104   6.794   2.614   5.853
   69SOL     OW 1105   0.945   4.864   6.223
   69SOL    HW1 1106   0.935   4.813   6.308
   69SOL    HW2 1107   1.030   4.917   6.226
   70SOL     OW 1108   5.376   3.130   4.504
   70SOL    HW1 1109   5.292   3.168   4.464
   70SOL    HW2 1110   5.436   3.205   4.532
   71SOL     OW 1111   4.438   1.617   4.238
   71SOL    HW1 1112   4.408   1.697   4.290
   71SOL    HW2 1113   4.417   1.533   4.289
   72SOL     OW 1114   0.370   0.772   3.574
   72SOL    HW1 1115   0.387   0.778   3.673
   72SOL    HW2 1116   0.439   0.826   3.525
   73SOL     OW 1117   2.660   0.611   1.094
   73SOL    HW1 1118   2.629   0.689   1.040
   73SOL    HW2 1119   2.629   0.526   1.051
   74SOL     OW 1120   1.701   2.397   0.134
   74SOL    HW1 1121   1.631   2.416   0.203
   74SOL    HW2 1122   1.672   2.321   0.076
   75SOL     OW 1123   4.046   2.333   0.490
   75SOL    HW1 1124   4.040   2.390   0.408
   75SOL    HW2 1125   4.136   2.292   0.495
   76SOL     OW 1126   3.368   4.736   5.396
   76SOL    HW1 1127   3.443   4.777   5.345
   76SOL    HW2 1128   3.288   4.797   5.393
   77SOL     OW 1129   1.740   4.080   4.043
   77SOL    HW1 1130   1.662   4.125   4.086
   77SOL    HW2 1131   1.813   4.148   4.030
   78SOL     OW 1132   4.481   1.865   0.873
   78SOL    HW1 1133   4.542   1.944   0.866
   78SOL    HW2 1134   4.507   1.811   0.953
   79SOL     OW 1135   1.916   5.177   2.552
   79SOL    HW1 1136   1.929   5.100   2.615
   79SOL    HW2 1137   1.979   5.167   2.474
   80SOL     OW 1138   4.633   2.025   4.680
   80SOL    HW1 1139   4.718   2.016   4.732
   80SOL    HW2 1140   4.634   1.965   4.601
   81SOL     OW 1141   2.953   5.872   1.543
   81SOL    HW1 1142   2.946   5.962   1.587
   81SOL    HW2 1143   2.881   5.862   1.475
   82SOL     OW 1144   1.365   6.398   1.449
   82SOL    HW1 1145   1.371   6.305   1.413
   82SOL    HW2 1146   1.302   6.452   1.394
   83SOL     OW 1147   5.120   1.169   4.722
   83SOL    HW1 1148   5.051   1.137   4.658
   83SOL    HW2 1149   5.079   1.183   4.812
   84SOL     OW 1150   5.754   2.499   2.903
   84SOL    HW1 1151   5.692   2.421   2.899
   84SOL    HW2 1152   5.804   2.497   2.990
   85SOL     OW 1153   2.096   0.681   4.027
   85SOL    HW1 1154   2.065   0.591   4.056
   85SOL    HW2 1155   2.086   0.746   4.102
   86SOL     OW 1156   5.647   0.727   6.712
   86SOL    HW1 1157   5.550   0.704   6.701
   86SOL    HW2 1158   5.658   0.788   6.791
   87SOL     OW 1159   3.052   4.278   6.909
   87SOL    HW1 1160   3.150   4.271   6.926
   87SOL    HW2 1161   3.002   4.254   6.992
   88SOL     OW 1162   2.917   3.656   6.992
   88SOL    HW1 1163   2.893   3.601   0.045
   88SOL    HW2 1164   2.923   3.752   7.019
   89SOL     OW 1165   2.931   3.777   3.020
   89SOL    HW1 1166   2.978   3.693   3.048
   89SOL    HW2 1167   2.905   3.830   3.101
   90SOL     OW 1168   5.169   4.017   3.130
   90SOL    HW1 1169   5.121   3.966   3.058
   90SOL    HW2 1170   5.165   3.965   3.216
   91SOL     OW 1171   5.169   5.197   5.876
   91SOL    HW1 1172   5.087   5.238   5.915
   91SOL    HW2 1173   5.250   5.228   5.926
   92SOL     OW 1174   5.482   4.146   6.624
   92SOL    HW1 1175   5.404   4.097   6.664
   92SOL    HW2 1176   5.556   4.151   6.691
   93SOL     OW 1177   2.866   3.282   2.304
   93SOL    HW1 1178   2.947   3.249   2.353
   93SOL    HW2 1179   2.830   3.209   2.246
   94SOL     OW 1180   3.303   1.611   5.945
   94SOL    HW1 1181   3.329   1.573   5.856
   94SOL    HW2 1182   3.267   1.538   6.003
   95SOL     OW 1183   0.087   0.766   4.476
   95SOL    HW1 1184   0.044   0.856   4.482
   95SOL    HW2 1185   0.022   0.701   4.437
   96SOL     OW 1186   4.648   5.098   0.418
   96SOL    HW1 1187   4.707   5.141   0.350
   96SOL    HW2 1188   4.665   4.999   0.419
   97SOL     OW 1189   2.156   5.223   5.357
   97SOL    HW1 1190   2.176   5.254   5.450
   97SOL    HW2 1191   2.061   5.193   5.352
   98SOL     OW 1192   0.934   3.026   3.254
   98SOL    HW1 1193   0.903   2.931   3.243
   98SOL    HW2 1194   1.014   3.027   3.315
   99SOL     OW 1195   4.133   3.319   4.484
   99SOL    HW1 1196   4.230   3.297   4.484
   99SOL    HW2 1197   4.107   3.361   4.397
  100SOL     OW 1198   6.956   0.059   3.469
  100SOL    HW1 1199   6.887   0.021   3.530
  100SOL    HW2 1200   0.003   0.097   3.522
  101SOL     OW 1201   0.108   3.427   2.629
  101SOL    HW1 1202   0.016   3.391   2.649
  101SOL    HW2 1203   0.160   3.358   2.578
  102SOL     OW 1204   2.558   0.048   0.696
  102SOL    HW1 1205   2.630   7.020   0.655
  102SOL    HW2 1206   2.573   0.054   0.795
  103SOL     OW 1207   2.149   0.640   1.619
  103SOL    HW1 1208   2.170   0.719   1.561
  103SOL    HW2 1209   2.099   0.671   1.700
  104SOL     OW 1210   0.715   4.863   1.334
  104SOL    HW1 1211   0.739   4.944   1.388
  104SOL    HW2 1212   0.762   4.783   1.370
  105SOL     OW 1213   5.223   1.648   6.032
  105SOL    HW1 1214   5.305   1.616   6.079
  105SOL    HW2 1215   5.238   1.742   6.000
  106SOL     OW 1216   5.764   5.457   2.209
  106SOL    HW1 1217   5.701   5.380   2.209
  106SOL    HW2 1218   5.856   5.426   2.187
  107SOL     OW 1219   6.123   0.551   0.916
  107SOL    HW1 1220   6.029   0.521   0.903
  107SOL    HW2 1221   6.136   0.640   0.872
  108SOL     OW 1222   1.851   0.752   5.983
  108SOL    HW1 1223   1.839   0.773   5.886
  108SOL    HW2 1224   1.854   0.838   6.035
  109SOL     OW 1225   2.174   1.291   3.915
  109SOL    HW1 1226   2.154   1.247   3.827
  109SOL    HW2 1227   2.272   1.282   3.935
  110SOL     OW 1228   3.022   4.459   5.661
  110SOL    HW1 1229   2.979   4.369   5.662
  110SOL    HW2 1230   3.084   4.466   5.582
  111SOL     OW 1231   6.935   1.937   1.625
  111SOL    HW1 1232   6.914   1.911   1.531
  111SOL    HW2 1233   6.921   1.859   1.685
  112SOL     OW 1234   4.857   0.343   6.936
  112SOL    HW1 1235   4.934   0.279   6.933
  112SOL    HW2 1236   4.889   0.430   6.974
  113SOL     OW 1237   6.498   5.731   1.627
  113SOL    HW1 1238   6.502   5.830   1.615
  113SOL    HW2 1239   6.427   5.693   1.567
  114SOL     OW 1240   0.410   3.865   3.096
  114SOL    HW1 1241   0.447   3.857   3.003
  114SOL    HW2 1242   0.320   3.822   3.099
  115SOL     OW 1243   6.299   0.698   3.301
  115SOL    HW1 1244   6.215   0.662   3.343
  115SOL    HW2 1245   6.279   0.785   3.256
  116SOL     OW 1246   1.115   4.886   0.771
  116SOL    HW1 1247   1.141   4.966   0.717
  116SOL    HW2 1248   1.189   4.862   0.834
  117SOL     OW 1249   2.423   1.590   0.061
  117SOL    HW1 1250   2.382   1.560   7.003
  117SOL    HW2 1251   2.444   1.688   0.056
  118SOL     OW 1252   1.337   1.448   4.320
  118SOL    HW1 1253   1.420   1.439   4.265
  118SOL    HW2 1254   1.257   1.430   4.262
  119SOL     OW 1255   6.889   5.942   6.463
  119SOL    HW1 1256   6.827   5.891   6.402
  119SOL    HW2 1257   6.898   5.893   6.550
  120SOL     OW 1258   4.747   2.568   4.641
  120SOL    HW1 1259   4.805   2.618   4.576
  120SOL    HW2 1260   4.743   2.617   4.728
  121SOL     OW 1261   1.351   3.775   6.691
  121SOL    HW1 1262   1.424   3.830   6.733
  121SOL    HW2 1263   1.379   3.679   6.689
  122SOL     OW 1264   0.713   4.051   0.061
  122SOL    HW1 1265   0.666   4.025   7.004
  122SOL    HW2 1266   0.812   4.045   0.047
  123SOL     OW 1267   1.296   1.043   1.679
  123SOL    HW1 1268   1.298   1.018   1.582
  123SOL    HW2 1269   1.278   1.141   1.687
  124SOL     OW 1270   2.036   2.649   0.898
  124SOL    HW1 1271   2.104   2.594   0.945
  124SOL    HW2 1272   2.077   2.695   0.820
  125SOL     OW 1273   3.751   3.563   0.250
  125SOL    HW1 1274   3.714   3.655   0.237
  125SOL    HW2 1275   3.686   3.508   0.302
  126SOL     OW 1276   3.695   3.188   4.422
  126SOL    HW1 1277   3.718   3.281   4.451
  126SOL    HW2 1278   3.772   3.149   4.372
  127SOL     OW 1279   0.309   6.323   6.175
  127SOL    HW1 1280   0.331   6.256   6.105
  127SOL    HW2 1281   0.258   6.279   6.249
  128SOL     OW 1282   5.058   3.704   0.850
  128SOL    HW1 1283   4.961   3.703   0.825
  128SOL    HW2 1284   5.104   3.780   0.805
  129SOL     OW 1285   2.120   5.773   1.076
  129SOL    HW1 1286   2.134   5.683   1.036
  129SOL    HW2 1287   2.089   5.763   1.171
  130SOL     OW 1288   5.472   2.528   4.858
  130SOL    HW1 1289   5.520   2.607   4.895
  130SOL    HW2 1290   5.383   2.519   4.903
  131SOL     OW 1291   6.802   2.616   3.655
  131SOL    HW1 1292   6.845   2.556   3.722
  131SOL    HW2 1293   6.729   2.566   3.608
  132SOL     OW 1294   3.683   3.773   2.145
  132SOL    HW1 1295   3.627   3.730   2.074
  132SOL    HW2 1296   3.706   3.866   2.118
  133SOL     OW 1297   5.483   6.893   5.888
  133SOL    HW1 1298   5.388   6.871   5.910
  133SOL    HW2 1299   5.542   6.820   5.923
  134SOL     OW 1300   5.217   1.036   1.605
  134SOL    HW1 1301   5.152   0.988   1.547
  134SOL    HW2 1302   5.217   0.995   1.696
  135SOL     OW 1303   4.863   3.789   4.351
  135SOL    HW1 1304   4.882   3.813   4.256
  135SOL    HW2 1305   4.848   3.872   4.404
  136SOL     OW 1306   3.504   7.005   5.619
  136SOL    HW1 1307   3.488   0.076   5.624
  136SOL    HW2 1308   3.516   6.979   5.523
  137SOL     OW 1309   3.062   2.272   5.404
  137SOL    HW1 1310   3.050   2.194   5.343
  137SOL    HW2 1311   3.110   2.345   5.355
  138SOL     OW 1312   0.719   6.119   5.796
  138SOL    HW1 1313   0.816   6.116   5.817
  138SOL    HW2 1314   0.706   6.112   5.697
  139SOL     OW 1315   1.855   5.984   0.054
  139SOL    HW1 1316   1.932   5.974   7.018
  139SOL    HW2 1317   1.862   6.072   0.100
  140SOL     OW 1318   2.532   0.206   2.391
  140SOL    HW1 1319   2.578   0.220   2.479
  140SOL    HW2 1320   2.507   0.294   2.351
  141SOL     OW 1321   6.805   4.041   0.314
  141SOL    HW1 1322   6.894   4.079   0.289
  141SOL    HW2 1323   6.743   4.116   0.337
  142SOL     OW 1324   1.571   4.278   2.562
  142SOL    HW1 1325   1.571   4.179   2.549
  142SOL    HW2 1326   1.663   4.309   2.586
  143SOL     OW 1327   4.423   6.580   1.623
  143SOL    HW1 1328   4.464   6.579   1.714
  143SOL    HW2 1329   4.495   6.590   1.554
  144SOL     OW 1330   3.629   4.907   3.451
  144SOL    HW1 1331   3.642   4.892   3.549
  144SOL    HW2 1332   3.718   4.913   3.407
  145SOL     OW 1333   6.872   4.556   3.019
  145SOL    HW1 1334   6.815   4.598   2.949
  145SOL    HW2 1335   6.945   4.502   2.975
  146SOL     OW 1336   5.768   1.648   6.456
  146SOL    HW1 1337   5.865   1.644   6.431
  146SOL    HW2 1338   5.759   1.670   6.553
  147SOL     OW 1339   4.715   1.111   5.286
  147SOL    HW1 1340   4.695   1.034   5.346
  147SOL    HW2 1341   4.639   1.175   5.287
  148SOL     OW 1342   1.240   5.390   0.563
  148SOL    HW1 1343   1.236   5.461   0.634
  148SOL    HW2 1344   1.152   5.387   0.515
  149SOL     OW 1345   1.904   3.032   5.576
  149SOL    HW1 1346   1.863   2.997   5.660
  149SOL    HW2 1347   1.935   2.955   5.520
  150SOL     OW 1348   4.159   1.715   4.654
  150SOL    HW1 1349   4.132   1.676   4.742
  150SOL    HW2 1350   4.080   1.717   4.593
  151SOL     OW 1351   4.319   2.412   0.525
  151SOL    HW1 1352   4.298   2.440   0.619
  151SOL    HW2 1353   4.264   2.465   0.461
  152SOL     OW 1354   0.978   1.206   0.219
  152SOL    HW1 1355   1.027   1.142   0.160
  152SOL    HW2 1356   0.949   1.286   0.166
  153SOL     OW 1357   3.246   1.185   3.939
  153SOL    HW1 1358   3.259   1.113   3.870
  153SOL    HW2 1359   3.220   1.143   4.026
  154SOL     OW 1360   5.767   1.664   1.366
  154SOL    HW1 1361   5.708   1.598   1.412
  154SOL    HW2 1362   5.803   1.729   1.432
  155SOL     OW 1363   1.761   6.900   1.898
  155SOL    HW1 1364   1.683   6.843   1.927
  155SOL    HW2 1365   1.802   6.943   1.978
  156SOL     OW 1366   5.356   2.465   0.481
  156SOL    HW1 1367   5.266   2.447   0.441
  156SOL    HW2 1368   5.352   2.549   0.535
  157SOL     OW 1369   4.724   5.105   0.131
  157SOL    HW1 1370   4.812   5.060   0.146
  157SOL    HW2 1371   4.650   5.040   0.151
  158SOL     OW 1372   0.342   3.043   3.062
  158SOL    HW1 1373   0.269   3.075   3.002
  158SOL    HW2 1374   0.305   2.977   3.128
  159SOL     OW 1375   5.547   5.564   0.577
  159SOL    HW1 1376   5.632   5.617   0.582
  159SOL    HW2 1377   5.559   5.489   0.512
  160SOL     OW 1378   6.083   6.807   0.958
  160SOL    HW1 1379   6.052   6.863   1.035
  160SOL    HW2 1380   6.111   6.868   0.883
  161SOL     OW 1381   0.175   6.374   0.330
  161SOL    HW1 1382   0.140   6.286   0.362
  161SOL    HW2 1383   0.275   6.370   0.325
  162SOL     OW 1384   3.892   6.868   0.262
  162SOL    HW1 1385   3.950   6.946   0.281
  162SOL    HW2 1386   3.944   6.798   0.214
  163SOL     OW 1387   6.797   3.833   3.600
  163SOL    HW1 1388   6.862   3.769   3.641
  163SOL    HW2 1389   6.829   3.927   3.615
  164SOL     OW 1390   1.845   1.506   3.009
  164SOL    HW1 1391   1.803   1.596   3.018
  164SOL    HW2 1392   1.911   1.507   2.935
  165SOL     OW 1393   0.805   5.913   3.439
  165SOL    HW1 1394   0.769   5.847   3.504
  165SOL    HW2 1395   0.849   5.865   3.363
  166SOL     OW 1396   6.853   3.369   2.917
  166SOL    HW1 1397   6.921   3.359   2.989
  166SOL    HW2 1398   6.788   3.441   2.940
  167SOL     OW 1399   4.760   2.180   6.775
  167SOL    HW1 1400   4.798   2.158   6.685
  167SOL    HW2 1401   4.724   2.097   6.818
  168SOL     OW 1402   4.975   4.043   2.241
  168SOL    HW1 1403   4.983   4.131   2.287
  168SOL    HW2 1404   5.027   4.046   2.155
  169SOL     OW 1405   6.178   2.560   1.060
  169SOL    HW1 1406   6.179   2.610   1.147
  169SOL    HW2 1407   6.261   2.506   1.052
  170SOL     OW 1408   0.471   5.377   3.005
  170SOL    HW1 1409   0.562   5.340   3.025
  170SOL    HW2 1410   0.459   5.383   2.906
  171SOL     OW 1411   2.825   3.617   0.445
  171SOL    HW1 1412   2.833   3.717   0.448
  171SOL    HW2 1413   2.903   3.575   0.491
  172SOL     OW 1414   6.213   1.949   0.312
  172SOL    HW1 1415   6.132   1.905   0.273
  172SOL    HW2 1416   6.204   1.956   0.411
  173SOL     OW 1417   6.803   2.218   5.264
  173SOL    HW1 1418   6.790   2.119   5.256
  173SOL    HW2 1419   6.831   2.255   5.175
  174SOL     OW 1420   6.324   5.140   5.444
  174SOL    HW1 1421   6.401   5.083   5.471
  174SOL    HW2 1422   6.274   5.169   5.525
  175SOL     OW 1423   0.902   0.038   0.912
  175SOL    HW1 1424   0.931   0.115   0.968
  175SOL    HW2 1425   0.819   7.026   0.951
  176SOL     OW 1426   5.512   4.699   2.485
  176SOL    HW1 1427   5.514   4.636   2.563
  176SOL    HW2 1428   5.527   4.793   2.518
  177SOL     OW 1429   5.782   2.376   4.121
  177SOL    HW1 1430   5.720   2.347   4.194
  177SOL    HW2 1431   5.875   2.348   4.143
  178SOL     OW 1432   1.821   6.708   5.213
  178SOL    HW1 1433   1.915   6.675   5.205
  178SOL    HW2 1434   1.763   6.662   5.145
  179SOL     OW 1435   3.717   4.893   1.099
  179SOL    HW1 1436   3.680   4.825   1.035
  179SOL    HW2 1437   3.809   4.865   1.127
  180SOL     OW 1438   4.365   1.861   0.628
  180SOL    HW1 1439   4.405   1.850   0.719
  180SOL    HW2 1440   4.381   1.778   0.574
  181SOL     OW 1441   3.391   2.304   5.601
  181SOL    HW1 1442   3.374   2.398   5.628
  181SOL    HW2 1443   3.395   2.298   5.502
  182SOL     OW 1444   4.659   2.409   6.565
  182SOL    HW1 1445   4.595   2.384   6.493
  182SOL    HW2 1446   4.719   2.331   6.585
  183SOL     OW 1447   3.358   1.704   3.566
  183SOL    HW1 1448   3.336   1.728   3.660
  183SOL    HW2 1449   3.277   1.712   3.509
  184SOL     OW 1450   6.518   6.309   3.326
  184SOL    HW1 1451   6.419   6.316   3.333
  184SOL    HW2 1452   6.542   6.263   3.240
  185SOL     OW 1453   0.407   1.216   4.276
  185SOL    HW1 1454   0.416   1.156   4.196
  185SOL    HW2 1455   0.497   1.252   4.301
  186SOL     OW 1456   4.613   5.643   3.533
  186SOL    HW1 1457   4.513   5.640   3.527
  186SOL    HW2 1458   4.652   5.649   3.441
  187SOL     OW 1459   4.300   6.338   1.777
  187SOL    HW1 1460   4.331   6.414   1.720
  187SOL    HW2 1461   4.376   6.275   1.792
  188SOL     OW 1462   1.792   2.838   3.264
  188SOL    HW1 1463   1.857   2.864   3.336
  188SOL    HW2 1464   1.824   2.755   3.218
  189SOL     OW 1465   6.153   4.846   6.235
  189SOL    HW1 1466   6.161   4.845   6.335
  189SOL    HW2 1467   6.066   4.888   6.209
  190SOL     OW 1468   6.423   0.255   0.163
  190SOL    HW1 1469   6.367   0.193   0.218
  190SOL    HW2 1470   6.452   0.209   0.079
  191SOL     OW 1471   6.551   0.969   5.784
  191SOL    HW1 1472   6.491   0.972   5.864
  191SOL    HW2 1473   6.645   0.988   5.812
  192SOL     OW 1474   0.749   5.556   0.534
  192SOL    HW1 1475   0.824   5.547   0.470
  192SOL    HW2 1476   0.677   5.491   0.510
  193SOL     OW 1477   2.670   5.542   6.271
  193SOL    HW1 1478   2.696   5.559   6.177
  193SOL    HW2 1479   2.720   5.463   6.307
  194SOL     OW 1480   3.620   0.161   2.246
  194SOL    HW1 1481   3.712   0.130   2.221
  194SOL    HW2 1482   3.627   0.236   2.313
  195SOL     OW 1483   3.230   1.110   1.583
  195SOL    HW1 1484   3.158   1.075   1.644
  195SOL    HW2 1485   3.236   1.209   1.592
  196SOL     OW 1486   2.013   0.975   0.236
  196SOL    HW1 1487   1.983   0.993   0.330
  196SOL    HW2 1488   2.110   0.999   0.227
  197SOL     OW 1489   2.069   5.916   0.628
  197SOL    HW1 1490   2.020   5.972   0.561
  197SOL    HW2 1491   2.060   5.958   0.719
  198SOL     OW 1492   4.472   6.459   0.091
  198SOL    HW1 1493   4.516   6.492   0.175
  198SOL    HW2 1494   4.429   6.536   0.044
  199SOL     OW 1495   6.202   6.458   3.059
  199SOL    HW1 1496   6.143   6.393   3.011
  199SOL    HW2 1497   6.194   6.444   3.158
  200SOL     OW 1498   0.520   4.113   3.177
  200SOL    HW1 1499   0.620   4.110   3.181
  200SOL    HW2 1500   0.485   4.021   3.164
  201SOL     OW 1501   2.964   0.987   0.106
  201SOL    HW1 1502   3.020   0.992   0.188
  201SOL    HW2 1503   2.961   1.076   0.062
  202SOL     OW 1504   4.016   0.199   3.288
  202SOL    HW1 1505   4.011   0.155   3.198
  202SOL    HW2 1506   3.961   0.147   3.354
  203SOL     OW 1507   5.312   3.769   5.975
  203SOL    HW1 1508   5.258   3.797   6.054
  203SOL    HW2 1509   5.383   3.837   5.957
  204SOL     OW 1510   2.476   6.826   0.256
  204SOL    HW1 1511   2.519   6.760   0.318
  204SOL    HW2 1512   2.490   6.797   0.162
  205SOL     OW 1513   5.913   1.877   0.808
  205SOL    HW1 1514   5.993   1.825   0.836
  205SOL    HW2 1515   5.856   1.898   0.888
  206SOL     OW 1516   0.716   4.905   2.173
  206SOL    HW1 1517   0.696   4.846   2.251
  206SOL    HW2 1518   0.779   4.977   2.201
  207SOL     OW 1519   4.606   0.769   5.594
  207SOL    HW1 1520   4.612   0.799   5.498
  207SOL    HW2 1521   4.655   0.682   5.604
  208SOL     OW 1522   5.147   5.998   5.967
  208SOL    HW1 1523   5.165   6.085   5.920
  208SOL    HW2 1524   5.050   5.994   5.992
  209SOL     OW 1525   6.611   5.423   5.415
  209SOL    HW1 1526   6.591   5.356   5.487
  209SOL    HW2 1527   6.671   5.382   5.346
  210SOL     OW 1528   4.014   2.713   1.020
  210SOL    HW1 1529   3.995   2.788   0.957
  210SOL    HW2 1530   4.091   2.659   0.984
  211SOL     OW 1531   1.133   1.496   0.711
  211SOL    HW1 1532   1.080   1.577   0.736
  211SOL    HW2 1533   1.073   1.426   0.673
  212SOL     OW 1534   0.868   5.206   4.041
  212SOL    HW1 1535   0.817   5.126   4.072
  212SOL    HW2 1536   0.955   5.177   4.000
  213SOL     OW 1537   5.165   2.158   6.794
  213SOL    HW1 1538   5.186   2.198   6.705
  213SOL    HW2 1539   5.151   2.060   6.784
  214SOL     OW 1540   0.876   6.737   2.436
  214SOL    HW1 1541   0.834   6.674   2.370
  214SOL    HW2 1542   0.805   6.794   2.478
  215SOL     OW 1543   3.422   3.478   2.759
  215SOL    HW1 1544   3.513   3.492   2.721
  215SOL    HW2 1545   3.386   3.565   2.792
  216SOL     OW 1546   1.097   0.318   5.630
  216SOL    HW1 1547   1.132   0.267   5.709
  216SOL    HW2 1548   1.161   0.390   5.606
  217SOL     OW 1549   1.160   3.128   3.814
  217SOL    HW1 1550   1.155   3.044   3.867
  217SOL    HW2 1551   1.076   3.181   3.827
  218SOL     OW 1552   1.377   3.501   5.304
  218SOL    HW1 1553   1.474   3.520   5.321
  218SOL    HW2 1554   1.322   3.580   5.331
  219SOL     OW 1555   4.611   4.826   0.417
  219SOL    HW1 1556   4.538   4.835   0.485
  219SOL    HW2 1557   4.685   4.771   0.454
  220SOL     OW 1558   2.564   5.096   0.132
  220SOL    HW1 1559   2.573   5.153   0.214
  220SOL    HW2 1560   2.593   5.149   0.052
  221SOL     OW 1561   5.239   2.272   4.212
  221SOL    HW1 1562   5.216   2.218   4.293
  221SOL    HW2 1563   5.234   2.213   4.131
  222SOL     OW 1564   0.416   5.752   5.761
  222SOL    HW1 1565   0.455   5.759   5.853
  222SOL    HW2 1566   0.316   5.751   5.767
  223SOL     OW 1567   0.073   3.765   2.055
  223SOL    HW1 1568   0.068   3.676   2.010
  223SOL    HW2 1569   0.026   3.834   1.999
  224SOL     OW 1570   2.722   2.219   1.894
  224SOL    HW1 1571   2.799   2.246   1.953
  224SOL    HW2 1572   2.696   2.296   1.836
  225SOL     OW 1573   5.705   0.922   6.915
  225SOL    HW1 1574   5.684   0.894   7.009
  225SOL    HW2 1575   5.803   0.939   6.906
  226SOL     OW 1576   0.623   5.748   0.697
  226SOL    HW1 1577   0.696   5.699   0.649
  226SOL    HW2 1578   0.574   5.805   0.632
  227SOL     OW 1579   1.393   3.332   3.795
  227SOL    HW1 1580   1.409   3.324   3.696
  227SOL    HW2 1581   1.301   3.298   3.817
  228SOL     OW 1582   4.644   6.938   3.777
  228SOL    HW1 1583   4.697   6.969   3.698
  228SOL    HW2 1584   4.654   7.004   3.852
  229SOL     OW 1585   6.255   6.341   2.203
  229SOL    HW1 1586   6.190   6.280   2.249
  229SOL    HW2 1587   6.343   6.335   2.249
  230SOL     OW 1588   2.287   4.354   5.040
  230SOL    HW1 1589   2.362   4.410   5.006
  230SOL    HW2 1590   2.300   4.259   5.012
  231SOL     OW 1591   0.876   2.988   6.136
  231SOL    HW1 1592   0.951   2.963   6.197
  231SOL    HW2 1593   0.793   3.003   6.190
  232SOL     OW 1594   1.616   3.844   6.840
  232SOL    HW1 1595   1.638   3.894   6.757
  232SOL    HW2 1596   1.697   3.839   6.899
  233SOL     OW 1597   2.562   1.286   5.625
  233SOL    HW1 1598   2.536   1.370   5.577
  233SOL    HW2 1599   2.535   1.294   5.721
  234SOL     OW 1600   2.655   5.241   6.964
  234SOL    HW1 1601   2.754   5.254   6.959
  234SOL    HW2 1602   2.609   5.330   6.963
  235SOL     OW 1603   3.095   3.643   4.398
  235SOL    HW1 1604   3.103   3.565   4.460
  235SOL    HW2 1605   3.183   3.661   4.354
  236SOL     OW 1606   6.629   2.313   5.467
  236SOL    HW1 1607   6.557   2.361   5.417
  236SOL    HW2 1608   6.709   2.301   5.407
  237SOL     OW 1609   0.462   6.972   1.211
  237SOL    HW1 1610   0.400   0.020   1.192
  237SOL    HW2 1611   0.443   6.897   1.148
  238SOL     OW 1612   5.627   2.935   2.764
  238SOL    HW1 1613   5.698   2.988   2.808
  238SOL    HW2 1614   5.543   2.989   2.758
  239SOL     OW 1615   6.652   5.826   6.866
  239SOL    HW1 1616   6.681   5.743   6.914
  239SOL    HW2 1617   6.721   5.851   6.798
  240SOL     OW 1618   0.422   4.071   6.011
  240SOL    HW1 1619   0.340   4.116   6.047
  240SOL    HW2 1620   0.440   4.104   5.919
  241SOL     OW 1621   0.314   0.422   2.858
  241SOL    HW1 1622   0.359   0.510   2.875
  241SOL    HW2 1623   0.228   0.438   2.808
  242SOL     OW 1624   1.677   3.741   4.337
  242SOL    HW1 1625   1.601   3.708   4.393
  242SOL    HW2 1626   1.650   3.744   4.241
  243SOL     OW 1627   5.665   6.902   5.230
  243SOL    HW1 1628   5.725   6.824   5.250
  243SOL    HW2 1629   5.653   6.910   5.131
  244SOL     OW 1630   5.729   2.146   5.233
  244SOL    HW1 1631   5.799   2.191   5.177
  244SOL    HW2 1632   5.657   2.110   5.175
  245SOL     OW 1633   5.819   2.684   4.075
  245SOL    HW1 1634   5.796   2.599   4.121
  245SOL    HW2 1635   5.762   2.694   3.993
  246SOL     OW 1636   4.995   3.706   3.257
  246SOL    HW1 1637   5.082   3.719   3.305
  246SOL    HW2 1638   4.921   3.695   3.324
  247SOL     OW 1639   2.187   1.421   3.219
  247SOL    HW1 1640   2.196   1.402   3.122
  247SOL    HW2 1641   2.269   1.469   3.251
  248SOL     OW 1642   6.184   1.412   3.525
  248SOL    HW1 1643   6.240   1.331   3.544
  248SOL    HW2 1644   6.141   1.402   3.436
  249SOL     OW 1645   3.710   6.862   4.210
  249SOL    HW1 1646   3.792   6.867   4.154
  249SOL    HW2 1647   3.660   6.948   4.204
  250SOL     OW 1648   5.656   3.627   5.827
  250SOL    HW1 1649   5.624   3.595   5.916
  250SOL    HW2 1650   5.585   3.683   5.784
  251SOL     OW 1651   4.454   2.630   6.899
  251SOL    HW1 1652   4.501   2.544   6.917
  251SOL    HW2 1653   4.356   2.614   6.889
  252SOL     OW 1654   0.275   0.386   5.993
  252SOL    HW1 1655   0.232   0.407   5.905
  252SOL    HW2 1656   0.339   0.310   5.982
  253SOL     OW 1657   3.278   3.321   0.087
  253SOL    HW1 1658   3.292   3.234   0.039
  253SOL    HW2 1659   3.181   3.334   0.106
  254SOL     OW 1660   5.951   2.694   5.169
  254SOL    HW1 1661   5.938   2.707   5.071
  254SOL    HW2 1662   5.889   2.623   5.203
  255SOL     OW 1663   2.792   1.860   3.197
  255SOL    HW1 1664   2.806   1.895   3.104
  255SOL    HW2 1665   2.777   1.936   3.260
  256SOL     OW 1666   5.494   5.068   0.428
  256SOL    HW1 1667   5.502   5.160   0.466
  256SOL    HW2 1668   5.399   5.052   0.399
  257SOL     OW 1669   3.107   5.851   6.165
  257SOL    HW1 1670   3.090   5.880   6.071
  257SOL    HW2 1671   3.020   5.847   6.214
  258SOL     OW 1672   5.813   4.358   4.431
  258SOL    HW1 1673   5.805   4.259   4.433
  258SOL    HW2 1674   5.826   4.389   4.337
  259SOL     OW 1675   1.710   1.895   2.508
  259SOL    HW1 1676   1.624   1.873   2.554
  259SOL    HW2 1677   1.735   1.820   2.447
  260SOL     OW 1678   5.630   0.228   5.887
  260SOL    HW1 1679   5.572   0.216   5.967
  260SOL    HW2 1680   5.643   0.140   5.841
  261SOL     OW 1681   0.792   3.952   2.270
  261SOL    HW1 1682   0.767   4.036   2.223
  261SOL    HW2 1683   0.712   3.893   2.278
  262SOL     OW 1684   0.693   4.155   2.131
  262SOL    HW1 1685   0.766   4.222   2.141
  262SOL    HW2 1686   0.615   4.196   2.084
  263SOL     OW 1687   0.982   1.824   4.206
  263SOL    HW1 1688   0.975   1.838   4.107
  263SOL    HW2 1689   0.986   1.913   4.252
  264SOL     OW 1690   2.402   4.410   6.448
  264SOL    HW1 1691   2.312   4.371   6.464
  264SOL    HW2 1692   2.414   4.428   6.350
  265SOL     OW 1693   5.426   4.463   4.677
  265SOL    HW1 1694   5.342   4.430   4.633
  265SOL    HW2 1695   5.505   4.414   4.638
  266SOL     OW 1696   4.127   1.715   0.683
  266SOL    HW1 1697   4.068   1.685   0.608
  266SOL    HW2 1698   4.217   1.673   0.672
  267SOL     OW 1699   1.596   1.907   5.975
  267SOL    HW1 1700   1.544   1.987   6.003
  267SOL    HW2 1701   1.539   1.825   5.981
  268SOL     OW 1702   4.136   4.865   4.728
  268SOL    HW1 1703   4.131   4.930   4.652
  268SOL    HW2 1704   4.177   4.780   4.696
  269SOL     OW 1705   0.665   1.987   5.606
  269SOL    HW1 1706   0.672   2.002   5.704
  269SOL    HW2 1707   0.751   1.948   5.572
  270SOL     OW 1708   5.494   1.212   2.892
  270SOL    HW1 1709   5.480   1.193   2.795
  270SOL    HW2 1710   5.518   1.309   2.904
  271SOL     OW 1711   1.406   0.660   6.625
  271SOL    HW1 1712   1.361   0.629   6.708
  271SOL    HW2 1713   1.347   0.726   6.578
  272SOL     OW 1714   3.399   6.154   3.433
  272SOL    HW1 1715   3.431   6.249   3.425
  272SOL    HW2 1716   3.410   6.108   3.345
  273SOL     OW 1717   2.677   6.349   5.172
  273SOL    HW1 1718   2.743   6.380   5.104
  273SOL    HW2 1719   2.694   6.253   5.194
  274SOL     OW 1720   6.497   2.249   2.278
  274SOL    HW1 1721   6.545   2.325   2.322
  274SOL    HW2 1722   6.398   2.261   2.288
  275SOL     OW 1723   6.741   5.923   5.225
  275SOL    HW1 1724   6.781   5.943   5.136
  275SOL    HW2 1725   6.694   5.835   5.221
  276SOL     OW 1726   6.330   6.383   3.728
  276SOL    HW1 1727   6.388   6.302   3.717
  276SOL    HW2 1728   6.308   6.421   3.638
  277SOL     OW 1729   4.233   1.464   5.421
  277SOL    HW1 1730   4.293   1.513   5.484
  277SOL    HW2 1731   4.259   1.367   5.420
  278SOL     OW 1732   5.966   3.433   2.646
  278SOL    HW1 1733   5.950   3.531   2.652
  278SOL    HW2 1734   5.928   3.398   2.561
  279SOL     OW 1735   0.298   2.689   3.963
  279SOL    HW1 1736   0.199   2.676   3.957
  279SOL    HW2 1737   0.345   2.617   3.913
  280SOL     OW 1738   3.598   0.417   4.305
  280SOL    HW1 1739   3.505   0.396   4.335
  280SOL    HW2 1740   3.595   0.470   4.220
  281SOL     OW 1741   4.981   6.061   3.955
  281SOL    HW1 1742   4.940   6.065   4.046
  281SOL    HW2 1743   5.081   6.062   3.963
  282SOL     OW 1744   4.182   1.853   0.297
  282SOL    HW1 1745   4.168   1.754   0.303
  282SOL    HW2 1746   4.135   1.888   0.217
  283SOL     OW 1747   6.271   1.887   4.894
  283SOL    HW1 1748   6.190   1.933   4.931
  283SOL    HW2 1749   6.244   1.830   4.816
  284SOL     OW 1750   5.810   5.499   3.870
  284SOL    HW1 1751   5.816   5.405   3.903
  284SOL    HW2 1752   5.792   5.500   3.772
  285SOL     OW 1753   4.386   0.821   6.294
  285SOL    HW1 1754   4.464   0.785   6.244
  285SOL    HW2 1755   4.301   0.788   6.253
  286SOL     OW 1756   3.443   4.955   5.053
  286SOL    HW1 1757   3.350   4.944   5.017
  286SOL    HW2 1758   3.471   5.050   5.042
  287SOL     OW 1759   2.995   6.867   5.999
  287SOL    HW1 1760   2.942   6.804   6.057
  287SOL    HW2 1761   2.959   6.865   5.906
  288SOL     OW 1762   3.246   0.940   0.665
  288SOL    HW1 1763   3.223   0.846   0.691
  288SOL    HW2 1764   3.261   0.995   0.748
  289SOL     OW 1765   6.952   6.212   4.042
  289SOL    HW1 1766   6.867   6.258   4.014
  289SOL    HW2 1767   6.990   6.257   4.122
  290SOL     OW 1768   3.203   0.979   4.686
  290SOL    HW1 1769   3.267   1.044   4.729
  290SOL    HW2 1770   3.131   0.956   4.751
  291SOL     OW 1771   4.109   0.408   5.101
  291SOL    HW1 1772   4.124   0.410   5.002
  291SOL    HW2 1773   4.141   0.321   5.138
  292SOL     OW 1774   3.895   0.418   3.629
  292SOL    HW1 1775   3.961   0.450   3.561
  292SOL    HW2 1776   3.939   0.352   3.689
  293SOL     OW 1777   5.819   0.086   2.672
  293SOL    HW1 1778   5.805   0.121   2.765
  293SOL    HW2 1779   5.733   0.050   2.636
  294SOL     OW 1780   6.530   0.935   6.089
  294SOL    HW1 1781   6.466   0.989   6.143
  294SOL    HW2 1782   6.607   0.908   6.147
  295SOL     OW 1783   0.964   1.806   5.098
  295SOL    HW1 1784   0.993   1.714   5.126
  295SOL    HW2 1785   1.039   1.870   5.113
  296SOL     OW 1786   0.269   2.007   1.890
  296SOL    HW1 1787   0.296   1.915   1.920
  296SOL    HW2 1788   0.345   2.070   1.906
  297SOL     OW 1789   5.732   3.849   3.682
  297SOL    HW1 1790   5.671   3.773   3.705
  297SOL    HW2 1791   5.713   3.881   3.589
  298SOL     OW 1792   3.463   1.055   6.828
  298SOL    HW1 1793   3.418   1.142   6.845
  298SOL    HW2 1794   3.462   1.000   6.912
  299SOL     OW 1795   2.533   1.770   6.390
  299SOL    HW1 1796   2.435   1.778   6.411
  299SOL    HW2 1797   2.556   1.673   6.379
  300SOL     OW 1798   3.822   0.500   2.724
  300SOL    HW1 1799   3.817   0.585   2.776
  300SOL    HW2 1800   3.905   0.499   2.668
  301SOL     OW 1801   6.066   5.333   1.153
  301SOL    HW1 1802   6.051   5.252   1.210
  301SOL    HW2 1803   6.059   5.308   1.057
  302SOL     OW 1804   5.830   5.944   0.737
  302SOL    HW1 1805   5.826   5.893   0.652
  302SOL    HW2 1806   5.783   6.031   0.727
  303SOL     OW 1807   5.798   5.714   2.306
  303SOL    HW1 1808   5.787   5.617   2.283
  303SOL    HW2 1809   5.834   5.722   2.400
  304SOL     OW 1810   1.440   6.903   5.329
  304SOL    HW1 1811   1.391   6.868   5.409
  304SOL    HW2 1812   1.459   7.000   5.341
  305SOL     OW 1813   1.506   2.781   2.400
  305SOL    HW1 1814   1.603   2.756   2.405
  305SOL    HW2 1815   1.498   2.877   2.371
  306SOL     OW 1816   6.781   0.469   2.748
  306SOL    HW1 1817   6.752   0.398   2.812
  306SOL    HW2 1818   6.880   0.466   2.736
  307SOL     OW 1819   3.397   3.260   2.988
  307SOL    HW1 1820   3.378   3.331   2.920
  307SOL    HW2 1821   3.414   3.303   3.077
  308SOL     OW 1822   5.900   1.715   4.157
  308SOL    HW1 1823   5.893   1.632   4.213
  308SOL    HW2 1824   5.833   1.782   4.189
  309SOL     OW 1825   0.883   6.099   6.382
  309SOL    HW1 1826   0.843   6.102   6.291
  309SOL    HW2 1827   0.901   6.004   6.408
  310SOL     OW 1828   5.394   6.545   5.019
  310SOL    HW1 1829   5.476   6.528   4.966
  310SOL    HW2 1830   5.395   6.488   5.102
  311SOL     OW 1831   2.117   5.392   2.820
  311SOL    HW1 1832   2.023   5.375   2.793
  311SOL    HW2 1833   2.165   5.443   2.749
  312SOL     OW 1834   4.678   1.981   3.025
  312SOL    HW1 1835   4.643   1.941   3.110
  312SOL    HW2 1836   4.681   1.912   2.954
  313SOL     OW 1837   3.949   3.213   3.673
  313SOL    HW1 1838   4.010   3.269   3.617
  313SOL    HW2 1839   3.885   3.164   3.614
  314SOL     OW 1840   2.570   6.666   5.727
  314SOL    HW1 1841   2.556   6.747   5.671
  314SOL    HW2 1842   2.490   6.651   5.785
  315SOL     OW 1843   6.783   1.508   3.592
  315SOL    HW1 1844   6.701   1.454   3.611
  315SOL    HW2 1845   6.788   1.526   3.494
  316SOL     OW 1846   3.666   1.531   5.113
  316SOL    HW1 1847   3.707   1.441   5.096
  316SOL    HW2 1848   3.570   1.520   5.138
  317SOL     OW 1849   1.064   1.220   1.459
  317SOL    HW1 1850   0.998   1.224   1.384
  317SOL    HW2 1851   1.098   1.126   1.469
  318SOL     OW 1852   0.068   0.618   5.243
  318SOL    HW1 1853   0.164   0.637   5.262
  318SOL    HW2 1854   0.017   0.704   5.237
  319SOL     OW 1855   1.806   2.255   2.080
  319SOL    HW1 1856   1.771   2.192   2.150
  319SOL    HW2 1857   1.896   2.225   2.050
  320SOL     OW 1858   6.241   2.953   6.800
  320SOL    HW1 1859   6.172   2.892   6.837
  320SOL    HW2 1860   6.252   2.937   6.702
  321SOL     OW 1861   4.397   3.010   1.242
  321SOL    HW1 1862   4.321   3.039   1.183
  321SOL    HW2 1863   4.483   3.019   1.192
  322SOL     OW 1864   3.986   3.726   6.088
  322SOL    HW1 1865   4.008   3.707   6.184
  322SOL    HW2 1866   3.887   3.739   6.079
  323SOL     OW 1867   0.267   3.373   3.556
  323SOL    HW1 1868   0.324   3.444   3.596
  323SOL    HW2 1869   0.177   3.375   3.598
  324SOL     OW 1870   0.998   6.856   3.622
  324SOL    HW1 1871   0.944   6.938   3.601
  324SOL    HW2 1872   1.007   6.848   3.721
  325SOL     OW 1873   0.481   3.485   2.748
  325SOL    HW1 1874   0.402   3.463   2.806
  325SOL    HW2 1875   0.538   3.552   2.795
  326SOL     OW 1876   1.441   6.378   6.437
  326SOL    HW1 1877   1.444   6.455   6.374
  326SOL    HW2 1878   1.519   6.317   6.419
  327SOL     OW 1879   4.136   5.350   3.454
  327SOL    HW1 1880   4.216   5.315   3.501
  327SOL    HW2 1881   4.069   5.383   3.521
  328SOL     OW 1882   2.278   4.478   2.250
  328SOL    HW1 1883   2.308   4.462   2.156
  328SOL    HW2 1884   2.355   4.462   2.312
  329SOL     OW 1885   3.292   4.154   1.734
  329SOL    HW1 1886   3.382   4.184   1.767
  329SOL    HW2 1887   3.237   4.124   1.812
  330SOL     OW 1888   3.859   5.034   0.491
  330SOL    HW1 1889   3.861   5.000   0.397
  330SOL    HW2 1890   3.931   5.103   0.503
  331SOL     OW 1891   5.208   5.747   6.899
  331SOL    HW1 1892   5.274   5.713   6.967
  331SOL    HW2 1893   5.119   5.705   6.915
  332SOL     OW 1894   5.315   2.159   3.167
  332SOL    HW1 1895   5.286   2.233   3.107
  332SOL    HW2 1896   5.271   2.073   3.138
  333SOL     OW 1897   3.800   1.227   6.023
  333SOL    HW1 1898   3.732   1.202   5.953
  333SOL    HW2 1899   3.756   1.228   6.113
  334SOL     OW 1900   3.455   3.913   3.765
  334SOL    HW1 1901   3.490   3.855   3.839
  334SOL    HW2 1902   3.487   4.007   3.777
  335SOL     OW 1903   3.391   0.509   6.252
  335SOL    HW1 1904   3.460   0.573   6.219
  335SOL    HW2 1905   3.350   0.460   6.174
  336SOL     OW 1906   3.082   1.928   3.203
  336SOL    HW1 1907   2.982   1.923   3.207
  336SOL    HW2 1908   3.110   2.023   3.184
  337SOL     OW 1909   2.014   1.218   6.001
  337SOL    HW1 1910   2.049   1.176   6.085
  337SOL    HW2 1911   2.088   1.227   5.934
  338SOL     OW 1912   4.596   2.033   2.076
  338SOL    HW1 1913   4.683   2.077   2.101
  338SOL    HW2 1914   4.547   2.091   2.011
  339SOL     OW 1915   3.956   4.948   4.913
  339SOL    HW1 1916   4.000   4.877   4.859
  339SOL    HW2 1917   3.985   5.038   4.880
  340SOL     OW 1918   4.347   1.970   3.889
  340SOL    HW1 1919   4.388   1.909   3.957
  340SOL    HW2 1920   4.415   2.038   3.860
  341SOL     OW 1921   5.942   6.730   3.739
  341SOL    HW1 1922   6.008   6.792   3.696
  341SOL    HW2 1923   5.984   6.689   3.820
  342SOL     OW 1924   4.816   2.151   1.681
  342SOL    HW1 1925   4.732   2.145   1.627
  342SOL    HW2 1926   4.887   2.095   1.639
  343SOL     OW 1927   1.203   5.563   3.508
  343SOL    HW1 1928   1.212   5.645   3.565
  343SOL    HW2 1929   1.153   5.586   3.424
  344SOL     OW 1930   1.945   1.346   1.462
  344SOL    HW1 1931   1.863   1.289   1.454
  344SOL    HW2 1932   1.957   1.374   1.557
  345SOL     OW 1933   6.214   3.237   4.301
  345SOL    HW1 1934   6.182   3.214   4.210
  345SOL    HW2 1935   6.151   3.200   4.369
  346SOL     OW 1936   1.761   6.978   2.782
  346SOL    HW1 1937   1.701   0.029   2.767
  346SOL    HW2 1938   1.785   6.972   2.878
  347SOL     OW 1939   2.644   4.945   0.563
  347SOL    HW1 1940   2.655   4.907   0.471
  347SOL    HW2 1941   2.729   4.935   0.614
  348SOL     OW 1942   5.174   5.566   2.284
  348SOL    HW1 1943   5.198   5.599   2.375
  348SOL    HW2 1944   5.199   5.635   2.216
  349SOL     OW 1945   0.106   3.953   1.181
  349SOL    HW1 1946   0.151   4.043   1.177
  349SOL    HW2 1947   0.042   3.945   1.104
  350SOL     OW 1948   3.497   2.966   0.173
  350SOL    HW1 1949   3.515   2.993   0.079
  350SOL    HW2 1950   3.444   3.038   0.219
  351SOL     OW 1951   3.642   4.343   1.051
  351SOL    HW1 1952   3.726   4.386   1.018
  351SOL    HW2 1953   3.576   4.337   0.977
  352SOL     OW 1954   4.197   6.411   3.366
  352SOL    HW1 1955   4.103   6.440   3.386
  352SOL    HW2 1956   4.214   6.323   3.411
  353SOL     OW 1957   2.441   6.399   6.375
  353SOL    HW1 1958   2.500   6.425   6.299
  353SOL    HW2 1959   2.442   6.470   6.445
  354SOL     OW 1960   6.304   2.861   0.564
  354SOL    HW1 1961   6.290   2.872   0.662
  354SOL    HW2 1962   6.252   2.782   0.532
  355SOL     OW 1963   2.079   2.623   2.303
  355SOL    HW1 1964   2.028   2.669   2.230
  355SOL    HW2 1965   2.019   2.610   2.382
  356SOL     OW 1966   1.449   0.282   5.931
  356SOL    HW1 1967   1.500   0.310   5.850
  356SOL    HW2 1968   1.386   0.208   5.908
  357SOL     OW 1969   5.664   0.001   4.665
  357SOL    HW1 1970   5.745   0.019   4.722
  357SOL    HW2 1971   5.685   6.955   4.601
  358SOL     OW 1972   5.178   5.789   0.875
  358SOL    HW1 1973   5.081   5.802   0.853
  358SOL    HW2 1974   5.214   5.873   0.916
  359SOL     OW 1975   3.251   2.127   2.133
  359SOL    HW1 1976   3.331   2.083   2.092
  359SOL    HW2 1977   3.171   2.113   2.074
  360SOL     OW 1978   0.979   4.774   4.040
  360SOL    HW1 1979   1.046   4.757   4.112
  360SOL    HW2 1980   1.015   4.841   3.975
  361SOL     OW 1981   6.713   5.921   3.436
  361SOL    HW1 1982   6.807   5.953   3.436
  361SOL    HW2 1983   6.690   5.882   3.525
  362SOL     OW 1984   3.974   4.360   0.854
  362SOL    HW1 1985   3.971   4.436   0.918
  362SOL    HW2 1986   3.959   4.274   0.902
  363SOL     OW 1987   6.176   5.200   2.416
  363SOL    HW1 1988   6.244   5.178   2.348
  363SOL    HW2 1989   6.123   5.118   2.439
  364SOL     OW 1990   0.642   5.375   6.989
  364SOL    HW1 1991   0.704   5.441   0.003
  364SOL    HW2 1992   0.587   5.331   0.033
  365SOL     OW 1993   3.596   1.353   2.179
  365SOL    HW1 1994   3.514   1.379   2.230
  365SOL    HW2 1995   3.570   1.334   2.084
  366SOL     OW 1996   5.789   3.201   0.381
  366SOL    HW1 1997   5.842   3.267   0.327
  366SOL    HW2 1998   5.825   3.197   0.474
  367SOL     OW 1999   4.459   1.978   5.840
  367SOL    HW1 2000   4.399   2.020   5.909
  367SOL    HW2 2001   4.404   1.945   5.764
  368SOL     OW 2002   6.566   1.973   6.393
  368SOL    HW1 2003   6.545   2.014   6.304
  368SOL    HW2 2004   6.482   1.966   6.447
  369SOL     OW 2005   5.638   3.367   2.777
  369SOL    HW1 2006   5.597   3.365   2.685
  369SOL    HW2 2007   5.736   3.352   2.769
  370SOL     OW 2008   2.030   2.381   4.200
  370SOL    HW1 2009   2.122   2.419   4.191
  370SOL    HW2 2010   2.001   2.389   4.295
  371SOL     OW 2011   2.040   4.169   6.983
  371SOL    HW1 2012   1.981   4.088   6.978
  371SOL    HW2 2013   2.110   4.164   6.912
  372SOL     OW 2014   2.909   6.812   5.697
  372SOL    HW1 2015   2.841   6.883   5.714
  372SOL    HW2 2016   2.998   6.855   5.680
  373SOL     OW 2017   6.232   6.587   4.709
  373SOL    HW1 2018   6.204   6.628   4.623
  373SOL    HW2 2019   6.224   6.488   4.703
  374SOL     OW 2020   2.732   1.756   2.563
  374SOL    HW1 2021   2.780   1.724   2.645
  374SOL    HW2 2022   2.746   1.691   2.489
  375SOL     OW 2023   0.853   4.844   5.009
  375SOL    HW1 2024   0.844   4.788   5.092
  375SOL    HW2 2025   0.949   4.851   4.983
  376SOL     OW 2026   2.709   0.893   4.233
  376SOL    HW1 2027   2.774   0.817   4.239
  376SOL    HW2 2028   2.662   0.904   4.321
  377SOL     OW 2029   1.714   2.080   6.583
  377SOL    HW1 2030   1.633   2.098   6.638
  377SOL    HW2 2031   1.762   2.166   6.565
  378SOL     OW 2032   2.788   1.794   0.842
  378SOL    HW1 2033   2.885   1.820   0.845
  378SOL    HW2 2034   2.738   1.858   0.783
  379SOL     OW 2035   5.940   2.769   6.449
  379SOL    HW1 2036   5.897   2.832   6.385
  379SOL    HW2 2037   5.908   2.788   6.542
  380SOL     OW 2038   3.452   1.574   1.450
  380SOL    HW1 2039   3.365   1.620   1.470
  380SOL    HW2 2040   3.434   1.480   1.423
  381SOL     OW 2041   1.415   4.394   3.619
  381SOL    HW1 2042   1.400   4.343   3.535
  381SOL    HW2 2043   1.449   4.332   3.690
  382SOL     OW 2044   6.519   0.895   0.459
  382SOL    HW1 2045   6.489   0.915   0.365
  382SOL    HW2 2046   6.458   0.827   0.500
  383SOL     OW 2047   3.875   2.949   1.421
  383SOL    HW1 2048   3.853   2.983   1.329
  383SOL    HW2 2049   3.969   2.973   1.443
  384SOL     OW 2050   6.418   3.615   4.550
  384SOL    HW1 2051   6.386   3.522   4.533
  384SOL    HW2 2052   6.340   3.674   4.570
  385SOL     OW 2053   4.439   4.890   6.522
  385SOL    HW1 2054   4.392   4.931   6.444
  385SOL    HW2 2055   4.371   4.859   6.589
  386SOL     OW 2056   4.258   0.394   4.848
  386SOL    HW1 2057   4.305   0.307   4.838
  386SOL    HW2 2058   4.186   0.401   4.779
  387SOL     OW 2059   2.563   5.265   3.438
  387SOL    HW1 2060   2.490   5.327   3.467
  387SOL    HW2 2061   2.641   5.274   3.501
  388SOL     OW 2062   1.596   2.770   6.531
  388SOL    HW1 2063   1.547   2.802   6.612
  388SOL    HW2 2064   1.646   2.846   6.490
  389SOL     OW 2065   3.032   3.905   3.281
  389SOL    HW1 2066   3.007   3.944   3.370
  389SOL    HW2 2067   3.054   3.808   3.292
  390SOL     OW 2068   2.678   1.535   4.205
  390SOL    HW1 2069   2.767   1.491   4.191
  390SOL    HW2 2070   2.690   1.622   4.254
  391SOL     OW 2071   1.573   2.741   0.380
  391SOL    HW1 2072   1.554   2.711   0.287
  391SOL    HW2 2073   1.672   2.735   0.397
  392SOL     OW 2074   2.270   5.074   1.556
  392SOL    HW1 2075   2.224   5.155   1.522
  392SOL    HW2 2076   2.333   5.039   1.486
  393SOL     OW 2077   6.003   4.416   5.127
  393SOL    HW1 2078   6.073   4.349   5.149
  393SOL    HW2 2079   5.916   4.370   5.112
  394SOL     OW 2080   0.024   6.580   0.219
  394SOL    HW1 2081   7.013   6.524   0.146
  394SOL    HW2 2082   0.103   6.534   0.258
  395SOL     OW 2083   4.889   3.827   2.381
  395SOL    HW1 2084   4.868   3.755   2.314
  395SOL    HW2 2085   4.936   3.902   2.334
  396SOL     OW 2086   3.396   3.880   2.967
  396SOL    HW1 2087   3.320   3.935   2.931
  396SOL    HW2 2088   3.392   3.879   3.067
  397SOL     OW 2089   4.641   2.357   5.452
  397SOL    HW1 2090   4.728   2.389   5.490
  397SOL    HW2 2091   4.574   2.348   5.525
  398SOL     OW 2092   0.746   5.647   2.317
  398SOL    HW1 2093   0.656   5.679   2.288
  398SOL    HW2 2094   0.785   5.713   2.382
  399SOL     OW 2095   4.567   5.444   1.499
  399SOL    HW1 2096   4.575   5.506   1.420
  399SOL    HW2 2097   4.658   5.416   1.529
  400SOL     OW 2098   0.049   0.094   5.250
  400SOL    HW1 2099   0.076   0.073   5.156
  400SOL    HW2 2100   0.131   0.115   5.303
  401SOL     OW 2101   4.761   1.185   6.386
  401SOL    HW1 2102   4.687   1.168   6.451
  401SOL    HW2 2103   4.721   1.213   6.298
  402SOL     OW 2104   6.331   6.431   2.498
  402SOL    HW1 2105   6.341   6.332   2.495
  402SOL    HW2 2106   6.244   6.457   2.456
  403SOL     OW 2107   4.639   2.435   5.962
  403SOL    HW1 2108   4.704   2.507   5.936
  403SOL    HW2 2109   4.686   2.364   6.013
  404SOL     OW 2110   1.310   6.652   3.321
  404SOL    HW1 2111   1.368   6.722   3.279
  404SOL    HW2 2112   1.303   6.669   3.419
  405SOL     OW 2113   1.728   2.604   1.067
  405SOL    HW1 2114   1.675   2.576   0.987
  405SOL    HW2 2115   1.804   2.541   1.081
  406SOL     OW 2116   1.093   2.884   3.921
  406SOL    HW1 2117   1.044   2.825   3.985
  406SOL    HW2 2118   1.040   2.893   3.836
  407SOL     OW 2119   3.081   0.104   4.745
  407SOL    HW1 2120   3.150   0.119   4.815
  407SOL    HW2 2121   3.008   0.046   4.782
  408SOL     OW 2122   1.487   0.269   3.153
  408SOL    HW1 2123   1.564   0.266   3.217
  408SOL    HW2 2124   1.512   0.221   3.068
  409SOL     OW 2125   5.978   3.099   2.823
  409SOL    HW1 2126   5.991   3.055   2.734
  409SOL    HW2 2127   5.943   3.031   2.888
  410SOL     OW 2128   2.380   0.224   0.301
  410SOL    HW1 2129   2.302   0.213   0.240
  410SOL    HW2 2130   2.395   0.138   0.351
  411SOL     OW 2131   5.720   5.576   6.615
  411SOL    HW1 2132   5.685   5.664   6.584
  411SOL    HW2 2133   5.789   5.591   6.686
  412SOL     OW 2134   3.652   6.424   3.189
  412SOL    HW1 2135   3.589   6.430   3.112
  412SOL    HW2 2136   3.721   6.354   3.170
  413SOL     OW 2137   3.348   5.536   0.414
  413SOL    HW1 2138   3.380   5.617   0.462
  413SOL    HW2 2139   3.272   5.494   0.464
  414SOL     OW 2140   4.313   5.044   1.658
  414SOL    HW1 2141   4.320   5.121   1.596
  414SOL    HW2 2142   4.250   5.067   1.733
  415SOL     OW 2143   1.378   6.038   0.580
  415SOL    HW1 2144   1.392   6.019   0.483
  415SOL    HW2 2145   1.283   6.065   0.596
  416SOL     OW 2146   4.116   5.570   4.791
  416SOL    HW1 2147   4.039   5.561   4.854
  416SOL    HW2 2148   4.082   5.585   4.698
  417SOL     OW 2149   3.051   6.545   1.467
  417SOL    HW1 2150   3.068   6.555   1.565
  417SOL    HW2 2151   2.958   6.576   1.446
  418SOL     OW 2152   4.881   6.259   0.425
  418SOL    HW1 2153   4.859   6.282   0.330
  418SOL    HW2 2154   4.956   6.192   0.426
  419SOL     OW 2155   0.787   0.640   1.078
  419SOL    HW1 2156   0.694   0.633   1.042
  419SOL    HW2 2157   0.805   0.734   1.105
  420SOL     OW 2158   6.129   3.891   1.312
  420SOL    HW1 2159   6.186   3.839   1.249
  420SOL    HW2 2160   6.159   3.986   1.313
  421SOL     OW 2161   1.336   4.868   6.177
  421SOL    HW1 2162   1.414   4.851   6.237
  421SOL    HW2 2163   1.279   4.942   6.215
  422SOL     OW 2164   5.778   4.742   0.626
  422SOL    HW1 2165   5.807   4.664   0.571
  422SOL    HW2 2166   5.755   4.819   0.566
  423SOL     OW 2167   6.387   3.340   0.565
  423SOL    HW1 2168   6.290   3.354   0.547
  423SOL    HW2 2169   6.430   3.428   0.589
  424SOL     OW 2170   3.215   3.755   0.135
  424SOL    HW1 2171   3.182   3.683   0.075
  424SOL    HW2 2172   3.258   3.715   0.215
  425SOL     OW 2173   5.375   1.455   1.903
  425SOL    HW1 2174   5.451   1.391   1.916
  425SOL    HW2 2175   5.346   1.491   1.992
  426SOL     OW 2176   5.329   2.674   5.491
  426SOL    HW1 2177   5.271   2.633   5.421
  426SOL    HW2 2178   5.364   2.603   5.552
  427SOL     OW 2179   5.377   4.501   2.123
  427SOL    HW1 2180   5.364   4.441   2.202
  427SOL    HW2 2181   5.300   4.491   2.060
  428SOL     OW 2182   4.314   0.558   5.444
  428SOL    HW1 2183   4.340   0.520   5.355
  428SOL    HW2 2184   4.223   0.524   5.469
  429SOL     OW 2185   2.223   5.068   0.770
  429SOL    HW1 2186   2.201   5.157   0.730
  429SOL    HW2 2187   2.217   5.074   0.869
  430SOL     OW 2188   1.939   6.286   4.521
  430SOL    HW1 2189   1.923   6.193   4.487
  430SOL    HW2 2190   1.863   6.345   4.492
  431SOL     OW 2191   3.199   1.397   6.882
  431SOL    HW1 2192   3.233   1.309   6.915
  431SOL    HW2 2193   3.277   1.454   6.854
  432SOL     OW 2194   0.078   2.288   0.374
  432SOL    HW1 2195   0.005   2.256   0.314
  432SOL    HW2 2196   0.056   2.380   0.407
  433SOL     OW 2197   2.432   0.139   4.420
  433SOL    HW1 2198   2.343   0.102   4.446
  433SOL    HW2 2199   2.492   0.064   4.390
  434SOL     OW 2200   5.319   5.044   1.322
  434SOL    HW1 2201   5.293   4.950   1.299
  434SOL    HW2 2202   5.408   5.065   1.280
  435SOL     OW 2203   3.691   2.919   5.371
  435SOL    HW1 2204   3.668   2.995   5.431
  435SOL    HW2 2205   3.790   2.912   5.361
  436SOL     OW 2206   1.758   6.992   0.914
  436SOL    HW1 2207   1.670   0.003   0.941
  436SOL    HW2 2208   1.822   0.038   0.892
  437SOL     OW 2209   0.132   0.361   6.449
  437SOL    HW1 2210   0.057   0.301   6.423
  437SOL    HW2 2211   0.208   0.350   6.384
  438SOL     OW 2212   2.243   2.758   2.112
  438SOL    HW1 2213   2.323   2.715   2.070
  438SOL    HW2 2214   2.245   2.741   2.211
  439SOL     OW 2215   5.948   4.580   3.563
  439SOL    HW1 2216   5.948   4.672   3.525
  439SOL    HW2 2217   5.923   4.584   3.660
  440SOL     OW 2218   1.160   2.104   4.304
  440SOL    HW1 2219   1.061   2.116   4.297
  440SOL    HW2 2220   1.194   2.148   4.387
  441SOL     OW 2221   0.788   1.778   3.114
  441SOL    HW1 2222   0.733   1.695   3.120
  441SOL    HW2 2223   0.870   1.761   3.061
  442SOL     OW 2224   0.797   4.489   0.255
  442SOL    HW1 2225   0.718   4.496   0.315
  442SOL    HW2 2226   0.880   4.480   0.311
  443SOL     OW 2227   0.982   4.460   4.582
  443SOL    HW1 2228   1.027   4.446   4.670
  443SOL    HW2 2229   1.051   4.476   4.511
  444SOL     OW 2230   4.956   3.074   6.263
  444SOL    HW1 2231   4.905   3.029   6.337
  444SOL    HW2 2232   4.904   3.153   6.230
  445SOL     OW 2233   2.085   5.364   3.088
  445SOL    HW1 2234   2.068   5.455   3.126
  445SOL    HW2 2235   2.117   5.372   2.994
  446SOL     OW 2236   3.977   4.845   3.566
  446SOL    HW1 2237   3.942   4.865   3.474
  446SOL    HW2 2238   3.984   4.929   3.619
  447SOL     OW 2239   0.408   4.462   6.680
  447SOL    HW1 2240   0.408   4.494   6.774
  447SOL    HW2 2241   0.492   4.411   6.662
  448SOL     OW 2242   3.465   0.582   5.014
  448SOL    HW1 2243   3.408   0.502   4.999
  448SOL    HW2 2244   3.558   0.554   5.036
  449SOL     OW 2245   4.831   0.755   5.331
  449SOL    HW1 2246   4.916   0.799   5.362
  449SOL    HW2 2247   4.810   0.677   5.390
  450SOL     OW 2248   0.327   5.927   3.298
  450SOL    HW1 2249   0.228   5.913   3.292
  450SOL    HW2 2250   0.373   5.839   3.308
  451SOL     OW 2251   0.939   2.236   2.412
  451SOL    HW1 2252   0.945   2.326   2.454
  451SOL    HW2 2253   0.972   2.240   2.318
  452SOL     OW 2254   6.792   6.129   0.509
  452SOL    HW1 2255   6.731   6.078   0.448
  452SOL    HW2 2256   6.883   6.134   0.469
  453SOL     OW 2257   3.027   0.696   6.449
  453SOL    HW1 2258   2.982   0.758   6.384
  453SOL    HW2 2259   3.007   0.601   6.423
  454SOL     OW 2260   6.882   6.140   5.987
  454SOL    HW1 2261   6.887   6.239   5.979
  454SOL    HW2 2262   6.973   6.101   5.973
  455SOL     OW 2263   6.782   0.410   4.206
  455SOL    HW1 2264   6.796   0.346   4.282
  455SOL    HW2 2265   6.869   0.454   4.184
  456SOL     OW 2266   4.593   6.112   5.401
  456SOL    HW1 2267   4.549   6.033   5.360
  456SOL    HW2 2268   4.527   6.187   5.408
  457SOL     OW 2269   2.126   3.551   3.403
  457SOL    HW1 2270   2.147   3.635   3.353
  457SOL    HW2 2271   2.155   3.472   3.350
  458SOL     OW 2272   5.210   5.545   5.246
  458SOL    HW1 2273   5.154   5.483   5.191
  458SOL    HW2 2274   5.199   5.523   5.343
  459SOL     OW 2275   1.683   0.204   3.828
  459SOL    HW1 2276   1.760   0.171   3.883
  459SOL    HW2 2277   1.625   0.263   3.884
  460SOL     OW 2278   0.230   1.138   2.385
  460SOL    HW1 2279   0.193   1.151   2.477
  460SOL    HW2 2280   0.232   1.040   2.363
  461SOL     OW 2281   5.153   6.956   4.677
  461SOL    HW1 2282   5.250   6.975   4.690
  461SOL    HW2 2283   5.105   6.967   4.764
  462SOL     OW 2284   4.241   2.342   5.834
  462SOL    HW1 2285   4.244   2.436   5.870
  462SOL    HW2 2286   4.151   2.303   5.850
  463SOL     OW 2287   6.128   5.872   3.128
  463SOL    HW1 2288   6.137   5.947   3.193
  463SOL    HW2 2289   6.136   5.907   3.035
  464SOL     OW 2290   2.995   2.072   6.220
  464SOL    HW1 2291   2.977   2.168   6.196
  464SOL    HW2 2292   3.085   2.046   6.186
  465SOL     OW 2293   1.273   1.855   4.250
  465SOL    HW1 2294   1.191   1.797   4.249
  465SOL    HW2 2295   1.246   1.951   4.245
  466SOL     OW 2296   0.103   5.778   3.463
  466SOL    HW1 2297   0.182   5.724   3.493
  466SOL    HW2 2298   0.019   5.741   3.504
  467SOL     OW 2299   1.248   0.437   6.462
  467SOL    HW1 2300   1.318   0.420   6.392
  467SOL    HW2 2301   1.286   0.415   6.552
  468SOL     OW 2302   3.218   6.110   0.612
  468SOL    HW1 2303   3.158   6.156   0.547
  468SOL    HW2 2304   3.265   6.034   0.567
  469SOL     OW 2305   3.236   4.467   0.741
  469SOL    HW1 2306   3.208   4.555   0.780
  469SOL    HW2 2307   3.214   4.394   0.806
  470SOL     OW 2308   3.168   0.641   2.685
  470SOL    HW1 2309   3.125   0.670   2.771
  470SOL    HW2 2310   3.126   0.555   2.655
  471SOL     OW 2311   1.603   2.181   4.560
  471SOL    HW1 2312   1.537   2.242   4.517
  471SOL    HW2 2313   1.599   2.193   4.659
  472SOL     OW 2314   4.732   3.729   6.759
  472SOL    HW1 2315   4.798   3.797   6.792
  472SOL    HW2 2316   4.656   3.776   6.716
  473SOL     OW 2317   0.347   2.701   1.308
  473SOL    HW1 2318   0.434   2.727   1.352
  473SOL    HW2 2319   0.352   2.606   1.279
  474SOL     OW 2320   4.575   5.308   3.958
  474SOL    HW1 2321   4.670   5.340   3.955
  474SOL    HW2 2322   4.516   5.372   3.909
  475SOL     OW 2323   6.219   0.878   6.972
  475SOL    HW1 2324   6.180   0.863   0.035
  475SOL    HW2 2325   6.292   0.811   6.956
  476SOL     OW 2326   0.162   3.741   2.308
  476SOL    HW1 2327   0.161   3.656   2.361
  476SOL    HW2 2328   0.086   3.741   2.243
  477SOL     OW 2329   2.295   4.807   5.141
  477SOL    HW1 2330   2.323   4.882   5.082
  477SOL    HW2 2331   2.367   4.737   5.142
  478SOL     OW 2332   3.212   6.304   2.231
  478SOL    HW1 2333   3.167   6.216   2.217
  478SOL    HW2 2334   3.149   6.367   2.275
  479SOL     OW 2335   4.353   2.305   7.004
  479SOL    HW1 2336   4.357   2.274   0.072
  479SOL    HW2 2337   4.333   2.227   6.945
  480SOL     OW 2338   2.118   0.249   6.931
  480SOL    HW1 2339   2.123   0.206   6.840
  480SOL    HW2 2340   2.160   0.339   6.927
  481SOL     OW 2341   2.085   6.759   0.676
  481SOL    HW1 2342   2.122   6.847   0.704
  481SOL    HW2 2343   2.155   6.706   0.629
  482SOL     OW 2344   4.657   4.306   2.631
  482SOL    HW1 2345   4.690   4.213   2.613
  482SOL    HW2 2346   4.658   4.359   2.546
  483SOL     OW 2347   5.676   2.457   1.544
  483SOL    HW1 2348   5.578   2.437   1.547
  483SOL    HW2 2349   5.703   2.475   1.450
  484SOL     OW 2350   1.298   2.632   4.912
  484SOL    HW1 2351   1.352   2.547   4.910
  484SOL    HW2 2352   1.307   2.679   4.824
  485SOL     OW 2353   4.147   5.600   2.100
  485SOL    HW1 2354   4.213   5.667   2.067
  485SOL    HW2 2355   4.133   5.613   2.198
  486SOL     OW 2356   0.337   1.891   0.929
  486SOL    HW1 2357   0.394   1.856   1.003
  486SOL    HW2 2358   0.387   1.962   0.880
  487SOL     OW 2359   0.667   1.715   6.717
  487SOL    HW1 2360   0.618   1.797   6.689
  487SOL    HW2 2361   0.675   1.652   6.639
  488SOL     OW 2362   0.730   1.243   1.662
  488SOL    HW1 2363   0.633   1.260   1.682
  488SOL    HW2 2364   0.738   1.197   1.573
  489SOL     OW 2365   3.678   5.926   7.018
  489SOL    HW1 2366   3.742   6.002   7.010
  489SOL    HW2 2367   3.596   5.944   6.963
  490SOL     OW 2368   6.620   6.222   4.074
  490SOL    HW1 2369   6.650   6.153   4.140
  490SOL    HW2 2370   6.531   6.196   4.037
  491SOL     OW 2371   0.175   2.410   2.876
  491SOL    HW1 2372   0.236   2.349   2.927
  491SOL    HW2 2373   0.114   2.355   2.819
  492SOL     OW 2374   3.172   0.133   5.021
  492SOL    HW1 2375   3.218   0.097   5.102
  492SOL    HW2 2376   3.073   0.134   5.037
  493SOL     OW 2377   5.668   5.939   5.773
  493SOL    HW1 2378   5.584   5.890   5.797
  493SOL    HW2 2379   5.649   6.004   5.699
  494SOL     OW 2380   0.424   6.738   6.911
  494SOL    HW1 2381   0.377   6.769   6.828
  494SOL    HW2 2382   0.380   6.777   6.992
  495SOL     OW 2383   5.363   6.228   3.215
  495SOL    HW1 2384   5.402   6.137   3.228
  495SOL    HW2 2385   5.418   6.277   3.147
  496SOL     OW 2386   5.224   3.442   2.937
  496SOL    HW1 2387   5.223   3.362   2.877
  496SOL    HW2 2388   5.183   3.520   2.889
  497SOL     OW 2389   3.414   1.532   5.711
  497SOL    HW1 2390   3.471   1.572   5.639
  497SOL    HW2 2391   3.383   1.441   5.683
  498SOL     OW 2392   1.794   4.246   1.916
  498SOL    HW1 2393   1.738   4.213   1.993
  498SOL    HW2 2394   1.890   4.252   1.946
  499SOL     OW 2395   2.780   0.513   4.008
  499SOL    HW1 2396   2.791   0.490   4.104
  499SOL    HW2 2397   2.789   0.612   3.996
  500SOL     OW 2398   1.020   4.147   3.036
  500SOL    HW1 2399   0.966   4.203   2.974
  500SOL    HW2 2400   1.073   4.080   2.983
  501SOL     OW 2401   3.351   0.482   0.514
  501SOL    HW1 2402   3.255   0.455   0.521
  501SOL    HW2 2403   3.360   0.551   0.442
  502SOL     OW 2404   6.248   4.495   6.471
  502SOL    HW1 2405   6.227   4.412   6.523
  502SOL    HW2 2406   6.270   4.471   6.377
  503SOL     OW 2407   5.581   5.557   5.947
  503SOL    HW1 2408   5.674   5.520   5.947
  503SOL    HW2 2409   5.561   5.596   6.037
  504SOL     OW 2410   2.870   6.219   3.596
  504SOL    HW1 2411   2.794   6.283   3.612
  504SOL    HW2 2412   2.833   6.128   3.576
  505SOL     OW 2413   3.722   0.405   6.014
  505SOL    HW1 2414   3.707   0.487   6.070
  505SOL    HW2 2415   3.643   0.390   5.956
  506SOL     OW 2416   2.015   5.270   4.764
  506SOL    HW1 2417   2.006   5.239   4.859
  506SOL    HW2 2418   1.982   5.364   4.756
  507SOL     OW 2419   3.777   0.210   4.183
  507SOL    HW1 2420   3.743   0.282   4.244
  507SOL    HW2 2421   3.867   0.180   4.215
  508SOL     OW 2422   6.514   4.103   3.034
  508SOL    HW1 2423   6.434   4.118   2.976
  508SOL    HW2 2424   6.569   4.187   3.037
  509SOL     OW 2425   3.181   1.388   1.653
  509SOL    HW1 2426   3.205   1.424   1.744
  509SOL    HW2 2427   3.157   1.465   1.593
  510SOL     OW 2428   6.682   5.053   6.017
  510SOL    HW1 2429   6.723   5.103   5.940
  510SOL    HW2 2430   6.610   4.993   5.983
  511SOL     OW 2431   0.250   6.448   6.995
  511SOL    HW1 2432   0.206   6.538   6.987
  511SOL    HW2 2433   0.288   6.437   0.059
  512SOL     OW 2434   0.174   3.191   0.275
  512SOL    HW1 2435   0.094   3.131   0.279
  512SOL    HW2 2436   0.240   3.153   0.210
  513SOL     OW 2437   6.018   6.240   2.989
  513SOL    HW1 2438   5.919   6.231   2.978
  513SOL    HW2 2439   6.060   6.262   2.901
  514SOL     OW 2440   6.402   2.478   4.109
  514SOL    HW1 2441   6.433   2.452   4.018
  514SOL    HW2 2442   6.457   2.554   4.144
  515SOL     OW 2443   2.091   0.169   6.227
  515SOL    HW1 2444   2.179   0.194   6.268
  515SOL    HW2 2445   2.107   0.106   6.151
  516SOL     OW 2446   2.654   4.570   1.723
  516SOL    HW1 2447   2.746   4.553   1.757
  516SOL    HW2 2448   2.597   4.606   1.797
  517SOL     OW 2449   5.212   6.112   2.259
  517SOL    HW1 2450   5.164   6.062   2.331
  517SOL    HW2 2451   5.178   6.082   2.170
  518SOL     OW 2452   3.014   2.074   1.993
  518SOL    HW1 2453   2.973   2.157   2.033
  518SOL    HW2 2454   3.072   2.100   1.916
  519SOL     OW 2455   6.912   0.750   4.717
  519SOL    HW1 2456   6.831   0.715   4.764
  519SOL    HW2 2457   6.979   0.677   4.706
  520SOL     OW 2458   5.756   4.765   6.569
  520SOL    HW1 2459   5.843   4.803   6.538
  520SOL    HW2 2460   5.720   4.703   6.499
  521SOL     OW 2461   6.242   2.879   6.521
  521SOL    HW1 2462   6.159   2.863   6.467
  521SOL    HW2 2463   6.318   2.830   6.480
  522SOL     OW 2464   4.002   2.953   5.277
  522SOL    HW1 2465   4.019   2.855   5.288
  522SOL    HW2 2466   4.079   3.004   5.314
  523SOL     OW 2467   0.357   4.984   3.536
  523SOL    HW1 2468   0.433   4.981   3.471
  523SOL    HW2 2469   0.270   4.978   3.487
  524SOL     OW 2470   2.312   1.229   6.671
  524SOL    HW1 2471   2.328   1.258   6.766
  524SOL    HW2 2472   2.214   1.220   6.655
  525SOL     OW 2473   2.759   3.294   6.422
  525SOL    HW1 2474   2.673   3.323   6.380
  525SOL    HW2 2475   2.763   3.194   6.425
  526SOL     OW 2476   2.746   7.012   5.026
  526SOL    HW1 2477   2.790   6.963   4.950
  526SOL    HW2 2478   2.807   0.056   5.059
  527SOL     OW 2479   5.822   3.319   6.274
  527SOL    HW1 2480   5.846   3.248   6.340
  527SOL    HW2 2481   5.880   3.310   6.193
  528SOL     OW 2482   1.258   1.776   3.826
  528SOL    HW1 2483   1.186   1.795   3.760
  528SOL    HW2 2484   1.312   1.859   3.842
  529SOL     OW 2485   0.258   5.687   4.550
  529SOL    HW1 2486   0.244   5.673   4.452
  529SOL    HW2 2487   0.284   5.600   4.592
  530SOL     OW 2488   2.679   2.915   5.380
  530SOL    HW1 2489   2.664   2.956   5.470
  530SOL    HW2 2490   2.617   2.956   5.314
  531SOL     OW 2491   7.017   1.046   1.537
  531SOL    HW1 2492   6.919   1.056   1.554
  531SOL    HW2 2493   0.040   1.066   1.621
  532SOL     OW 2494   0.429   2.917   6.367
  532SOL    HW1 2495   0.492   2.840   6.352
  532SOL    HW2 2496   0.416   2.966   6.281
  533SOL     OW 2497   4.836   5.483   4.195
  533SOL    HW1 2498   4.931   5.492   4.227
  533SOL    HW2 2499   4.779   5.452   4.271
  534SOL     OW 2500   5.205   5.085   3.651
  534SOL    HW1 2501   5.109   5.093   3.624
  534SOL    HW2 2502   5.220   5.135   3.737
  535SOL     OW 2503   1.107   4.150   4.489
  535SOL    HW1 2504   1.053   4.183   4.412
  535SOL    HW2 2505   1.158   4.226   4.529
  536SOL     OW 2506   6.704   5.098   2.320
  536SOL    HW1 2507   6.760   5.150   2.385
  536SOL    HW2 2508   6.719   5.000   2.336
  537SOL     OW 2509   2.231   6.284   3.907
  537SOL    HW1 2510   2.150   6.239   3.871
  537SOL    HW2 2511   2.223   6.294   4.006
  538SOL     OW 2512   1.939   5.825   3.731
  538SOL    HW1 2513   1.905   5.855   3.820
  538SOL    HW2 2514   1.934   5.902   3.667
  539SOL     OW 2515   0.459   5.872   0.277
  539SOL    HW1 2516   0.408   5.788   0.294
  539SOL    HW2 2517   0.394   5.948   0.263
  540SOL     OW 2518   0.535   1.537   1.824
  540SOL    HW1 2519   0.607   1.584   1.772
  540SOL    HW2 2520   0.484   1.476   1.764
  541SOL     OW 2521   2.738   6.442   4.444
  541SOL    HW1 2522   2.833   6.447   4.412
  541SOL    HW2 2523   2.703   6.349   4.428
  542SOL     OW 2524   6.663   6.708   6.900
  542SOL    HW1 2525   6.678   6.764   6.981
  542SOL    HW2 2526   6.726   6.736   6.828
  543SOL     OW 2527   0.509   5.052   5.445
  543SOL    HW1 2528   0.446   5.125   5.416
  543SOL    HW2 2529   0.564   5.084   5.522
  544SOL     OW 2530   1.424   4.480   0.954
  544SOL    HW1 2531   1.519   4.453   0.936
  544SOL    HW2 2532   1.413   4.501   1.051
  545SOL     OW 2533   3.973   1.417   3.168
  545SOL    HW1 2534   3.997   1.321   3.185
  545SOL    HW2 2535   3.876   1.431   3.188
  546SOL     OW 2536   1.744   3.428   1.592
  546SOL    HW1 2537   1.832   3.403   1.632
  546SOL    HW2 2538   1.732   3.527   1.598
  547SOL     OW 2539   2.480   1.574   6.811
  547SOL    HW1 2540   2.564   1.627   6.820
  547SOL    HW2 2541   2.406   1.633   6.779
  548SOL     OW 2542   3.643   3.166   3.000
  548SOL    HW1 2543   3.707   3.236   2.967
  548SOL    HW2 2544   3.550   3.193   2.976
  549SOL     OW 2545   4.413   3.788   1.683
  549SOL    HW1 2546   4.467   3.818   1.604
  549SOL    HW2 2547   4.374   3.868   1.729
  550SOL     OW 2548   0.011   3.347   3.123
  550SOL    HW1 2549   6.981   3.317   3.199
  550SOL    HW2 2550   0.098   3.380   3.158
  551SOL     OW 2551   0.110   1.766   0.837
  551SOL    HW1 2552   0.182   1.816   0.886
  551SOL    HW2 2553   0.125   1.668   0.846
  552SOL     OW 2554   3.767   5.623   0.884
  552SOL    HW1 2555   3.707   5.591   0.810
  552SOL    HW2 2556   3.792   5.546   0.943
  553SOL     OW 2557   1.778   6.519   2.778
  553SOL    HW1 2558   1.732   6.592   2.728
  553SOL    HW2 2559   1.873   6.513   2.749
  554SOL     OW 2560   5.300   0.232   6.362
  554SOL    HW1 2561   5.240   0.188   6.295
  554SOL    HW2 2562   5.295   0.332   6.350
  555SOL     OW 2563   2.214   5.286   4.123
  555SOL    HW1 2564   2.191   5.380   4.147
  555SOL    HW2 2565   2.138   5.245   4.072
  556SOL     OW 2566   6.054   2.293   4.393
  556SOL    HW1 2567   6.016   2.219   4.449
  556SOL    HW2 2568   6.078   2.370   4.452
  557SOL     OW 2569   0.237   5.798   6.725
  557SOL    HW1 2570   0.272   5.719   6.775
  557SOL    HW2 2571   0.139   5.789   6.711
  558SOL     OW 2572   4.209   3.599   5.046
  558SOL    HW1 2573   4.146   3.542   4.994
  558SOL    HW2 2574   4.270   3.647   4.983
  559SOL     OW 2575   6.617   6.256   6.641
  559SOL    HW1 2576   6.600   6.224   6.734
  559SOL    HW2 2577   6.595   6.354   6.635
  560SOL     OW 2578   3.629   6.522   0.903
  560SOL    HW1 2579   3.568   6.496   0.978
  560SOL    HW2 2580   3.581   6.585   0.842
  561SOL     OW 2581   5.953   0.000   6.391
  561SOL    HW1 2582   5.867   6.977   6.388
  561SOL    HW2 2583   6.023   6.978   6.341
  562SOL     OW 2584   4.684   0.907   6.358
  562SOL    HW1 2585   4.624   0.985   6.376
  562SOL    HW2 2586   4.715   0.909   6.263
  563SOL     OW 2587   2.865   6.695   3.322
  563SOL    HW1 2588   2.819   6.608   3.308
  563SOL    HW2 2589   2.844   6.731   3.413
  564SOL     OW 2590   2.172   2.321   6.139
  564SOL    HW1 2591   2.116   2.372   6.074
  564SOL    HW2 2592   2.188   2.377   6.220
  565SOL     OW 2593   4.589   3.107   5.525
  565SOL    HW1 2594   4.621   3.058   5.444
  565SOL    HW2 2595   4.579   3.042   5.601
  566SOL     OW 2596   4.385   4.594   3.669
  566SOL    HW1 2597   4.304   4.643   3.700
  566SOL    HW2 2598   4.395   4.606   3.570
  567SOL     OW 2599   3.289   3.341   4.125
  567SOL    HW1 2600   3.330   3.317   4.038
  567SOL    HW2 2601   3.360   3.375   4.187
  568SOL     OW 2602   3.573   2.425   1.336
  568SOL    HW1 2603   3.649   2.362   1.321
  568SOL    HW2 2604   3.578   2.500   1.269
  569SOL     OW 2605   1.430   3.139   0.761
  569SOL    HW1 2606   1.500   3.123   0.692
  569SOL    HW2 2607   1.352   3.078   0.745
  570SOL     OW 2608   1.102   6.402   0.006
  570SOL    HW1 2609   1.051   6.485   7.012
  570SOL    HW2 2610   1.153   6.415   0.091
  571SOL     OW 2611   3.019   6.116   2.339
  571SOL    HW1 2612   2.928   6.074   2.334
  571SOL    HW2 2613   3.029   6.165   2.425
  572SOL     OW 2614   2.451   4.479   5.843
  572SOL    HW1 2615   2.442   4.522   5.753
  572SOL    HW2 2616   2.375   4.507   5.901
  573SOL     OW 2617   3.387   1.578   5.187
  573SOL    HW1 2618   3.347   1.572   5.096
  573SOL    HW2 2619   3.342   1.512   5.247
  574SOL     OW 2620   2.353   2.544   4.639
  574SOL    HW1 2621   2.376   2.632   4.680
  574SOL    HW2 2622   2.401   2.534   4.552
  575SOL     OW 2623   6.191   4.019   0.429
  575SOL    HW1 2624   6.271   4.057   0.382
  575SOL    HW2 2625   6.121   3.998   0.361
  576SOL     OW 2626   1.170   2.173   1.928
  576SOL    HW1 2627   1.234   2.101   1.902
  576SOL    HW2 2628   1.116   2.201   1.849
  577SOL     OW 2629   2.524   1.390   3.702
  577SOL    HW1 2630   2.425   1.398   3.709
  577SOL    HW2 2631   2.548   1.334   3.623
  578SOL     OW 2632   6.825   3.424   3.665
  578SOL    HW1 2633   6.763   3.483   3.613
  578SOL    HW2 2634   6.786   3.408   3.756
  579SOL     OW 2635   3.967   2.022   1.354
  579SOL    HW1 2636   4.025   2.089   1.400
  579SOL    HW2 2637   3.941   1.950   1.419
  580SOL     OW 2638   0.857   4.792   5.976
  580SOL    HW1 2639   0.869   4.816   6.073
  580SOL    HW2 2640   0.781   4.845   5.939
  581SOL     OW 2641   3.727   2.922   3.207
  581SOL    HW1 2642   3.761   3.016   3.198
  581SOL    HW2 2643   3.628   2.922   3.215
  582SOL     OW 2644   5.796   3.934   2.183
  582SOL    HW1 2645   5.698   3.918   2.195
  582SOL    HW2 2646   5.823   4.016   2.233
  583SOL     OW 2647   2.623   4.602   0.139
  583SOL    HW1 2648   2.593   4.654   0.060
  583SOL    HW2 2649   2.562   4.619   0.216
  584SOL     OW 2650   0.296   4.905   5.525
  584SOL    HW1 2651   0.221   4.961   5.490
  584SOL    HW2 2652   0.383   4.951   5.506
  585SOL     OW 2653   6.791   2.796   6.112
  585SOL    HW1 2654   6.756   2.734   6.041
  585SOL    HW2 2655   6.839   2.872   6.069
  586SOL     OW 2656   3.092   6.550   0.503
  586SOL    HW1 2657   3.007   6.571   0.455
  586SOL    HW2 2658   3.150   6.632   0.504
  587SOL     OW 2659   1.992   1.819   4.996
  587SOL    HW1 2660   1.916   1.854   4.942
  587SOL    HW2 2661   1.970   1.728   5.030
  588SOL     OW 2662   3.541   0.017   1.365
  588SOL    HW1 2663   3.609   6.997   1.309
  588SOL    HW2 2664   3.557   0.116   1.358
  589SOL     OW 2665   3.793   5.031   1.713
  589SOL    HW1 2666   3.771   5.099   1.643
  589SOL    HW2 2667   3.874   4.980   1.685
  590SOL     OW 2668   0.230   2.529   2.462
  590SOL    HW1 2669   0.192   2.589   2.392
  590SOL    HW2 2670   0.328   2.517   2.446
  591SOL     OW 2671   4.255   0.123   3.424
  591SOL    HW1 2672   4.179   0.153   3.366
  591SOL    HW2 2673   4.218   0.073   3.503
  592SOL     OW 2674   4.882   1.238   0.343
  592SOL    HW1 2675   4.900   1.317   0.400
  592SOL    HW2 2676   4.849   1.269   0.253
  593SOL     OW 2677   4.040   2.261   4.019
  593SOL    HW1 2678   3.952   2.309   4.008
  593SOL    HW2 2679   4.073   2.231   3.930
  594SOL     OW 2680   4.363   2.964   6.542
  594SOL    HW1 2681   4.376   2.903   6.464
  594SOL    HW2 2682   4.301   2.921   6.608
  595SOL     OW 2683   4.124   6.820   4.484
  595SOL    HW1 2684   4.060   6.880   4.531
  595SOL    HW2 2685   4.080   6.782   4.402
  596SOL     OW 2686   1.001   3.785   2.187
  596SOL    HW1 2687   1.030   3.868   2.138
  596SOL    HW2 2688   0.909   3.760   2.157
  597SOL     OW 2689   4.024   6.657   6.867
  597SOL    HW1 2690   4.083   6.660   6.786
  597SOL    HW2 2691   3.953   6.727   6.859
  598SOL     OW 2692   4.236   4.734   0.348
  598SOL    HW1 2693   4.261   4.690   0.435
  598SOL    HW2 2694   4.243   4.833   0.358
  599SOL     OW 2695   0.249   0.484   2.440
  599SOL    HW1 2696   0.295   0.436   2.365
  599SOL    HW2 2697   0.260   0.582   2.428
  600SOL     OW 2698   0.897   6.519   0.843
  600SOL    HW1 2699   0.969   6.508   0.774
  600SOL    HW2 2700   0.914   6.603   0.896
  601SOL     OW 2701   3.059   5.910   3.754
  601SOL    HW1 2702   3.117   5.852   3.811
  601SOL    HW2 2703   3.037   5.861   3.669
  602SOL     OW 2704   1.124   0.478   0.412
  602SOL    HW1 2705   1.090   0.421   0.337
  602SOL    HW2 2706   1.210   0.441   0.445
  603SOL     OW 2707   3.811   1.661   3.379
  603SOL    HW1 2708   3.855   1.727   3.439
  603SOL    HW2 2709   3.717   1.645   3.409
  604SOL     OW 2710   1.379   2.932   0.059
  604SOL    HW1 2711   1.375   2.982   7.000
  604SOL    HW2 2712   1.475   2.919   0.084
  605SOL     OW 2713   0.049   5.967   3.284
  605SOL    HW1 2714   0.034   5.913   3.367
  605SOL    HW2 2715   0.097   5.910   3.216
  606SOL     OW 2716   4.444   0.777   4.548
  606SOL    HW1 2717   4.384   0.778   4.468
  606SOL    HW2 2718   4.392   0.745   4.628
  607SOL     OW 2719   5.751   1.331   3.881
  607SOL    HW1 2720   5.779   1.409   3.826
  607SOL    HW2 2721   5.801   1.331   3.968
  608SOL     OW 2722   3.038   0.344   0.805
  608SOL    HW1 2723   3.029   0.256   0.759
  608SOL    HW2 2724   2.971   0.408   0.767
  609SOL     OW 2725   3.445   3.001   4.700
  609SOL    HW1 2726   3.517   2.964   4.759
  609SOL    HW2 2727   3.430   2.938   4.624
  610SOL     OW 2728   5.262   2.313   3.589
  610SOL    HW1 2729   5.200   2.341   3.515
  610SOL    HW2 2730   5.220   2.239   3.641
  611SOL     OW 2731   0.387   0.558   6.864
  611SOL    HW1 2732   0.469   0.614   6.874
  611SOL    HW2 2733   0.384   0.519   6.772
  612SOL     OW 2734   3.686   5.389   6.005
  612SOL    HW1 2735   3.588   5.390   5.987
  612SOL    HW2 2736   3.734   5.346   5.928
  613SOL     OW 2737   4.090   1.296   5.682
  613SOL    HW1 2738   4.175   1.264   5.641
  613SOL    HW2 2739   4.055   1.374   5.630
  614SOL     OW 2740   5.908   4.990   0.750
  614SOL    HW1 2741   5.986   4.929   0.738
  614SOL    HW2 2742   5.844   4.976   0.674
  615SOL     OW 2743   0.743   0.186   6.779
  615SOL    HW1 2744   0.662   0.192   6.838
  615SOL    HW2 2745   0.729   0.242   6.698
  616SOL     OW 2746   5.662   2.240   4.315
  616SOL    HW1 2747   5.568   2.209   4.303
  616SOL    HW2 2748   5.725   2.170   4.280
  617SOL     OW 2749   0.263   4.488   5.639
  617SOL    HW1 2750   0.196   4.436   5.691
  617SOL    HW2 2751   0.231   4.582   5.628
  618SOL     OW 2752   6.303   3.424   1.593
  618SOL    HW1 2753   6.216   3.450   1.550
  618SOL    HW2 2754   6.309   3.467   1.683
  619SOL     OW 2755   2.835   0.740   0.075
  619SOL    HW1 2756   2.874   0.830   0.093
  619SOL    HW2 2757   2.736   0.749   0.062
  620SOL     OW 2758   5.606   3.478   2.144
  620SOL    HW1 2759   5.546   3.551   2.110
  620SOL    HW2 2760   5.693   3.517   2.173
  621SOL     OW 2761   2.954   0.111   6.025
  621SOL    HW1 2762   2.960   0.038   6.093
  621SOL    HW2 2763   2.860   0.116   5.990
  622SOL     OW 2764   1.199   2.624   5.378
  622SOL    HW1 2765   1.129   2.563   5.340
  622SOL    HW2 2766   1.174   2.650   5.471
  623SOL     OW 2767   6.520   6.374   4.369
  623SOL    HW1 2768   6.536   6.417   4.280
  623SOL    HW2 2769   6.494   6.279   4.357
  624SOL     OW 2770   6.357   1.563   6.573
  624SOL    HW1 2771   6.265   1.576   6.611
  624SOL    HW2 2772   6.423   1.557   6.648
  625SOL     OW 2773   2.247   0.866   0.084
  625SOL    HW1 2774   2.303   0.900   0.159
  625SOL    HW2 2775   2.192   0.789   0.116
  626SOL     OW 2776   1.289   5.725   3.761
  626SOL    HW1 2777   1.378   5.714   3.716
  626SOL    HW2 2778   1.290   5.809   3.815
  627SOL     OW 2779   6.261   6.421   7.024
  627SOL    HW1 2780   6.175   6.457   6.987
  627SOL    HW2 2781   6.274   6.456   0.089
  628SOL     OW 2782   5.334   4.176   5.428
  628SOL    HW1 2783   5.391   4.211   5.354
  628SOL    HW2 2784   5.318   4.248   5.495
  629SOL     OW 2785   6.991   0.603   7.011
  629SOL    HW1 2786   6.928   0.640   6.942
  629SOL    HW2 2787   7.018   0.676   0.046
  630SOL     OW 2788   6.717   1.131   1.017
  630SOL    HW1 2789   6.676   1.046   0.985
  630SOL    HW2 2790   6.648   1.204   1.015
  631SOL     OW 2791   2.631   2.528   5.095
  631SOL    HW1 2792   2.583   2.603   5.140
  631SOL    HW2 2793   2.702   2.492   5.155
  632SOL     OW 2794   4.788   3.145   0.777
  632SOL    HW1 2795   4.706   3.157   0.720
  632SOL    HW2 2796   4.868   3.177   0.726
  633SOL     OW 2797   1.627   5.019   1.021
  633SOL    HW1 2798   1.538   5.043   0.983
  633SOL    HW2 2799   1.699   5.059   0.964
  634SOL     OW 2800   3.328   3.613   3.764
  634SOL    HW1 2801   3.277   3.687   3.721
  634SOL    HW2 2802   3.379   3.648   3.842
  635SOL     OW 2803   5.200   1.157   6.687
  635SOL    HW1 2804   5.120   1.097   6.695
  635SOL    HW2 2805   5.239   1.173   6.777
  636SOL     OW 2806   2.959   0.388   5.822
  636SOL    HW1 2807   3.021   0.466   5.828
  636SOL    HW2 2808   3.012   0.304   5.810
  637SOL     OW 2809   6.364   1.300   2.279
  637SOL    HW1 2810   6.330   1.249   2.358
  637SOL    HW2 2811   6.290   1.314   2.214
  638SOL     OW 2812   5.941   3.556   3.847
  638SOL    HW1 2813   6.027   3.606   3.829
  638SOL    HW2 2814   5.950   3.506   3.933
  639SOL     OW 2815   5.656   5.241   2.912
  639SOL    HW1 2816   5.592   5.244   2.989
  639SOL    HW2 2817   5.716   5.321   2.916
  640SOL     OW 2818   0.056   3.023   2.728
  640SOL    HW1 2819   0.002   2.945   2.762
  640SOL    HW2 2820   7.026   3.079   2.669
  641SOL     OW 2821   1.965   4.935   5.215
  641SOL    HW1 2822   2.017   4.889   5.143
  641SOL    HW2 2823   1.879   4.886   5.230
  642SOL     OW 2824   0.937   3.514   4.566
  642SOL    HW1 2825   0.975   3.535   4.656
  642SOL    HW2 2826   0.936   3.596   4.510
  643SOL     OW 2827   5.720   6.806   0.003
  643SOL    HW1 2828   5.687   6.737   0.067
  643SOL    HW2 2829   5.650   6.877   7.020
  644SOL     OW 2830   0.489   0.468   4.504
  644SOL    HW1 2831   0.567   0.514   4.462
  644SOL    HW2 2832   0.435   0.534   4.555
  645SOL     OW 2833   3.790   4.842   3.017
  645SOL    HW1 2834   3.750   4.822   2.927
  645SOL    HW2 2835   3.717   4.868   3.080
  646SOL     OW 2836   3.587   1.043   5.289
  646SOL    HW1 2837   3.575   0.958   5.238
  646SOL    HW2 2838   3.684   1.056   5.310
  647SOL     OW 2839   4.985   1.981   4.620
  647SOL    HW1 2840   4.931   1.938   4.692
  647SOL    HW2 2841   4.933   2.057   4.580
  648SOL     OW 2842   6.463   2.087   2.688
  648SOL    HW1 2843   6.482   1.997   2.727
  648SOL    HW2 2844   6.365   2.107   2.696
  649SOL     OW 2845   2.458   4.731   0.387
  649SOL    HW1 2846   2.490   4.678   0.465
  649SOL    HW2 2847   2.532   4.791   0.355
  650SOL     OW 2848   6.453   5.557   0.677
  650SOL    HW1 2849   6.505   5.623   0.732
  650SOL    HW2 2850   6.502   5.539   0.592
  651SOL     OW 2851   1.589   0.462   5.592
  651SOL    HW1 2852   1.622   0.441   5.500
  651SOL    HW2 2853   1.641   0.410   5.660
  652SOL     OW 2854   4.318   0.932   2.167
  652SOL    HW1 2855   4.342   0.980   2.083
  652SOL    HW2 2856   4.227   0.960   2.197
  653SOL     OW 2857   6.510   6.413   0.721
  653SOL    HW1 2858   6.493   6.382   0.815
  653SOL    HW2 2859   6.549   6.504   0.723
  654SOL     OW 2860   6.783   6.476   5.580
  654SOL    HW1 2861   6.690   6.447   5.602
  654SOL    HW2 2862   6.846   6.399   5.591
  655SOL     OW 2863   6.960   4.955   2.087
  655SOL    HW1 2864   0.029   4.979   2.077
  655SOL    HW2 2865   6.915   5.021   2.146
  656SOL     OW 2866   3.466   6.228   0.728
  656SOL    HW1 2867   3.462   6.312   0.674
  656SOL    HW2 2868   3.375   6.185   0.730
  657SOL     OW 2869   3.737   3.282   1.993
  657SOL    HW1 2870   3.656   3.252   2.044
  657SOL    HW2 2871   3.815   3.288   2.054
  658SOL     OW 2872   2.111   3.822   4.420
  658SOL    HW1 2873   2.081   3.815   4.515
  658SOL    HW2 2874   2.145   3.733   4.388
  659SOL     OW 2875   3.825   6.313   5.686
  659SOL    HW1 2876   3.912   6.270   5.709
  659SOL    HW2 2877   3.752   6.271   5.738
  660SOL     OW 2878   5.132   4.528   2.594
  660SOL    HW1 2879   5.197   4.595   2.631
  660SOL    HW2 2880   5.046   4.533   2.644
  661SOL     OW 2881   4.853   4.469   4.299
  661SOL    HW1 2882   4.789   4.392   4.304
  661SOL    HW2 2883   4.809   4.546   4.253
  662SOL     OW 2884   4.546   2.639   6.641
  662SOL    HW1 2885   4.606   2.560   6.624
  662SOL    HW2 2886   4.524   2.643   6.739
  663SOL     OW 2887   6.890   4.289   0.042
  663SOL    HW1 2888   6.883   4.383   0.008
  663SOL    HW2 2889   6.984   4.256   0.030
  664SOL     OW 2890   1.853   5.822   6.068
  664SOL    HW1 2891   1.761   5.860   6.060
  664SOL    HW2 2892   1.885   5.794   5.978
  665SOL     OW 2893   3.687   5.506   1.452
  665SOL    HW1 2894   3.727   5.425   1.494
  665SOL    HW2 2895   3.602   5.531   1.498
  666SOL     OW 2896   3.832   2.021   0.365
  666SOL    HW1 2897   3.884   1.996   0.447
  666SOL    HW2 2898   3.741   2.052   0.391
  667SOL     OW 2899   0.579   2.711   4.014
  667SOL    HW1 2900   0.601   2.629   4.067
  667SOL    HW2 2901   0.480   2.724   4.011
  668SOL     OW 2902   4.756   6.537   7.026
  668SOL    HW1 2903   4.671   6.510   6.981
  668SOL    HW2 2904   4.750   6.516   0.096
  669SOL     OW 2905   1.134   7.012   3.188
  669SOL    HW1 2906   1.121   0.059   3.123
  669SOL    HW2 2907   1.060   6.945   3.178
  670SOL     OW 2908   3.228   3.632   2.520
  670SOL    HW1 2909   3.253   3.547   2.565
  670SOL    HW2 2910   3.143   3.667   2.559
  671SOL     OW 2911   1.615   6.002   6.073
  671SOL    HW1 2912   1.683   6.068   6.042
  671SOL    HW2 2913   1.524   6.043   6.066
  672SOL     OW 2914   1.020   2.927   4.512
  672SOL    HW1 2915   0.975   3.015   4.525
  672SOL    HW2 2916   1.084   2.911   4.588
  673SOL     OW 2917   4.901   0.615   7.002
  673SOL    HW1 2918   4.859   0.677   6.937
  673SOL    HW2 2919   4.894   0.653   0.067
  674SOL     OW 2920   0.669   2.812   3.784
  674SOL    HW1 2921   0.686   2.908   3.809
  674SOL    HW2 2922   0.633   2.764   3.864
  675SOL     OW 2923   0.453   2.417   4.661
  675SOL    HW1 2924   0.517   2.490   4.687
  675SOL    HW2 2925   0.436   2.358   4.740
  676SOL     OW 2926   2.901   4.795   4.397
  676SOL    HW1 2927   2.814   4.746   4.402
  676SOL    HW2 2928   2.932   4.818   4.489
  677SOL     OW 2929   6.439   0.446   0.596
  677SOL    HW1 2930   6.460   0.440   0.499
  677SOL    HW2 2931   6.520   0.422   0.650
  678SOL     OW 2932   2.685   1.000   5.641
  678SOL    HW1 2933   2.634   1.017   5.557
  678SOL    HW2 2934   2.668   1.075   5.705
  679SOL     OW 2935   3.556   1.227   3.425
  679SOL    HW1 2936   3.625   1.299   3.438
  679SOL    HW2 2937   3.466   1.264   3.446
  680SOL     OW 2938   5.880   4.117   5.907
  680SOL    HW1 2939   5.948   4.046   5.927
  680SOL    HW2 2940   5.807   4.077   5.851
  681SOL     OW 2941   6.701   6.236   0.996
  681SOL    HW1 2942   6.629   6.291   1.038
  681SOL    HW2 2943   6.713   6.265   0.901
  682SOL     OW 2944   1.975   6.770   0.180
  682SOL    HW1 2945   1.958   6.759   0.082
  682SOL    HW2 2946   2.054   6.830   0.193
  683SOL     OW 2947   4.241   1.486   6.087
  683SOL    HW1 2948   4.164   1.424   6.100
  683SOL    HW2 2949   4.278   1.476   5.994
  684SOL     OW 2950   0.390   0.075   6.269
  684SOL    HW1 2951   0.298   0.035   6.261
  684SOL    HW2 2952   0.381   0.174   6.279
  685SOL     OW 2953   4.896   0.143   6.463
  685SOL    HW1 2954   4.966   0.108   6.524
  685SOL    HW2 2955   4.846   0.217   6.508
  686SOL     OW 2956   5.365   3.032   3.439
  686SOL    HW1 2957   5.409   3.089   3.509
  686SOL    HW2 2958   5.314   3.091   3.376
  687SOL     OW 2959   6.747   3.437   6.468
  687SOL    HW1 2960   6.680   3.394   6.528
  687SOL    HW2 2961   6.704   3.515   6.422
  688SOL     OW 2962   2.000   3.631   0.011
  688SOL    HW1 2963   2.050   3.565   0.066
  688SOL    HW2 2964   1.911   3.592   7.013
  689SOL     OW 2965   0.657   4.359   6.272
  689SOL    HW1 2966   0.620   4.409   6.193
  689SOL    HW2 2967   0.757   4.366   6.272
  690SOL     OW 2968   1.180   2.185   3.839
  690SOL    HW1 2969   1.095   2.137   3.862
  690SOL    HW2 2970   1.258   2.127   3.859
  691SOL     OW 2971   1.451   2.500   6.048
  691SOL    HW1 2972   1.391   2.580   6.042
  691SOL    HW2 2973   1.539   2.523   6.005
  692SOL     OW 2974   2.583   6.920   3.391
  692SOL    HW1 2975   2.571   6.857   3.314
  692SOL    HW2 2976   2.647   6.880   3.457
  693SOL     OW 2977   6.791   1.790   2.582
  693SOL    HW1 2978   6.821   1.720   2.517
  693SOL    HW2 2979   6.710   1.836   2.546
  694SOL     OW 2980   3.366   5.723   1.172
  694SOL    HW1 2981   3.304   5.786   1.219
  694SOL    HW2 2982   3.396   5.764   1.086
  695SOL     OW 2983   5.229   5.363   4.886
  695SOL    HW1 2984   5.167   5.356   4.964
  695SOL    HW2 2985   5.247   5.460   4.867
  696SOL     OW 2986   3.181   5.102   2.548
  696SOL    HW1 2987   3.083   5.119   2.557
  696SOL    HW2 2988   3.201   5.063   2.458
  697SOL     OW 2989   1.234   3.371   5.043
  697SOL    HW1 2990   1.296   3.370   4.965
  697SOL    HW2 2991   1.269   3.308   5.113
  698SOL     OW 2992   5.013   0.385   3.717
  698SOL    HW1 2993   4.953   0.461   3.739
  698SOL    HW2 2994   4.974   0.332   3.641
  699SOL     OW 2995   1.639   4.754   1.007
  699SOL    HW1 2996   1.625   4.848   1.040
  699SOL    HW2 2997   1.727   4.748   0.960
  700SOL     OW 2998   2.700   2.320   3.917
  700SOL    HW1 2999   2.702   2.352   3.823
  700SOL    HW2 3000   2.631   2.248   3.927
  701SOL     OW 3001   1.035   4.278   0.053
  701SOL    HW1 3002   1.109   4.211   0.057
  701SOL    HW2 3003   1.020   4.317   0.144
  702SOL     OW 3004   5.302   6.809   5.010
  702SOL    HW1 3005   5.340   6.716   5.010
  702SOL    HW2 3006   5.202   6.804   5.016
  703SOL     OW 3007   4.565   3.344   6.621
  703SOL    HW1 3008   4.659   3.376   6.606
  703SOL    HW2 3009   4.520   3.405   6.687
  704SOL     OW 3010   0.945   0.979   6.085
  704SOL    HW1 3011   0.958   0.990   5.987
  704SOL    HW2 3012   0.930   0.882   6.106
  705SOL     OW 3013   4.848   0.701   3.697
  705SOL    HW1 3014   4.830   0.739   3.788
  705SOL    HW2 3015   4.766   0.656   3.662
  706SOL     OW 3016   3.392   1.848   4.084
  706SOL    HW1 3017   3.392   1.889   4.175
  706SOL    HW2 3018   3.419   1.917   4.017
  707SOL     OW 3019   4.606   0.468   1.798
  707SOL    HW1 3020   4.590   0.496   1.704
  707SOL    HW2 3021   4.521   0.471   1.850
  708SOL     OW 3022   4.617   0.171   1.088
  708SOL    HW1 3023   4.519   0.179   1.066
  708SOL    HW2 3024   4.670   0.179   1.004
  709SOL     OW 3025   1.065   4.880   1.180
  709SOL    HW1 3026   0.987   4.825   1.149
  709SOL    HW2 3027   1.150   4.833   1.154
  710SOL     OW 3028   3.307   4.085   2.136
  710SOL    HW1 3029   3.244   4.097   2.060
  710SOL    HW2 3030   3.334   4.175   2.171
  711SOL     OW 3031   6.705   2.700   5.225
  711SOL    HW1 3032   6.670   2.615   5.185
  711SOL    HW2 3033   6.776   2.679   5.293
  712SOL     OW 3034   1.018   3.686   0.907
  712SOL    HW1 3035   1.095   3.749   0.897
  712SOL    HW2 3036   0.966   3.708   0.990
  713SOL     OW 3037   3.989   3.647   2.062
  713SOL    HW1 3038   3.973   3.597   1.977
  713SOL    HW2 3039   3.982   3.745   2.045
  714SOL     OW 3040   5.507   4.560   5.308
  714SOL    HW1 3041   5.498   4.468   5.271
  714SOL    HW2 3042   5.603   4.587   5.310
  715SOL     OW 3043   4.441   5.939   6.826
  715SOL    HW1 3044   4.377   5.881   6.876
  715SOL    HW2 3045   4.492   5.883   6.760
  716SOL     OW 3046   0.739   5.127   1.507
  716SOL    HW1 3047   0.639   5.121   1.510
  716SOL    HW2 3048   0.766   5.223   1.494
  717SOL     OW 3049   6.058   4.425   0.122
  717SOL    HW1 3050   6.001   4.475   0.187
  717SOL    HW2 3051   6.136   4.385   0.171
  718SOL     OW 3052   3.932   2.592   6.015
  718SOL    HW1 3053   3.901   2.686   6.026
  718SOL    HW2 3054   3.884   2.550   5.937
  719SOL     OW 3055   6.918   2.894   1.319
  719SOL    HW1 3056   6.924   2.976   1.376
  719SOL    HW2 3057   6.956   2.816   1.368
  720SOL     OW 3058   2.327   1.522   5.294
  720SOL    HW1 3059   2.326   1.620   5.275
  720SOL    HW2 3060   2.276   1.474   5.223
  721SOL     OW 3061   1.278   0.675   5.179
  721SOL    HW1 3062   1.261   0.610   5.106
  721SOL    HW2 3063   1.264   0.768   5.145
  722SOL     OW 3064   4.285   6.607   4.939
  722SOL    HW1 3065   4.274   6.596   4.840
  722SOL    HW2 3066   4.327   6.696   4.958
  723SOL     OW 3067   2.437   2.490   2.302
  723SOL    HW1 3068   2.483   2.447   2.224
  723SOL    HW2 3069   2.448   2.589   2.296
  724SOL     OW 3070   0.811   1.998   5.229
  724SOL    HW1 3071   0.870   1.949   5.165
  724SOL    HW2 3072   0.730   1.943   5.248
  725SOL     OW 3073   3.035   5.326   1.690
  725SOL    HW1 3074   3.122   5.340   1.642
  725SOL    HW2 3075   3.025   5.228   1.712
  726SOL     OW 3076   3.005   4.830   6.693
  726SOL    HW1 3077   3.026   4.788   6.782
  726SOL    HW2 3078   2.951   4.767   6.638
  727SOL     OW 3079   3.655   5.919   4.456
  727SOL    HW1 3080   3.650   5.827   4.417
  727SOL    HW2 3081   3.567   5.942   4.499
  728SOL     OW 3082   6.865   3.948   5.190
  728SOL    HW1 3083   6.909   4.015   5.130
  728SOL    HW2 3084   6.922   3.866   5.195
  729SOL     OW 3085   1.592   0.748   0.379
  729SOL    HW1 3086   1.543   0.774   0.462
  729SOL    HW2 3087   1.609   0.829   0.323
  730SOL     OW 3088   6.063   0.557   3.017
  730SOL    HW1 3089   5.966   0.558   2.990
  730SOL    HW2 3090   6.115   0.614   2.954
  731SOL     OW 3091   5.673   2.922   5.198
  731SOL    HW1 3092   5.622   2.836   5.206
  731SOL    HW2 3093   5.609   2.998   5.193
  732SOL     OW 3094   0.585   2.753   1.463
  732SOL    HW1 3095   0.604   2.781   1.557
  732SOL    HW2 3096   0.636   2.670   1.442
  733SOL     OW 3097   5.053   4.284   4.050
  733SOL    HW1 3098   5.024   4.369   4.093
  733SOL    HW2 3099   5.041   4.289   3.951
  734SOL     OW 3100   0.489   4.944   1.701
  734SOL    HW1 3101   0.560   4.875   1.716
  734SOL    HW2 3102   0.488   4.970   1.605
  735SOL     OW 3103   2.064   3.411   0.748
  735SOL    HW1 3104   2.091   3.329   0.797
  735SOL    HW2 3105   2.122   3.488   0.776
  736SOL     OW 3106   6.356   6.671   2.642
  736SOL    HW1 3107   6.338   6.580   2.606
  736SOL    HW2 3108   6.315   6.740   2.583
  737SOL     OW 3109   5.009   4.013   1.382
  737SOL    HW1 3110   5.009   4.002   1.482
  737SOL    HW2 3111   5.097   3.984   1.345
  738SOL     OW 3112   0.760   4.630   4.103
  738SOL    HW1 3113   0.765   4.602   4.198
  738SOL    HW2 3114   0.838   4.689   4.081
  739SOL     OW 3115   4.609   6.766   6.135
  739SOL    HW1 3116   4.543   6.827   6.091
  739SOL    HW2 3117   4.696   6.814   6.147
  740SOL     OW 3118   5.783   0.497   0.906
  740SOL    HW1 3119   5.688   0.528   0.898
  740SOL    HW2 3120   5.795   0.449   0.993
  741SOL     OW 3121   1.628   5.873   3.098
  741SOL    HW1 3122   1.666   5.892   3.188
  741SOL    HW2 3123   1.657   5.943   3.034
  742SOL     OW 3124   1.975   6.665   3.386
  742SOL    HW1 3125   1.997   6.630   3.295
  742SOL    HW2 3126   2.037   6.741   3.408
  743SOL     OW 3127   1.257   3.923   4.082
  743SOL    HW1 3128   1.329   3.853   4.078
  743SOL    HW2 3129   1.225   3.943   3.989
  744SOL     OW 3130   0.184   6.294   6.776
  744SOL    HW1 3131   0.253   6.306   6.705
  744SOL    HW2 3132   0.202   6.358   6.851
  745SOL     OW 3133   0.953   5.239   4.388
  745SOL    HW1 3134   1.035   5.196   4.350
  745SOL    HW2 3135   0.872   5.193   4.352
  746SOL     OW 3136   0.224   6.455   5.404
  746SOL    HW1 3137   0.226   6.430   5.307
  746SOL    HW2 3138   0.213   6.554   5.412
  747SOL     OW 3139   4.479   5.058   3.917
  747SOL    HW1 3140   4.513   5.152   3.919
  747SOL    HW2 3141   4.551   4.995   3.946
  748SOL     OW 3142   4.502   4.674   1.376
  748SOL    HW1 3143   4.530   4.748   1.315
  748SOL    HW2 3144   4.405   4.654   1.360
  749SOL     OW 3145   0.269   3.023   5.134
  749SOL    HW1 3146   0.190   2.972   5.167
  749SOL    HW2 3147   0.353   2.979   5.165
  750SOL     OW 3148   3.132   3.212   0.424
  750SOL    HW1 3149   3.088   3.218   0.514
  750SOL    HW2 3150   3.223   3.173   0.434
  751SOL     OW 3151   4.310   2.146   0.267
  751SOL    HW1 3152   4.252   2.143   0.349
  751SOL    HW2 3153   4.397   2.101   0.287
  752SOL     OW 3154   4.465   2.485   1.856
  752SOL    HW1 3155   4.561   2.475   1.829
  752SOL    HW2 3156   4.430   2.572   1.820
  753SOL     OW 3157   1.677   3.223   4.815
  753SOL    HW1 3158   1.666   3.191   4.721
  753SOL    HW2 3159   1.589   3.219   4.862
  754SOL     OW 3160   5.496   3.859   6.509
  754SOL    HW1 3161   5.570   3.898   6.454
  754SOL    HW2 3162   5.529   3.846   6.603
  755SOL     OW 3163   0.924   5.668   6.899
  755SOL    HW1 3164   0.907   5.593   6.964
  755SOL    HW2 3165   0.892   5.641   6.808
  756SOL     OW 3166   4.975   0.732   2.076
  756SOL    HW1 3167   5.050   0.741   2.141
  756SOL    HW2 3168   5.011   0.729   1.983
  757SOL     OW 3169   0.873   6.315   3.568
  757SOL    HW1 3170   0.895   6.300   3.664
  757SOL    HW2 3171   0.899   6.407   3.541
  758SOL     OW 3172   3.662   1.632   1.582
  758SOL    HW1 3173   3.580   1.605   1.532
  758SOL    HW2 3174   3.635   1.669   1.671
  759SOL     OW 3175   0.071   1.071   0.336
  759SOL    HW1 3176   7.004   1.083   0.309
  759SOL    HW2 3177   0.078   1.065   0.435
  760SOL     OW 3178   5.195   1.515   6.388
  760SOL    HW1 3179   5.105   1.506   6.346
  760SOL    HW2 3180   5.241   1.426   6.386
  761SOL     OW 3181   5.828   3.782   7.027
  761SOL    HW1 3182   5.844   3.880   7.017
  761SOL    HW2 3183   5.828   3.739   6.936
  762SOL     OW 3184   2.037   5.894   3.400
  762SOL    HW1 3185   1.992   5.950   3.470
  762SOL    HW2 3186   2.076   5.813   3.442
  763SOL     OW 3187   4.018   5.710   0.005
  763SOL    HW1 3188   3.968   5.653   6.968
  763SOL    HW2 3189   4.114   5.680   0.009
  764SOL     OW 3190   2.968   1.303   3.530
  764SOL    HW1 3191   2.876   1.292   3.568
  764SOL    HW2 3192   3.035   1.301   3.604
  765SOL     OW 3193   0.975   6.372   1.200
  765SOL    HW1 3194   0.883   6.343   1.226
  765SOL    HW2 3195   1.018   6.299   1.146
  766SOL     OW 3196   6.895   1.040   6.932
  766SOL    HW1 3197   6.935   1.096   6.859
  766SOL    HW2 3198   6.803   1.072   6.951
  767SOL     OW 3199   0.912   6.730   1.806
  767SOL    HW1 3200   0.854   6.777   1.740
  767SOL    HW2 3201   1.001   6.776   1.812
  768SOL     OW 3202   2.184   0.558   2.853
  768SOL    HW1 3203   2.152   0.652   2.867
  768SOL    HW2 3204   2.129   0.496   2.909
  769SOL     OW 3205   3.026   0.241   4.352
  769SOL    HW1 3206   3.107   0.247   4.411
  769SOL    HW2 3207   3.048   0.183   4.273
  770SOL     OW 3208   3.101   5.463   3.432
  770SOL    HW1 3209   3.033   5.393   3.413
  770SOL    HW2 3210   3.191   5.431   3.402
  771SOL     OW 3211   1.821   5.423   2.654
  771SOL    HW1 3212   1.892   5.485   2.619
  771SOL    HW2 3213   1.827   5.336   2.607
  772SOL     OW 3214   6.749   4.822   0.451
  772SOL    HW1 3215   6.795   4.834   0.363
  772SOL    HW2 3216   6.777   4.896   0.513
  773SOL     OW 3217   0.033   3.017   3.673
  773SOL    HW1 3218   0.095   2.941   3.655
  773SOL    HW2 3219   7.011   3.000   3.758
  774SOL     OW 3220   1.761   1.838   2.085
  774SOL    HW1 3221   1.847   1.832   2.034
  774SOL    HW2 3222   1.755   1.761   2.149
  775SOL     OW 3223   1.391   2.038   3.894
  775SOL    HW1 3224   1.430   2.062   3.983
  775SOL    HW2 3225   1.452   2.069   3.822
  776SOL     OW 3226   0.461   0.191   5.951
  776SOL    HW1 3227   0.537   0.254   5.966
  776SOL    HW2 3228   0.495   0.098   5.944
  777SOL     OW 3229   3.580   0.816   0.957
  777SOL    HW1 3230   3.657   0.845   0.900
  777SOL    HW2 3231   3.517   0.761   0.902
  778SOL     OW 3232   4.029   0.751   3.879
  778SOL    HW1 3233   4.087   0.670   3.877
  778SOL    HW2 3234   4.026   0.788   3.972
  779SOL     OW 3235   0.421   1.750   1.975
  779SOL    HW1 3236   0.463   1.685   1.911
  779SOL    HW2 3237   0.490   1.784   2.038
  780SOL     OW 3238   5.784   3.039   4.432
  780SOL    HW1 3239   5.872   3.049   4.478
  780SOL    HW2 3240   5.796   2.989   4.346
  781SOL     OW 3241   6.020   1.410   5.969
  781SOL    HW1 3242   6.006   1.311   5.963
  781SOL    HW2 3243   5.969   1.455   5.896
  782SOL     OW 3244   0.912   3.650   0.638
  782SOL    HW1 3245   0.986   3.626   0.700
  782SOL    HW2 3246   0.834   3.683   0.691
  783SOL     OW 3247   3.264   5.167   0.202
  783SOL    HW1 3248   3.179   5.141   0.158
  783SOL    HW2 3249   3.331   5.195   0.133
  784SOL     OW 3250   4.501   0.657   5.006
  784SOL    HW1 3251   4.469   0.640   4.913
  784SOL    HW2 3252   4.577   0.722   5.004
  785SOL     OW 3253   6.402   1.800   2.672
  785SOL    HW1 3254   6.448   1.853   2.601
  785SOL    HW2 3255   6.345   1.729   2.629
  786SOL     OW 3256   0.159   0.413   6.949
  786SOL    HW1 3257   0.234   0.469   6.913
  786SOL    HW2 3258   0.087   0.472   6.983
  787SOL     OW 3259   2.871   1.350   6.145
  787SOL    HW1 3260   2.952   1.291   6.150
  787SOL    HW2 3261   2.837   1.353   6.051
  788SOL     OW 3262   1.868   2.985   4.286
  788SOL    HW1 3263   1.852   3.066   4.342
  788SOL    HW2 3264   1.894   3.012   4.193
  789SOL     OW 3265   6.630   4.061   2.457
  789SOL    HW1 3266   6.692   3.986   2.432
  789SOL    HW2 3267   6.677   4.148   2.448
  790SOL     OW 3268   2.385   1.488   4.218
  790SOL    HW1 3269   2.482   1.511   4.223
  790SOL    HW2 3270   2.357   1.480   4.123
  791SOL     OW 3271   4.037   0.287   4.191
  791SOL    HW1 3272   4.010   0.376   4.153
  791SOL    HW2 3273   4.132   0.268   4.166
  792SOL     OW 3274   6.024   0.014   1.644
  792SOL    HW1 3275   6.095   7.011   1.581
  792SOL    HW2 3276   6.026   6.985   1.726
  793SOL     OW 3277   4.643   6.130   2.026
  793SOL    HW1 3278   4.703   6.080   2.089
  793SOL    HW2 3279   4.628   6.222   2.061
  794SOL     OW 3280   2.666   4.899   5.439
  794SOL    HW1 3281   2.593   4.850   5.487
  794SOL    HW2 3282   2.719   4.836   5.384
  795SOL     OW 3283   3.149   5.288   5.751
  795SOL    HW1 3284   3.145   5.375   5.801
  795SOL    HW2 3285   3.233   5.240   5.774
  796SOL     OW 3286   0.230   2.038   5.957
  796SOL    HW1 3287   0.301   2.100   5.925
  796SOL    HW2 3288   0.254   2.003   6.048
  797SOL     OW 3289   4.931   2.588   2.410
  797SOL    HW1 3290   4.847   2.601   2.357
  797SOL    HW2 3291   4.924   2.503   2.463
  798SOL     OW 3292   4.416   0.450   1.036
  798SOL    HW1 3293   4.501   0.481   1.078
  798SOL    HW2 3294   4.374   0.380   1.094
  799SOL     OW 3295   6.632   1.916   3.477
  799SOL    HW1 3296   6.723   1.931   3.439
  799SOL    HW2 3297   6.565   1.969   3.425
  800SOL     OW 3298   5.582   0.660   2.451
  800SOL    HW1 3299   5.534   0.657   2.364
  800SOL    HW2 3300   5.524   0.703   2.521
  801SOL     OW 3301   1.180   2.806   3.208
  801SOL    HW1 3302   1.185   2.754   3.123
  801SOL    HW2 3303   1.272   2.834   3.236
  802SOL     OW 3304   4.751   1.360   0.114
  802SOL    HW1 3305   4.827   1.390   0.056
  802SOL    HW2 3306   4.666   1.364   0.062
  803SOL     OW 3307   5.854   6.463   4.726
  803SOL    HW1 3308   5.950   6.453   4.700
  803SOL    HW2 3309   5.814   6.373   4.742
  804SOL     OW 3310   6.605   6.569   0.177
  804SOL    HW1 3311   6.658   6.500   0.225
  804SOL    HW2 3312   6.643   6.582   0.085
  805SOL     OW 3313   4.544   2.941   5.757
  805SOL    HW1 3314   4.516   2.856   5.800
  805SOL    HW2 3315   4.642   2.957   5.773
  806SOL     OW 3316   3.848   1.657   5.355
  806SOL    HW1 3317   3.828   1.745   5.314
  806SOL    HW2 3318   3.864   1.589   5.284
  807SOL     OW 3319   1.273   1.099   3.553
  807SOL    HW1 3320   1.274   1.000   3.567
  807SOL    HW2 3321   1.299   1.120   3.459
  808SOL     OW 3322   4.966   3.573   6.098
  808SOL    HW1 3323   5.028   3.575   6.176
  808SOL    HW2 3324   4.875   3.603   6.128
  809SOL     OW 3325   1.286   4.838   1.024
  809SOL    HW1 3326   1.304   4.932   0.993
  809SOL    HW2 3327   1.362   4.779   0.997
  810SOL     OW 3328   4.540   3.313   0.972
  810SOL    HW1 3329   4.497   3.280   0.888
  810SOL    HW2 3330   4.485   3.286   1.051
  811SOL     OW 3331   4.328   6.043   3.553
  811SOL    HW1 3332   4.379   5.989   3.486
  811SOL    HW2 3333   4.360   6.138   3.552
  812SOL     OW 3334   6.567   0.747   1.154
  812SOL    HW1 3335   6.492   0.808   1.127
  812SOL    HW2 3336   6.623   0.792   1.223
  813SOL     OW 3337   4.274   6.074   3.179
  813SOL    HW1 3338   4.196   6.119   3.222
  813SOL    HW2 3339   4.249   6.047   3.086
  814SOL     OW 3340   5.318   6.533   2.708
  814SOL    HW1 3341   5.314   6.464   2.780
  814SOL    HW2 3342   5.272   6.617   2.738
  815SOL     OW 3343   6.286   2.362   1.964
  815SOL    HW1 3344   6.258   2.456   1.941
  815SOL    HW2 3345   6.382   2.349   1.938
  816SOL     OW 3346   6.745   6.382   0.303
  816SOL    HW1 3347   6.673   6.318   0.332
  816SOL    HW2 3348   6.783   6.427   0.384
  817SOL     OW 3349   1.845   4.363   2.516
  817SOL    HW1 3350   1.881   4.332   2.429
  817SOL    HW2 3351   1.810   4.456   2.507
  818SOL     OW 3352   6.363   3.089   0.409
  818SOL    HW1 3353   6.323   3.168   0.455
  818SOL    HW2 3354   6.336   3.005   0.456
  819SOL     OW 3355   6.339   2.832   4.647
  819SOL    HW1 3356   6.389   2.918   4.658
  819SOL    HW2 3357   6.277   2.840   4.569
  820SOL     OW 3358   1.147   3.004   5.226
  820SOL    HW1 3359   1.104   3.048   5.147
  820SOL    HW2 3360   1.217   3.064   5.264
  821SOL     OW 3361   2.255   4.852   0.578
  821SOL    HW1 3362   2.309   4.891   0.503
  821SOL    HW2 3363   2.233   4.923   0.644
  822SOL     OW 3364   1.136   4.858   4.670
  822SOL    HW1 3365   1.118   4.834   4.765
  822SOL    HW2 3366   1.191   4.942   4.668
  823SOL     OW 3367   4.850   4.522   6.589
  823SOL    HW1 3368   4.925   4.562   6.641
  823SOL    HW2 3369   4.820   4.438   6.634
  824SOL     OW 3370   4.710   1.186   5.023
  824SOL    HW1 3371   4.629   1.242   5.004
  824SOL    HW2 3372   4.723   1.180   5.122
  825SOL     OW 3373   2.191   3.049   2.462
  825SOL    HW1 3374   2.266   2.984   2.469
  825SOL    HW2 3375   2.104   3.000   2.469
  826SOL     OW 3376   5.927   4.051   0.975
  826SOL    HW1 3377   5.846   4.076   0.921
  826SOL    HW2 3378   5.933   3.952   0.980
  827SOL     OW 3379   3.522   5.651   5.924
  827SOL    HW1 3380   3.486   5.696   6.006
  827SOL    HW2 3381   3.489   5.557   5.920
  828SOL     OW 3382   6.035   0.789   5.007
  828SOL    HW1 3383   6.095   0.724   5.053
  828SOL    HW2 3384   5.958   0.811   5.068
  829SOL     OW 3385   3.012   3.350   4.085
  829SOL    HW1 3386   2.946   3.419   4.114
  829SOL    HW2 3387   3.104   3.389   4.090
  830SOL     OW 3388   5.231   4.825   5.653
  830SOL    HW1 3389   5.181   4.806   5.568
  830SOL    HW2 3390   5.289   4.747   5.676
  831SOL     OW 3391   6.794   6.366   4.695
  831SOL    HW1 3392   6.745   6.446   4.663
  831SOL    HW2 3393   6.862   6.393   4.763
  832SOL     OW 3394   2.444   1.345   0.190
  832SOL    HW1 3395   2.420   1.435   0.153
  832SOL    HW2 3396   2.462   1.352   0.288
  833SOL     OW 3397   6.539   6.157   6.408
  833SOL    HW1 3398   6.576   6.184   6.496
  833SOL    HW2 3399   6.577   6.215   6.336
  834SOL     OW 3400   3.753   3.660   3.076
  834SOL    HW1 3401   3.701   3.732   3.031
  834SOL    HW2 3402   3.767   3.683   3.173
  835SOL     OW 3403   4.084   0.014   3.660
  835SOL    HW1 3404   4.077   6.944   3.637
  835SOL    HW2 3405   3.998   0.059   3.638
  836SOL     OW 3406   3.626   6.573   6.876
  836SOL    HW1 3407   3.556   6.570   6.805
  836SOL    HW2 3408   3.672   6.485   6.883
  837SOL     OW 3409   5.275   0.614   0.218
  837SOL    HW1 3410   5.302   0.618   0.122
  837SOL    HW2 3411   5.234   0.701   0.244
  838SOL     OW 3412   0.657   0.073   5.398
  838SOL    HW1 3413   0.735   0.016   5.374
  838SOL    HW2 3414   0.576   0.043   5.346
  839SOL     OW 3415   2.629   1.662   3.197
  839SOL    HW1 3416   2.679   1.747   3.214
  839SOL    HW2 3417   2.582   1.634   3.281
  840SOL     OW 3418   0.430   0.956   6.561
  840SOL    HW1 3419   0.400   1.020   6.632
  840SOL    HW2 3420   0.360   0.885   6.549
  841SOL     OW 3421   6.056   3.951   0.152
  841SOL    HW1 3422   6.074   3.985   0.060
  841SOL    HW2 3423   6.085   3.855   0.158
  842SOL     OW 3424   3.899   5.423   3.580
  842SOL    HW1 3425   3.847   5.457   3.501
  842SOL    HW2 3426   3.886   5.485   3.657
  843SOL     OW 3427   5.983   2.602   0.113
  843SOL    HW1 3428   5.927   2.667   0.165
  843SOL    HW2 3429   5.981   2.513   0.159
  844SOL     OW 3430   4.920   5.925   0.765
  844SOL    HW1 3431   4.948   6.020   0.755
  844SOL    HW2 3432   4.829   5.920   0.805
  845SOL     OW 3433   6.248   2.942   5.401
  845SOL    HW1 3434   6.151   2.917   5.400
  845SOL    HW2 3435   6.285   2.936   5.308
  846SOL     OW 3436   6.065   1.646   0.174
  846SOL    HW1 3437   6.007   1.577   0.131
  846SOL    HW2 3438   6.045   1.736   0.133
  847SOL     OW 3439   6.214   3.526   0.924
  847SOL    HW1 3440   6.224   3.583   1.006
  847SOL    HW2 3441   6.168   3.441   0.949
  848SOL     OW 3442   6.248   0.790   6.322
  848SOL    HW1 3443   6.191   0.723   6.369
  848SOL    HW2 3444   6.246   0.876   6.373
  849SOL     OW 3445   0.108   5.976   5.272
  849SOL    HW1 3446   0.177   5.939   5.210
  849SOL    HW2 3447   0.139   6.064   5.308
  850SOL     OW 3448   4.468   0.505   3.659
  850SOL    HW1 3449   4.505   0.420   3.697
  850SOL    HW2 3450   4.541   0.555   3.612
  851SOL     OW 3451   0.230   1.501   6.653
  851SOL    HW1 3452   0.294   1.473   6.724
  851SOL    HW2 3453   0.251   1.594   6.624
  852SOL     OW 3454   2.250   2.384   6.760
  852SOL    HW1 3455   2.266   2.410   6.665
  852SOL    HW2 3456   2.326   2.327   6.792
  853SOL     OW 3457   0.807   3.241   3.122
  853SOL    HW1 3458   0.840   3.154   3.158
  853SOL    HW2 3459   0.714   3.257   3.153
  854SOL     OW 3460   5.580   6.602   2.815
  854SOL    HW1 3461   5.647   6.539   2.774
  854SOL    HW2 3462   5.503   6.613   2.752
  855SOL     OW 3463   5.681   0.348   1.747
  855SOL    HW1 3464   5.693   0.447   1.741
  855SOL    HW2 3465   5.749   0.303   1.688
  856SOL     OW 3466   1.551   0.665   5.325
  856SOL    HW1 3467   1.457   0.658   5.291
  856SOL    HW2 3468   1.567   0.757   5.360
  857SOL     OW 3469   6.001   4.546   1.231
  857SOL    HW1 3470   5.981   4.448   1.221
  857SOL    HW2 3471   6.094   4.557   1.264
  858SOL     OW 3472   2.882   4.840   1.889
  858SOL    HW1 3473   2.938   4.797   1.817
  858SOL    HW2 3474   2.825   4.770   1.932
  859SOL     OW 3475   5.554   4.751   6.741
  859SOL    HW1 3476   5.593   4.796   6.821
  859SOL    HW2 3477   5.625   4.739   6.671
  860SOL     OW 3478   3.728   4.463   6.890
  860SOL    HW1 3479   3.724   4.365   6.908
  860SOL    HW2 3480   3.815   4.485   6.844
  861SOL     OW 3481   3.100   6.771   5.000
  861SOL    HW1 3482   3.053   6.772   5.088
  861SOL    HW2 3483   3.111   6.676   4.969
  862SOL     OW 3484   6.272   4.283   5.191
  862SOL    HW1 3485   6.263   4.187   5.164
  862SOL    HW2 3486   6.300   4.338   5.111
  863SOL     OW 3487   0.784   0.462   0.758
  863SOL    HW1 3488   0.722   0.526   0.803
  863SOL    HW2 3489   0.734   0.378   0.733
  864SOL     OW 3490   5.019   4.150   3.382
  864SOL    HW1 3491   5.014   4.163   3.283
  864SOL    HW2 3492   4.936   4.103   3.414
  865SOL     OW 3493   1.311   6.812   4.206
  865SOL    HW1 3494   1.221   6.849   4.184
  865SOL    HW2 3495   1.302   6.716   4.234
  866SOL     OW 3496   2.515   1.378   2.256
  866SOL    HW1 3497   2.516   1.286   2.217
  866SOL    HW2 3498   2.459   1.438   2.199
  867SOL     OW 3499   3.198   2.855   0.370
  867SOL    HW1 3500   3.248   2.941   0.380
  867SOL    HW2 3501   3.168   2.845   0.275
  868SOL     OW 3502   6.049   0.086   2.555
  868SOL    HW1 3503   5.963   0.083   2.605
  868SOL    HW2 3504   6.031   0.076   2.457
  869SOL     OW 3505   6.601   5.817   2.576
  869SOL    HW1 3506   6.559   5.727   2.569
  869SOL    HW2 3507   6.662   5.820   2.655
  870SOL     OW 3508   0.296   2.928   1.679
  870SOL    HW1 3509   0.229   2.910   1.606
  870SOL    HW2 3510   0.339   3.016   1.664
  871SOL     OW 3511   6.971   2.674   1.995
  871SOL    HW1 3512   7.006   2.768   1.996
  871SOL    HW2 3513   6.913   2.660   2.075
  872SOL     OW 3514   6.366   2.540   4.712
  872SOL    HW1 3515   6.383   2.637   4.698
  872SOL    HW2 3516   6.444   2.487   4.676
  873SOL     OW 3517   3.931   0.094   3.052
  873SOL    HW1 3518   3.983   0.139   2.979
  873SOL    HW2 3519   3.833   0.110   3.037
  874SOL     OW 3520   1.898   4.620   5.296
  874SOL    HW1 3521   1.838   4.604   5.217
  874SOL    HW2 3522   1.973   4.554   5.295
  875SOL     OW 3523   5.412   4.331   0.833
  875SOL    HW1 3524   5.404   4.288   0.923
  875SOL    HW2 3525   5.435   4.428   0.844
  876SOL     OW 3526   6.662   3.596   2.427
  876SOL    HW1 3527   6.588   3.597   2.360
  876SOL    HW2 3528   6.623   3.590   2.519
  877SOL     OW 3529   5.223   5.254   0.078
  877SOL    HW1 3530   5.145   5.316   0.080
  877SOL    HW2 3531   5.213   5.186   0.151
  878SOL     OW 3532   3.483   5.244   0.059
  878SOL    HW1 3533   3.506   5.304   0.136
  878SOL    HW2 3534   3.529   5.156   0.069
  879SOL     OW 3535   4.878   1.923   2.688
  879SOL    HW1 3536   4.837   2.014   2.699
  879SOL    HW2 3537   4.839   1.878   2.609
  880SOL     OW 3538   3.812   4.544   0.278
  880SOL    HW1 3539   3.797   4.452   0.315
  880SOL    HW2 3540   3.789   4.611   0.349
  881SOL     OW 3541   4.333   4.720   4.536
  881SOL    HW1 3542   4.352   4.629   4.500
  881SOL    HW2 3543   4.372   4.729   4.628
  882SOL     OW 3544   1.361   0.585   4.454
  882SOL    HW1 3545   1.283   0.524   4.437
  882SOL    HW2 3546   1.350   0.669   4.400
  883SOL     OW 3547   3.519   4.951   6.118
  883SOL    HW1 3548   3.424   4.970   6.094
  883SOL    HW2 3549   3.538   4.986   6.210
  884SOL     OW 3550   6.496   3.683   1.660
  884SOL    HW1 3551   6.472   3.779   1.676
  884SOL    HW2 3552   6.426   3.624   1.699
  885SOL     OW 3553   5.687   6.448   0.483
  885SOL    HW1 3554   5.750   6.484   0.553
  885SOL    HW2 3555   5.593   6.462   0.513
  886SOL     OW 3556   3.717   1.055   6.694
  886SOL    HW1 3557   3.638   1.032   6.752
  886SOL    HW2 3558   3.733   0.981   6.629
  887SOL     OW 3559   4.132   0.209   6.540
  887SOL    HW1 3560   4.148   0.307   6.529
  887SOL    HW2 3561   4.035   0.190   6.527
  888SOL     OW 3562   0.188   6.570   3.677
  888SOL    HW1 3563   0.130   6.497   3.712
  888SOL    HW2 3564   0.274   6.530   3.644
  889SOL     OW 3565   0.153   6.314   5.607
  889SOL    HW1 3566   0.180   6.373   5.532
  889SOL    HW2 3567   0.071   6.263   5.581
  890SOL     OW 3568   2.686   4.651   2.272
  890SOL    HW1 3569   2.624   4.730   2.282
  890SOL    HW2 3570   2.723   4.650   2.179
  891SOL     OW 3571   5.519   2.913   1.234
  891SOL    HW1 3572   5.463   2.861   1.300
  891SOL    HW2 3573   5.593   2.855   1.200
  892SOL     OW 3574   2.517   3.903   0.849
  892SOL    HW1 3575   2.579   3.825   0.842
  892SOL    HW2 3576   2.423   3.872   0.836
  893SOL     OW 3577   1.309   0.621   6.927
  893SOL    HW1 3578   1.404   0.648   6.912
  893SOL    HW2 3579   1.278   0.653   7.016
  894SOL     OW 3580   1.080   5.796   4.411
  894SOL    HW1 3581   1.084   5.839   4.501
  894SOL    HW2 3582   1.116   5.702   4.417
  895SOL     OW 3583   1.916   0.077   4.718
  895SOL    HW1 3584   2.004   0.072   4.765
  895SOL    HW2 3585   1.921   0.026   4.633
  896SOL     OW 3586   6.020   6.331   3.545
  896SOL    HW1 3587   5.960   6.258   3.515
  896SOL    HW2 3588   6.020   6.336   3.644
  897SOL     OW 3589   5.196   2.598   6.668
  897SOL    HW1 3590   5.104   2.559   6.663
  897SOL    HW2 3591   5.192   2.685   6.717
  898SOL     OW 3592   4.820   6.150   3.724
  898SOL    HW1 3593   4.798   6.090   3.647
  898SOL    HW2 3594   4.888   6.105   3.783
  899SOL     OW 3595   0.476   5.047   6.525
  899SOL    HW1 3596   0.377   5.058   6.528
  899SOL    HW2 3597   0.498   4.955   6.491
  900SOL     OW 3598   0.720   6.280   3.148
  900SOL    HW1 3599   0.806   6.255   3.191
  900SOL    HW2 3600   0.656   6.203   3.153
  901SOL     OW 3601   6.360   1.116   4.294
  901SOL    HW1 3602   6.312   1.132   4.380
  901SOL    HW2 3603   6.394   1.022   4.292
  902SOL     OW 3604   6.814   0.536   6.070
  902SOL    HW1 3605   6.714   0.532   6.066
  902SOL    HW2 3606   6.850   0.443   6.083
  903SOL     OW 3607   0.208   4.286   0.859
  903SOL    HW1 3608   0.291   4.232   0.845
  903SOL    HW2 3609   0.229   4.363   0.920
  904SOL     OW 3610   1.702   1.047   3.289
  904SOL    HW1 3611   1.615   1.013   3.254
  904SOL    HW2 3612   1.747   1.103   3.218
  905SOL     OW 3613   5.331   2.300   6.054
  905SOL    HW1 3614   5.388   2.310   5.972
  905SOL    HW2 3615   5.247   2.353   6.042
  906SOL     OW 3616   0.020   4.635   6.175
  906SOL    HW1 3617   0.007   4.551   6.227
  906SOL    HW2 3618   6.967   4.693   6.185
  907SOL     OW 3619   6.206   2.338   2.599
  907SOL    HW1 3620   6.118   2.385   2.602
  907SOL    HW2 3621   6.220   2.289   2.685
  908SOL     OW 3622   2.023   6.987   4.178
  908SOL    HW1 3623   1.946   6.925   4.192
  908SOL    HW2 3624   2.108   6.940   4.204
  909SOL     OW 3625   2.980   0.744   1.038
  909SOL    HW1 3626   2.936   0.770   0.952
  909SOL    HW2 3627   2.943   0.656   1.068
  910SOL     OW 3628   1.615   0.986   0.216
  910SOL    HW1 3629   1.684   0.977   0.144
  910SOL    HW2 3630   1.524   0.975   0.177
  911SOL     OW 3631   0.849   4.632   1.471
  911SOL    HW1 3632   0.936   4.632   1.519
  911SOL    HW2 3633   0.798   4.549   1.495
  912SOL     OW 3634   0.159   1.609   5.940
  912SOL    HW1 3635   0.082   1.655   5.895
  912SOL    HW2 3636   0.162   1.513   5.910
  913SOL     OW 3637   2.529   0.850   3.246
  913SOL    HW1 3638   2.592   0.895   3.183
  913SOL    HW2 3639   2.500   0.916   3.316
  914SOL     OW 3640   2.680   5.960   4.090
  914SOL    HW1 3641   2.687   6.024   4.166
  914SOL    HW2 3642   2.756   5.975   4.027
  915SOL     OW 3643   0.675   2.858   0.166
  915SOL    HW1 3644   0.747   2.789   0.157
  915SOL    HW2 3645   0.700   2.922   0.239
  916SOL     OW 3646   2.549   2.252   2.983
  916SOL    HW1 3647   2.595   2.294   2.905
  916SOL    HW2 3648   2.486   2.318   3.024
  917SOL     OW 3649   3.921   1.099   1.394
  917SOL    HW1 3650   3.842   1.119   1.451
  917SOL    HW2 3651   3.891   1.063   1.306
  918SOL     OW 3652   2.530   6.019   6.272
  918SOL    HW1 3653   2.576   6.101   6.238
  918SOL    HW2 3654   2.514   5.956   6.196
  919SOL     OW 3655   1.278   5.343   1.640
  919SOL    HW1 3656   1.220   5.283   1.696
  919SOL    HW2 3657   1.345   5.389   1.698
  920SOL     OW 3658   2.479   0.612   2.808
  920SOL    HW1 3659   2.383   0.611   2.837
  920SOL    HW2 3660   2.537   0.637   2.885
  921SOL     OW 3661   5.724   4.790   4.547
  921SOL    HW1 3662   5.725   4.841   4.633
  921SOL    HW2 3663   5.633   4.798   4.505
  922SOL     OW 3664   2.844   3.208   0.002
  922SOL    HW1 3665   2.750   3.238   0.020
  922SOL    HW2 3666   2.905   3.250   0.069
  923SOL     OW 3667   2.892   6.159   6.899
  923SOL    HW1 3668   2.924   6.227   6.964
  923SOL    HW2 3669   2.851   6.082   6.948
  924SOL     OW 3670   6.156   3.507   3.027
  924SOL    HW1 3671   6.094   3.513   3.105
  924SOL    HW2 3672   6.112   3.454   2.954
  925SOL     OW 3673   0.059   2.125   5.376
  925SOL    HW1 3674   0.131   2.159   5.437
  925SOL    HW2 3675   6.998   2.155   5.411
  926SOL     OW 3676   4.991   6.172   0.683
  926SOL    HW1 3677   5.021   6.187   0.588
  926SOL    HW2 3678   4.909   6.225   0.701
  927SOL     OW 3679   4.553   4.633   4.349
  927SOL    HW1 3680   4.524   4.570   4.420
  927SOL    HW2 3681   4.520   4.601   4.260
  928SOL     OW 3682   1.608   0.188   0.652
  928SOL    HW1 3683   1.557   0.108   0.683
  928SOL    HW2 3684   1.638   0.174   0.558
  929SOL     OW 3685   0.249   2.868   2.642
  929SOL    HW1 3686   0.172   2.925   2.669
  929SOL    HW2 3687   0.224   2.771   2.649
  930SOL     OW 3688   4.892   4.855   4.378
  930SOL    HW1 3689   4.972   4.813   4.421
  930SOL    HW2 3690   4.883   4.819   4.284
  931SOL     OW 3691   0.997   2.370   3.170
  931SOL    HW1 3692   0.966   2.370   3.075
  931SOL    HW2 3693   0.943   2.304   3.222
  932SOL     OW 3694   4.153   5.837   1.177
  932SOL    HW1 3695   4.088   5.863   1.248
  932SOL    HW2 3696   4.169   5.914   1.116
  933SOL     OW 3697   1.259   5.044   2.623
  933SOL    HW1 3698   1.224   4.951   2.628
  933SOL    HW2 3699   1.243   5.091   2.710
  934SOL     OW 3700   3.498   1.301   5.245
  934SOL    HW1 3701   3.401   1.319   5.263
  934SOL    HW2 3702   3.517   1.204   5.261
  935SOL     OW 3703   4.033   3.338   5.961
  935SOL    HW1 3704   4.073   3.365   5.874
  935SOL    HW2 3705   3.994   3.246   5.953
  936SOL     OW 3706   0.373   0.191   1.103
  936SOL    HW1 3707   0.285   0.154   1.133
  936SOL    HW2 3708   0.386   0.173   1.006
  937SOL     OW 3709   4.334   1.799   4.437
  937SOL    HW1 3710   4.296   1.756   4.518
  937SOL    HW2 3711   4.260   1.824   4.374
  938SOL     OW 3712   0.150   3.162   6.056
  938SOL    HW1 3713   0.112   3.197   5.970
  938SOL    HW2 3714   0.250   3.163   6.050
  939SOL     OW 3715   5.247   1.332   6.016
  939SOL    HW1 3716   5.307   1.256   6.037
  939SOL    HW2 3717   5.283   1.416   6.058
  940SOL     OW 3718   6.929   0.706   3.124
  940SOL    HW1 3719   6.943   0.731   3.219
  940SOL    HW2 3720   6.989   0.630   3.100
  941SOL     OW 3721   5.820   1.599   3.883
  941SOL    HW1 3722   5.850   1.640   3.969
  941SOL    HW2 3723   5.884   1.623   3.811
  942SOL     OW 3724   5.306   6.629   5.609
  942SOL    HW1 3725   5.230   6.615   5.545
  942SOL    HW2 3726   5.330   6.726   5.611
  943SOL     OW 3727   6.218   3.006   2.388
  943SOL    HW1 3728   6.308   3.019   2.429
  943SOL    HW2 3729   6.196   2.908   2.385
  944SOL     OW 3730   5.598   3.310   4.786
  944SOL    HW1 3731   5.623   3.405   4.804
  944SOL    HW2 3732   5.643   3.279   4.702
  945SOL     OW 3733   4.802   4.513   3.986
  945SOL    HW1 3734   4.727   4.449   4.003
  945SOL    HW2 3735   4.840   4.495   3.895
  946SOL     OW 3736   5.793   3.049   6.037
  946SOL    HW1 3737   5.806   2.953   6.014
  946SOL    HW2 3738   5.696   3.073   6.028
  947SOL     OW 3739   3.403   2.303   6.777
  947SOL    HW1 3740   3.380   2.240   6.703
  947SOL    HW2 3741   3.320   2.345   6.813
  948SOL     OW 3742   3.718   1.404   0.735
  948SOL    HW1 3743   3.792   1.460   0.771
  948SOL    HW2 3744   3.645   1.397   0.802
  949SOL     OW 3745   6.272   5.293   6.633
  949SOL    HW1 3746   6.187   5.339   6.607
  949SOL    HW2 3747   6.253   5.230   6.709
  950SOL     OW 3748   4.063   5.444   0.902
  950SOL    HW1 3749   4.130   5.507   0.942
  950SOL    HW2 3750   4.077   5.440   0.803
  951SOL     OW 3751   0.761   0.761   1.393
  951SOL    HW1 3752   0.837   0.790   1.451
  951SOL    HW2 3753   0.770   0.804   1.303
  952SOL     OW 3754   5.172   0.808   2.884
  952SOL    HW1 3755   5.247   0.861   2.924
  952SOL    HW2 3756   5.207   0.749   2.811
  953SOL     OW 3757   4.494   5.822   5.655
  953SOL    HW1 3758   4.561   5.868   5.713
  953SOL    HW2 3759   4.538   5.795   5.569
  954SOL     OW 3760   6.204   6.884   1.308
  954SOL    HW1 3761   6.112   6.891   1.268
  954SOL    HW2 3762   6.266   6.840   1.242
  955SOL     OW 3763   0.519   5.501   3.335
  955SOL    HW1 3764   0.598   5.482   3.394
  955SOL    HW2 3765   0.483   5.414   3.298
  956SOL     OW 3766   1.768   1.490   1.252
  956SOL    HW1 3767   1.830   1.564   1.274
  956SOL    HW2 3768   1.711   1.469   1.333
  957SOL     OW 3769   1.720   4.851   5.194
  957SOL    HW1 3770   1.718   4.764   5.144
  957SOL    HW2 3771   1.635   4.861   5.246
  958SOL     OW 3772   5.380   1.537   1.373
  958SOL    HW1 3773   5.389   1.633   1.400
  958SOL    HW2 3774   5.370   1.531   1.274
  959SOL     OW 3775   2.741   4.956   2.919
  959SOL    HW1 3776   2.673   4.975   2.990
  959SOL    HW2 3777   2.727   4.863   2.884
  960SOL     OW 3778   2.265   5.933   4.784
  960SOL    HW1 3779   2.280   5.878   4.867
  960SOL    HW2 3780   2.326   5.902   4.712
  961SOL     OW 3781   3.872   6.718   2.179
  961SOL    HW1 3782   3.798   6.651   2.175
  961SOL    HW2 3783   3.867   6.778   2.099
  962SOL     OW 3784   1.465   0.832   3.360
  962SOL    HW1 3785   1.410   0.895   3.305
  962SOL    HW2 3786   1.469   0.743   3.315
  963SOL     OW 3787   6.377   0.480   1.331
  963SOL    HW1 3788   6.343   0.417   1.401
  963SOL    HW2 3789   6.475   0.465   1.316
  964SOL     OW 3790   5.615   3.650   1.707
  964SOL    HW1 3791   5.521   3.656   1.740
  964SOL    HW2 3792   5.676   3.628   1.783
  965SOL     OW 3793   0.043   1.778   0.357
  965SOL    HW1 3794   6.972   1.792   0.352
  965SOL    HW2 3795   0.080   1.830   0.434
  966SOL     OW 3796   6.450   1.473   2.532
  966SOL    HW1 3797   6.457   1.519   2.443
  966SOL    HW2 3798   6.539   1.432   2.555
  967SOL     OW 3799   1.445   5.306   0.355
  967SOL    HW1 3800   1.346   5.304   0.371
  967SOL    HW2 3801   1.473   5.223   0.308
  968SOL     OW 3802   4.695   2.705   2.308
  968SOL    HW1 3803   4.687   2.698   2.208
  968SOL    HW2 3804   4.738   2.792   2.332
  969SOL     OW 3805   4.219   6.690   6.260
  969SOL    HW1 3806   4.317   6.671   6.266
  969SOL    HW2 3807   4.167   6.608   6.284
  970SOL     OW 3808   4.487   1.758   5.374
  970SOL    HW1 3809   4.507   1.729   5.280
  970SOL    HW2 3810   4.485   1.678   5.434
  971SOL     OW 3811   6.869   1.504   1.872
  971SOL    HW1 3812   6.778   1.543   1.860
  971SOL    HW2 3813   6.865   1.429   1.938
  972SOL     OW 3814   6.521   5.054   0.619
  972SOL    HW1 3815   6.520   5.024   0.714
  972SOL    HW2 3816   6.427   5.059   0.585
  973SOL     OW 3817   6.512   4.672   6.589
  973SOL    HW1 3818   6.434   4.734   6.583
  973SOL    HW2 3819   6.490   4.586   6.541
  974SOL     OW 3820   2.886   0.044   3.059
  974SOL    HW1 3821   2.958   0.113   3.055
  974SOL    HW2 3822   2.901   7.012   3.138
  975SOL     OW 3823   2.989   6.004   5.724
  975SOL    HW1 3824   3.087   6.012   5.742
  975SOL    HW2 3825   2.953   6.092   5.694
  976SOL     OW 3826   6.933   2.738   3.050
  976SOL    HW1 3827   6.984   2.778   2.974
  976SOL    HW2 3828   6.995   2.682   3.106
  977SOL     OW 3829   1.575   1.113   3.922
  977SOL    HW1 3830   1.576   1.054   3.841
  977SOL    HW2 3831   1.669   1.130   3.952
  978SOL     OW 3832   5.790   3.957   4.573
  978SOL    HW1 3833   5.884   3.960   4.539
  978SOL    HW2 3834   5.729   3.998   4.505
  979SOL     OW 3835   6.151   1.151   3.035
  979SOL    HW1 3836   6.059   1.134   3.072
  979SOL    HW2 3837   6.163   1.249   3.020
  980SOL     OW 3838   5.437   2.197   3.896
  980SOL    HW1 3839   5.351   2.183   3.947
  980SOL    HW2 3840   5.424   2.168   3.801
  981SOL     OW 3841   1.009   1.563   4.269
  981SOL    HW1 3842   0.995   1.658   4.295
  981SOL    HW2 3843   1.088   1.556   4.208
  982SOL     OW 3844   0.722   2.183   1.437
  982SOL    HW1 3845   0.764   2.092   1.443
  982SOL    HW2 3846   0.793   2.253   1.441
  983SOL     OW 3847   6.160   2.146   3.484
  983SOL    HW1 3848   6.142   2.191   3.397
  983SOL    HW2 3849   6.075   2.132   3.533
  984SOL     OW 3850   4.592   0.896   5.346
  984SOL    HW1 3851   4.518   0.912   5.280
  984SOL    HW2 3852   4.659   0.834   5.306
  985SOL     OW 3853   3.611   5.532   0.692
  985SOL    HW1 3854   3.640   5.549   0.597
  985SOL    HW2 3855   3.609   5.434   0.709
  986SOL     OW 3856   5.280   5.371   6.253
  986SOL    HW1 3857   5.203   5.433   6.243
  986SOL    HW2 3858   5.314   5.346   6.162
  987SOL     OW 3859   2.565   6.772   1.404
  987SOL    HW1 3860   2.528   6.782   1.497
  987SOL    HW2 3861   2.496   6.732   1.345
  988SOL     OW 3862   3.891   2.936   0.895
  988SOL    HW1 3863   3.795   2.953   0.914
  988SOL    HW2 3864   3.901   2.899   0.803
  989SOL     OW 3865   0.969   0.428   6.400
  989SOL    HW1 3866   1.054   0.404   6.447
  989SOL    HW2 3867   0.986   0.435   6.301
  990SOL     OW 3868   5.220   0.512   4.229
  990SOL    HW1 3869   5.146   0.444   4.237
  990SOL    HW2 3870   5.201   0.571   4.150
  991SOL     OW 3871   1.241   2.218   4.548
  991SOL    HW1 3872   1.172   2.273   4.595
  991SOL    HW2 3873   1.307   2.183   4.615
  992SOL     OW 3874   0.246   3.129   6.451
  992SOL    HW1 3875   0.200   3.107   6.365
  992SOL    HW2 3876   0.316   3.060   6.470
  993SOL     OW 3877   2.985   4.831   2.532
  993SOL    HW1 3878   3.030   4.862   2.616
  993SOL    HW2 3879   3.052   4.783   2.474
  994SOL     OW 3880   3.853   4.007   2.630
  994SOL    HW1 3881   3.873   3.915   2.665
  994SOL    HW2 3882   3.929   4.068   2.652
  995SOL     OW 3883   1.907   3.184   6.184
  995SOL    HW1 3884   1.819   3.141   6.203
  995SOL    HW2 3885   1.956   3.199   6.270
  996SOL     OW 3886   1.794   3.437   3.105
  996SOL    HW1 3887   1.776   3.479   3.194
  996SOL    HW2 3888   1.827   3.506   3.042
  997SOL     OW 3889   0.404   1.050   1.202
  997SOL    HW1 3890   0.473   1.038   1.272
  997SOL    HW2 3891   0.444   1.031   1.112
  998SOL     OW 3892   3.741   6.146   2.526
  998SOL    HW1 3893   3.643   6.137   2.543
  998SOL    HW2 3894   3.757   6.164   2.429
  999SOL     OW 3895   5.680   5.300   1.288
  999SOL    HW1 3896   5.756   5.364   1.300
  999SOL    HW2 3897   5.601   5.331   1.342
 1000SOL     OW 3898   2.020   2.071   2.905
 1000SOL    HW1 3899   1.999   2.151   2.848
 1000SOL    HW2 3900   2.103   2.027   2.870
 1001SOL     OW 3901   4.413   6.855   0.010
 1001SOL    HW1 3902   4.512   6.857   7.027
 1001SOL    HW2 3903   4.370   6.859   6.947
 1002SOL     OW 3904   5.607   1.827   6.826
 1002SOL    HW1 3905   5.590   1.902   6.889
 1002SOL    HW2 3906   5.535   1.825   6.756
 1003SOL     OW 3907   2.355   6.313   2.937
 1003SOL    HW1 3908   2.450   6.289   2.956
 1003SOL    HW2 3909   2.295   6.263   3.000
 1004SOL     OW 3910   6.793   0.310   6.710
 1004SOL    HW1 3911   6.762   0.258   6.631
 1004SOL    HW2 3912   6.892   0.300   6.720
 1005SOL     OW 3913   0.328   6.997   2.328
 1005SOL    HW1 3914   0.249   7.002   2.268
 1005SOL    HW2 3915   0.378   6.913   2.311
 1006SOL     OW 3916   2.354   5.121   1.804
 1006SOL    HW1 3917   2.358   5.025   1.834
 1006SOL    HW2 3918   2.320   5.124   1.710
 1007SOL     OW 3919   6.761   0.996   3.629
 1007SOL    HW1 3920   6.680   0.949   3.595
 1007SOL    HW2 3921   6.800   0.944   3.705
 1008SOL     OW 3922   0.935   2.401   3.687
 1008SOL    HW1 3923   1.020   2.358   3.656
 1008SOL    HW2 3924   0.929   2.493   3.648
 1009SOL     OW 3925   6.669   5.619   4.118
 1009SOL    HW1 3926   6.625   5.680   4.053
 1009SOL    HW2 3927   6.641   5.524   4.099
 1010SOL     OW 3928   4.016   1.908   0.047
 1010SOL    HW1 3929   3.962   1.987   0.076
 1010SOL    HW2 3930   4.044   1.920   6.980
 1011SOL     OW 3931   2.957   5.618   4.191
 1011SOL    HW1 3932   3.038   5.566   4.218
 1011SOL    HW2 3933   2.978   5.670   4.108
 1012SOL     OW 3934   6.706   5.185   1.009
 1012SOL    HW1 3935   6.697   5.274   0.964
 1012SOL    HW2 3936   6.734   5.199   1.104
 1013SOL     OW 3937   0.686   1.276   6.854
 1013SOL    HW1 3938   0.758   1.236   6.911
 1013SOL    HW2 3939   0.675   1.221   6.771
 1014SOL     OW 3940   4.810   5.550   6.065
 1014SOL    HW1 3941   4.718   5.584   6.084
 1014SOL    HW2 3942   4.835   5.571   5.971
 1015SOL     OW 3943   4.073   6.793   4.830
 1015SOL    HW1 3944   4.061   6.716   4.767
 1015SOL    HW2 3945   4.143   6.855   4.795
 1016SOL     OW 3946   3.119   2.837   1.431
 1016SOL    HW1 3947   3.204   2.817   1.479
 1016SOL    HW2 3948   3.043   2.790   1.476
 1017SOL     OW 3949   4.946   2.347   0.946
 1017SOL    HW1 3950   5.025   2.285   0.940
 1017SOL    HW2 3951   4.906   2.341   1.038
 1018SOL     OW 3952   1.846   3.162   3.822
 1018SOL    HW1 3953   1.885   3.117   3.902
 1018SOL    HW2 3954   1.749   3.138   3.815
 1019SOL     OW 3955   0.381   1.413   0.063
 1019SOL    HW1 3956   0.331   1.379   0.143
 1019SOL    HW2 3957   0.338   1.498   0.031
 1020SOL     OW 3958   1.741   0.355   1.041
 1020SOL    HW1 3959   1.828   0.367   0.993
 1020SOL    HW2 3960   1.755   0.299   1.122
 1021SOL     OW 3961   6.073   1.213   1.873
 1021SOL    HW1 3962   6.014   1.139   1.842
 1021SOL    HW2 3963   6.138   1.237   1.801
 1022SOL     OW 3964   4.449   3.947   6.250
 1022SOL    HW1 3965   4.404   4.003   6.320
 1022SOL    HW2 3966   4.379   3.902   6.194
 1023SOL     OW 3967   5.595   0.035   2.344
 1023SOL    HW1 3968   5.642   6.988   2.296
 1023SOL    HW2 3969   5.505   0.049   2.302
 1024SOL     OW 3970   6.436   2.115   4.139
 1024SOL    HW1 3971   6.484   2.085   4.057
 1024SOL    HW2 3972   6.503   2.139   4.210
 1025SOL     OW 3973   3.508   4.444   0.555
 1025SOL    HW1 3974   3.503   4.494   0.469
 1025SOL    HW2 3975   3.450   4.363   0.549
 1026SOL     OW 3976   1.833   1.255   0.645
 1026SOL    HW1 3977   1.756   1.287   0.700
 1026SOL    HW2 3978   1.802   1.239   0.551
 1027SOL     OW 3979   3.139   5.800   1.356
 1027SOL    HW1 3980   3.087   5.793   1.271
 1027SOL    HW2 3981   3.077   5.821   1.432
 1028SOL     OW 3982   2.376   6.389   6.920
 1028SOL    HW1 3983   2.407   6.296   6.940
 1028SOL    HW2 3984   2.308   6.387   6.847
 1029SOL     OW 3985   1.851   0.149   7.012
 1029SOL    HW1 3986   1.946   0.173   6.992
 1029SOL    HW2 3987   1.798   0.147   6.926
 1030SOL     OW 3988   3.811   3.018   4.614
 1030SOL    HW1 3989   3.759   2.962   4.678
 1030SOL    HW2 3990   3.748   3.071   4.557
 1031SOL     OW 3991   3.295   5.397   1.593
 1031SOL    HW1 3992   3.260   5.362   1.507
 1031SOL    HW2 3993   3.361   5.470   1.575
 1032SOL     OW 3994   2.365   1.061   5.630
 1032SOL    HW1 3995   2.290   1.102   5.579
 1032SOL    HW2 3996   2.449   1.115   5.616
 1033SOL     OW 3997   1.738   5.562   1.569
 1033SOL    HW1 3998   1.829   5.601   1.586
 1033SOL    HW2 3999   1.683   5.627   1.517
 1034SOL     OW 4000   2.060   6.132   4.173
 1034SOL    HW1 4001   2.037   6.044   4.131
 1034SOL    HW2 4002   2.055   6.124   4.272
 1035SOL     OW 4003   2.759   1.801   4.388
 1035SOL    HW1 4004   2.833   1.868   4.387
 1035SOL    HW2 4005   2.696   1.819   4.312
 1036SOL     OW 4006   3.827   0.998   1.169
 1036SOL    HW1 4007   3.850   1.075   1.109
 1036SOL    HW2 4008   3.872   0.915   1.136
 1037SOL     OW 4009   0.816   1.073   0.626
 1037SOL    HW1 4010   0.758   1.006   0.672
 1037SOL    HW2 4011   0.778   1.094   0.536
 1038SOL     OW 4012   0.767   1.480   5.671
 1038SOL    HW1 4013   0.731   1.387   5.683
 1038SOL    HW2 4014   0.720   1.525   5.596
 1039SOL     OW 4015   3.906   1.630   4.544
 1039SOL    HW1 4016   3.940   1.600   4.455
 1039SOL    HW2 4017   3.807   1.648   4.537
 1040SOL     OW 4018   5.724   3.522   3.430
 1040SOL    HW1 4019   5.701   3.425   3.415
 1040SOL    HW2 4020   5.754   3.562   3.343
 1041SOL     OW 4021   6.626   0.287   3.968
 1041SOL    HW1 4022   6.682   0.311   4.048
 1041SOL    HW2 4023   6.615   0.368   3.910
 1042SOL     OW 4024   4.556   4.925   1.656
 1042SOL    HW1 4025   4.631   4.991   1.664
 1042SOL    HW2 4026   4.470   4.974   1.642
 1043SOL     OW 4027   4.064   1.379   6.443
 1043SOL    HW1 4028   4.095   1.388   6.349
 1043SOL    HW2 4029   3.978   1.328   6.445
 1044SOL     OW 4030   3.461   2.057   1.506
 1044SOL    HW1 4031   3.545   2.082   1.556
 1044SOL    HW2 4032   3.485   2.014   1.420
 1045SOL     OW 4033   3.015   1.071   2.098
 1045SOL    HW1 4034   2.984   1.062   2.193
 1045SOL    HW2 4035   3.031   0.980   2.060
 1046SOL     OW 4036   2.527   6.788   0.012
 1046SOL    HW1 4037   2.545   6.703   6.991
 1046SOL    HW2 4038   2.613   6.834   0.033
 1047SOL     OW 4039   1.423   5.029   3.017
 1047SOL    HW1 4040   1.375   5.077   2.945
 1047SOL    HW2 4041   1.358   4.987   3.080
 1048SOL     OW 4042   5.094   5.343   5.124
 1048SOL    HW1 4043   5.005   5.324   5.082
 1048SOL    HW2 4044   5.113   5.273   5.193
 1049SOL     OW 4045   0.075   3.801   5.252
 1049SOL    HW1 4046   0.099   3.809   5.349
 1049SOL    HW2 4047   0.139   3.739   5.208
 1050SOL     OW 4048   3.798   0.103   7.002
 1050SOL    HW1 4049   3.895   0.095   7.025
 1050SOL    HW2 4050   3.788   0.153   6.917
 1051SOL     OW 4051   4.045   4.672   0.159
 1051SOL    HW1 4052   4.103   4.681   0.240
 1051SOL    HW2 4053   3.964   4.619   0.182
 1052SOL     OW 4054   3.968   0.431   4.718
 1052SOL    HW1 4055   3.967   0.512   4.776
 1052SOL    HW2 4056   3.925   0.452   4.630
 1053SOL     OW 4057   5.080   6.113   3.492
 1053SOL    HW1 4058   5.096   6.067   3.579
 1053SOL    HW2 4059   5.010   6.064   3.440
 1054SOL     OW 4060   3.003   4.820   5.645
 1054SOL    HW1 4061   2.993   4.886   5.720
 1054SOL    HW2 4062   2.921   4.763   5.640
 1055SOL     OW 4063   5.424   5.257   4.725
 1055SOL    HW1 4064   5.415   5.309   4.640
 1055SOL    HW2 4065   5.345   5.275   4.784
 1056SOL     OW 4066   1.577   6.419   5.203
 1056SOL    HW1 4067   1.566   6.516   5.182
 1056SOL    HW2 4068   1.583   6.367   5.118
 1057SOL     OW 4069   3.028   3.525   3.070
 1057SOL    HW1 4070   3.105   3.588   3.073
 1057SOL    HW2 4071   3.015   3.492   2.976
 1058SOL     OW 4072   4.200   1.665   2.357
 1058SOL    HW1 4073   4.158   1.582   2.393
 1058SOL    HW2 4074   4.141   1.704   2.286
 1059SOL     OW 4075   4.058   0.987   2.242
 1059SOL    HW1 4076   4.003   1.070   2.245
 1059SOL    HW2 4077   4.016   0.921   2.181
 1060SOL     OW 4078   0.610   3.582   5.803
 1060SOL    HW1 4079   0.526   3.636   5.803
 1060SOL    HW2 4080   0.622   3.539   5.892
 1061SOL     OW 4081   3.271   4.729   1.281
 1061SOL    HW1 4082   3.327   4.655   1.243
 1061SOL    HW2 4083   3.282   4.811   1.224
 1062SOL     OW 4084   6.980   5.510   5.299
 1062SOL    HW1 4085   7.013   5.487   5.208
 1062SOL    HW2 4086   6.972   5.610   5.307
 1063SOL     OW 4087   1.062   3.750   1.235
 1063SOL    HW1 4088   1.154   3.790   1.233
 1063SOL    HW2 4089   1.026   3.755   1.328
 1064SOL     OW 4090   1.731   3.104   2.227
 1064SOL    HW1 4091   1.744   3.196   2.189
 1064SOL    HW2 4092   1.636   3.095   2.259
 1065SOL     OW 4093   5.615   0.029   3.740
 1065SOL    HW1 4094   5.578   0.109   3.788
 1065SOL    HW2 4095   5.701   0.002   3.782
 1066SOL     OW 4096   5.372   0.626   4.414
 1066SOL    HW1 4097   5.361   0.588   4.506
 1066SOL    HW2 4098   5.300   0.590   4.355
 1067SOL     OW 4099   1.797   2.425   1.440
 1067SOL    HW1 4100   1.727   2.491   1.413
 1067SOL    HW2 4101   1.874   2.431   1.377
 1068SOL     OW 4102   0.346   3.861   2.100
 1068SOL    HW1 4103   0.355   3.876   2.001
 1068SOL    HW2 4104   0.255   3.822   2.118
 1069SOL     OW 4105   4.185   4.278   0.700
 1069SOL    HW1 4106   4.279   4.297   0.728
 1069SOL    HW2 4107   4.122   4.334   0.755
 1070SOL     OW 4108   2.072   0.591   0.072
 1070SOL    HW1 4109   2.087   0.538   0.155
 1070SOL    HW2 4110   2.128   0.555   7.026
 1071SOL     OW 4111   4.214   6.990   2.808
 1071SOL    HW1 4112   4.152   6.944   2.872
 1071SOL    HW2 4113   4.162   0.030   2.755
 1072SOL     OW 4114   2.977   6.449   2.352
 1072SOL    HW1 4115   2.910   6.471   2.423
 1072SOL    HW2 4116   2.935   6.389   2.284
 1073SOL     OW 4117   3.178   4.987   2.274
 1073SOL    HW1 4118   3.275   4.977   2.293
 1073SOL    HW2 4119   3.148   4.915   2.211
 1074SOL     OW 4120   1.612   5.187   2.007
 1074SOL    HW1 4121   1.649   5.222   2.094
 1074SOL    HW2 4122   1.639   5.092   1.995
 1075SOL     OW 4123   5.446   4.888   3.180
 1075SOL    HW1 4124   5.537   4.920   3.206
 1075SOL    HW2 4125   5.377   4.943   3.227
 1076SOL     OW 4126   0.778   4.499   4.872
 1076SOL    HW1 4127   0.760   4.591   4.836
 1076SOL    HW2 4128   0.753   4.431   4.803
 1077SOL     OW 4129   5.804   0.139   0.855
 1077SOL    HW1 4130   5.839   0.180   0.939
 1077SOL    HW2 4131   5.705   0.134   0.859
 1078SOL     OW 4132   1.509   1.499   1.727
 1078SOL    HW1 4133   1.595   1.521   1.774
 1078SOL    HW2 4134   1.450   1.448   1.789
 1079SOL     OW 4135   2.681   5.938   3.794
 1079SOL    HW1 4136   2.769   5.932   3.747
 1079SOL    HW2 4137   2.640   6.027   3.776
 1080SOL     OW 4138   2.580   5.688   3.764
 1080SOL    HW1 4139   2.587   5.787   3.755
 1080SOL    HW2 4140   2.624   5.659   3.849
 1081SOL     OW 4141   1.528   1.233   5.921
 1081SOL    HW1 4142   1.445   1.238   5.977
 1081SOL    HW2 4143   1.608   1.229   5.980
 1082SOL     OW 4144   1.526   0.125   5.447
 1082SOL    HW1 4145   1.436   0.145   5.486
 1082SOL    HW2 4146   1.588   0.093   5.519
 1083SOL     OW 4147   3.374   3.325   2.259
 1083SOL    HW1 4148   3.352   3.414   2.219
 1083SOL    HW2 4149   3.469   3.325   2.290
 1084SOL     OW 4150   5.864   4.977   1.014
 1084SOL    HW1 4151   5.804   4.909   1.057
 1084SOL    HW2 4152   5.863   4.964   0.915
 1085SOL     OW 4153   1.919   5.142   3.997
 1085SOL    HW1 4154   1.955   5.066   4.050
 1085SOL    HW2 4155   1.869   5.204   4.058
 1086SOL     OW 4156   5.705   5.802   3.518
 1086SOL    HW1 4157   5.606   5.815   3.524
 1086SOL    HW2 4158   5.734   5.805   3.422
 1087SOL     OW 4159   4.999   3.060   5.398
 1087SOL    HW1 4160   5.053   3.033   5.477
 1087SOL    HW2 4161   5.019   3.155   5.374
 1088SOL     OW 4162   5.040   4.810   3.301
 1088SOL    HW1 4163   5.110   4.879   3.282
 1088SOL    HW2 4164   5.077   4.719   3.286
 1089SOL     OW 4165   0.175   0.623   4.838
 1089SOL    HW1 4166   0.230   0.543   4.860
 1089SOL    HW2 4167   0.111   0.600   4.764
 1090SOL     OW 4168   2.113   1.152   5.562
 1090SOL    HW1 4169   2.022   1.111   5.552
 1090SOL    HW2 4170   2.115   1.239   5.513
 1091SOL     OW 4171   1.746   1.798   4.371
 1091SOL    HW1 4172   1.672   1.732   4.376
 1091SOL    HW2 4173   1.831   1.755   4.400
 1092SOL     OW 4174   2.256   4.070   1.477
 1092SOL    HW1 4175   2.200   4.007   1.532
 1092SOL    HW2 4176   2.213   4.084   1.388
 1093SOL     OW 4177   1.428   2.566   2.151
 1093SOL    HW1 4178   1.489   2.618   2.210
 1093SOL    HW2 4179   1.481   2.506   2.091
 1094SOL     OW 4180   0.370   6.501   1.775
 1094SOL    HW1 4181   0.310   6.570   1.816
 1094SOL    HW2 4182   0.453   6.492   1.829
 1095SOL     OW 4183   5.946   3.175   6.475
 1095SOL    HW1 4184   5.991   3.248   6.526
 1095SOL    HW2 4185   5.871   3.138   6.530
 1096SOL     OW 4186   3.550   5.083   0.984
 1096SOL    HW1 4187   3.508   5.045   0.902
 1096SOL    HW2 4188   3.628   5.026   1.011
 1097SOL     OW 4189   1.732   5.218   4.994
 1097SOL    HW1 4190   1.822   5.223   5.038
 1097SOL    HW2 4191   1.737   5.155   4.917
 1098SOL     OW 4192   4.726   2.106   0.885
 1098SOL    HW1 4193   4.792   2.047   0.839
 1098SOL    HW2 4194   4.731   2.198   0.846
 1099SOL     OW 4195   3.980   2.087   4.260
 1099SOL    HW1 4196   3.977   2.133   4.349
 1099SOL    HW2 4197   4.029   2.145   4.195
 1100SOL     OW 4198   1.346   1.017   6.253
 1100SOL    HW1 4199   1.415   1.089   6.241
 1100SOL    HW2 4200   1.265   1.055   6.296
 1101SOL     OW 4201   5.555   3.368   1.135
 1101SOL    HW1 4202   5.639   3.380   1.189
 1101SOL    HW2 4203   5.546   3.272   1.109
 1102SOL     OW 4204   0.448   4.460   3.911
 1102SOL    HW1 4205   0.500   4.423   3.988
 1102SOL    HW2 4206   0.377   4.396   3.885
 1103SOL     OW 4207   1.413   1.731   1.622
 1103SOL    HW1 4208   1.432   1.643   1.665
 1103SOL    HW2 4209   1.485   1.796   1.645
 1104SOL     OW 4210   2.646   4.606   6.442
 1104SOL    HW1 4211   2.575   4.545   6.478
 1104SOL    HW2 4212   2.609   4.658   6.364
 1105SOL     OW 4213   4.827   4.386   6.973
 1105SOL    HW1 4214   4.906   4.434   7.012
 1105SOL    HW2 4215   4.837   4.288   6.988
 1106SOL     OW 4216   6.621   2.470   6.083
 1106SOL    HW1 4217   6.618   2.518   5.995
 1106SOL    HW2 4218   6.716   2.449   6.106
 1107SOL     OW 4219   0.675   0.344   0.199
 1107SOL    HW1 4220   0.702   0.390   0.284
 1107SOL    HW2 4221   0.727   0.382   0.123
 1108SOL     OW 4222   2.379   1.126   5.952
 1108SOL    HW1 4223   2.342   1.038   5.983
 1108SOL    HW2 4224   2.402   1.183   6.031
 1109SOL     OW 4225   3.926   5.967   4.408
 1109SOL    HW1 4226   3.849   5.905   4.426
 1109SOL    HW2 4227   3.895   6.062   4.417
 1110SOL     OW 4228   2.928   2.769   1.620
 1110SOL    HW1 4229   2.914   2.868   1.622
 1110SOL    HW2 4230   3.005   2.744   1.678
 1111SOL     OW 4231   5.628   0.523   0.181
 1111SOL    HW1 4232   5.723   0.491   0.172
 1111SOL    HW2 4233   5.578   0.461   0.242
 1112SOL     OW 4234   6.302   0.509   2.348
 1112SOL    HW1 4235   6.384   0.556   2.315
 1112SOL    HW2 4236   6.324   0.454   2.429
 1113SOL     OW 4237   6.875   3.291   2.643
 1113SOL    HW1 4238   6.783   3.271   2.610
 1113SOL    HW2 4239   6.871   3.315   2.741
 1114SOL     OW 4240   4.924   0.554   6.125
 1114SOL    HW1 4241   4.966   0.630   6.175
 1114SOL    HW2 4242   4.843   0.523   6.174
 1115SOL     OW 4243   3.673   2.991   0.504
 1115SOL    HW1 4244   3.659   2.956   0.411
 1115SOL    HW2 4245   3.632   2.929   0.570
 1116SOL     OW 4246   4.891   5.786   3.857
 1116SOL    HW1 4247   4.847   5.729   3.927
 1116SOL    HW2 4248   4.944   5.858   3.902
 1117SOL     OW 4249   2.600   2.603   1.803
 1117SOL    HW1 4250   2.610   2.702   1.811
 1117SOL    HW2 4251   2.679   2.566   1.754
 1118SOL     OW 4252   2.171   5.097   2.857
 1118SOL    HW1 4253   2.258   5.075   2.812
 1118SOL    HW2 4254   2.158   5.196   2.857
 1119SOL     OW 4255   4.243   3.974   1.770
 1119SOL    HW1 4256   4.274   4.068   1.783
 1119SOL    HW2 4257   4.154   3.962   1.813
 1120SOL     OW 4258   5.492   0.065   6.478
 1120SOL    HW1 4259   5.411   0.100   6.431
 1120SOL    HW2 4260   5.467   7.011   6.531
 1121SOL     OW 4261   4.973   2.913   2.004
 1121SOL    HW1 4262   4.937   2.822   1.985
 1121SOL    HW2 4263   4.898   2.979   2.007
 1122SOL     OW 4264   5.845   3.264   6.894
 1122SOL    HW1 4265   5.916   3.208   6.937
 1122SOL    HW2 4266   5.792   3.208   6.830
 1123SOL     OW 4267   4.684   1.414   2.206
 1123SOL    HW1 4268   4.688   1.322   2.243
 1123SOL    HW2 4269   4.611   1.466   2.251
 1124SOL     OW 4270   6.855   3.665   5.569
 1124SOL    HW1 4271   6.865   3.607   5.488
 1124SOL    HW2 4272   6.758   3.685   5.584
 1125SOL     OW 4273   2.966   2.853   5.367
 1125SOL    HW1 4274   2.992   2.758   5.349
 1125SOL    HW2 4275   2.868   2.857   5.386
 1126SOL     OW 4276   4.598   0.411   0.337
 1126SOL    HW1 4277   4.519   0.360   0.373
 1126SOL    HW2 4278   4.602   0.400   0.238
 1127SOL     OW 4279   2.714   4.621   0.621
 1127SOL    HW1 4280   2.668   4.672   0.694
 1127SOL    HW2 4281   2.695   4.523   0.632
 1128SOL     OW 4282   3.807   2.129   3.573
 1128SOL    HW1 4283   3.880   2.156   3.510
 1128SOL    HW2 4284   3.838   2.052   3.629
 1129SOL     OW 4285   4.304   0.757   0.047
 1129SOL    HW1 4286   4.294   0.813   0.129
 1129SOL    HW2 4287   4.262   0.667   0.063
 1130SOL     OW 4288   1.548   3.940   0.834
 1130SOL    HW1 4289   1.543   4.014   0.900
 1130SOL    HW2 4290   1.582   3.857   0.879
 1131SOL     OW 4291   0.319   6.335   5.841
 1131SOL    HW1 4292   0.306   6.315   5.744
 1131SOL    HW2 4293   0.377   6.264   5.883
 1132SOL     OW 4294   5.009   0.050   5.931
 1132SOL    HW1 4295   4.972   0.142   5.943
 1132SOL    HW2 4296   5.026   0.034   5.834
 1133SOL     OW 4297   0.444   2.247   1.384
 1133SOL    HW1 4298   0.544   2.245   1.381
 1133SOL    HW2 4299   0.408   2.258   1.292
 1134SOL     OW 4300   5.611   2.687   6.901
 1134SOL    HW1 4301   5.659   2.602   6.926
 1134SOL    HW2 4302   5.619   2.753   6.976
 1135SOL     OW 4303   3.088   2.226   3.419
 1135SOL    HW1 4304   3.022   2.273   3.477
 1135SOL    HW2 4305   3.071   2.248   3.323
 1136SOL     OW 4306   2.713   5.577   3.501
 1136SOL    HW1 4307   2.632   5.614   3.548
 1136SOL    HW2 4308   2.752   5.503   3.556
 1137SOL     OW 4309   1.371   1.870   6.460
 1137SOL    HW1 4310   1.326   1.797   6.512
 1137SOL    HW2 4311   1.467   1.844   6.444
 1138SOL     OW 4312   2.459   3.516   5.973
 1138SOL    HW1 4313   2.523   3.440   5.987
 1138SOL    HW2 4314   2.453   3.536   5.875
 1139SOL     OW 4315   1.146   6.330   2.948
 1139SOL    HW1 4316   1.086   6.394   2.995
 1139SOL    HW2 4317   1.163   6.363   2.855
 1140SOL     OW 4318   3.712   1.462   3.196
 1140SOL    HW1 4319   3.612   1.465   3.195
 1140SOL    HW2 4320   3.747   1.540   3.248
 1141SOL     OW 4321   5.741   5.552   5.467
 1141SOL    HW1 4322   5.671   5.486   5.439
 1141SOL    HW2 4323   5.700   5.644   5.470
 1142SOL     OW 4324   5.624   0.513   4.356
 1142SOL    HW1 4325   5.692   0.547   4.421
 1142SOL    HW2 4326   5.539   0.565   4.367
 1143SOL     OW 4327   4.251   2.236   2.682
 1143SOL    HW1 4328   4.236   2.137   2.680
 1143SOL    HW2 4329   4.185   2.278   2.744
 1144SOL     OW 4330   0.320   3.902   4.014
 1144SOL    HW1 4331   0.313   3.982   3.954
 1144SOL    HW2 4332   0.416   3.884   4.036
 1145SOL     OW 4333   6.554   5.392   4.068
 1145SOL    HW1 4334   6.567   5.298   4.099
 1145SOL    HW2 4335   6.579   5.399   3.972
 1146SOL     OW 4336   6.014   2.465   0.879
 1146SOL    HW1 4337   6.085   2.477   0.948
 1146SOL    HW2 4338   5.978   2.554   0.852
 1147SOL     OW 4339   0.476   3.550   2.475
 1147SOL    HW1 4340   0.562   3.600   2.478
 1147SOL    HW2 4341   0.448   3.525   2.568
 1148SOL     OW 4342   3.629   6.340   6.264
 1148SOL    HW1 4343   3.702   6.405   6.285
 1148SOL    HW2 4344   3.663   6.247   6.271
 1149SOL     OW 4345   6.434   3.543   2.674
 1149SOL    HW1 4346   6.410   3.578   2.765
 1149SOL    HW2 4347   6.350   3.529   2.620
 1150SOL     OW 4348   2.158   5.048   1.031
 1150SOL    HW1 4349   2.210   5.102   1.097
 1150SOL    HW2 4350   2.061   5.070   1.040
 1151SOL     OW 4351   5.621   5.498   6.273
 1151SOL    HW1 4352   5.569   5.582   6.291
 1151SOL    HW2 4353   5.570   5.419   6.305
 1152SOL     OW 4354   1.049   0.018   4.943
 1152SOL    HW1 4355   1.119   0.024   4.872
 1152SOL    HW2 4356   1.068   0.086   5.013
 1153SOL     OW 4357   2.173   6.032   2.739
 1153SOL    HW1 4358   2.271   6.016   2.730
 1153SOL    HW2 4359   2.125   5.945   2.747
 1154SOL     OW 4360   0.540   3.838   2.263
 1154SOL    HW1 4361   0.468   3.833   2.194
 1154SOL    HW2 4362   0.500   3.828   2.354
 1155SOL     OW 4363   3.103   6.261   0.812
 1155SOL    HW1 4364   3.124   6.249   0.909
 1155SOL    HW2 4365   3.172   6.213   0.757
 1156SOL     OW 4366   2.628   0.757   3.780
 1156SOL    HW1 4367   2.541   0.708   3.772
 1156SOL    HW2 4368   2.611   0.856   3.783
 1157SOL     OW 4369   0.033   2.266   4.713
 1157SOL    HW1 4370   7.000   2.226   4.645
 1157SOL    HW2 4371   0.105   2.202   4.737
 1158SOL     OW 4372   5.619   4.669   6.068
 1158SOL    HW1 4373   5.579   4.580   6.090
 1158SOL    HW2 4374   5.548   4.728   6.029
 1159SOL     OW 4375   3.222   5.780   2.717
 1159SOL    HW1 4376   3.233   5.780   2.817
 1159SOL    HW2 4377   3.258   5.695   2.679
 1160SOL     OW 4378   4.022   3.706   2.458
 1160SOL    HW1 4379   4.026   3.737   2.553
 1160SOL    HW2 4380   4.079   3.625   2.447
 1161SOL     OW 4381   5.572   0.260   3.917
 1161SOL    HW1 4382   5.484   0.306   3.905
 1161SOL    HW2 4383   5.621   0.302   3.994
 1162SOL     OW 4384   3.127   3.375   1.951
 1162SOL    HW1 4385   3.133   3.276   1.955
 1162SOL    HW2 4386   3.045   3.406   2.000
 1163SOL     OW 4387   5.015   1.958   1.661
 1163SOL    HW1 4388   5.025   1.913   1.572
 1163SOL    HW2 4389   4.968   1.896   1.724
 1164SOL     OW 4390   5.396   3.097   2.650
 1164SOL    HW1 4391   5.409   3.115   2.747
 1164SOL    HW2 4392   5.310   3.047   2.636
 1165SOL     OW 4393   0.831   3.448   3.487
 1165SOL    HW1 4394   0.786   3.366   3.521
 1165SOL    HW2 4395   0.921   3.423   3.448
 1166SOL     OW 4396   4.292   2.258   6.249
 1166SOL    HW1 4397   4.241   2.342   6.230
 1166SOL    HW2 4398   4.250   2.211   6.326
 1167SOL     OW 4399   3.980   0.846   5.099
 1167SOL    HW1 4400   3.888   0.885   5.105
 1167SOL    HW2 4401   3.993   0.779   5.173
 1168SOL     OW 4402   0.037   6.601   3.045
 1168SOL    HW1 4403   0.085   6.604   2.957
 1168SOL    HW2 4404   0.103   6.608   3.119
 1169SOL     OW 4405   0.610   3.344   1.248
 1169SOL    HW1 4406   0.615   3.347   1.347
 1169SOL    HW2 4407   0.698   3.372   1.209
 1170SOL     OW 4408   3.826   1.337   2.874
 1170SOL    HW1 4409   3.731   1.304   2.873
 1170SOL    HW2 4410   3.873   1.305   2.792
 1171SOL     OW 4411   3.114   6.130   1.404
 1171SOL    HW1 4412   3.132   6.223   1.371
 1171SOL    HW2 4413   3.051   6.133   1.481
 1172SOL     OW 4414   3.721   3.657   3.943
 1172SOL    HW1 4415   3.745   3.608   3.859
 1172SOL    HW2 4416   3.800   3.711   3.974
 1173SOL     OW 4417   3.130   0.594   5.792
 1173SOL    HW1 4418   3.230   0.600   5.786
 1173SOL    HW2 4419   3.089   0.649   5.719
 1174SOL     OW 4420   2.332   5.809   0.615
 1174SOL    HW1 4421   2.252   5.868   0.608
 1174SOL    HW2 4422   2.391   5.824   0.536
 1175SOL     OW 4423   5.921   4.321   6.676
 1175SOL    HW1 4424   5.887   4.411   6.653
 1175SOL    HW2 4425   5.966   4.324   6.765
 1176SOL     OW 4426   5.435   4.604   0.856
 1176SOL    HW1 4427   5.525   4.622   0.895
 1176SOL    HW2 4428   5.398   4.690   0.819
 1177SOL     OW 4429   6.488   3.133   5.600
 1177SOL    HW1 4430   6.539   3.156   5.683
 1177SOL    HW2 4431   6.394   3.109   5.624
 1178SOL     OW 4432   5.431   3.393   2.348
 1178SOL    HW1 4433   5.469   3.429   2.262
 1178SOL    HW2 4434   5.373   3.314   2.328
 1179SOL     OW 4435   1.877   3.792   0.673
 1179SOL    HW1 4436   1.929   3.813   0.756
 1179SOL    HW2 4437   1.838   3.701   0.680
 1180SOL     OW 4438   2.265   1.471   3.691
 1180SOL    HW1 4439   2.205   1.395   3.668
 1180SOL    HW2 4440   2.223   1.557   3.660
 1181SOL     OW 4441   1.255   4.750   4.130
 1181SOL    HW1 4442   1.340   4.774   4.177
 1181SOL    HW2 4443   1.263   4.658   4.092
 1182SOL     OW 4444   2.150   4.164   3.764
 1182SOL    HW1 4445   2.241   4.198   3.787
 1182SOL    HW2 4446   2.103   4.231   3.707
 1183SOL     OW 4447   4.284   5.955   1.763
 1183SOL    HW1 4448   4.365   6.014   1.768
 1183SOL    HW2 4449   4.299   5.884   1.694
 1184SOL     OW 4450   3.142   2.845   5.153
 1184SOL    HW1 4451   3.083   2.897   5.215
 1184SOL    HW2 4452   3.124   2.872   5.059
 1185SOL     OW 4453   2.204   6.936   0.204
 1185SOL    HW1 4454   2.200   0.008   0.197
 1185SOL    HW2 4455   2.299   6.908   0.221
 1186SOL     OW 4456   6.239   0.506   4.674
 1186SOL    HW1 4457   6.246   0.455   4.588
 1186SOL    HW2 4458   6.151   0.485   4.718
 1187SOL     OW 4459   5.894   6.480   5.027
 1187SOL    HW1 4460   5.897   6.433   4.939
 1187SOL    HW2 4461   5.980   6.531   5.041
 1188SOL     OW 4462   2.013   6.538   6.006
 1188SOL    HW1 4463   2.078   6.478   6.053
 1188SOL    HW2 4464   1.922   6.524   6.044
 1189SOL     OW 4465   5.813   1.007   1.384
 1189SOL    HW1 4466   5.812   1.021   1.483
 1189SOL    HW2 4467   5.892   0.951   1.359
 1190SOL     OW 4468   3.814   5.173   3.672
 1190SOL    HW1 4469   3.843   5.256   3.626
 1190SOL    HW2 4470   3.895   5.124   3.706
 1191SOL     OW 4471   3.132   5.719   5.876
 1191SOL    HW1 4472   3.173   5.690   5.789
 1191SOL    HW2 4473   3.056   5.782   5.857
 1192SOL     OW 4474   5.989   5.206   3.112
 1192SOL    HW1 4475   5.946   5.294   3.130
 1192SOL    HW2 4476   5.932   5.153   3.049
 1193SOL     OW 4477   5.360   0.254   4.317
 1193SOL    HW1 4478   5.363   0.331   4.253
 1193SOL    HW2 4479   5.279   0.199   4.299
 1194SOL     OW 4480   6.275   0.124   0.803
 1194SOL    HW1 4481   6.348   0.094   0.864
 1194SOL    HW2 4482   6.283   0.222   0.786
 1195SOL     OW 4483   5.993   0.973   6.132
 1195SOL    HW1 4484   6.007   1.017   6.044
 1195SOL    HW2 4485   5.989   0.874   6.119
 1196SOL     OW 4486   0.080   4.841   2.578
 1196SOL    HW1 4487   0.081   4.814   2.482
 1196SOL    HW2 4488   0.126   4.772   2.633
 1197SOL     OW 4489   4.071   6.169   5.689
 1197SOL    HW1 4490   4.119   6.203   5.769
 1197SOL    HW2 4491   4.132   6.169   5.610
 1198SOL     OW 4492   3.387   2.060   3.066
 1198SOL    HW1 4493   3.424   2.097   3.151
 1198SOL    HW2 4494   3.291   2.036   3.080
 1199SOL     OW 4495   2.988   3.662   2.188
 1199SOL    HW1 4496   3.087   3.658   2.194
 1199SOL    HW2 4497   2.957   3.757   2.196
 1200SOL     OW 4498   4.688   4.093   5.787
 1200SOL    HW1 4499   4.760   4.084   5.855
 1200SOL    HW2 4500   4.625   4.016   5.794
 1201SOL     OW 4501   1.269   1.733   4.796
 1201SOL    HW1 4502   1.312   1.733   4.706
 1201SOL    HW2 4503   1.248   1.640   4.823
 1202SOL     OW 4504   5.344   0.490   5.393
 1202SOL    HW1 4505   5.366   0.485   5.296
 1202SOL    HW2 4506   5.387   0.413   5.441
 1203SOL     OW 4507   5.524   0.642   0.896
 1203SOL    HW1 4508   5.445   0.664   0.954
 1203SOL    HW2 4509   5.570   0.726   0.868
 1204SOL     OW 4510   3.351   1.207   0.597
 1204SOL    HW1 4511   3.384   1.112   0.592
 1204SOL    HW2 4512   3.319   1.226   0.690
 1205SOL     OW 4513   5.913   2.345   6.186
 1205SOL    HW1 4514   5.884   2.404   6.110
 1205SOL    HW2 4515   5.976   2.275   6.152
 1206SOL     OW 4516   1.548   1.338   4.752
 1206SOL    HW1 4517   1.520   1.411   4.690
 1206SOL    HW2 4518   1.489   1.258   4.737
 1207SOL     OW 4519   6.058   0.211   0.549
 1207SOL    HW1 4520   6.138   0.250   0.595
 1207SOL    HW2 4521   5.976   0.261   0.575
 1208SOL     OW 4522   3.560   3.750   2.766
 1208SOL    HW1 4523   3.546   3.792   2.676
 1208SOL    HW2 4524   3.514   3.805   2.836
 1209SOL     OW 4525   6.138   6.236   5.382
 1209SOL    HW1 4526   6.053   6.248   5.434
 1209SOL    HW2 4527   6.216   6.234   5.445
 1210SOL     OW 4528   3.691   0.018   2.637
 1210SOL    HW1 4529   3.746   7.017   2.559
 1210SOL    HW2 4530   3.603   0.052   2.605
 1211SOL     OW 4531   1.804   3.547   3.902
 1211SOL    HW1 4532   1.762   3.637   3.895
 1211SOL    HW2 4533   1.831   3.515   3.811
 1212SOL     OW 4534   1.203   4.092   4.821
 1212SOL    HW1 4535   1.205   4.165   4.752
 1212SOL    HW2 4536   1.260   4.117   4.898
 1213SOL     OW 4537   0.147   2.692   5.027
 1213SOL    HW1 4538   0.085   2.769   5.013
 1213SOL    HW2 4539   0.169   2.685   5.124
 1214SOL     OW 4540   1.810   3.437   4.710
 1214SOL    HW1 4541   1.909   3.439   4.725
 1214SOL    HW2 4542   1.766   3.393   4.788
 1215SOL     OW 4543   2.662   4.684   3.194
 1215SOL    HW1 4544   2.657   4.730   3.106
 1215SOL    HW2 4545   2.614   4.596   3.188
 1216SOL     OW 4546   1.454   6.711   1.687
 1216SOL    HW1 4547   1.490   6.785   1.744
 1216SOL    HW2 4548   1.396   6.749   1.616
 1217SOL     OW 4549   1.114   6.658   0.271
 1217SOL    HW1 4550   1.090   6.714   0.350
 1217SOL    HW2 4551   1.182   6.707   0.215
 1218SOL     OW 4552   0.473   3.755   4.996
 1218SOL    HW1 4553   0.535   3.833   4.999
 1218SOL    HW2 4554   0.526   3.670   4.994
 1219SOL     OW 4555   4.082   5.475   0.564
 1219SOL    HW1 4556   4.010   5.544   0.564
 1219SOL    HW2 4557   4.170   5.519   0.544
 1220SOL     OW 4558   5.632   2.685   2.722
 1220SOL    HW1 4559   5.643   2.784   2.724
 1220SOL    HW2 4560   5.672   2.645   2.804
 1221SOL     OW 4561   5.625   3.554   0.459
 1221SOL    HW1 4562   5.535   3.513   0.445
 1221SOL    HW2 4563   5.621   3.617   0.537
 1222SOL     OW 4564   6.815   6.528   0.512
 1222SOL    HW1 4565   6.745   6.536   0.582
 1222SOL    HW2 4566   6.905   6.528   0.555
 1223SOL     OW 4567   6.095   0.063   6.739
 1223SOL    HW1 4568   6.062   0.109   6.657
 1223SOL    HW2 4569   6.055   0.105   6.820
 1224SOL     OW 4570   4.223   5.923   0.459
 1224SOL    HW1 4571   4.268   5.834   0.470
 1224SOL    HW2 4572   4.167   5.923   0.377
 1225SOL     OW 4573   4.253   2.097   0.547
 1225SOL    HW1 4574   4.300   2.011   0.566
 1225SOL    HW2 4575   4.215   2.133   0.631
 1226SOL     OW 4576   5.980   6.224   1.173
 1226SOL    HW1 4577   6.054   6.292   1.178
 1226SOL    HW2 4578   6.015   6.136   1.204
 1227SOL     OW 4579   5.633   4.375   5.681
 1227SOL    HW1 4580   5.547   4.362   5.731
 1227SOL    HW2 4581   5.625   4.336   5.589
 1228SOL     OW 4582   4.018   3.147   2.278
 1228SOL    HW1 4583   4.087   3.211   2.245
 1228SOL    HW2 4584   4.014   3.068   2.216
 1229SOL     OW 4585   1.938   5.963   2.395
 1229SOL    HW1 4586   1.852   5.926   2.431
 1229SOL    HW2 4587   1.934   5.963   2.295
 1230SOL     OW 4588   5.042   4.956   2.386
 1230SOL    HW1 4589   5.052   4.863   2.352
 1230SOL    HW2 4590   5.104   4.971   2.463
 1231SOL     OW 4591   1.521   2.375   6.266
 1231SOL    HW1 4592   1.460   2.296   6.274
 1231SOL    HW2 4593   1.508   2.419   6.177
 1232SOL     OW 4594   3.294   0.605   5.228
 1232SOL    HW1 4595   3.204   0.636   5.197
 1232SOL    HW2 4596   3.357   0.605   5.151
 1233SOL     OW 4597   0.513   4.915   3.781
 1233SOL    HW1 4598   0.463   4.896   3.696
 1233SOL    HW2 4599   0.529   4.829   3.830
 1234SOL     OW 4600   6.944   3.338   6.657
 1234SOL    HW1 4601   6.863   3.356   6.601
 1234SOL    HW2 4602   6.958   3.413   6.720
 1235SOL     OW 4603   5.847   4.551   0.283
 1235SOL    HW1 4604   5.804   4.640   0.294
 1235SOL    HW2 4605   5.887   4.523   0.371
 1236SOL     OW 4606   2.241   0.795   0.464
 1236SOL    HW1 4607   2.251   0.880   0.412
 1236SOL    HW2 4608   2.164   0.804   0.528
 1237SOL     OW 4609   1.445   0.508   4.738
 1237SOL    HW1 4610   1.489   0.567   4.806
 1237SOL    HW2 4611   1.429   0.561   4.654
 1238SOL     OW 4612   0.357   0.085   3.704
 1238SOL    HW1 4613   0.341   0.009   3.767
 1238SOL    HW2 4614   0.454   0.106   3.700
 1239SOL     OW 4615   6.086   5.606   4.274
 1239SOL    HW1 4616   6.100   5.669   4.350
 1239SOL    HW2 4617   5.998   5.626   4.230
 1240SOL     OW 4618   5.791   5.493   2.779
 1240SOL    HW1 4619   5.728   5.567   2.754
 1240SOL    HW2 4620   5.799   5.488   2.879
 1241SOL     OW 4621   5.527   5.117   4.439
 1241SOL    HW1 4622   5.613   5.156   4.406
 1241SOL    HW2 4623   5.461   5.191   4.452
 1242SOL     OW 4624   1.600   3.439   0.309
 1242SOL    HW1 4625   1.554   3.381   0.241
 1242SOL    HW2 4626   1.644   3.515   0.263
 1243SOL     OW 4627   1.321   4.094   5.082
 1243SOL    HW1 4628   1.263   4.026   5.126
 1243SOL    HW2 4629   1.417   4.072   5.098
 1244SOL     OW 4630   5.889   0.081   4.793
 1244SOL    HW1 4631   5.898   0.152   4.862
 1244SOL    HW2 4632   5.953   0.006   4.813
 1245SOL     OW 4633   5.091   6.268   1.198
 1245SOL    HW1 4634   5.088   6.172   1.168
 1245SOL    HW2 4635   5.004   6.312   1.177
 1246SOL     OW 4636   4.549   1.534   0.911
 1246SOL    HW1 4637   4.487   1.564   0.839
 1246SOL    HW2 4638   4.539   1.435   0.924
 1247SOL     OW 4639   6.970   6.429   3.488
 1247SOL    HW1 4640   6.989   6.522   3.518
 1247SOL    HW2 4641   6.908   6.430   3.409
 1248SOL     OW 4642   0.117   0.078   4.786
 1248SOL    HW1 4643   0.204   0.036   4.812
 1248SOL    HW2 4644   0.062   0.095   4.868
 1249SOL     OW 4645   0.574   4.539   1.312
 1249SOL    HW1 4646   0.672   4.522   1.308
 1249SOL    HW2 4647   0.540   4.519   1.403
 1250SOL     OW 4648   5.614   3.327   5.445
 1250SOL    HW1 4649   5.551   3.259   5.409
 1250SOL    HW2 4650   5.586   3.353   5.537
 1251SOL     OW 4651   3.067   0.421   2.562
 1251SOL    HW1 4652   2.970   0.427   2.537
 1251SOL    HW2 4653   3.122   0.404   2.479
 1252SOL     OW 4654   2.435   5.902   6.964
 1252SOL    HW1 4655   2.410   5.977   6.903
 1252SOL    HW2 4656   2.522   5.863   6.935
 1253SOL     OW 4657   3.411   0.667   0.796
 1253SOL    HW1 4658   3.399   0.571   0.821
 1253SOL    HW2 4659   3.423   0.676   0.697
 1254SOL     OW 4660   6.538   1.500   2.187
 1254SOL    HW1 4661   6.476   1.578   2.171
 1254SOL    HW2 4662   6.484   1.419   2.208
 1255SOL     OW 4663   5.511   1.989   5.118
 1255SOL    HW1 4664   5.431   1.945   5.076
 1255SOL    HW2 4665   5.592   1.973   5.062
 1256SOL     OW 4666   6.954   5.933   4.014
 1256SOL    HW1 4667   7.016   5.905   3.941
 1256SOL    HW2 4668   6.972   6.028   4.038
 1257SOL     OW 4669   0.191   4.431   3.499
 1257SOL    HW1 4670   0.105   4.470   3.464
 1257SOL    HW2 4671   0.268   4.475   3.453
 1258SOL     OW 4672   3.041   6.657   4.556
 1258SOL    HW1 4673   3.050   6.614   4.466
 1258SOL    HW2 4674   3.005   6.750   4.546
 1259SOL     OW 4675   4.680   0.251   5.336
 1259SOL    HW1 4676   4.715   0.293   5.252
 1259SOL    HW2 4677   4.628   0.319   5.388
 1260SOL     OW 4678   2.179   0.236   2.103
 1260SOL    HW1 4679   2.237   0.270   2.029
 1260SOL    HW2 4680   2.227   0.163   2.153
 1261SOL     OW 4681   0.141   4.412   6.725
 1261SOL    HW1 4682   0.149   4.315   6.750
 1261SOL    HW2 4683   0.230   4.445   6.692
 1262SOL     OW 4684   4.744   4.903   0.733
 1262SOL    HW1 4685   4.758   4.953   0.819
 1262SOL    HW2 4686   4.649   4.874   0.726
 1263SOL     OW 4687   6.868   2.292   0.696
 1263SOL    HW1 4688   6.964   2.266   0.685
 1263SOL    HW2 4689   6.815   2.254   0.620
 1264SOL     OW 4690   0.878   3.629   3.100
 1264SOL    HW1 4691   0.844   3.713   3.141
 1264SOL    HW2 4692   0.804   3.562   3.094
 1265SOL     OW 4693   6.823   3.712   4.953
 1265SOL    HW1 4694   6.828   3.811   4.962
 1265SOL    HW2 4695   6.754   3.688   4.884
 1266SOL     OW 4696   3.188   1.697   5.544
 1266SOL    HW1 4697   3.136   1.625   5.590
 1266SOL    HW2 4698   3.286   1.680   5.556
 1267SOL     OW 4699   6.891   5.193   3.335
 1267SOL    HW1 4700   6.819   5.148   3.389
 1267SOL    HW2 4701   6.854   5.219   3.246
 1268SOL     OW 4702   5.415   2.632   6.501
 1268SOL    HW1 4703   5.402   2.710   6.439
 1268SOL    HW2 4704   5.360   2.646   6.584
 1269SOL     OW 4705   6.634   6.202   4.848
 1269SOL    HW1 4706   6.709   6.232   4.789
 1269SOL    HW2 4707   6.548   6.240   4.815
 1270SOL     OW 4708   2.037   3.802   4.688
 1270SOL    HW1 4709   1.963   3.753   4.641
 1270SOL    HW2 4710   2.063   3.750   4.770
 1271SOL     OW 4711   3.202   1.564   3.094
 1271SOL    HW1 4712   3.259   1.645   3.103
 1271SOL    HW2 4713   3.161   1.541   3.182
 1272SOL     OW 4714   6.870   5.477   1.068
 1272SOL    HW1 4715   6.969   5.460   1.069
 1272SOL    HW2 4716   6.832   5.448   0.981
 1273SOL     OW 4717   2.688   4.515   6.775
 1273SOL    HW1 4718   2.610   4.564   6.738
 1273SOL    HW2 4719   2.736   4.468   6.700
 1274SOL     OW 4720   0.121   2.454   2.052
 1274SOL    HW1 4721   0.079   2.532   2.007
 1274SOL    HW2 4722   0.052   2.384   2.070
 1275SOL     OW 4723   4.753   0.832   4.340
 1275SOL    HW1 4724   4.748   0.734   4.358
 1275SOL    HW2 4725   4.746   0.882   4.426
 1276SOL     OW 4726   6.844   0.373   1.756
 1276SOL    HW1 4727   6.852   0.467   1.723
 1276SOL    HW2 4728   6.912   0.357   1.829
 1277SOL     OW 4729   0.185   1.066   4.769
 1277SOL    HW1 4730   0.180   1.162   4.796
 1277SOL    HW2 4731   0.277   1.045   4.737
 1278SOL     OW 4732   2.045   2.013   5.163
 1278SOL    HW1 4733   2.052   2.098   5.109
 1278SOL    HW2 4734   2.034   1.936   5.101
 1279SOL     OW 4735   2.995   6.523   0.859
 1279SOL    HW1 4736   3.055   6.502   0.936
 1279SOL    HW2 4737   2.991   6.444   0.798
 1280SOL     OW 4738   2.115   0.164   2.853
 1280SOL    HW1 4739   2.053   0.236   2.883
 1280SOL    HW2 4740   2.079   0.121   2.770
 1281SOL     OW 4741   1.880   6.220   3.180
 1281SOL    HW1 4742   1.874   6.147   3.112
 1281SOL    HW2 4743   1.921   6.301   3.138
 1282SOL     OW 4744   0.431   1.365   1.020
 1282SOL    HW1 4745   0.379   1.287   0.984
 1282SOL    HW2 4746   0.426   1.364   1.120
 1283SOL     OW 4747   5.597   4.406   6.100
 1283SOL    HW1 4748   5.578   4.343   6.024
 1283SOL    HW2 4749   5.691   4.396   6.130
 1284SOL     OW 4750   2.823   2.501   1.663
 1284SOL    HW1 4751   2.869   2.583   1.630
 1284SOL    HW2 4752   2.883   2.452   1.727
 1285SOL     OW 4753   5.125   2.871   6.355
 1285SOL    HW1 4754   5.106   2.953   6.301
 1285SOL    HW2 4755   5.071   2.873   6.439
 1286SOL     OW 4756   5.299   4.195   2.223
 1286SOL    HW1 4757   5.247   4.162   2.144
 1286SOL    HW2 4758   5.237   4.216   2.298
 1287SOL     OW 4759   6.114   5.012   6.582
 1287SOL    HW1 4760   6.028   5.043   6.543
 1287SOL    HW2 4761   6.138   5.069   6.660
 1288SOL     OW 4762   0.842   2.617   0.138
 1288SOL    HW1 4763   0.911   2.569   0.083
 1288SOL    HW2 4764   0.863   2.606   0.235
 1289SOL     OW 4765   0.202   6.347   2.506
 1289SOL    HW1 4766   0.276   6.282   2.524
 1289SOL    HW2 4767   0.241   6.438   2.491
 1290SOL     OW 4768   0.368   0.504   6.572
 1290SOL    HW1 4769   0.406   0.566   6.504
 1290SOL    HW2 4770   0.321   0.428   6.525
 1291SOL     OW 4771   1.893   5.018   6.137
 1291SOL    HW1 4772   1.926   4.951   6.203
 1291SOL    HW2 4773   1.897   4.979   6.045
 1292SOL     OW 4774   0.143   4.463   1.801
 1292SOL    HW1 4775   0.080   4.471   1.878
 1292SOL    HW2 4776   0.115   4.525   1.728
 1293SOL     OW 4777   2.138   1.521   6.766
 1293SOL    HW1 4778   2.219   1.576   6.787
 1293SOL    HW2 4779   2.094   1.556   6.684
 1294SOL     OW 4780   0.482   3.246   2.145
 1294SOL    HW1 4781   0.538   3.215   2.222
 1294SOL    HW2 4782   0.453   3.340   2.160
 1295SOL     OW 4783   5.858   3.308   2.436
 1295SOL    HW1 4784   5.894   3.232   2.381
 1295SOL    HW2 4785   5.765   3.286   2.466
 1296SOL     OW 4786   3.330   2.304   6.320
 1296SOL    HW1 4787   3.426   2.331   6.307
 1296SOL    HW2 4788   3.324   2.243   6.399
 1297SOL     OW 4789   6.252   1.613   5.711
 1297SOL    HW1 4790   6.162   1.655   5.719
 1297SOL    HW2 4791   6.321   1.677   5.747
 1298SOL     OW 4792   5.696   3.276   3.323
 1298SOL    HW1 4793   5.599   3.258   3.305
 1298SOL    HW2 4794   5.753   3.219   3.263
 1299SOL     OW 4795   1.723   4.265   3.562
 1299SOL    HW1 4796   1.760   4.196   3.624
 1299SOL    HW2 4797   1.789   4.284   3.490
 1300SOL     OW 4798   3.376   3.491   1.742
 1300SOL    HW1 4799   3.341   3.582   1.764
 1300SOL    HW2 4800   3.341   3.462   1.653
 1301SOL     OW 4801   1.046   6.726   3.861
 1301SOL    HW1 4802   0.968   6.685   3.908
 1301SOL    HW2 4803   1.111   6.655   3.834
 1302SOL     OW 4804   2.311   6.627   5.399
 1302SOL    HW1 4805   2.321   6.726   5.387
 1302SOL    HW2 4806   2.348   6.580   5.319
 1303SOL     OW 4807   3.983   1.717   1.072
 1303SOL    HW1 4808   4.073   1.759   1.059
 1303SOL    HW2 4809   3.990   1.645   1.142
 1304SOL     OW 4810   1.702   0.474   5.941
 1304SOL    HW1 4811   1.772   0.537   5.976
 1304SOL    HW2 4812   1.704   0.390   5.995
 1305SOL     OW 4813   5.298   6.347   4.837
 1305SOL    HW1 4814   5.241   6.273   4.870
 1305SOL    HW2 4815   5.286   6.428   4.895
 1306SOL     OW 4816   1.249   3.775   4.627
 1306SOL    HW1 4817   1.329   3.833   4.645
 1306SOL    HW2 4818   1.254   3.693   4.683
 1307SOL     OW 4819   1.452   3.038   4.893
 1307SOL    HW1 4820   1.360   3.037   4.853
 1307SOL    HW2 4821   1.456   2.973   4.969
 1308SOL     OW 4822   4.617   5.818   4.252
 1308SOL    HW1 4823   4.575   5.767   4.327
 1308SOL    HW2 4824   4.609   5.916   4.269
 1309SOL     OW 4825   5.804   2.994   5.433
 1309SOL    HW1 4826   5.739   3.004   5.508
 1309SOL    HW2 4827   5.762   2.944   5.357
 1310SOL     OW 4828   5.775   3.657   4.596
 1310SOL    HW1 4829   5.729   3.603   4.668
 1310SOL    HW2 4830   5.752   3.753   4.607
 1311SOL     OW 4831   5.981   0.146   3.947
 1311SOL    HW1 4832   6.076   0.158   3.918
 1311SOL    HW2 4833   5.924   0.216   3.904
 1312SOL     OW 4834   0.348   0.903   6.839
 1312SOL    HW1 4835   0.448   0.905   6.838
 1312SOL    HW2 4836   0.312   0.995   6.828
 1313SOL     OW 4837   3.428   5.893   5.086
 1313SOL    HW1 4838   3.416   5.973   5.145
 1313SOL    HW2 4839   3.342   5.872   5.041
 1314SOL     OW 4840   1.188   1.453   5.514
 1314SOL    HW1 4841   1.150   1.426   5.426
 1314SOL    HW2 4842   1.227   1.374   5.560
 1315SOL     OW 4843   1.398   1.320   0.660
 1315SOL    HW1 4844   1.359   1.231   0.635
 1315SOL    HW2 4845   1.325   1.386   0.675
 1316SOL     OW 4846   1.853   0.228   3.577
 1316SOL    HW1 4847   1.762   0.220   3.616
 1316SOL    HW2 4848   1.911   0.281   3.639
 1317SOL     OW 4849   0.751   4.468   4.349
 1317SOL    HW1 4850   0.707   4.378   4.358
 1317SOL    HW2 4851   0.805   4.486   4.431
 1318SOL     OW 4852   0.103   0.770   0.456
 1318SOL    HW1 4853   0.090   0.778   0.555
 1318SOL    HW2 4854   0.167   0.696   0.437
 1319SOL     OW 4855   6.677   0.841   0.783
 1319SOL    HW1 4856   6.588   0.853   0.826
 1319SOL    HW2 4857   6.699   0.921   0.728
 1320SOL     OW 4858   5.497   4.517   6.865
 1320SOL    HW1 4859   5.551   4.525   6.949
 1320SOL    HW2 4860   5.486   4.608   6.824
 1321SOL     OW 4861   4.415   3.095   6.975
 1321SOL    HW1 4862   4.476   3.017   6.985
 1321SOL    HW2 4863   4.401   3.115   6.877
 1322SOL     OW 4864   6.477   0.984   3.052
 1322SOL    HW1 4865   6.406   0.940   3.108
 1322SOL    HW2 4866   6.548   0.918   3.029
 1323SOL     OW 4867   5.637   1.786   5.509
 1323SOL    HW1 4868   5.573   1.787   5.586
 1323SOL    HW2 4869   5.697   1.706   5.516
 1324SOL     OW 4870   1.404   2.359   1.352
 1324SOL    HW1 4871   1.464   2.439   1.354
 1324SOL    HW2 4872   1.458   2.277   1.331
 1325SOL     OW 4873   1.730   6.553   3.444
 1325SOL    HW1 4874   1.661   6.566   3.373
 1325SOL    HW2 4875   1.796   6.627   3.440
 1326SOL     OW 4876   4.936   2.213   4.469
 1326SOL    HW1 4877   4.901   2.254   4.385
 1326SOL    HW2 4878   4.978   2.283   4.526
 1327SOL     OW 4879   2.746   5.352   2.904
 1327SOL    HW1 4880   2.706   5.299   2.829
 1327SOL    HW2 4881   2.751   5.449   2.878
 1328SOL     OW 4882   1.385   2.642   6.393
 1328SOL    HW1 4883   1.450   2.706   6.432
 1328SOL    HW2 4884   1.370   2.566   6.456
 1329SOL     OW 4885   0.125   1.511   0.424
 1329SOL    HW1 4886   0.053   1.575   0.453
 1329SOL    HW2 4887   0.215   1.552   0.440
 1330SOL     OW 4888   6.325   0.139   1.105
 1330SOL    HW1 4889   6.270   0.167   1.026
 1330SOL    HW2 4890   6.411   0.100   1.073
 1331SOL     OW 4891   5.759   0.999   2.855
 1331SOL    HW1 4892   5.809   0.936   2.795
 1331SOL    HW2 4893   5.671   0.958   2.880
 1332SOL     OW 4894   4.127   1.506   1.255
 1332SOL    HW1 4895   4.162   1.433   1.314
 1332SOL    HW2 4896   4.204   1.552   1.210
 1333SOL     OW 4897   3.627   4.155   5.283
 1333SOL    HW1 4898   3.710   4.137   5.335
 1333SOL    HW2 4899   3.651   4.181   5.189
 1334SOL     OW 4900   1.627   3.795   5.205
 1334SOL    HW1 4901   1.682   3.833   5.279
 1334SOL    HW2 4902   1.681   3.727   5.155
 1335SOL     OW 4903   2.069   6.461   2.757
 1335SOL    HW1 4904   2.167   6.471   2.741
 1335SOL    HW2 4905   2.047   6.365   2.775
 1336SOL     OW 4906   1.270   1.645   6.637
 1336SOL    HW1 4907   1.315   1.578   6.697
 1336SOL    HW2 4908   1.178   1.662   6.671
 1337SOL     OW 4909   2.032   2.730   6.480
 1337SOL    HW1 4910   2.024   2.636   6.447
 1337SOL    HW2 4911   2.123   2.743   6.519
 1338SOL     OW 4912   4.269   4.297   6.520
 1338SOL    HW1 4913   4.306   4.357   6.448
 1338SOL    HW2 4914   4.308   4.323   6.608
 1339SOL     OW 4915   6.979   4.977   6.500
 1339SOL    HW1 4916   6.888   4.937   6.512
 1339SOL    HW2 4917   6.993   5.001   6.404
 1340SOL     OW 4918   1.135   2.222   0.539
 1340SOL    HW1 4919   1.205   2.185   0.600
 1340SOL    HW2 4920   1.171   2.224   0.445
 1341SOL     OW 4921   3.877   0.840   4.518
 1341SOL    HW1 4922   3.901   0.846   4.421
 1341SOL    HW2 4923   3.839   0.927   4.549
 1342SOL     OW 4924   1.386   6.163   5.964
 1342SOL    HW1 4925   1.356   6.184   6.057
 1342SOL    HW2 4926   1.460   6.225   5.938
 1343SOL     OW 4927   3.478   6.333   2.599
 1343SOL    HW1 4928   3.566   6.380   2.591
 1343SOL    HW2 4929   3.490   6.235   2.584
 1344SOL     OW 4930   6.301   1.845   2.999
 1344SOL    HW1 4931   6.235   1.798   2.940
 1344SOL    HW2 4932   6.252   1.906   3.061
 1345SOL     OW 4933   0.661   1.105   2.952
 1345SOL    HW1 4934   0.680   1.051   2.870
 1345SOL    HW2 4935   0.712   1.191   2.947
 1346SOL     OW 4936   0.921   6.589   3.518
 1346SOL    HW1 4937   0.954   6.676   3.552
 1346SOL    HW2 4938   0.938   6.582   3.420
 1347SOL     OW 4939   6.615   6.701   3.249
 1347SOL    HW1 4940   6.581   6.747   3.331
 1347SOL    HW2 4941   6.666   6.767   3.193
 1348SOL     OW 4942   5.670   4.729   3.993
 1348SOL    HW1 4943   5.640   4.655   3.933
 1348SOL    HW2 4944   5.770   4.736   3.991
 1349SOL     OW 4945   4.232   2.685   0.127
 1349SOL    HW1 4946   4.168   2.760   0.142
 1349SOL    HW2 4947   4.220   2.649   0.034
 1350SOL     OW 4948   3.257   5.000   6.877
 1350SOL    HW1 4949   3.188   4.929   6.884
 1350SOL    HW2 4950   3.216   5.083   6.840
 1351SOL     OW 4951   0.439   0.100   3.151
 1351SOL    HW1 4952   0.468   0.114   3.057
 1351SOL    HW2 4953   0.357   0.044   3.154
 1352SOL     OW 4954   6.609   0.470   3.645
 1352SOL    HW1 4955   6.555   0.512   3.572
 1352SOL    HW2 4956   6.568   0.493   3.733
 1353SOL     OW 4957   6.997   4.072   4.895
 1353SOL    HW1 4958   6.974   4.166   4.919
 1353SOL    HW2 4959   0.039   4.037   4.958
 1354SOL     OW 4960   0.133   0.985   0.993
 1354SOL    HW1 4961   0.168   0.942   1.076
 1354SOL    HW2 4962   0.063   1.052   1.018
 1355SOL     OW 4963   5.242   4.298   0.313
 1355SOL    HW1 4964   5.162   4.256   0.269
 1355SOL    HW2 4965   5.239   4.278   0.411
 1356SOL     OW 4966   3.268   4.098   2.552
 1356SOL    HW1 4967   3.368   4.103   2.555
 1356SOL    HW2 4968   3.232   4.091   2.645
 1357SOL     OW 4969   2.881   3.076   6.543
 1357SOL    HW1 4970   2.879   2.985   6.500
 1357SOL    HW2 4971   2.856   3.068   6.639
 1358SOL     OW 4972   2.261   2.706   6.645
 1358SOL    HW1 4973   2.220   2.678   6.732
 1358SOL    HW2 4974   2.334   2.642   6.621
 1359SOL     OW 4975   5.967   3.796   1.503
 1359SOL    HW1 4976   5.896   3.865   1.516
 1359SOL    HW2 4977   6.032   3.828   1.435
 1360SOL     OW 4978   3.991   3.869   2.986
 1360SOL    HW1 4979   3.897   3.893   2.961
 1360SOL    HW2 4980   4.043   3.953   3.003
 1361SOL     OW 4981   1.164   0.185   6.168
 1361SOL    HW1 4982   1.076   0.140   6.182
 1361SOL    HW2 4983   1.231   0.147   6.231
 1362SOL     OW 4984   2.793   3.148   5.821
 1362SOL    HW1 4985   2.749   3.232   5.787
 1362SOL    HW2 4986   2.793   3.079   5.749
 1363SOL     OW 4987   6.787   5.983   3.125
 1363SOL    HW1 4988   6.803   5.975   3.224
 1363SOL    HW2 4989   6.821   6.071   3.093
 1364SOL     OW 4990   0.361   3.583   0.515
 1364SOL    HW1 4991   0.263   3.570   0.531
 1364SOL    HW2 4992   0.376   3.669   0.467
 1365SOL     OW 4993   1.160   3.493   5.635
 1365SOL    HW1 4994   1.128   3.535   5.720
 1365SOL    HW2 4995   1.257   3.516   5.622
 1366SOL     OW 4996   6.943   2.908   0.782
 1366SOL    HW1 4997   6.999   2.973   0.730
 1366SOL    HW2 4998   6.881   2.958   0.842
 1367SOL     OW 4999   1.193   4.254   3.750
 1367SOL    HW1 5000   1.266   4.297   3.803
 1367SOL    HW2 5001   1.129   4.323   3.719
 1368SOL     OW 5002   6.729   6.699   4.045
 1368SOL    HW1 5003   6.714   6.795   4.020
 1368SOL    HW2 5004   6.812   6.667   4.000
 1369SOL     OW 5005   1.754   5.831   2.054
 1369SOL    HW1 5006   1.664   5.859   2.087
 1369SOL    HW2 5007   1.753   5.828   1.954
 1370SOL     OW 5008   0.144   2.349   3.830
 1370SOL    HW1 5009   0.171   2.275   3.768
 1370SOL    HW2 5010   0.213   2.421   3.829
 1371SOL     OW 5011   6.262   1.147   4.582
 1371SOL    HW1 5012   6.264   1.060   4.630
 1371SOL    HW2 5013   6.259   1.222   4.648
 1372SOL     OW 5014   6.565   2.923   0.576
 1372SOL    HW1 5015   6.603   2.894   0.664
 1372SOL    HW2 5016   6.469   2.894   0.571
 1373SOL     OW 5017   4.487   2.320   1.616
 1373SOL    HW1 5018   4.496   2.222   1.627
 1373SOL    HW2 5019   4.508   2.366   1.702
 1374SOL     OW 5020   5.334   3.556   0.766
 1374SOL    HW1 5021   5.423   3.598   0.753
 1374SOL    HW2 5022   5.262   3.621   0.742
 1375SOL     OW 5023   6.734   5.686   5.817
 1375SOL    HW1 5024   6.709   5.776   5.853
 1375SOL    HW2 5025   6.728   5.688   5.717
 1376SOL     OW 5026   2.882   5.101   6.719
 1376SOL    HW1 5027   2.908   5.021   6.665
 1376SOL    HW2 5028   2.865   5.073   6.813
 1377SOL     OW 5029   0.889   2.958   3.617
 1377SOL    HW1 5030   0.902   3.016   3.697
 1377SOL    HW2 5031   0.973   2.907   3.599
 1378SOL     OW 5032   4.010   2.203   4.867
 1378SOL    HW1 5033   4.098   2.231   4.829
 1378SOL    HW2 5034   3.961   2.283   4.901
 1379SOL     OW 5035   5.036   5.376   2.044
 1379SOL    HW1 5036   4.949   5.425   2.044
 1379SOL    HW2 5037   5.103   5.427   2.098
 1380SOL     OW 5038   6.129   6.185   1.527
 1380SOL    HW1 5039   6.183   6.267   1.509
 1380SOL    HW2 5040   6.162   6.111   1.468
 1381SOL     OW 5041   5.712   2.154   6.091
 1381SOL    HW1 5042   5.680   2.248   6.077
 1381SOL    HW2 5043   5.773   2.151   6.169
 1382SOL     OW 5044   4.549   2.872   1.517
 1382SOL    HW1 5045   4.634   2.867   1.465
 1382SOL    HW2 5046   4.471   2.857   1.456
 1383SOL     OW 5047   1.715   6.244   1.732
 1383SOL    HW1 5048   1.791   6.289   1.778
 1383SOL    HW2 5049   1.667   6.309   1.674
 1384SOL     OW 5050   4.554   0.913   0.363
 1384SOL    HW1 5051   4.456   0.900   0.350
 1384SOL    HW2 5052   4.595   0.826   0.390
 1385SOL     OW 5053   1.874   4.667   3.583
 1385SOL    HW1 5054   1.913   4.585   3.541
 1385SOL    HW2 5055   1.774   4.661   3.580
 1386SOL     OW 5056   3.194   6.147   3.998
 1386SOL    HW1 5057   3.133   6.156   3.920
 1386SOL    HW2 5058   3.288   6.167   3.969
 1387SOL     OW 5059   3.686   5.824   1.881
 1387SOL    HW1 5060   3.668   5.892   1.809
 1387SOL    HW2 5061   3.615   5.830   1.951
 1388SOL     OW 5062   5.753   6.954   1.593
 1388SOL    HW1 5063   5.692   6.948   1.673
 1388SOL    HW2 5064   5.826   7.020   1.612
 1389SOL     OW 5065   5.945   1.183   3.237
 1389SOL    HW1 5066   5.985   1.094   3.258
 1389SOL    HW2 5067   5.898   1.219   3.318
 1390SOL     OW 5068   0.933   3.409   6.747
 1390SOL    HW1 5069   0.876   3.476   6.795
 1390SOL    HW2 5070   1.029   3.428   6.765
 1391SOL     OW 5071   6.753   0.825   3.931
 1391SOL    HW1 5072   6.711   0.813   4.021
 1391SOL    HW2 5073   6.789   0.918   3.923
 1392SOL     OW 5074   5.438   5.646   5.752
 1392SOL    HW1 5075   5.417   5.744   5.760
 1392SOL    HW2 5076   5.503   5.620   5.823
 1393SOL     OW 5077   6.477   5.670   5.441
 1393SOL    HW1 5078   6.494   5.575   5.416
 1393SOL    HW2 5079   6.419   5.673   5.522
 1394SOL     OW 5080   3.145   5.964   5.281
 1394SOL    HW1 5081   3.202   5.906   5.340
 1394SOL    HW2 5082   3.052   5.968   5.317
 1395SOL     OW 5083   2.542   4.635   6.186
 1395SOL    HW1 5084   2.470   4.567   6.198
 1395SOL    HW2 5085   2.620   4.593   6.140
 1396SOL     OW 5086   1.644   0.743   3.859
 1396SOL    HW1 5087   1.570   0.766   3.921
 1396SOL    HW2 5088   1.649   0.811   3.786
 1397SOL     OW 5089   0.118   0.795   4.129
 1397SOL    HW1 5090   0.200   0.849   4.111
 1397SOL    HW2 5091   0.073   0.830   4.212
 1398SOL     OW 5092   1.934   0.995   5.841
 1398SOL    HW1 5093   1.927   1.033   5.933
 1398SOL    HW2 5094   1.845   0.959   5.813
 1399SOL     OW 5095   3.880   6.681   1.205
 1399SOL    HW1 5096   3.894   6.757   1.269
 1399SOL    HW2 5097   3.841   6.603   1.254
 1400SOL     OW 5098   0.139   2.008   2.695
 1400SOL    HW1 5099   0.134   1.997   2.595
 1400SOL    HW2 5100   0.234   2.001   2.724
 1401SOL     OW 5101   0.096   1.728   5.060
 1401SOL    HW1 5102   0.181   1.737   5.113
 1401SOL    HW2 5103   0.040   1.810   5.072
 1402SOL     OW 5104   0.525   4.317   0.111
 1402SOL    HW1 5105   0.614   4.291   0.149
 1402SOL    HW2 5106   0.454   4.290   0.176
 1403SOL     OW 5107   2.970   1.649   1.562
 1403SOL    HW1 5108   3.032   1.654   1.640
 1403SOL    HW2 5109   3.017   1.609   1.484
 1404SOL     OW 5110   5.388   0.394   0.356
 1404SOL    HW1 5111   5.329   0.463   0.313
 1404SOL    HW2 5112   5.437   0.435   0.432
 1405SOL     OW 5113   2.273   3.923   1.099
 1405SOL    HW1 5114   2.210   3.989   1.140
 1405SOL    HW2 5115   2.293   3.851   1.166
 1406SOL     OW 5116   1.503   5.044   1.723
 1406SOL    HW1 5117   1.525   4.995   1.807
 1406SOL    HW2 5118   1.561   5.125   1.715
 1407SOL     OW 5119   0.561   2.020   1.880
 1407SOL    HW1 5120   0.661   2.016   1.889
 1407SOL    HW2 5121   0.532   1.952   1.813
 1408SOL     OW 5122   5.327   0.835   5.915
 1408SOL    HW1 5123   5.311   0.874   5.824
 1408SOL    HW2 5124   5.417   0.791   5.916
 1409SOL     OW 5125   0.716   0.016   5.658
 1409SOL    HW1 5126   0.679   0.022   5.566
 1409SOL    HW2 5127   0.640   0.019   5.724
 1410SOL     OW 5128   2.332   3.741   6.455
 1410SOL    HW1 5129   2.415   3.782   6.493
 1410SOL    HW2 5130   2.344   3.727   6.357
 1411SOL     OW 5131   2.948   6.154   3.054
 1411SOL    HW1 5132   2.971   6.061   3.083
 1411SOL    HW2 5133   2.986   6.220   3.119
 1412SOL     OW 5134   0.433   2.454   6.888
 1412SOL    HW1 5135   0.519   2.431   6.932
 1412SOL    HW2 5136   0.437   2.547   6.851
 1413SOL     OW 5137   1.890   1.059   4.694
 1413SOL    HW1 5138   1.839   0.982   4.732
 1413SOL    HW2 5139   1.828   1.120   4.646
 1414SOL     OW 5140   2.265   0.867   1.513
 1414SOL    HW1 5141   2.180   0.920   1.523
 1414SOL    HW2 5142   2.294   0.868   1.418
 1415SOL     OW 5143   2.512   0.528   4.589
 1415SOL    HW1 5144   2.475   0.621   4.597
 1415SOL    HW2 5145   2.438   0.462   4.604
 1416SOL     OW 5146   4.455   4.538   4.117
 1416SOL    HW1 5147   4.434   4.611   4.051
 1416SOL    HW2 5148   4.458   4.450   4.069
 1417SOL     OW 5149   2.097   2.081   0.225
 1417SOL    HW1 5150   2.002   2.093   0.196
 1417SOL    HW2 5151   2.127   2.162   0.274
 1418SOL     OW 5152   2.974   3.302   3.689
 1418SOL    HW1 5153   2.978   3.234   3.763
 1418SOL    HW2 5154   3.008   3.261   3.604
 1419SOL     OW 5155   3.208   6.563   4.748
 1419SOL    HW1 5156   3.150   6.588   4.671
 1419SOL    HW2 5157   3.179   6.475   4.785
 1420SOL     OW 5158   1.922   6.066   1.687
 1420SOL    HW1 5159   1.847   6.128   1.714
 1420SOL    HW2 5160   1.906   6.034   1.594
 1421SOL     OW 5161   2.216   3.055   3.169
 1421SOL    HW1 5162   2.149   3.025   3.237
 1421SOL    HW2 5163   2.171   3.108   3.098
 1422SOL     OW 5164   2.221   4.275   1.660
 1422SOL    HW1 5165   2.184   4.360   1.623
 1422SOL    HW2 5166   2.236   4.210   1.585
 1423SOL     OW 5167   4.709   6.169   2.572
 1423SOL    HW1 5168   4.808   6.162   2.561
 1423SOL    HW2 5169   4.688   6.184   2.669
 1424SOL     OW 5170   6.401   4.146   4.784
 1424SOL    HW1 5171   6.378   4.240   4.759
 1424SOL    HW2 5172   6.450   4.103   4.709
 1425SOL     OW 5173   1.278   6.189   4.375
 1425SOL    HW1 5174   1.265   6.111   4.314
 1425SOL    HW2 5175   1.373   6.220   4.369
 1426SOL     OW 5176   1.334   2.476   5.753
 1426SOL    HW1 5177   1.337   2.472   5.853
 1426SOL    HW2 5178   1.426   2.463   5.716
 1427SOL     OW 5179   0.253   6.850   2.974
 1427SOL    HW1 5180   0.348   6.861   3.001
 1427SOL    HW2 5181   0.249   6.828   2.876
 1428SOL     OW 5182   5.788   2.697   0.863
 1428SOL    HW1 5183   5.875   2.742   0.883
 1428SOL    HW2 5184   5.737   2.752   0.796
 1429SOL     OW 5185   5.990   1.881   0.079
 1429SOL    HW1 5186   6.000   1.967   0.029
 1429SOL    HW2 5187   5.898   1.874   0.117
 1430SOL     OW 5188   1.754   4.690   4.230
 1430SOL    HW1 5189   1.787   4.687   4.136
 1430SOL    HW2 5190   1.750   4.597   4.267
 1431SOL     OW 5191   1.872   1.515   0.848
 1431SOL    HW1 5192   1.926   1.452   0.903
 1431SOL    HW2 5193   1.782   1.475   0.830
 1432SOL     OW 5194   2.973   1.515   2.943
 1432SOL    HW1 5195   3.058   1.546   2.987
 1432SOL    HW2 5196   2.900   1.511   3.012
 1433SOL     OW 5197   4.689   1.414   3.851
 1433SOL    HW1 5198   4.620   1.408   3.923
 1433SOL    HW2 5199   4.753   1.337   3.860
 1434SOL     OW 5200   6.908   0.819   5.741
 1434SOL    HW1 5201   6.856   0.896   5.778
 1434SOL    HW2 5202   6.868   0.791   5.654
 1435SOL     OW 5203   5.704   1.193   2.552
 1435SOL    HW1 5204   5.773   1.175   2.621
 1435SOL    HW2 5205   5.704   1.119   2.485
 1436SOL     OW 5206   5.436   3.872   0.496
 1436SOL    HW1 5207   5.432   3.948   0.560
 1436SOL    HW2 5208   5.483   3.901   0.412
 1437SOL     OW 5209   2.412   2.521   3.584
 1437SOL    HW1 5210   2.381   2.528   3.679
 1437SOL    HW2 5211   2.355   2.579   3.526
 1438SOL     OW 5212   3.177   6.757   1.285
 1438SOL    HW1 5213   3.118   6.725   1.359
 1438SOL    HW2 5214   3.130   6.829   1.234
 1439SOL     OW 5215   6.963   5.665   1.462
 1439SOL    HW1 5216   7.015   5.581   1.480
 1439SOL    HW2 5217   7.005   5.715   1.387
 1440SOL     OW 5218   3.008   3.822   1.442
 1440SOL    HW1 5219   3.075   3.863   1.503
 1440SOL    HW2 5220   2.940   3.891   1.415
 1441SOL     OW 5221   5.817   0.521   2.333
 1441SOL    HW1 5222   5.734   0.577   2.339
 1441SOL    HW2 5223   5.800   0.442   2.275
 1442SOL     OW 5224   6.386   5.637   0.340
 1442SOL    HW1 5225   6.295   5.655   0.378
 1442SOL    HW2 5226   6.455   5.673   0.402
 1443SOL     OW 5227   0.856   2.497   2.541
 1443SOL    HW1 5228   0.852   2.576   2.602
 1443SOL    HW2 5229   0.918   2.516   2.465
 1444SOL     OW 5230   4.936   0.413   0.596
 1444SOL    HW1 5231   4.948   0.370   0.507
 1444SOL    HW2 5232   5.025   0.422   0.641
 1445SOL     OW 5233   0.945   3.136   2.462
 1445SOL    HW1 5234   0.866   3.102   2.513
 1445SOL    HW2 5235   1.026   3.135   2.520
 1446SOL     OW 5236   6.556   0.925   0.010
 1446SOL    HW1 5237   6.543   0.982   6.956
 1446SOL    HW2 5238   6.652   0.897   0.015
 1447SOL     OW 5239   5.950   5.317   4.094
 1447SOL    HW1 5240   6.042   5.308   4.058
 1447SOL    HW2 5241   5.925   5.414   4.100
 1448SOL     OW 5242   6.669   2.643   4.848
 1448SOL    HW1 5243   6.726   2.701   4.907
 1448SOL    HW2 5244   6.632   2.567   4.902
 1449SOL     OW 5245   1.107   4.310   5.071
 1449SOL    HW1 5246   1.059   4.324   5.158
 1449SOL    HW2 5247   1.191   4.258   5.088
 1450SOL     OW 5248   1.139   2.405   6.260
 1450SOL    HW1 5249   1.130   2.420   6.162
 1450SOL    HW2 5250   1.205   2.331   6.277
 1451SOL     OW 5251   1.191   6.042   2.591
 1451SOL    HW1 5252   1.148   6.089   2.513
 1451SOL    HW2 5253   1.273   6.092   2.619
 1452SOL     OW 5254   4.402   2.694   5.340
 1452SOL    HW1 5255   4.353   2.649   5.266
 1452SOL    HW2 5256   4.339   2.715   5.415
 1453SOL     OW 5257   0.365   4.280   5.493
 1453SOL    HW1 5258   0.293   4.242   5.435
 1453SOL    HW2 5259   0.331   4.362   5.539
 1454SOL     OW 5260   1.866   1.872   2.718
 1454SOL    HW1 5261   1.954   1.913   2.692
 1454SOL    HW2 5262   1.798   1.891   2.647
 1455SOL     OW 5263   1.616   6.356   2.588
 1455SOL    HW1 5264   1.598   6.386   2.682
 1455SOL    HW2 5265   1.677   6.423   2.544
 1456SOL     OW 5266   6.588   6.331   5.837
 1456SOL    HW1 5267   6.542   6.361   5.754
 1456SOL    HW2 5268   6.535   6.258   5.880
 1457SOL     OW 5269   1.339   4.335   0.032
 1457SOL    HW1 5270   1.309   4.245   0.061
 1457SOL    HW2 5271   1.370   4.387   0.111
 1458SOL     OW 5272   5.378   5.062   5.493
 1458SOL    HW1 5273   5.379   5.044   5.591
 1458SOL    HW2 5274   5.400   4.978   5.443
 1459SOL     OW 5275   4.332   6.964   6.237
 1459SOL    HW1 5276   4.310   6.978   6.334
 1459SOL    HW2 5277   4.288   6.880   6.205
 1460SOL     OW 5278   1.770   6.930   4.865
 1460SOL    HW1 5279   1.806   7.011   4.819
 1460SOL    HW2 5280   1.748   6.952   4.960
 1461SOL     OW 5281   0.348   4.236   2.992
 1461SOL    HW1 5282   0.371   4.174   2.916
 1461SOL    HW2 5283   0.411   4.219   3.069
 1462SOL     OW 5284   0.970   0.469   6.709
 1462SOL    HW1 5285   0.921   0.449   6.624
 1462SOL    HW2 5286   0.983   0.384   6.761
 1463SOL     OW 5287   0.764   4.566   5.793
 1463SOL    HW1 5288   0.748   4.643   5.855
 1463SOL    HW2 5289   0.694   4.565   5.721
 1464SOL     OW 5290   6.454   4.673   2.954
 1464SOL    HW1 5291   6.461   4.615   3.035
 1464SOL    HW2 5292   6.545   4.687   2.915
 1465SOL     OW 5293   2.249   1.810   4.036
 1465SOL    HW1 5294   2.284   1.723   4.003
 1465SOL    HW2 5295   2.317   1.882   4.020
 1466SOL     OW 5296   4.142   1.811   2.098
 1466SOL    HW1 5297   4.241   1.807   2.113
 1466SOL    HW2 5298   4.116   1.904   2.074
 1467SOL     OW 5299   2.099   1.330   4.294
 1467SOL    HW1 5300   2.040   1.384   4.355
 1467SOL    HW2 5301   2.142   1.390   4.227
 1468SOL     OW 5302   1.995   5.364   1.699
 1468SOL    HW1 5303   2.075   5.361   1.759
 1468SOL    HW2 5304   1.999   5.446   1.642
 1469SOL     OW 5305   6.840   6.184   2.764
 1469SOL    HW1 5306   6.791   6.214   2.846
 1469SOL    HW2 5307   6.914   6.248   2.744
 1470SOL     OW 5308   0.022   2.281   1.630
 1470SOL    HW1 5309   6.971   2.266   1.569
 1470SOL    HW2 5310   7.017   2.299   1.722
 1471SOL     OW 5311   1.098   0.330   0.154
 1471SOL    HW1 5312   1.112   0.246   0.206
 1471SOL    HW2 5313   1.066   0.307   0.062
 1472SOL     OW 5314   3.085   5.699   0.485
 1472SOL    HW1 5315   3.096   5.749   0.571
 1472SOL    HW2 5316   3.126   5.751   0.410
 1473SOL     OW 5317   2.888   5.726   4.908
 1473SOL    HW1 5318   2.883   5.694   5.003
 1473SOL    HW2 5319   2.810   5.787   4.890
 1474SOL     OW 5320   3.976   4.337   1.265
 1474SOL    HW1 5321   3.955   4.239   1.261
 1474SOL    HW2 5322   4.039   4.355   1.340
 1475SOL     OW 5323   5.053   1.404   6.775
 1475SOL    HW1 5324   5.071   1.475   6.707
 1475SOL    HW2 5325   4.968   1.357   6.752
 1476SOL     OW 5326   2.380   1.336   1.305
 1476SOL    HW1 5327   2.466   1.362   1.348
 1476SOL    HW2 5328   2.381   1.238   1.285
 1477SOL     OW 5329   3.698   7.013   0.384
 1477SOL    HW1 5330   3.786   6.975   0.355
 1477SOL    HW2 5331   3.625   6.950   0.358
 1478SOL     OW 5332   5.688   6.428   5.435
 1478SOL    HW1 5333   5.724   6.336   5.420
 1478SOL    HW2 5334   5.590   6.429   5.417
 1479SOL     OW 5335   3.382   3.218   1.858
 1479SOL    HW1 5336   3.353   3.314   1.848
 1479SOL    HW2 5337   3.430   3.206   1.944
 1480SOL     OW 5338   2.468   0.144   6.574
 1480SOL    HW1 5339   2.519   0.077   6.629
 1480SOL    HW2 5340   2.532   0.193   6.515
 1481SOL     OW 5341   5.743   3.186   5.787
 1481SOL    HW1 5342   5.765   3.117   5.856
 1481SOL    HW2 5343   5.689   3.145   5.714
 1482SOL     OW 5344   4.327   0.554   0.470
 1482SOL    HW1 5345   4.262   0.539   0.545
 1482SOL    HW2 5346   4.420   0.545   0.505
 1483SOL     OW 5347   5.646   2.727   5.718
 1483SOL    HW1 5348   5.686   2.661   5.654
 1483SOL    HW2 5349   5.563   2.688   5.758
 1484SOL     OW 5350   4.722   5.269   3.585
 1484SOL    HW1 5351   4.712   5.329   3.506
 1484SOL    HW2 5352   4.693   5.316   3.668
 1485SOL     OW 5353   5.207   0.646   3.957
 1485SOL    HW1 5354   5.262   0.729   3.942
 1485SOL    HW2 5355   5.182   0.606   3.869
 1486SOL     OW 5356   5.029   6.898   3.300
 1486SOL    HW1 5357   5.101   6.840   3.262
 1486SOL    HW2 5358   4.940   6.855   3.286
 1487SOL     OW 5359   0.357   1.394   6.436
 1487SOL    HW1 5360   0.298   1.418   6.513
 1487SOL    HW2 5361   0.389   1.300   6.446
 1488SOL     OW 5362   5.389   0.801   3.280
 1488SOL    HW1 5363   5.429   0.709   3.289
 1488SOL    HW2 5364   5.292   0.793   3.258
 1489SOL     OW 5365   4.119   4.233   5.945
 1489SOL    HW1 5366   4.208   4.187   5.939
 1489SOL    HW2 5367   4.083   4.250   5.854
 1490SOL     OW 5368   0.569   3.191   0.786
 1490SOL    HW1 5369   0.645   3.255   0.788
 1490SOL    HW2 5370   0.583   3.121   0.856
 1491SOL     OW 5371   6.588   4.133   2.729
 1491SOL    HW1 5372   6.685   4.131   2.749
 1491SOL    HW2 5373   6.570   4.084   2.643
 1492SOL     OW 5374   6.697   0.427   2.166
 1492SOL    HW1 5375   6.644   0.403   2.084
 1492SOL    HW2 5376   6.738   0.344   2.204
 1493SOL     OW 5377   3.687   0.797   6.618
 1493SOL    HW1 5378   3.634   0.838   6.544
 1493SOL    HW2 5379   3.736   0.717   6.583
 1494SOL     OW 5380   5.433   2.901   6.844
 1494SOL    HW1 5381   5.486   2.824   6.878
 1494SOL    HW2 5382   5.431   2.973   6.913
 1495SOL     OW 5383   6.683   4.219   4.612
 1495SOL    HW1 5384   6.600   4.252   4.566
 1495SOL    HW2 5385   6.764   4.256   4.566
 1496SOL     OW 5386   0.339   0.242   0.539
 1496SOL    HW1 5387   0.297   0.151   0.540
 1496SOL    HW2 5388   0.346   0.275   0.633
 1497SOL     OW 5389   4.865   3.144   2.508
 1497SOL    HW1 5390   4.929   3.218   2.487
 1497SOL    HW2 5391   4.835   3.151   2.603
 1498SOL     OW 5392   2.904   4.316   1.201
 1498SOL    HW1 5393   2.992   4.269   1.205
 1498SOL    HW2 5394   2.835   4.251   1.168
 1499SOL     OW 5395   0.856   3.875   6.614
 1499SOL    HW1 5396   0.835   3.887   6.517
 1499SOL    HW2 5397   0.898   3.959   6.650
 1500SOL     OW 5398   1.112   5.826   6.320
 1500SOL    HW1 5399   1.133   5.731   6.300
 1500SOL    HW2 5400   1.076   5.871   6.238
 1501SOL     OW 5401   5.949   2.033   6.652
 1501SOL    HW1 5402   6.048   2.043   6.642
 1501SOL    HW2 5403   5.904   2.061   6.566
 1502SOL     OW 5404   5.584   1.805   6.219
 1502SOL    HW1 5405   5.487   1.817   6.242
 1502SOL    HW2 5406   5.638   1.807   6.303
 1503SOL     OW 5407   0.602   2.892   3.047
 1503SOL    HW1 5408   0.598   2.836   3.130
 1503SOL    HW2 5409   0.535   2.966   3.054
 1504SOL     OW 5410   0.743   0.315   3.217
 1504SOL    HW1 5411   0.660   0.308   3.273
 1504SOL    HW2 5412   0.798   0.392   3.249
 1505SOL     OW 5413   5.171   6.945   5.471
 1505SOL    HW1 5414   5.131   6.998   5.396
 1505SOL    HW2 5415   5.268   6.927   5.450
 1506SOL     OW 5416   1.353   0.403   0.087
 1506SOL    HW1 5417   1.347   0.456   0.003
 1506SOL    HW2 5418   1.262   0.393   0.127
 1507SOL     OW 5419   6.939   1.676   4.454
 1507SOL    HW1 5420   6.892   1.665   4.367
 1507SOL    HW2 5421   7.021   1.732   4.441
 1508SOL     OW 5422   0.459   1.806   1.161
 1508SOL    HW1 5423   0.410   1.719   1.151
 1508SOL    HW2 5424   0.443   1.842   1.253
 1509SOL     OW 5425   4.608   1.846   4.470
 1509SOL    HW1 5426   4.510   1.845   4.448
 1509SOL    HW2 5427   4.639   1.752   4.486
 1510SOL     OW 5428   5.055   6.806   4.455
 1510SOL    HW1 5429   5.145   6.842   4.480
 1510SOL    HW2 5430   4.992   6.817   4.532
 1511SOL     OW 5431   3.843   3.666   4.229
 1511SOL    HW1 5432   3.840   3.566   4.217
 1511SOL    HW2 5433   3.750   3.699   4.245
 1512SOL     OW 5434   6.111   5.342   1.464
 1512SOL    HW1 5435   6.097   5.272   1.533
 1512SOL    HW2 5436   6.024   5.362   1.418
 1513SOL     OW 5437   3.235   0.201   4.547
 1513SOL    HW1 5438   3.268   0.126   4.490
 1513SOL    HW2 5439   3.189   0.163   4.627
 1514SOL     OW 5440   3.408   2.238   5.877
 1514SOL    HW1 5441   3.324   2.228   5.931
 1514SOL    HW2 5442   3.385   2.241   5.780
 1515SOL     OW 5443   6.700   1.356   2.020
 1515SOL    HW1 5444   6.642   1.302   1.960
 1515SOL    HW2 5445   6.644   1.397   2.092
 1516SOL     OW 5446   5.895   5.527   5.259
 1516SOL    HW1 5447   5.868   5.534   5.356
 1516SOL    HW2 5448   5.994   5.539   5.251
 1517SOL     OW 5449   4.232   6.372   3.103
 1517SOL    HW1 5450   4.153   6.384   3.044
 1517SOL    HW2 5451   4.206   6.394   3.197
 1518SOL     OW 5452   6.025   3.754   0.400
 1518SOL    HW1 5453   6.062   3.817   0.469
 1518SOL    HW2 5454   6.054   3.661   0.421
 1519SOL     OW 5455   6.848   4.102   1.144
 1519SOL    HW1 5456   6.801   4.036   1.202
 1519SOL    HW2 5457   6.909   4.054   1.081
 1520SOL     OW 5458   1.049   4.527   1.626
 1520SOL    HW1 5459   0.993   4.452   1.662
 1520SOL    HW2 5460   1.078   4.586   1.701
 1521SOL     OW 5461   1.618   4.555   6.864
 1521SOL    HW1 5462   1.543   4.513   6.812
 1521SOL    HW2 5463   1.617   4.654   6.850
 1522SOL     OW 5464   5.666   5.507   4.349
 1522SOL    HW1 5465   5.704   5.457   4.427
 1522SOL    HW2 5466   5.567   5.490   4.344
 1523SOL     OW 5467   3.804   6.793   6.805
 1523SOL    HW1 5468   3.733   6.727   6.829
 1523SOL    HW2 5469   3.763   6.871   6.758
 1524SOL     OW 5470   2.737   2.043   2.651
 1524SOL    HW1 5471   2.764   1.964   2.596
 1524SOL    HW2 5472   2.638   2.049   2.654
 1525SOL     OW 5473   5.560   3.043   0.967
 1525SOL    HW1 5474   5.643   3.097   0.979
 1525SOL    HW2 5475   5.544   2.987   1.048
 1526SOL     OW 5476   0.100   0.779   6.367
 1526SOL    HW1 5477   0.157   0.836   6.309
 1526SOL    HW2 5478   0.147   0.760   6.453
 1527SOL     OW 5479   3.737   0.720   4.734
 1527SOL    HW1 5480   3.638   0.739   4.734
 1527SOL    HW2 5481   3.781   0.776   4.663
 1528SOL     OW 5482   4.002   4.882   1.611
 1528SOL    HW1 5483   3.922   4.845   1.563
 1528SOL    HW2 5484   4.048   4.949   1.553
 1529SOL     OW 5485   4.819   1.263   6.665
 1529SOL    HW1 5486   4.765   1.233   6.744
 1529SOL    HW2 5487   4.873   1.186   6.630
 1530SOL     OW 5488   3.070   1.194   1.321
 1530SOL    HW1 5489   3.055   1.167   1.226
 1530SOL    HW2 5490   3.117   1.120   1.369
 1531SOL     OW 5491   4.850   0.574   4.775
 1531SOL    HW1 5492   4.823   0.485   4.810
 1531SOL    HW2 5493   4.839   0.643   4.847
 1532SOL     OW 5494   3.564   4.479   5.611
 1532SOL    HW1 5495   3.584   4.519   5.522
 1532SOL    HW2 5496   3.474   4.435   5.608
 1533SOL     OW 5497   5.270   5.724   0.259
 1533SOL    HW1 5498   5.322   5.802   0.295
 1533SOL    HW2 5499   5.288   5.716   0.161
 1534SOL     OW 5500   3.625   5.310   6.742
 1534SOL    HW1 5501   3.669   5.397   6.765
 1534SOL    HW2 5502   3.637   5.246   6.818
 1535SOL     OW 5503   5.505   6.025   4.863
 1535SOL    HW1 5504   5.423   5.992   4.817
 1535SOL    HW2 5505   5.526   6.118   4.832
 1536SOL     OW 5506   3.851   5.015   6.541
 1536SOL    HW1 5507   3.789   5.091   6.521
 1536SOL    HW2 5508   3.799   4.937   6.575
 1537SOL     OW 5509   4.308   5.588   3.537
 1537SOL    HW1 5510   4.259   5.512   3.579
 1537SOL    HW2 5511   4.294   5.671   3.591
 1538SOL     OW 5512   3.060   0.377   6.471
 1538SOL    HW1 5513   3.005   0.378   6.555
 1538SOL    HW2 5514   3.155   0.397   6.494
 1539SOL     OW 5515   4.810   2.961   2.316
 1539SOL    HW1 5516   4.780   3.014   2.236
 1539SOL    HW2 5517   4.831   3.023   2.391
 1540SOL     OW 5518   0.139   6.694   5.468
 1540SOL    HW1 5519   0.175   6.716   5.559
 1540SOL    HW2 5520   0.074   6.619   5.476
 1541SOL     OW 5521   3.103   3.748   4.065
 1541SOL    HW1 5522   3.162   3.765   4.143
 1541SOL    HW2 5523   3.133   3.803   3.987
 1542SOL     OW 5524   6.489   6.913   1.862
 1542SOL    HW1 5525   6.408   6.970   1.878
 1542SOL    HW2 5526   6.495   6.890   1.765
 1543SOL     OW 5527   3.731   5.601   5.733
 1543SOL    HW1 5528   3.659   5.631   5.795
 1543SOL    HW2 5529   3.755   5.506   5.753
 1544SOL     OW 5530   2.936   3.574   3.562
 1544SOL    HW1 5531   2.941   3.474   3.560
 1544SOL    HW2 5532   2.917   3.604   3.656
 1545SOL     OW 5533   5.246   0.605   2.711
 1545SOL    HW1 5534   5.147   0.601   2.697
 1545SOL    HW2 5535   5.281   0.513   2.724
 1546SOL     OW 5536   5.548   6.434   6.164
 1546SOL    HW1 5537   5.561   6.383   6.079
 1546SOL    HW2 5538   5.502   6.375   6.231
 1547SOL     OW 5539   1.443   3.633   1.538
 1547SOL    HW1 5540   1.489   3.570   1.474
 1547SOL    HW2 5541   1.372   3.583   1.587
 1548SOL     OW 5542   5.024   3.925   0.482
 1548SOL    HW1 5543   5.095   3.854   0.479
 1548SOL    HW2 5544   4.934   3.883   0.491
 1549SOL     OW 5545   4.396   1.399   3.099
 1549SOL    HW1 5546   4.458   1.388   3.021
 1549SOL    HW2 5547   4.392   1.313   3.151
 1550SOL     OW 5548   3.628   3.651   1.577
 1550SOL    HW1 5549   3.538   3.694   1.574
 1550SOL    HW2 5550   3.640   3.606   1.665
 1551SOL     OW 5551   1.593   4.821   6.789
 1551SOL    HW1 5552   1.493   4.817   6.786
 1551SOL    HW2 5553   1.631   4.804   6.698
 1552SOL     OW 5554   1.500   5.686   0.597
 1552SOL    HW1 5555   1.481   5.652   0.505
 1552SOL    HW2 5556   1.585   5.644   0.631
 1553SOL     OW 5557   6.869   1.783   6.401
 1553SOL    HW1 5558   6.770   1.798   6.393
 1553SOL    HW2 5559   6.906   1.764   6.310
 1554SOL     OW 5560   3.040   1.988   3.559
 1554SOL    HW1 5561   3.053   1.910   3.499
 1554SOL    HW2 5562   3.026   2.071   3.505
 1555SOL     OW 5563   5.880   3.554   6.856
 1555SOL    HW1 5564   5.843   3.559   6.763
 1555SOL    HW2 5565   5.860   3.463   6.894
 1556SOL     OW 5566   1.835   1.458   6.213
 1556SOL    HW1 5567   1.854   1.521   6.137
 1556SOL    HW2 5568   1.882   1.490   6.295
 1557SOL     OW 5569   2.159   4.215   5.999
 1557SOL    HW1 5570   2.163   4.186   5.903
 1557SOL    HW2 5571   2.064   4.214   6.030
 1558SOL     OW 5572   6.234   0.741   4.352
 1558SOL    HW1 5573   6.269   0.802   4.280
 1558SOL    HW2 5574   6.305   0.726   4.420
 1559SOL     OW 5575   1.743   3.484   6.355
 1559SOL    HW1 5576   1.652   3.502   6.392
 1559SOL    HW2 5577   1.792   3.423   6.417
 1560SOL     OW 5578   6.993   0.314   6.048
 1560SOL    HW1 5579   6.990   0.217   6.072
 1560SOL    HW2 5580   0.046   0.332   5.993
 1561SOL     OW 5581   4.881   6.423   3.631
 1561SOL    HW1 5582   4.851   6.330   3.653
 1561SOL    HW2 5583   4.916   6.467   3.713
 1562SOL     OW 5584   4.994   6.233   2.552
 1562SOL    HW1 5585   5.028   6.310   2.498
 1562SOL    HW2 5586   5.032   6.238   2.645
 1563SOL     OW 5587   2.887   0.598   5.451
 1563SOL    HW1 5588   2.980   0.601   5.415
 1563SOL    HW2 5589   2.881   0.655   5.533
 1564SOL     OW 5590   1.164   0.351   3.241
 1564SOL    HW1 5591   1.236   0.296   3.284
 1564SOL    HW2 5592   1.130   0.304   3.160
 1565SOL     OW 5593   4.635   4.246   2.906
 1565SOL    HW1 5594   4.640   4.265   2.808
 1565SOL    HW2 5595   4.721   4.273   2.950
 1566SOL     OW 5596   5.587   3.935   3.221
 1566SOL    HW1 5597   5.537   4.021   3.231
 1566SOL    HW2 5598   5.543   3.879   3.151
 1567SOL     OW 5599   6.008   6.223   0.583
 1567SOL    HW1 5600   6.038   6.303   0.532
 1567SOL    HW2 5601   5.975   6.252   0.673
 1568SOL     OW 5602   1.136   0.152   0.370
 1568SOL    HW1 5603   1.181   0.156   0.459
 1568SOL    HW2 5604   1.039   0.172   0.381
 1569SOL     OW 5605   4.537   6.118   3.197
 1569SOL    HW1 5606   4.447   6.162   3.193
 1569SOL    HW2 5607   4.525   6.020   3.214
 1570SOL     OW 5608   2.194   0.479   0.646
 1570SOL    HW1 5609   2.179   0.576   0.668
 1570SOL    HW2 5610   2.258   0.471   0.570
 1571SOL     OW 5611   5.787   3.250   1.006
 1571SOL    HW1 5612   5.833   3.264   1.094
 1571SOL    HW2 5613   5.761   3.339   0.968
 1572SOL     OW 5614   0.494   0.361   2.345
 1572SOL    HW1 5615   0.490   0.264   2.369
 1572SOL    HW2 5616   0.546   0.411   2.415
 1573SOL     OW 5617   4.776   1.160   1.604
 1573SOL    HW1 5618   4.749   1.234   1.542
 1573SOL    HW2 5619   4.871   1.174   1.634
 1574SOL     OW 5620   0.212   1.964   1.585
 1574SOL    HW1 5621   0.127   1.935   1.628
 1574SOL    HW2 5622   0.242   2.051   1.625
 1575SOL     OW 5623   2.169   1.773   0.570
 1575SOL    HW1 5624   2.127   1.683   0.583
 1575SOL    HW2 5625   2.237   1.768   0.496
 1576SOL     OW 5626   6.197   6.280   4.208
 1576SOL    HW1 5627   6.216   6.378   4.196
 1576SOL    HW2 5628   6.101   6.262   4.187
 1577SOL     OW 5629   2.584   1.480   4.644
 1577SOL    HW1 5630   2.619   1.452   4.733
 1577SOL    HW2 5631   2.485   1.463   4.640
 1578SOL     OW 5632   6.302   3.349   5.682
 1578SOL    HW1 5633   6.233   3.418   5.659
 1578SOL    HW2 5634   6.311   3.285   5.606
 1579SOL     OW 5635   0.204   1.474   3.323
 1579SOL    HW1 5636   0.148   1.523   3.390
 1579SOL    HW2 5637   0.288   1.442   3.368
 1580SOL     OW 5638   2.871   4.008   5.274
 1580SOL    HW1 5639   2.906   4.098   5.248
 1580SOL    HW2 5640   2.772   4.013   5.287
 1581SOL     OW 5641   6.886   4.423   4.355
 1581SOL    HW1 5642   6.853   4.512   4.387
 1581SOL    HW2 5643   6.948   4.436   4.278
 1582SOL     OW 5644   1.340   6.045   4.674
 1582SOL    HW1 5645   1.291   6.119   4.628
 1582SOL    HW2 5646   1.339   5.963   4.616
 1583SOL     OW 5647   1.814   2.302   3.901
 1583SOL    HW1 5648   1.889   2.290   3.966
 1583SOL    HW2 5649   1.744   2.232   3.917
 1584SOL     OW 5650   2.140   6.956   4.835
 1584SOL    HW1 5651   2.057   6.900   4.840
 1584SOL    HW2 5652   2.217   6.898   4.809
 1585SOL     OW 5653   5.591   1.479   3.428
 1585SOL    HW1 5654   5.589   1.552   3.360
 1585SOL    HW2 5655   5.586   1.519   3.520
 1586SOL     OW 5656   4.009   3.881   2.216
 1586SOL    HW1 5657   4.094   3.837   2.247
 1586SOL    HW2 5658   4.031   3.953   2.150
 1587SOL     OW 5659   2.866   5.322   6.242
 1587SOL    HW1 5660   2.852   5.295   6.147
 1587SOL    HW2 5661   2.960   5.351   6.255
 1588SOL     OW 5662   5.046   1.577   3.605
 1588SOL    HW1 5663   5.135   1.622   3.599
 1588SOL    HW2 5664   5.034   1.517   3.526
 1589SOL     OW 5665   5.722   4.201   3.540
 1589SOL    HW1 5666   5.665   4.121   3.559
 1589SOL    HW2 5667   5.786   4.180   3.467
 1590SOL     OW 5668   1.720   6.647   7.015
 1590SOL    HW1 5669   1.803   6.691   6.980
 1590SOL    HW2 5670   1.727   6.548   7.002
 1591SOL     OW 5671   1.102   5.126   3.219
 1591SOL    HW1 5672   1.145   5.185   3.287
 1591SOL    HW2 5673   1.140   5.034   3.227
 1592SOL     OW 5674   2.584   4.085   1.683
 1592SOL    HW1 5675   2.536   4.139   1.752
 1592SOL    HW2 5676   2.614   4.146   1.609
 1593SOL     OW 5677   1.119   6.575   4.328
 1593SOL    HW1 5678   1.186   6.519   4.280
 1593SOL    HW2 5679   1.044   6.516   4.361
 1594SOL     OW 5680   0.420   5.189   3.705
 1594SOL    HW1 5681   0.461   5.114   3.758
 1594SOL    HW2 5682   0.357   5.151   3.638
 1595SOL     OW 5683   0.384   4.799   6.451
 1595SOL    HW1 5684   0.354   4.789   6.356
 1595SOL    HW2 5685   0.316   4.758   6.512
 1596SOL     OW 5686   1.352   4.012   5.462
 1596SOL    HW1 5687   1.294   3.983   5.385
 1596SOL    HW2 5688   1.363   3.935   5.525
 1597SOL     OW 5689   2.449   5.551   0.521
 1597SOL    HW1 5690   2.393   5.633   0.535
 1597SOL    HW2 5691   2.395   5.470   0.544
 1598SOL     OW 5692   0.476   3.931   0.162
 1598SOL    HW1 5693   0.561   3.978   0.141
 1598SOL    HW2 5694   0.469   3.847   0.108
 1599SOL     OW 5695   4.626   3.424   5.717
 1599SOL    HW1 5696   4.708   3.475   5.689
 1599SOL    HW2 5697   4.652   3.351   5.780
 1600SOL     OW 5698   5.163   1.789   4.497
 1600SOL    HW1 5699   5.101   1.862   4.526
 1600SOL    HW2 5700   5.236   1.778   4.565
 1601SOL     OW 5701   1.699   4.679   4.625
 1601SOL    HW1 5702   1.781   4.636   4.664
 1601SOL    HW2 5703   1.658   4.740   4.693
 1602SOL     OW 5704   1.450   5.767   4.047
 1602SOL    HW1 5705   1.514   5.712   3.993
 1602SOL    HW2 5706   1.356   5.739   4.025
 1603SOL     OW 5707   1.396   6.378   2.033
 1603SOL    HW1 5708   1.330   6.313   2.070
 1603SOL    HW2 5709   1.349   6.464   2.011
 1604SOL     OW 5710   5.786   5.171   6.824
 1604SOL    HW1 5711   5.689   5.149   6.814
 1604SOL    HW2 5712   5.837   5.141   6.743
 1605SOL     OW 5713   6.314   0.286   1.988
 1605SOL    HW1 5714   6.370   0.368   1.977
 1605SOL    HW2 5715   6.242   0.285   1.919
 1606SOL     OW 5716   4.056   1.147   5.231
 1606SOL    HW1 5717   3.974   1.121   5.282
 1606SOL    HW2 5718   4.029   1.198   5.150
 1607SOL     OW 5719   5.236   2.515   1.138
 1607SOL    HW1 5720   5.210   2.421   1.116
 1607SOL    HW2 5721   5.154   2.569   1.157
 1608SOL     OW 5722   1.576   0.823   6.204
 1608SOL    HW1 5723   1.519   0.905   6.206
 1608SOL    HW2 5724   1.548   0.765   6.127
 1609SOL     OW 5725   5.920   2.049   6.370
 1609SOL    HW1 5726   6.011   2.088   6.363
 1609SOL    HW2 5727   5.906   1.982   6.297
 1610SOL     OW 5728   5.765   4.017   5.313
 1610SOL    HW1 5729   5.806   4.034   5.223
 1610SOL    HW2 5730   5.680   3.966   5.301
 1611SOL     OW 5731   4.144   3.380   2.116
 1611SOL    HW1 5732   4.222   3.323   2.090
 1611SOL    HW2 5733   4.106   3.423   2.034
 1612SOL     OW 5734   2.832   1.266   5.641
 1612SOL    HW1 5735   2.734   1.281   5.631
 1612SOL    HW2 5736   2.861   1.194   5.578
 1613SOL     OW 5737   2.353   5.400   0.948
 1613SOL    HW1 5738   2.350   5.336   1.025
 1613SOL    HW2 5739   2.412   5.477   0.971
 1614SOL     OW 5740   6.905   3.791   0.433
 1614SOL    HW1 5741   6.883   3.885   0.407
 1614SOL    HW2 5742   6.821   3.738   0.442
 1615SOL     OW 5743   0.018   4.655   1.635
 1615SOL    HW1 5744   0.080   4.724   1.674
 1615SOL    HW2 5745   7.005   4.691   1.551
 1616SOL     OW 5746   4.228   1.769   5.925
 1616SOL    HW1 5747   4.154   1.822   5.882
 1616SOL    HW2 5748   4.253   1.812   6.012
 1617SOL     OW 5749   5.675   0.562   2.050
 1617SOL    HW1 5750   5.685   0.465   2.026
 1617SOL    HW2 5751   5.765   0.606   2.046
 1618SOL     OW 5752   0.323   3.825   1.422
 1618SOL    HW1 5753   0.273   3.852   1.504
 1618SOL    HW2 5754   0.259   3.793   1.352
 1619SOL     OW 5755   1.573   3.119   3.746
 1619SOL    HW1 5756   1.543   3.034   3.789
 1619SOL    HW2 5757   1.525   3.196   3.787
 1620SOL     OW 5758   2.160   5.494   0.520
 1620SOL    HW1 5759   2.204   5.536   0.441
 1620SOL    HW2 5760   2.083   5.551   0.549
 1621SOL     OW 5761   0.234   0.758   6.590
 1621SOL    HW1 5762   0.276   0.673   6.624
 1621SOL    HW2 5763   0.239   0.828   6.661
 1622SOL     OW 5764   1.564   2.075   4.987
 1622SOL    HW1 5765   1.531   2.010   5.056
 1622SOL    HW2 5766   1.651   2.043   4.950
 1623SOL     OW 5767   2.638   2.903   6.436
 1623SOL    HW1 5768   2.704   2.965   6.395
 1623SOL    HW2 5769   2.629   2.821   6.380
 1624SOL     OW 5770   2.460   0.739   6.547
 1624SOL    HW1 5771   2.436   0.815   6.607
 1624SOL    HW2 5772   2.518   0.773   6.472
 1625SOL     OW 5773   1.033   5.651   2.604
 1625SOL    HW1 5774   1.097   5.588   2.559
 1625SOL    HW2 5775   0.968   5.598   2.658
 1626SOL     OW 5776   2.335   2.042   6.664
 1626SOL    HW1 5777   2.399   2.105   6.707
 1626SOL    HW2 5778   2.243   2.082   6.663
 1627SOL     OW 5779   6.406   1.655   4.521
 1627SOL    HW1 5780   6.465   1.634   4.599
 1627SOL    HW2 5781   6.456   1.712   4.455
 1628SOL     OW 5782   3.817   4.964   0.227
 1628SOL    HW1 5783   3.831   4.885   0.166
 1628SOL    HW2 5784   3.903   5.015   0.236
 1629SOL     OW 5785   2.649   2.473   4.554
 1629SOL    HW1 5786   2.645   2.456   4.653
 1629SOL    HW2 5787   2.735   2.436   4.518
 1630SOL     OW 5788   0.459   5.943   5.451
 1630SOL    HW1 5789   0.539   5.888   5.476
 1630SOL    HW2 5790   0.380   5.914   5.503
 1631SOL     OW 5791   7.006   0.603   5.884
 1631SOL    HW1 5792   6.933   0.589   5.951
 1631SOL    HW2 5793   6.977   0.671   5.817
 1632SOL     OW 5794   6.880   1.359   6.787
 1632SOL    HW1 5795   6.911   1.441   6.834
 1632SOL    HW2 5796   6.825   1.303   6.849
 1633SOL     OW 5797   5.991   3.009   2.565
 1633SOL    HW1 5798   5.996   2.914   2.595
 1633SOL    HW2 5799   6.024   3.016   2.471
 1634SOL     OW 5800   4.126   6.077   6.066
 1634SOL    HW1 5801   4.029   6.096   6.050
 1634SOL    HW2 5802   4.176   6.086   5.980
 1635SOL     OW 5803   6.470   5.949   4.700
 1635SOL    HW1 5804   6.407   5.872   4.715
 1635SOL    HW2 5805   6.457   6.017   4.772
 1636SOL     OW 5806   2.787   4.746   1.514
 1636SOL    HW1 5807   2.821   4.691   1.590
 1636SOL    HW2 5808   2.712   4.805   1.547
 1637SOL     OW 5809   6.765   2.053   2.793
 1637SOL    HW1 5810   6.711   2.102   2.862
 1637SOL    HW2 5811   6.770   1.956   2.817
 1638SOL     OW 5812   0.295   3.650   3.962
 1638SOL    HW1 5813   0.207   3.613   3.931
 1638SOL    HW2 5814   0.288   3.749   3.973
 1639SOL     OW 5815   5.183   5.966   2.949
 1639SOL    HW1 5816   5.156   5.870   2.946
 1639SOL    HW2 5817   5.283   5.973   2.943
 1640SOL     OW 5818   5.748   2.305   0.184
 1640SOL    HW1 5819   5.673   2.364   0.214
 1640SOL    HW2 5820   5.832   2.332   0.232
 1641SOL     OW 5821   5.762   3.020   3.741
 1641SOL    HW1 5822   5.744   3.117   3.750
 1641SOL    HW2 5823   5.808   3.002   3.654
 1642SOL     OW 5824   6.984   3.535   6.840
 1642SOL    HW1 5825   0.020   3.612   6.845
 1642SOL    HW2 5826   6.893   3.565   6.868
 1643SOL     OW 5827   3.692   6.400   4.912
 1643SOL    HW1 5828   3.641   6.464   4.855
 1643SOL    HW2 5829   3.721   6.322   4.857
 1644SOL     OW 5830   2.688   2.764   1.466
 1644SOL    HW1 5831   2.653   2.670   1.464
 1644SOL    HW2 5832   2.758   2.772   1.538
 1645SOL     OW 5833   3.323   6.381   5.737
 1645SOL    HW1 5834   3.274   6.462   5.703
 1645SOL    HW2 5835   3.313   6.306   5.671
 1646SOL     OW 5836   2.975   4.890   1.349
 1646SOL    HW1 5837   2.895   4.857   1.399
 1646SOL    HW2 5838   2.984   4.841   1.262
 1647SOL     OW 5839   6.075   2.578   3.294
 1647SOL    HW1 5840   6.051   2.525   3.376
 1647SOL    HW2 5841   6.167   2.615   3.304
 1648SOL     OW 5842   5.223   6.309   1.794
 1648SOL    HW1 5843   5.317   6.341   1.777
 1648SOL    HW2 5844   5.226   6.213   1.823
 1649SOL     OW 5845   3.339   0.096   3.280
 1649SOL    HW1 5846   3.410   0.161   3.309
 1649SOL    HW2 5847   3.250   0.126   3.316
 1650SOL     OW 5848   2.834   6.863   4.523
 1650SOL    HW1 5849   2.811   6.958   4.504
 1650SOL    HW2 5850   2.796   6.804   4.451
 1651SOL     OW 5851   0.529   6.931   0.419
 1651SOL    HW1 5852   0.518   6.989   0.339
 1651SOL    HW2 5853   0.532   6.835   0.391
 1652SOL     OW 5854   1.775   1.758   0.902
 1652SOL    HW1 5855   1.805   1.662   0.898
 1652SOL    HW2 5856   1.704   1.768   0.972
 1653SOL     OW 5857   0.490   5.048   1.388
 1653SOL    HW1 5858   0.561   5.018   1.324
 1653SOL    HW2 5859   0.428   5.111   1.341
 1654SOL     OW 5860   6.947   2.628   2.500
 1654SOL    HW1 5861   0.002   2.668   2.460
 1654SOL    HW2 5862   6.973   2.554   2.563
 1655SOL     OW 5863   5.437   4.012   6.070
 1655SOL    HW1 5864   5.432   4.072   6.150
 1655SOL    HW2 5865   5.527   3.967   6.068
 1656SOL     OW 5866   1.574   4.059   3.467
 1656SOL    HW1 5867   1.616   4.147   3.486
 1656SOL    HW2 5868   1.644   3.993   3.441
 1657SOL     OW 5869   0.721   0.931   5.630
 1657SOL    HW1 5870   0.668   0.850   5.653
 1657SOL    HW2 5871   0.754   0.923   5.536
 1658SOL     OW 5872   6.572   6.660   2.825
 1658SOL    HW1 5873   6.550   6.596   2.898
 1658SOL    HW2 5874   6.500   6.658   2.756
 1659SOL     OW 5875   3.598   2.187   6.376
 1659SOL    HW1 5876   3.656   2.260   6.341
 1659SOL    HW2 5877   3.591   2.195   6.476
 1660SOL     OW 5878   0.872   5.690   4.247
 1660SOL    HW1 5879   0.935   5.718   4.319
 1660SOL    HW2 5880   0.790   5.649   4.289
 1661SOL     OW 5881   3.420   1.850   2.438
 1661SOL    HW1 5882   3.436   1.941   2.475
 1661SOL    HW2 5883   3.395   1.856   2.342
 1662SOL     OW 5884   6.747   1.588   3.342
 1662SOL    HW1 5885   6.665   1.585   3.284
 1662SOL    HW2 5886   6.825   1.551   3.291
 1663SOL     OW 5887   2.733   0.243   2.934
 1663SOL    HW1 5888   2.652   0.261   2.990
 1663SOL    HW2 5889   2.784   0.166   2.974
 1664SOL     OW 5890   1.794   6.849   4.240
 1664SOL    HW1 5891   1.759   6.810   4.324
 1664SOL    HW2 5892   1.720   6.857   4.173
 1665SOL     OW 5893   0.085   1.180   2.890
 1665SOL    HW1 5894   0.066   1.187   2.792
 1665SOL    HW2 5895   0.117   1.269   2.924
 1666SOL     OW 5896   6.079   2.991   0.249
 1666SOL    HW1 5897   6.017   2.976   0.326
 1666SOL    HW2 5898   6.135   2.909   0.235
 1667SOL     OW 5899   5.583   0.430   0.542
 1667SOL    HW1 5900   5.650   0.366   0.504
 1667SOL    HW2 5901   5.623   0.522   0.546
 1668SOL     OW 5902   4.984   6.992   4.897
 1668SOL    HW1 5903   4.973   6.906   4.947
 1668SOL    HW2 5904   5.006   0.037   4.961
 1669SOL     OW 5905   6.027   6.505   0.288
 1669SOL    HW1 5906   6.127   6.502   0.283
 1669SOL    HW2 5907   5.998   6.599   0.306
 1670SOL     OW 5908   6.584   5.955   5.620
 1670SOL    HW1 5909   6.631   5.875   5.582
 1670SOL    HW2 5910   6.606   5.963   5.717
 1671SOL     OW 5911   4.455   2.551   1.267
 1671SOL    HW1 5912   4.393   2.551   1.189
 1671SOL    HW2 5913   4.406   2.578   1.349
 1672SOL     OW 5914   2.241   4.226   2.651
 1672SOL    HW1 5915   2.223   4.322   2.631
 1672SOL    HW2 5916   2.234   4.173   2.566
 1673SOL     OW 5917   0.066   3.045   4.559
 1673SOL    HW1 5918   0.109   2.998   4.635
 1673SOL    HW2 5919   0.051   2.981   4.484
 1674SOL     OW 5920   1.688   4.151   1.142
 1674SOL    HW1 5921   1.750   4.112   1.074
 1674SOL    HW2 5922   1.654   4.078   1.202
 1675SOL     OW 5923   4.717   0.704   6.553
 1675SOL    HW1 5924   4.690   0.769   6.482
 1675SOL    HW2 5925   4.817   0.697   6.555
 1676SOL     OW 5926   2.586   1.150   2.486
 1676SOL    HW1 5927   2.622   1.170   2.395
 1676SOL    HW2 5928   2.658   1.110   2.543
 1677SOL     OW 5929   5.230   1.829   5.266
 1677SOL    HW1 5930   5.133   1.821   5.292
 1677SOL    HW2 5931   5.238   1.882   5.182
 1678SOL     OW 5932   5.430   4.912   3.930
 1678SOL    HW1 5933   5.404   4.899   4.025
 1678SOL    HW2 5934   5.521   4.874   3.915
 1679SOL     OW 5935   1.776   3.852   5.438
 1679SOL    HW1 5936   1.866   3.822   5.470
 1679SOL    HW2 5937   1.737   3.916   5.504
 1680SOL     OW 5938   0.979   1.174   3.946
 1680SOL    HW1 5939   0.910   1.106   3.920
 1680SOL    HW2 5940   1.020   1.213   3.863
 1681SOL     OW 5941   6.294   5.219   1.308
 1681SOL    HW1 5942   6.230   5.265   1.370
 1681SOL    HW2 5943   6.364   5.284   1.279
 1682SOL     OW 5944   0.279   3.096   4.867
 1682SOL    HW1 5945   0.265   3.066   4.961
 1682SOL    HW2 5946   0.270   3.196   4.862
 1683SOL     OW 5947   3.864   4.972   0.771
 1683SOL    HW1 5948   3.871   4.992   0.673
 1683SOL    HW2 5949   3.905   4.883   0.790
 1684SOL     OW 5950   0.764   6.348   4.285
 1684SOL    HW1 5951   0.842   6.358   4.223
 1684SOL    HW2 5952   0.784   6.394   4.372
 1685SOL     OW 5953   1.930   0.897   6.354
 1685SOL    HW1 5954   1.883   0.943   6.278
 1685SOL    HW2 5955   1.991   0.827   6.318
 1686SOL     OW 5956   1.461   5.916   5.764
 1686SOL    HW1 5957   1.422   5.925   5.855
 1686SOL    HW2 5958   1.390   5.883   5.701
 1687SOL     OW 5959   1.864   3.153   1.912
 1687SOL    HW1 5960   1.845   3.223   1.843
 1687SOL    HW2 5961   1.925   3.191   1.982
 1688SOL     OW 5962   1.800   1.236   3.097
 1688SOL    HW1 5963   1.743   1.274   3.169
 1688SOL    HW2 5964   1.836   1.310   3.039
 1689SOL     OW 5965   3.286   1.677   2.207
 1689SOL    HW1 5966   3.278   1.578   2.220
 1689SOL    HW2 5967   3.381   1.705   2.220
 1690SOL     OW 5968   1.476   2.040   3.275
 1690SOL    HW1 5969   1.572   2.067   3.273
 1690SOL    HW2 5970   1.440   2.038   3.181
 1691SOL     OW 5971   5.397   4.108   3.035
 1691SOL    HW1 5972   5.313   4.076   3.079
 1691SOL    HW2 5973   5.455   4.153   3.103
 1692SOL     OW 5974   6.837   7.005   0.937
 1692SOL    HW1 5975   6.869   0.045   1.003
 1692SOL    HW2 5976   6.849   0.012   0.844
 1693SOL     OW 5977   2.048   2.171   3.150
 1693SOL    HW1 5978   2.045   2.132   3.059
 1693SOL    HW2 5979   2.059   2.270   3.143
 1694SOL     OW 5980   4.482   6.538   4.710
 1694SOL    HW1 5981   4.443   6.606   4.647
 1694SOL    HW2 5982   4.577   6.521   4.687
 1695SOL     OW 5983   2.810   1.875   4.957
 1695SOL    HW1 5984   2.820   1.969   4.922
 1695SOL    HW2 5985   2.729   1.833   4.916
 1696SOL     OW 5986   4.582   5.420   0.564
 1696SOL    HW1 5987   4.583   5.483   0.487
 1696SOL    HW2 5988   4.675   5.388   0.582
 1697SOL     OW 5989   0.850   6.877   1.189
 1697SOL    HW1 5990   0.856   6.822   1.272
 1697SOL    HW2 5991   0.872   6.972   1.211
 1698SOL     OW 5992   4.622   1.790   1.698
 1698SOL    HW1 5993   4.537   1.809   1.747
 1698SOL    HW2 5994   4.633   1.856   1.624
 1699SOL     OW 5995   2.692   2.231   1.191
 1699SOL    HW1 5996   2.700   2.151   1.132
 1699SOL    HW2 5997   2.643   2.206   1.275
 1700SOL     OW 5998   6.558   2.515   3.859
 1700SOL    HW1 5999   6.648   2.558   3.859
 1700SOL    HW2 6000   6.492   2.575   3.814
 1701SOL     OW 6001   5.824   2.638   4.780
 1701SOL    HW1 6002   5.861   2.724   4.816
 1701SOL    HW2 6003   5.896   2.569   4.777
 1702SOL     OW 6004   6.504   3.987   1.240
 1702SOL    HW1 6005   6.598   3.955   1.241
 1702SOL    HW2 6006   6.491   4.057   1.310
 1703SOL     OW 6007   3.119   4.059   1.911
 1703SOL    HW1 6008   3.096   4.022   2.001
 1703SOL    HW2 6009   3.052   4.028   1.844
 1704SOL     OW 6010   0.337   1.162   0.527
 1704SOL    HW1 6011   0.242   1.143   0.551
 1704SOL    HW2 6012   0.369   1.094   0.461
 1705SOL     OW 6013   3.409   2.246   1.759
 1705SOL    HW1 6014   3.398   2.327   1.701
 1705SOL    HW2 6015   3.492   2.255   1.813
 1706SOL     OW 6016   4.340   0.216   1.471
 1706SOL    HW1 6017   4.306   0.190   1.562
 1706SOL    HW2 6018   4.434   0.184   1.460
 1707SOL     OW 6019   4.233   1.496   1.924
 1707SOL    HW1 6020   4.328   1.510   1.952
 1707SOL    HW2 6021   4.230   1.453   1.834
 1708SOL     OW 6022   6.539   6.073   2.754
 1708SOL    HW1 6023   6.605   6.148   2.754
 1708SOL    HW2 6024   6.579   5.994   2.801
 1709SOL     OW 6025   2.403   6.604   2.107
 1709SOL    HW1 6026   2.418   6.591   2.205
 1709SOL    HW2 6027   2.368   6.519   2.067
 1710SOL     OW 6028   0.190   3.713   3.627
 1710SOL    HW1 6029   0.174   3.704   3.529
 1710SOL    HW2 6030   0.263   3.651   3.654
 1711SOL     OW 6031   1.377   4.461   5.130
 1711SOL    HW1 6032   1.450   4.450   5.198
 1711SOL    HW2 6033   1.417   4.490   5.043
 1712SOL     OW 6034   0.556   4.136   6.387
 1712SOL    HW1 6035   0.548   4.235   6.376
 1712SOL    HW2 6036   0.650   4.108   6.364
 1713SOL     OW 6037   2.091   2.173   1.521
 1713SOL    HW1 6038   2.042   2.111   1.582
 1713SOL    HW2 6039   2.155   2.121   1.465
 1714SOL     OW 6040   4.046   1.712   6.387
 1714SOL    HW1 6041   3.971   1.658   6.426
 1714SOL    HW2 6042   4.009   1.782   6.327
 1715SOL     OW 6043   0.007   3.074   3.382
 1715SOL    HW1 6044   6.998   3.167   3.370
 1715SOL    HW2 6045   0.025   3.058   3.479
 1716SOL     OW 6046   5.459   6.842   1.274
 1716SOL    HW1 6047   5.517   6.922   1.288
 1716SOL    HW2 6048   5.507   6.760   1.305
 1717SOL     OW 6049   2.463   6.153   6.533
 1717SOL    HW1 6050   2.458   6.234   6.476
 1717SOL    HW2 6051   2.501   6.077   6.481
 1718SOL     OW 6052   2.174   2.703   0.143
 1718SOL    HW1 6053   2.187   2.799   0.120
 1718SOL    HW2 6054   2.079   2.688   0.171
 1719SOL     OW 6055   2.121   3.256   1.182
 1719SOL    HW1 6056   2.157   3.177   1.232
 1719SOL    HW2 6057   2.146   3.340   1.229
 1720SOL     OW 6058   6.611   2.232   0.920
 1720SOL    HW1 6059   6.589   2.255   0.825
 1720SOL    HW2 6060   6.678   2.158   0.921
 1721SOL     OW 6061   1.234   6.379   2.685
 1721SOL    HW1 6062   1.301   6.306   2.701
 1721SOL    HW2 6063   1.222   6.392   2.587
 1722SOL     OW 6064   5.334   0.348   2.885
 1722SOL    HW1 6065   5.375   0.392   2.965
 1722SOL    HW2 6066   5.266   0.282   2.915
 1723SOL     OW 6067   6.465   2.121   3.336
 1723SOL    HW1 6068   6.394   2.155   3.274
 1723SOL    HW2 6069   6.535   2.191   3.349
 1724SOL     OW 6070   5.940   0.992   0.654
 1724SOL    HW1 6071   5.942   1.072   0.714
 1724SOL    HW2 6072   5.917   0.911   0.708
 1725SOL     OW 6073   3.357   4.348   6.953
 1725SOL    HW1 6074   3.399   4.436   6.979
 1725SOL    HW2 6075   3.378   4.280   7.022
 1726SOL     OW 6076   6.487   4.603   4.576
 1726SOL    HW1 6077   6.433   4.541   4.632
 1726SOL    HW2 6078   6.508   4.559   4.488
 1727SOL     OW 6079   3.661   3.728   4.512
 1727SOL    HW1 6080   3.756   3.752   4.534
 1727SOL    HW2 6081   3.600   3.774   4.576
 1728SOL     OW 6082   4.873   4.734   4.131
 1728SOL    HW1 6083   4.849   4.658   4.070
 1728SOL    HW2 6084   4.964   4.768   4.107
 1729SOL     OW 6085   1.937   4.157   3.359
 1729SOL    HW1 6086   2.026   4.140   3.316
 1729SOL    HW2 6087   1.897   4.070   3.389
 1730SOL     OW 6088   6.572   1.066   5.224
 1730SOL    HW1 6089   6.642   1.055   5.295
 1730SOL    HW2 6090   6.601   1.018   5.141
 1731SOL     OW 6091   1.539   4.373   2.188
 1731SOL    HW1 6092   1.632   4.338   2.200
 1731SOL    HW2 6093   1.488   4.359   2.273
 1732SOL     OW 6094   2.245   4.120   6.832
 1732SOL    HW1 6095   2.311   4.190   6.804
 1732SOL    HW2 6096   2.294   4.035   6.854
 1733SOL     OW 6097   1.879   3.626   2.451
 1733SOL    HW1 6098   1.978   3.625   2.460
 1733SOL    HW2 6099   1.853   3.657   2.360
 1734SOL     OW 6100   4.514   3.106   1.669
 1734SOL    HW1 6101   4.542   3.097   1.765
 1734SOL    HW2 6102   4.551   3.030   1.616
 1735SOL     OW 6103   5.974   5.730   1.503
 1735SOL    HW1 6104   5.967   5.678   1.588
 1735SOL    HW2 6105   5.908   5.805   1.505
 1736SOL     OW 6106   4.820   2.793   0.079
 1736SOL    HW1 6107   4.821   2.706   0.030
 1736SOL    HW2 6108   4.850   2.866   0.018
 1737SOL     OW 6109   2.264   0.526   3.862
 1737SOL    HW1 6110   2.359   0.514   3.893
 1737SOL    HW2 6111   2.210   0.568   3.934
 1738SOL     OW 6112   2.115   2.836   3.625
 1738SOL    HW1 6113   2.060   2.768   3.675
 1738SOL    HW2 6114   2.170   2.888   3.690
 1739SOL     OW 6115   4.804   2.308   4.752
 1739SOL    HW1 6116   4.769   2.388   4.703
 1739SOL    HW2 6117   4.730   2.268   4.807
 1740SOL     OW 6118   6.627   1.365   6.613
 1740SOL    HW1 6119   6.659   1.390   6.522
 1740SOL    HW2 6120   6.699   1.315   6.661
 1741SOL     OW 6121   1.866   1.063   2.678
 1741SOL    HW1 6122   1.835   0.973   2.646
 1741SOL    HW2 6123   1.952   1.087   2.633
 1742SOL     OW 6124   4.316   6.296   6.222
 1742SOL    HW1 6125   4.257   6.236   6.170
 1742SOL    HW2 6126   4.260   6.357   6.278
 1743SOL     OW 6127   1.705   0.722   2.019
 1743SOL    HW1 6128   1.620   0.669   2.018
 1743SOL    HW2 6129   1.707   0.783   1.939
 1744SOL     OW 6130   1.960   6.999   1.724
 1744SOL    HW1 6131   2.054   6.983   1.754
 1744SOL    HW2 6132   1.900   7.002   1.804
 1745SOL     OW 6133   6.585   1.798   4.342
 1745SOL    HW1 6134   6.654   1.758   4.282
 1745SOL    HW2 6135   6.505   1.825   4.288
 1746SOL     OW 6136   2.642   5.923   5.847
 1746SOL    HW1 6137   2.663   6.003   5.792
 1746SOL    HW2 6138   2.552   5.934   5.890
 1747SOL     OW 6139   4.852   6.905   1.951
 1747SOL    HW1 6140   4.879   6.870   2.041
 1747SOL    HW2 6141   4.852   7.005   1.952
 1748SOL     OW 6142   6.507   1.491   4.020
 1748SOL    HW1 6143   6.471   1.452   3.935
 1748SOL    HW2 6144   6.505   1.591   4.014
 1749SOL     OW 6145   4.032   6.534   5.746
 1749SOL    HW1 6146   4.060   6.610   5.687
 1749SOL    HW2 6147   3.936   6.544   5.770
 1750SOL     OW 6148   5.385   0.980   3.005
 1750SOL    HW1 6149   5.370   0.993   3.103
 1750SOL    HW2 6150   5.415   1.066   2.964
 1751SOL     OW 6151   3.310   5.133   4.551
 1751SOL    HW1 6152   3.379   5.075   4.594
 1751SOL    HW2 6153   3.252   5.078   4.491
 1752SOL     OW 6154   6.350   2.958   1.311
 1752SOL    HW1 6155   6.342   3.012   1.227
 1752SOL    HW2 6156   6.439   2.912   1.313
 1753SOL     OW 6157   0.431   0.782   0.485
 1753SOL    HW1 6158   0.378   0.853   0.439
 1753SOL    HW2 6159   0.466   0.717   0.417
 1754SOL     OW 6160   3.669   3.499   0.680
 1754SOL    HW1 6161   3.738   3.571   0.672
 1754SOL    HW2 6162   3.702   3.416   0.634
 1755SOL     OW 6163   5.139   4.909   1.762
 1755SOL    HW1 6164   5.106   4.925   1.855
 1755SOL    HW2 6165   5.220   4.966   1.746
 1756SOL     OW 6166   5.771   4.734   4.980
 1756SOL    HW1 6167   5.776   4.833   4.995
 1756SOL    HW2 6168   5.837   4.708   4.910
 1757SOL     OW 6169   1.992   6.669   4.608
 1757SOL    HW1 6170   2.049   6.589   4.592
 1757SOL    HW2 6171   1.978   6.681   4.707
 1758SOL     OW 6172   2.806   1.088   3.610
 1758SOL    HW1 6173   2.862   1.011   3.581
 1758SOL    HW2 6174   2.768   1.070   3.701
 1759SOL     OW 6175   0.620   4.969   6.223
 1759SOL    HW1 6176   0.563   4.888   6.210
 1759SOL    HW2 6177   0.595   5.038   6.155
 1760SOL     OW 6178   6.333   2.113   0.974
 1760SOL    HW1 6179   6.349   2.090   0.878
 1760SOL    HW2 6180   6.238   2.146   0.984
 1761SOL     OW 6181   6.856   6.867   0.403
 1761SOL    HW1 6182   6.852   6.779   0.450
 1761SOL    HW2 6183   6.763   6.901   0.389
 1762SOL     OW 6184   6.273   2.093   5.561
 1762SOL    HW1 6185   6.217   2.022   5.518
 1762SOL    HW2 6186   6.221   2.179   5.563
 1763SOL     OW 6187   1.779   3.804   4.039
 1763SOL    HW1 6188   1.779   3.902   4.059
 1763SOL    HW2 6189   1.873   3.769   4.044
 1764SOL     OW 6190   2.188   3.924   2.557
 1764SOL    HW1 6191   2.143   3.883   2.636
 1764SOL    HW2 6192   2.285   3.899   2.558
 1765SOL     OW 6193   3.072   1.640   6.948
 1765SOL    HW1 6194   3.101   1.557   6.901
 1765SOL    HW2 6195   3.025   1.617   0.005
 1766SOL     OW 6196   4.961   2.802   4.121
 1766SOL    HW1 6197   4.941   2.711   4.084
 1766SOL    HW2 6198   4.908   2.815   4.205
 1767SOL     OW 6199   5.560   3.742   2.836
 1767SOL    HW1 6200   5.466   3.773   2.830
 1767SOL    HW2 6201   5.565   3.658   2.889
 1768SOL     OW 6202   4.410   0.598   4.768
 1768SOL    HW1 6203   4.352   0.526   4.806
 1768SOL    HW2 6204   4.467   0.560   4.695
 1769SOL     OW 6205   4.272   2.332   4.198
 1769SOL    HW1 6206   4.196   2.328   4.133
 1769SOL    HW2 6207   4.236   2.349   4.290
 1770SOL     OW 6208   1.919   5.825   5.229
 1770SOL    HW1 6209   1.972   5.861   5.152
 1770SOL    HW2 6210   1.970   5.751   5.272
 1771SOL     OW 6211   2.993   5.809   6.595
 1771SOL    HW1 6212   2.967   5.713   6.606
 1771SOL    HW2 6213   3.092   5.817   6.598
 1772SOL     OW 6214   2.893   7.016   4.166
 1772SOL    HW1 6215   2.876   0.032   4.078
 1772SOL    HW2 6216   2.863   6.921   4.163
 1773SOL     OW 6217   2.799   5.124   5.507
 1773SOL    HW1 6218   2.738   5.045   5.500
 1773SOL    HW2 6219   2.841   5.126   5.597
 1774SOL     OW 6220   4.064   5.985   1.926
 1774SOL    HW1 6221   4.093   6.016   2.016
 1774SOL    HW2 6222   4.139   5.998   1.861
 1775SOL     OW 6223   1.470   3.991   3.699
 1775SOL    HW1 6224   1.470   3.897   3.733
 1775SOL    HW2 6225   1.473   3.990   3.599
 1776SOL     OW 6226   3.160   6.625   4.028
 1776SOL    HW1 6227   3.197   6.718   4.039
 1776SOL    HW2 6228   3.233   6.558   4.038
 1777SOL     OW 6229   3.682   5.214   6.495
 1777SOL    HW1 6230   3.651   5.248   6.583
 1777SOL    HW2 6231   3.675   5.287   6.427
 1778SOL     OW 6232   4.187   3.416   5.730
 1778SOL    HW1 6233   4.169   3.495   5.672
 1778SOL    HW2 6234   4.270   3.370   5.700
 1779SOL     OW 6235   4.684   0.930   4.590
 1779SOL    HW1 6236   4.682   1.029   4.581
 1779SOL    HW2 6237   4.591   0.894   4.585
 1780SOL     OW 6238   3.533   3.076   6.695
 1780SOL    HW1 6239   3.593   3.090   6.617
 1780SOL    HW2 6240   3.458   3.014   6.670
 1781SOL     OW 6241   4.085   5.776   3.154
 1781SOL    HW1 6242   4.094   5.864   3.107
 1781SOL    HW2 6243   4.124   5.704   3.096
 1782SOL     OW 6244   3.164   1.535   2.722
 1782SOL    HW1 6245   3.102   1.522   2.799
 1782SOL    HW2 6246   3.181   1.633   2.708
 1783SOL     OW 6247   1.921   5.703   5.790
 1783SOL    HW1 6248   1.970   5.740   5.711
 1783SOL    HW2 6249   1.968   5.622   5.824
 1784SOL     OW 6250   4.554   1.721   6.404
 1784SOL    HW1 6251   4.455   1.711   6.404
 1784SOL    HW2 6252   4.595   1.646   6.457
 1785SOL     OW 6253   5.909   4.144   3.379
 1785SOL    HW1 6254   5.978   4.119   3.447
 1785SOL    HW2 6255   5.952   4.150   3.289
 1786SOL     OW 6256   2.349   2.491   7.012
 1786SOL    HW1 6257   2.289   2.442   6.949
 1786SOL    HW2 6258   2.295   2.551   0.043
 1787SOL     OW 6259   2.874   1.101   5.369
 1787SOL    HW1 6260   2.925   1.062   5.293
 1787SOL    HW2 6261   2.779   1.070   5.365
 1788SOL     OW 6262   2.887   2.947   0.085
 1788SOL    HW1 6263   2.819   2.937   0.158
 1788SOL    HW2 6264   2.903   3.044   0.068
 1789SOL     OW 6265   6.058   1.805   3.154
 1789SOL    HW1 6266   6.058   1.710   3.122
 1789SOL    HW2 6267   6.131   1.817   3.221
 1790SOL     OW 6268   4.271   6.302   3.791
 1790SOL    HW1 6269   4.281   6.392   3.748
 1790SOL    HW2 6270   4.361   6.266   3.814
 1791SOL     OW 6271   5.713   0.439   2.925
 1791SOL    HW1 6272   5.622   0.418   2.960
 1791SOL    HW2 6273   5.740   0.531   2.953
 1792SOL     OW 6274   6.461   3.112   5.239
 1792SOL    HW1 6275   6.452   3.021   5.198
 1792SOL    HW2 6276   6.412   3.179   5.183
 1793SOL     OW 6277   6.299   0.089   3.395
 1793SOL    HW1 6278   6.260   0.146   3.467
 1793SOL    HW2 6279   6.290   0.135   3.307
 1794SOL     OW 6280   5.514   6.165   5.540
 1794SOL    HW1 6281   5.536   6.233   5.611
 1794SOL    HW2 6282   5.586   6.165   5.471
 1795SOL     OW 6283   1.341   1.792   0.530
 1795SOL    HW1 6284   1.399   1.792   0.612
 1795SOL    HW2 6285   1.277   1.868   0.535
 1796SOL     OW 6286   2.603   1.028   4.887
 1796SOL    HW1 6287   2.517   1.055   4.932
 1796SOL    HW2 6288   2.604   0.929   4.874
 1797SOL     OW 6289   1.430   6.894   0.517
 1797SOL    HW1 6290   1.505   6.828   0.506
 1797SOL    HW2 6291   1.440   6.941   0.605
 1798SOL     OW 6292   4.545   2.173   3.724
 1798SOL    HW1 6293   4.626   2.176   3.783
 1798SOL    HW2 6294   4.506   2.264   3.716
 1799SOL     OW 6295   6.947   2.680   5.402
 1799SOL    HW1 6296   6.991   2.591   5.394
 1799SOL    HW2 6297   6.930   2.700   5.499
 1800SOL     OW 6298   4.137   4.756   2.062
 1800SOL    HW1 6299   4.230   4.773   2.030
 1800SOL    HW2 6300   4.095   4.842   2.091
 1801SOL     OW 6301   0.121   0.007   1.666
 1801SOL    HW1 6302   0.195   0.071   1.647
 1801SOL    HW2 6303   0.132   6.953   1.610
 1802SOL     OW 6304   4.958   5.507   3.785
 1802SOL    HW1 6305   4.961   5.478   3.690
 1802SOL    HW2 6306   4.972   5.606   3.790
 1803SOL     OW 6307   0.543   5.738   6.816
 1803SOL    HW1 6308   0.538   5.643   6.784
 1803SOL    HW2 6309   0.516   5.800   6.743
 1804SOL     OW 6310   2.598   4.004   5.298
 1804SOL    HW1 6311   2.573   3.964   5.386
 1804SOL    HW2 6312   2.542   3.963   5.225
 1805SOL     OW 6313   5.848   4.309   6.109
 1805SOL    HW1 6314   5.851   4.235   6.041
 1805SOL    HW2 6315   5.903   4.283   6.188
 1806SOL     OW 6316   0.550   0.166   6.973
 1806SOL    HW1 6317   0.470   0.194   7.026
 1806SOL    HW2 6318   0.602   0.097   7.024
 1807SOL     OW 6319   5.268   2.809   5.066
 1807SOL    HW1 6320   5.283   2.880   4.998
 1807SOL    HW2 6321   5.183   2.827   5.116
 1808SOL     OW 6322   0.096   4.312   5.788
 1808SOL    HW1 6323   0.039   4.255   5.728
 1808SOL    HW2 6324   0.085   4.281   5.882
 1809SOL     OW 6325   2.006   2.279   5.043
 1809SOL    HW1 6326   2.077   2.346   5.062
 1809SOL    HW2 6327   2.023   2.237   4.954
 1810SOL     OW 6328   2.459   6.636   3.386
 1810SOL    HW1 6329   2.507   6.697   3.323
 1810SOL    HW2 6330   2.496   6.649   3.478
 1811SOL     OW 6331   6.160   5.426   3.696
 1811SOL    HW1 6332   6.134   5.465   3.785
 1811SOL    HW2 6333   6.233   5.481   3.656
 1812SOL     OW 6334   4.193   6.096   4.812
 1812SOL    HW1 6335   4.131   6.070   4.738
 1812SOL    HW2 6336   4.274   6.141   4.773
 1813SOL     OW 6337   6.137   4.494   0.863
 1813SOL    HW1 6338   6.184   4.575   0.896
 1813SOL    HW2 6339   6.113   4.506   0.766
 1814SOL     OW 6340   5.457   0.285   1.624
 1814SOL    HW1 6341   5.370   0.328   1.648
 1814SOL    HW2 6342   5.530   0.324   1.681
 1815SOL     OW 6343   0.625   1.918   2.547
 1815SOL    HW1 6344   0.568   1.927   2.466
 1815SOL    HW2 6345   0.716   1.955   2.528
 1816SOL     OW 6346   2.881   3.522   1.193
 1816SOL    HW1 6347   2.949   3.471   1.245
 1816SOL    HW2 6348   2.855   3.470   1.112
 1817SOL     OW 6349   2.557   0.161   2.669
 1817SOL    HW1 6350   2.585   0.202   2.756
 1817SOL    HW2 6351   2.583   0.065   2.667
 1818SOL     OW 6352   1.170   6.877   2.711
 1818SOL    HW1 6353   1.160   6.794   2.656
 1818SOL    HW2 6354   1.082   6.900   2.752
 1819SOL     OW 6355   1.316   4.025   1.891
 1819SOL    HW1 6356   1.345   4.117   1.916
 1819SOL    HW2 6357   1.370   3.958   1.941
 1820SOL     OW 6358   3.881   1.129   3.069
 1820SOL    HW1 6359   3.797   1.077   3.087
 1820SOL    HW2 6360   3.862   1.200   3.001
 1821SOL     OW 6361   0.818   1.265   1.928
 1821SOL    HW1 6362   0.732   1.310   1.952
 1821SOL    HW2 6363   0.812   1.229   1.835
 1822SOL     OW 6364   3.211   2.352   1.222
 1822SOL    HW1 6365   3.123   2.374   1.181
 1822SOL    HW2 6366   3.208   2.369   1.320
 1823SOL     OW 6367   3.371   5.787   3.530
 1823SOL    HW1 6368   3.388   5.714   3.464
 1823SOL    HW2 6369   3.327   5.864   3.484
 1824SOL     OW 6370   3.750   2.140   0.931
 1824SOL    HW1 6371   3.653   2.145   0.951
 1824SOL    HW2 6372   3.795   2.079   0.996
 1825SOL     OW 6373   1.500   0.522   1.989
 1825SOL    HW1 6374   1.509   0.425   2.013
 1825SOL    HW2 6375   1.425   0.562   2.041
 1826SOL     OW 6376   3.474   1.015   1.490
 1826SOL    HW1 6377   3.395   1.061   1.531
 1826SOL    HW2 6378   3.456   0.917   1.482
 1827SOL     OW 6379   0.228   4.965   2.194
 1827SOL    HW1 6380   0.308   4.906   2.205
 1827SOL    HW2 6381   0.230   5.036   2.264
 1828SOL     OW 6382   0.189   2.485   7.013
 1828SOL    HW1 6383   0.207   2.493   0.083
 1828SOL    HW2 6384   0.275   2.478   6.964
 1829SOL     OW 6385   4.675   0.138   2.758
 1829SOL    HW1 6386   4.658   0.235   2.775
 1829SOL    HW2 6387   4.704   0.124   2.664
 1830SOL     OW 6388   5.456   5.788   4.311
 1830SOL    HW1 6389   5.401   5.869   4.289
 1830SOL    HW2 6390   5.459   5.727   4.231
 1831SOL     OW 6391   5.956   0.212   3.181
 1831SOL    HW1 6392   5.964   0.133   3.242
 1831SOL    HW2 6393   6.019   0.284   3.212
 1832SOL     OW 6394   5.840   2.105   1.082
 1832SOL    HW1 6395   5.752   2.073   1.049
 1832SOL    HW2 6396   5.829   2.143   1.174
 1833SOL     OW 6397   5.657   0.974   5.400
 1833SOL    HW1 6398   5.581   1.025   5.359
 1833SOL    HW2 6399   5.690   0.906   5.335
 1834SOL     OW 6400   3.508   4.084   0.037
 1834SOL    HW1 6401   3.562   4.013   0.081
 1834SOL    HW2 6402   3.412   4.057   0.035
 1835SOL     OW 6403   1.646   4.431   1.787
 1835SOL    HW1 6404   1.683   4.394   1.873
 1835SOL    HW2 6405   1.564   4.379   1.762
 1836SOL     OW 6406   6.896   1.863   1.241
 1836SOL    HW1 6407   6.989   1.886   1.268
 1836SOL    HW2 6408   6.899   1.787   1.175
 1837SOL     OW 6409   0.635   2.490   3.760
 1837SOL    HW1 6410   0.690   2.561   3.715
 1837SOL    HW2 6411   0.686   2.454   3.838
 1838SOL     OW 6412   0.241   1.887   3.739
 1838SOL    HW1 6413   0.170   1.817   3.741
 1838SOL    HW2 6414   0.201   1.975   3.715
 1839SOL     OW 6415   4.666   2.650   4.904
 1839SOL    HW1 6416   4.601   2.597   4.959
 1839SOL    HW2 6417   4.663   2.746   4.932
 1840SOL     OW 6418   3.442   6.301   1.528
 1840SOL    HW1 6419   3.525   6.257   1.493
 1840SOL    HW2 6420   3.465   6.391   1.565
 1841SOL     OW 6421   2.023   3.139   4.682
 1841SOL    HW1 6422   2.045   3.231   4.713
 1841SOL    HW2 6423   2.091   3.075   4.716
 1842SOL     OW 6424   0.839   5.583   0.262
 1842SOL    HW1 6425   0.809   5.679   0.255
 1842SOL    HW2 6426   0.939   5.579   0.260
 1843SOL     OW 6427   1.525   2.425   4.379
 1843SOL    HW1 6428   1.558   2.500   4.321
 1843SOL    HW2 6429   1.537   2.449   4.475
 1844SOL     OW 6430   3.910   0.994   5.942
 1844SOL    HW1 6431   4.001   1.007   5.903
 1844SOL    HW2 6432   3.874   1.081   5.973
 1845SOL     OW 6433   2.511   0.415   6.267
 1845SOL    HW1 6434   2.588   0.459   6.314
 1845SOL    HW2 6435   2.536   0.321   6.243
 1846SOL     OW 6436   3.707   1.996   6.925
 1846SOL    HW1 6437   3.759   2.080   6.917
 1846SOL    HW2 6438   3.716   1.958   7.017
 1847SOL     OW 6439   1.351   1.063   6.767
 1847SOL    HW1 6440   1.369   1.037   6.673
 1847SOL    HW2 6441   1.278   1.131   6.769
 1848SOL     OW 6442   1.960   6.193   2.847
 1848SOL    HW1 6443   2.042   6.142   2.825
 1848SOL    HW2 6444   1.881   6.131   2.850
 1849SOL     OW 6445   4.110   1.580   0.314
 1849SOL    HW1 6446   4.028   1.598   0.368
 1849SOL    HW2 6447   4.087   1.580   0.217
 1850SOL     OW 6448   6.515   2.347   2.723
 1850SOL    HW1 6449   6.445   2.378   2.788
 1850SOL    HW2 6450   6.515   2.247   2.719
 1851SOL     OW 6451   0.229   1.489   0.821
 1851SOL    HW1 6452   0.281   1.462   0.739
 1851SOL    HW2 6453   0.288   1.481   0.902
 1852SOL     OW 6454   5.256   4.032   1.183
 1852SOL    HW1 6455   5.238   4.130   1.192
 1852SOL    HW2 6456   5.188   3.991   1.123
 1853SOL     OW 6457   0.949   3.090   2.183
 1853SOL    HW1 6458   0.981   3.173   2.139
 1853SOL    HW2 6459   0.981   3.089   2.278
 1854SOL     OW 6460   2.827   6.196   3.906
 1854SOL    HW1 6461   2.735   6.223   3.876
 1854SOL    HW2 6462   2.889   6.199   3.828
 1855SOL     OW 6463   4.431   4.418   6.720
 1855SOL    HW1 6464   4.417   4.413   6.819
 1855SOL    HW2 6465   4.461   4.510   6.696
 1856SOL     OW 6466   6.237   3.191   5.461
 1856SOL    HW1 6467   6.226   3.248   5.380
 1856SOL    HW2 6468   6.235   3.095   5.434
 1857SOL     OW 6469   3.596   1.147   5.826
 1857SOL    HW1 6470   3.605   1.055   5.787
 1857SOL    HW2 6471   3.598   1.214   5.752
 1858SOL     OW 6472   5.882   3.068   3.508
 1858SOL    HW1 6473   5.826   3.131   3.455
 1858SOL    HW2 6474   5.868   2.975   3.474
 1859SOL     OW 6475   4.118   1.258   3.861
 1859SOL    HW1 6476   4.167   1.337   3.896
 1859SOL    HW2 6477   4.163   1.225   3.777
 1860SOL     OW 6478   6.965   0.770   3.386
 1860SOL    HW1 6479   6.904   0.740   3.459
 1860SOL    HW2 6480   0.030   0.736   3.404
 1861SOL     OW 6481   4.750   6.565   2.188
 1861SOL    HW1 6482   4.672   6.503   2.175
 1861SOL    HW2 6483   4.805   6.532   2.265
 1862SOL     OW 6484   2.226   6.736   6.661
 1862SOL    HW1 6485   2.159   6.690   6.718
 1862SOL    HW2 6486   2.295   6.780   6.719
 1863SOL     OW 6487   2.249   2.540   0.988
 1863SOL    HW1 6488   2.325   2.585   0.941
 1863SOL    HW2 6489   2.283   2.454   1.029
 1864SOL     OW 6490   1.278   0.095   5.564
 1864SOL    HW1 6491   1.250   0.039   5.642
 1864SOL    HW2 6492   1.271   0.192   5.588
 1865SOL     OW 6493   3.399   0.625   5.709
 1865SOL    HW1 6494   3.376   0.595   5.616
 1865SOL    HW2 6495   3.497   0.643   5.715
 1866SOL     OW 6496   4.466   4.503   2.544
 1866SOL    HW1 6497   4.371   4.534   2.548
 1866SOL    HW2 6498   4.475   4.417   2.596
 1867SOL     OW 6499   0.841   4.367   0.589
 1867SOL    HW1 6500   0.809   4.273   0.595
 1867SOL    HW2 6501   0.939   4.371   0.610
 1868SOL     OW 6502   4.756   4.589   0.507
 1868SOL    HW1 6503   4.831   4.605   0.572
 1868SOL    HW2 6504   4.793   4.561   0.419
 1869SOL     OW 6505   6.434   2.223   4.671
 1869SOL    HW1 6506   6.510   2.288   4.676
 1869SOL    HW2 6507   6.440   2.170   4.587
 1870SOL     OW 6508   2.250   4.164   5.738
 1870SOL    HW1 6509   2.326   4.228   5.734
 1870SOL    HW2 6510   2.273   4.081   5.687
 1871SOL     OW 6511   1.367   6.704   6.810
 1871SOL    HW1 6512   1.407   6.766   6.877
 1871SOL    HW2 6513   1.290   6.748   6.765
 1872SOL     OW 6514   3.721   4.036   6.737
 1872SOL    HW1 6515   3.661   3.956   6.739
 1872SOL    HW2 6516   3.807   4.012   6.692
 1873SOL     OW 6517   4.496   1.358   5.108
 1873SOL    HW1 6518   4.438   1.283   5.077
 1873SOL    HW2 6519   4.493   1.363   5.208
 1874SOL     OW 6520   2.424   1.061   0.800
 1874SOL    HW1 6521   2.433   1.131   0.871
 1874SOL    HW2 6522   2.342   1.006   0.817
 1875SOL     OW 6523   0.880   1.099   6.417
 1875SOL    HW1 6524   0.855   1.014   6.370
 1875SOL    HW2 6525   0.979   1.101   6.432
 1876SOL     OW 6526   3.456   0.408   5.880
 1876SOL    HW1 6527   3.467   0.497   5.836
 1876SOL    HW2 6528   3.368   0.404   5.928
 1877SOL     OW 6529   0.787   0.071   3.012
 1877SOL    HW1 6530   0.780   7.019   3.071
 1877SOL    HW2 6531   0.821   0.149   3.064
 1878SOL     OW 6532   6.965   1.736   3.923
 1878SOL    HW1 6533   6.928   1.713   3.832
 1878SOL    HW2 6534   0.031   1.704   3.930
 1879SOL     OW 6535   0.986   3.947   4.092
 1879SOL    HW1 6536   1.085   3.932   4.085
 1879SOL    HW2 6537   0.938   3.877   4.040
 1880SOL     OW 6538   6.816   1.487   4.868
 1880SOL    HW1 6539   6.816   1.410   4.804
 1880SOL    HW2 6540   6.810   1.573   4.816
 1881SOL     OW 6541   5.846   2.179   2.594
 1881SOL    HW1 6542   5.817   2.247   2.661
 1881SOL    HW2 6543   5.853   2.222   2.504
 1882SOL     OW 6544   0.996   4.098   6.805
 1882SOL    HW1 6545   0.977   4.196   6.804
 1882SOL    HW2 6546   1.002   4.065   6.899
 1883SOL     OW 6547   6.187   2.108   2.807
 1883SOL    HW1 6548   6.116   2.065   2.752
 1883SOL    HW2 6549   6.200   2.055   2.891
 1884SOL     OW 6550   0.694   2.136   0.416
 1884SOL    HW1 6551   0.731   2.136   0.323
 1884SOL    HW2 6552   0.600   2.103   0.414
 1885SOL     OW 6553   2.184   1.662   6.114
 1885SOL    HW1 6554   2.135   1.627   6.034
 1885SOL    HW2 6555   2.280   1.633   6.110
 1886SOL     OW 6556   1.362   7.020   2.110
 1886SOL    HW1 6557   1.264   0.003   2.093
 1886SOL    HW2 6558   1.399   6.952   2.047
 1887SOL     OW 6559   0.542   5.430   5.990
 1887SOL    HW1 6560   0.626   5.467   5.951
 1887SOL    HW2 6561   0.526   5.472   6.080
 1888SOL     OW 6562   3.152   2.114   6.862
 1888SOL    HW1 6563   3.184   2.034   6.912
 1888SOL    HW2 6564   3.085   2.086   6.793
 1889SOL     OW 6565   0.256   3.849   4.584
 1889SOL    HW1 6566   0.264   3.771   4.647
 1889SOL    HW2 6567   0.215   3.926   4.632
 1890SOL     OW 6568   1.223   5.522   4.087
 1890SOL    HW1 6569   1.240   5.424   4.083
 1890SOL    HW2 6570   1.169   5.550   4.008
 1891SOL     OW 6571   4.860   2.606   1.574
 1891SOL    HW1 6572   4.803   2.676   1.617
 1891SOL    HW2 6573   4.956   2.629   1.586
 1892SOL     OW 6574   0.271   0.005   1.938
 1892SOL    HW1 6575   0.207   6.994   2.004
 1892SOL    HW2 6576   0.222   0.035   1.857
 1893SOL     OW 6577   3.682   2.844   2.169
 1893SOL    HW1 6578   3.618   2.816   2.240
 1893SOL    HW2 6579   3.640   2.832   2.079
 1894SOL     OW 6580   3.850   3.386   4.214
 1894SOL    HW1 6581   3.802   3.326   4.150
 1894SOL    HW2 6582   3.948   3.369   4.208
 1895SOL     OW 6583   4.105   0.083   0.709
 1895SOL    HW1 6584   4.109   0.165   0.652
 1895SOL    HW2 6585   4.027   0.088   0.771
 1896SOL     OW 6586   5.994   1.891   1.113
 1896SOL    HW1 6587   6.069   1.936   1.161
 1896SOL    HW2 6588   5.926   1.959   1.086
 1897SOL     OW 6589   2.020   5.160   2.006
 1897SOL    HW1 6590   2.061   5.072   2.031
 1897SOL    HW2 6591   1.970   5.150   1.920
 1898SOL     OW 6592   1.719   4.497   3.239
 1898SOL    HW1 6593   1.742   4.565   3.308
 1898SOL    HW2 6594   1.671   4.541   3.163
 1899SOL     OW 6595   0.212   1.607   6.967
 1899SOL    HW1 6596   0.165   1.673   7.025
 1899SOL    HW2 6597   0.292   1.650   6.925
 1900SOL     OW 6598   2.445   0.573   6.779
 1900SOL    HW1 6599   2.501   0.615   6.851
 1900SOL    HW2 6600   2.462   0.619   6.692
 1901SOL     OW 6601   1.913   1.981   0.831
 1901SOL    HW1 6602   1.851   1.910   0.865
 1901SOL    HW2 6603   1.876   2.071   0.851
 1902SOL     OW 6604   2.630   0.918   4.527
 1902SOL    HW1 6605   2.717   0.871   4.544
 1902SOL    HW2 6606   2.554   0.854   4.536
 1903SOL     OW 6607   0.952   3.525   2.484
 1903SOL    HW1 6608   0.920   3.500   2.392
 1903SOL    HW2 6609   0.899   3.474   2.552
 1904SOL     OW 6610   5.492   5.263   3.125
 1904SOL    HW1 6611   5.516   5.242   3.220
 1904SOL    HW2 6612   5.451   5.354   3.120
 1905SOL     OW 6613   0.468   0.455   3.490
 1905SOL    HW1 6614   0.466   0.516   3.569
 1905SOL    HW2 6615   0.374   0.430   3.466
 1906SOL     OW 6616   3.102   1.155   6.221
 1906SOL    HW1 6617   3.111   1.162   6.321
 1906SOL    HW2 6618   3.190   1.127   6.182
 1907SOL     OW 6619   4.864   2.481   1.301
 1907SOL    HW1 6620   4.836   2.491   1.397
 1907SOL    HW2 6621   4.883   2.385   1.282
 1908SOL     OW 6622   4.125   6.433   6.374
 1908SOL    HW1 6623   4.175   6.489   6.439
 1908SOL    HW2 6624   4.092   6.350   6.419
 1909SOL     OW 6625   0.656   3.202   3.492
 1909SOL    HW1 6626   0.706   3.123   3.458
 1909SOL    HW2 6627   0.558   3.186   3.483
 1910SOL     OW 6628   6.897   6.625   5.317
 1910SOL    HW1 6629   6.912   6.724   5.306
 1910SOL    HW2 6630   6.845   6.608   5.400
 1911SOL     OW 6631   6.689   3.391   4.932
 1911SOL    HW1 6632   6.599   3.423   4.902
 1911SOL    HW2 6633   6.751   3.389   4.854
 1912SOL     OW 6634   2.848   5.730   2.196
 1912SOL    HW1 6635   2.811   5.637   2.202
 1912SOL    HW2 6636   2.898   5.740   2.109
 1913SOL     OW 6637   2.297   0.473   5.062
 1913SOL    HW1 6638   2.229   0.455   5.133
 1913SOL    HW2 6639   2.296   0.398   4.995
 1914SOL     OW 6640   4.002   3.524   0.259
 1914SOL    HW1 6641   3.902   3.520   0.250
 1914SOL    HW2 6642   4.031   3.620   0.262
 1915SOL     OW 6643   5.065   3.033   5.871
 1915SOL    HW1 6644   5.132   2.993   5.934
 1915SOL    HW2 6645   5.102   3.117   5.832
 1916SOL     OW 6646   4.471   6.171   1.193
 1916SOL    HW1 6647   4.542   6.107   1.223
 1916SOL    HW2 6648   4.395   6.170   1.258
 1917SOL     OW 6649   3.012   3.330   0.180
 1917SOL    HW1 6650   2.962   3.417   0.184
 1917SOL    HW2 6651   3.033   3.299   0.273
 1918SOL     OW 6652   0.642   0.820   4.670
 1918SOL    HW1 6653   0.680   0.779   4.587
 1918SOL    HW2 6654   0.713   0.877   4.714
 1919SOL     OW 6655   1.916   1.675   1.393
 1919SOL    HW1 6656   2.007   1.650   1.424
 1919SOL    HW2 6657   1.858   1.694   1.473
 1920SOL     OW 6658   6.240   3.209   2.833
 1920SOL    HW1 6659   6.159   3.152   2.822
 1920SOL    HW2 6660   6.250   3.270   2.754
 1921SOL     OW 6661   1.176   3.188   6.989
 1921SOL    HW1 6662   1.120   3.265   7.020
 1921SOL    HW2 6663   1.273   3.213   6.995
 1922SOL     OW 6664   2.895   3.450   2.055
 1922SOL    HW1 6665   2.850   3.405   2.132
 1922SOL    HW2 6666   2.919   3.544   2.081
 1923SOL     OW 6667   4.473   1.300   0.028
 1923SOL    HW1 6668   4.459   1.370   0.099
 1923SOL    HW2 6669   4.402   1.309   6.986
 1924SOL     OW 6670   4.478   0.223   0.740
 1924SOL    HW1 6671   4.451   0.319   0.748
 1924SOL    HW2 6672   4.422   0.168   0.802
 1925SOL     OW 6673   1.189   4.666   1.822
 1925SOL    HW1 6674   1.203   4.750   1.770
 1925SOL    HW2 6675   1.126   4.683   1.897
 1926SOL     OW 6676   3.240   0.623   1.959
 1926SOL    HW1 6677   3.211   0.637   2.053
 1926SOL    HW2 6678   3.288   0.536   1.951
 1927SOL     OW 6679   2.266   3.860   0.836
 1927SOL    HW1 6680   2.257   3.895   0.930
 1927SOL    HW2 6681   2.229   3.927   0.772
 1928SOL     OW 6682   5.204   5.196   4.182
 1928SOL    HW1 6683   5.120   5.166   4.137
 1928SOL    HW2 6684   5.207   5.158   4.275
 1929SOL     OW 6685   2.912   0.449   2.015
 1929SOL    HW1 6686   2.833   0.446   2.076
 1929SOL    HW2 6687   2.966   0.366   2.027
 1930SOL     OW 6688   5.495   3.466   6.697
 1930SOL    HW1 6689   5.502   3.373   6.662
 1930SOL    HW2 6690   5.483   3.462   6.797
 1931SOL     OW 6691   0.964   2.109   6.724
 1931SOL    HW1 6692   0.926   2.034   6.671
 1931SOL    HW2 6693   1.047   2.143   6.679
 1932SOL     OW 6694   4.648   2.705   3.294
 1932SOL    HW1 6695   4.715   2.706   3.369
 1932SOL    HW2 6696   4.558   2.731   3.330
 1933SOL     OW 6697   0.491   1.943   0.190
 1933SOL    HW1 6698   0.432   1.998   0.131
 1933SOL    HW2 6699   0.587   1.964   0.171
 1934SOL     OW 6700   0.640   0.655   5.410
 1934SOL    HW1 6701   0.604   0.710   5.335
 1934SOL    HW2 6702   0.598   0.684   5.496
 1935SOL     OW 6703   4.366   4.944   3.673
 1935SOL    HW1 6704   4.426   4.959   3.752
 1935SOL    HW2 6705   4.305   4.867   3.691
 1936SOL     OW 6706   4.883   3.830   4.090
 1936SOL    HW1 6707   4.819   3.829   4.013
 1936SOL    HW2 6708   4.963   3.775   4.068
 1937SOL     OW 6709   4.692   6.235   6.777
 1937SOL    HW1 6710   4.688   6.215   6.679
 1937SOL    HW2 6711   4.774   6.195   6.816
 1938SOL     OW 6712   1.199   2.567   0.353
 1938SOL    HW1 6713   1.218   2.662   0.328
 1938SOL    HW2 6714   1.268   2.535   0.418
 1939SOL     OW 6715   0.140   5.455   4.132
 1939SOL    HW1 6716   0.217   5.438   4.193
 1939SOL    HW2 6717   0.132   5.553   4.116
 1940SOL     OW 6718   5.678   4.724   2.043
 1940SOL    HW1 6719   5.581   4.737   2.020
 1940SOL    HW2 6720   5.686   4.652   2.112
 1941SOL     OW 6721   0.259   2.657   3.368
 1941SOL    HW1 6722   0.221   2.690   3.455
 1941SOL    HW2 6723   0.318   2.579   3.386
 1942SOL     OW 6724   5.718   4.132   2.778
 1942SOL    HW1 6725   5.619   4.116   2.773
 1942SOL    HW2 6726   5.764   4.048   2.810
 1943SOL     OW 6727   1.588   1.504   2.073
 1943SOL    HW1 6728   1.546   1.556   2.147
 1943SOL    HW2 6729   1.644   1.430   2.111
 1944SOL     OW 6730   6.383   4.101   0.247
 1944SOL    HW1 6731   6.340   4.052   0.171
 1944SOL    HW2 6732   6.472   4.061   0.267
 1945SOL     OW 6733   4.071   6.549   1.050
 1945SOL    HW1 6734   3.994   6.583   1.105
 1945SOL    HW2 6735   4.093   6.616   0.979
 1946SOL     OW 6736   5.494   6.376   1.758
 1946SOL    HW1 6737   5.501   6.476   1.755
 1946SOL    HW2 6738   5.583   6.336   1.738
 1947SOL     OW 6739   6.482   5.791   3.981
 1947SOL    HW1 6740   6.530   5.879   3.987
 1947SOL    HW2 6741   6.403   5.792   4.042
 1948SOL     OW 6742   5.690   4.092   2.456
 1948SOL    HW1 6743   5.718   4.117   2.549
 1948SOL    HW2 6744   5.652   4.000   2.457
 1949SOL     OW 6745   4.045   4.066   0.256
 1949SOL    HW1 6746   4.113   4.055   0.183
 1949SOL    HW2 6747   4.090   4.061   0.345
 1950SOL     OW 6748   3.649   3.200   4.101
 1950SOL    HW1 6749   3.653   3.102   4.121
 1950SOL    HW2 6750   3.664   3.214   4.003
 1951SOL     OW 6751   6.542   4.173   5.506
 1951SOL    HW1 6752   6.591   4.097   5.465
 1951SOL    HW2 6753   6.607   4.239   5.543
 1952SOL     OW 6754   4.952   4.385   1.270
 1952SOL    HW1 6755   4.934   4.461   1.332
 1952SOL    HW2 6756   4.870   4.328   1.263
 1953SOL     OW 6757   6.970   1.423   6.241
 1953SOL    HW1 6758   0.014   1.368   6.283
 1953SOL    HW2 6759   6.894   1.433   6.305
 1954SOL     OW 6760   5.456   1.155   1.655
 1954SOL    HW1 6761   5.450   1.191   1.748
 1954SOL    HW2 6762   5.378   1.095   1.637
 1955SOL     OW 6763   0.607   1.475   1.398
 1955SOL    HW1 6764   0.681   1.531   1.361
 1955SOL    HW2 6765   0.555   1.528   1.465
 1956SOL     OW 6766   4.902   0.526   2.826
 1956SOL    HW1 6767   4.931   0.519   2.922
 1956SOL    HW2 6768   4.882   0.435   2.790
 1957SOL     OW 6769   4.896   3.397   4.117
 1957SOL    HW1 6770   4.979   3.438   4.077
 1957SOL    HW2 6771   4.867   3.450   4.196
 1958SOL     OW 6772   4.586   1.709   1.353
 1958SOL    HW1 6773   4.608   1.800   1.386
 1958SOL    HW2 6774   4.512   1.670   1.407
 1959SOL     OW 6775   6.282   6.746   3.965
 1959SOL    HW1 6776   6.306   6.836   4.001
 1959SOL    HW2 6777   6.365   6.693   3.950
 1960SOL     OW 6778   0.032   2.592   3.235
 1960SOL    HW1 6779   0.116   2.604   3.289
 1960SOL    HW2 6780   6.992   2.543   3.290
 1961SOL     OW 6781   6.351   4.414   4.732
 1961SOL    HW1 6782   6.259   4.452   4.719
 1961SOL    HW2 6783   6.370   4.405   4.830
 1962SOL     OW 6784   1.262   5.785   2.682
 1962SOL    HW1 6785   1.235   5.878   2.656
 1962SOL    HW2 6786   1.183   5.724   2.671
 1963SOL     OW 6787   0.988   1.414   1.628
 1963SOL    HW1 6788   1.041   1.351   1.571
 1963SOL    HW2 6789   0.903   1.370   1.658
 1964SOL     OW 6790   5.291   4.622   1.538
 1964SOL    HW1 6791   5.264   4.528   1.516
 1964SOL    HW2 6792   5.284   4.678   1.455
 1965SOL     OW 6793   0.928   3.541   3.848
 1965SOL    HW1 6794   0.999   3.601   3.810
 1965SOL    HW2 6795   0.967   3.489   3.924
 1966SOL     OW 6796   1.494   4.862   0.781
 1966SOL    HW1 6797   1.478   4.773   0.738
 1966SOL    HW2 6798   1.549   4.849   0.864
 1967SOL     OW 6799   6.705   2.311   3.978
 1967SOL    HW1 6800   6.633   2.381   3.976
 1967SOL    HW2 6801   6.678   2.238   4.041
 1968SOL     OW 6802   2.578   1.061   5.363
 1968SOL    HW1 6803   2.564   0.989   5.295
 1968SOL    HW2 6804   2.508   1.131   5.353
 1969SOL     OW 6805   3.486   1.017   2.001
 1969SOL    HW1 6806   3.518   0.958   2.075
 1969SOL    HW2 6807   3.386   1.010   1.994
 1970SOL     OW 6808   6.577   6.711   4.986
 1970SOL    HW1 6809   6.566   6.613   4.973
 1970SOL    HW2 6810   6.622   6.729   5.074
 1971SOL     OW 6811   0.918   7.012   5.844
 1971SOL    HW1 6812   0.991   6.976   5.786
 1971SOL    HW2 6813   0.833   7.015   5.793
 1972SOL     OW 6814   5.444   2.160   1.491
 1972SOL    HW1 6815   5.389   2.099   1.548
 1972SOL    HW2 6816   5.439   2.253   1.527
 1973SOL     OW 6817   2.528   3.819   1.597
 1973SOL    HW1 6818   2.606   3.772   1.638
 1973SOL    HW2 6819   2.534   3.917   1.617
 1974SOL     OW 6820   4.381   6.724   4.457
 1974SOL    HW1 6821   4.403   6.633   4.423
 1974SOL    HW2 6822   4.281   6.733   4.465
 1975SOL     OW 6823   2.238   2.972   3.844
 1975SOL    HW1 6824   2.223   3.061   3.886
 1975SOL    HW2 6825   2.316   2.927   3.887
 1976SOL     OW 6826   5.906   6.974   0.135
 1976SOL    HW1 6827   5.937   0.035   0.101
 1976SOL    HW2 6828   5.853   6.928   0.063
 1977SOL     OW 6829   2.787   3.049   6.814
 1977SOL    HW1 6830   2.700   3.093   6.791
 1977SOL    HW2 6831   2.835   3.104   6.882
 1978SOL     OW 6832   2.276   5.996   3.150
 1978SOL    HW1 6833   2.235   6.084   3.172
 1978SOL    HW2 6834   2.315   5.956   3.233
 1979SOL     OW 6835   6.013   5.056   6.952
 1979SOL    HW1 6836   5.978   4.974   6.906
 1979SOL    HW2 6837   5.957   5.076   0.005
 1980SOL     OW 6838   3.236   0.335   2.370
 1980SOL    HW1 6839   3.281   0.299   2.287
 1980SOL    HW2 6840   3.297   0.401   2.415
 1981SOL     OW 6841   5.139   2.962   2.603
 1981SOL    HW1 6842   5.188   2.876   2.617
 1981SOL    HW2 6843   5.044   2.942   2.579
 1982SOL     OW 6844   6.982   4.064   3.852
 1982SOL    HW1 6845   6.917   4.101   3.919
 1982SOL    HW2 6846   6.954   4.089   3.760
 1983SOL     OW 6847   0.684   6.982   1.012
 1983SOL    HW1 6848   0.732   6.923   1.077
 1983SOL    HW2 6849   0.595   7.009   1.050
 1984SOL     OW 6850   5.226   2.555   4.993
 1984SOL    HW1 6851   5.129   2.545   4.969
 1984SOL    HW2 6852   5.245   2.650   5.017
 1985SOL     OW 6853   6.619   4.909   1.825
 1985SOL    HW1 6854   6.599   5.007   1.827
 1985SOL    HW2 6855   6.677   4.885   1.903
 1986SOL     OW 6856   2.952   1.214   6.588
 1986SOL    HW1 6857   2.978   1.306   6.617
 1986SOL    HW2 6858   3.027   1.172   6.537
 1987SOL     OW 6859   1.898   1.104   4.001
 1987SOL    HW1 6860   1.926   1.142   4.089
 1987SOL    HW2 6861   1.853   1.016   4.015
 1988SOL     OW 6862   0.256   1.612   1.177
 1988SOL    HW1 6863   0.168   1.570   1.154
 1988SOL    HW2 6864   0.320   1.542   1.208
 1989SOL     OW 6865   2.655   5.875   4.918
 1989SOL    HW1 6866   2.651   5.912   5.011
 1989SOL    HW2 6867   2.563   5.849   4.889
 1990SOL     OW 6868   4.067   0.271   0.199
 1990SOL    HW1 6869   3.968   0.256   0.205
 1990SOL    HW2 6870   4.106   0.207   0.133
 1991SOL     OW 6871   2.920   5.329   6.912
 1991SOL    HW1 6872   2.869   5.401   6.864
 1991SOL    HW2 6873   3.004   5.309   6.862
 1992SOL     OW 6874   6.925   6.375   0.087
 1992SOL    HW1 6875   6.857   6.374   0.160
 1992SOL    HW2 6876   6.878   6.372   7.026
 1993SOL     OW 6877   2.412   2.779   4.734
 1993SOL    HW1 6878   2.342   2.849   4.718
 1993SOL    HW2 6879   2.474   2.810   4.806
 1994SOL     OW 6880   4.466   2.432   0.813
 1994SOL    HW1 6881   4.555   2.389   0.801
 1994SOL    HW2 6882   4.476   2.532   0.805
 1995SOL     OW 6883   5.507   2.480   4.407
 1995SOL    HW1 6884   5.456   2.477   4.321
 1995SOL    HW2 6885   5.585   2.417   4.402
 1996SOL     OW 6886   2.953   2.079   1.298
 1996SOL    HW1 6887   2.944   2.147   1.225
 1996SOL    HW2 6888   2.912   2.115   1.382
 1997SOL     OW 6889   3.340   1.442   4.067
 1997SOL    HW1 6890   3.267   1.510   4.057
 1997SOL    HW2 6891   3.329   1.370   3.999
 1998SOL     OW 6892   1.205   2.958   1.269
 1998SOL    HW1 6893   1.179   3.041   1.219
 1998SOL    HW2 6894   1.160   2.879   1.227
 1999SOL     OW 6895   0.156   0.870   4.977
 1999SOL    HW1 6896   0.182   0.776   4.956
 1999SOL    HW2 6897   0.148   0.922   4.892
 2000SOL     OW 6898   4.229   3.859   6.066
 2000SOL    HW1 6899   4.277   3.782   6.026
 2000SOL    HW2 6900   4.130   3.841   6.065
 2001SOL     OW 6901   1.659   1.878   6.434
 2001SOL    HW1 6902   1.702   1.801   6.481
 2001SOL    HW2 6903   1.676   1.963   6.485
 2002SOL     OW 6904   0.425   5.491   1.154
 2002SOL    HW1 6905   0.353   5.424   1.135
 2002SOL    HW2 6906   0.402   5.543   1.236
 2003SOL     OW 6907   6.050   5.380   2.151
 2003SOL    HW1 6908   6.108   5.301   2.173
 2003SOL    HW2 6909   6.108   5.461   2.141
 2004SOL     OW 6910   4.140   0.723   3.551
 2004SOL    HW1 6911   4.141   0.636   3.502
 2004SOL    HW2 6912   4.087   0.713   3.635
 2005SOL     OW 6913   7.027   6.173   0.271
 2005SOL    HW1 6914   7.007   6.271   0.262
 2005SOL    HW2 6915   6.970   6.121   0.206
 2006SOL     OW 6916   5.152   0.184   4.146
 2006SOL    HW1 6917   5.083   0.244   4.187
 2006SOL    HW2 6918   5.162   0.207   4.049
 2007SOL     OW 6919   4.725   4.519   1.403
 2007SOL    HW1 6920   4.640   4.566   1.379
 2007SOL    HW2 6921   4.707   4.421   1.411
 2008SOL     OW 6922   2.157   3.701   3.844
 2008SOL    HW1 6923   2.153   3.610   3.803
 2008SOL    HW2 6924   2.088   3.760   3.802
 2009SOL     OW 6925   5.754   6.248   1.708
 2009SOL    HW1 6926   5.812   6.308   1.762
 2009SOL    HW2 6927   5.778   6.256   1.611
 2010SOL     OW 6928   1.263   2.129   1.203
 2010SOL    HW1 6929   1.353   2.124   1.246
 2010SOL    HW2 6930   1.254   2.215   1.153
 2011SOL     OW 6931   0.107   0.127   5.751
 2011SOL    HW1 6932   0.080   0.185   5.675
 2011SOL    HW2 6933   0.035   0.060   5.770
 2012SOL     OW 6934   1.443   3.646   2.001
 2012SOL    HW1 6935   1.531   3.625   1.957
 2012SOL    HW2 6936   1.460   3.698   2.084
 2013SOL     OW 6937   0.237   2.661   3.058
 2013SOL    HW1 6938   0.155   2.605   3.074
 2013SOL    HW2 6939   0.254   2.720   3.137
 2014SOL     OW 6940   3.307   0.268   3.603
 2014SOL    HW1 6941   3.299   0.357   3.648
 2014SOL    HW2 6942   3.292   0.278   3.505
 2015SOL     OW 6943   3.895   0.663   1.331
 2015SOL    HW1 6944   3.933   0.698   1.417
 2015SOL    HW2 6945   3.798   0.684   1.325
 2016SOL     OW 6946   1.415   6.386   5.417
 2016SOL    HW1 6947   1.491   6.386   5.352
 2016SOL    HW2 6948   1.383   6.292   5.432
 2017SOL     OW 6949   4.375   0.375   3.414
 2017SOL    HW1 6950   4.319   0.292   3.420
 2017SOL    HW2 6951   4.389   0.412   3.506
 2018SOL     OW 6952   6.983   2.166   3.556
 2018SOL    HW1 6953   6.985   2.170   3.456
 2018SOL    HW2 6954   6.888   2.176   3.587
 2019SOL     OW 6955   5.938   4.811   6.837
 2019SOL    HW1 6956   6.027   4.768   6.852
 2019SOL    HW2 6957   5.894   4.769   6.758
 2020SOL     OW 6958   1.117   5.890   5.870
 2020SOL    HW1 6959   1.181   5.882   5.947
 2020SOL    HW2 6960   1.159   5.851   5.788
 2021SOL     OW 6961   6.761   6.477   3.290
 2021SOL    HW1 6962   6.676   6.425   3.282
 2021SOL    HW2 6963   6.741   6.575   3.291
 2022SOL     OW 6964   2.045   3.997   5.050
 2022SOL    HW1 6965   2.140   4.029   5.041
 2022SOL    HW2 6966   2.006   4.032   5.135
 2023SOL     OW 6967   7.009   6.951   6.965
 2023SOL    HW1 6968   0.022   0.011   6.941
 2023SOL    HW2 6969   0.024   6.917   0.022
 2024SOL     OW 6970   0.508   5.414   4.085
 2024SOL    HW1 6971   0.604   5.428   4.112
 2024SOL    HW2 6972   0.450   5.420   4.166
 2025SOL     OW 6973   2.856   0.779   3.984
 2025SOL    HW1 6974   2.806   0.823   3.910
 2025SOL    HW2 6975   2.848   0.833   4.068
 2026SOL     OW 6976   5.801   0.803   6.488
 2026SOL    HW1 6977   5.742   0.819   6.567
 2026SOL    HW2 6978   5.762   0.848   6.407
 2027SOL     OW 6979   0.615   5.874   1.406
 2027SOL    HW1 6980   0.701   5.827   1.423
 2027SOL    HW2 6981   0.571   5.895   1.493
 2028SOL     OW 6982   3.844   5.870   2.864
 2028SOL    HW1 6983   3.807   5.882   2.956
 2028SOL    HW2 6984   3.769   5.856   2.800
 2029SOL     OW 6985   0.059   2.104   6.776
 2029SOL    HW1 6986   0.120   2.038   6.819
 2029SOL    HW2 6987   0.044   2.079   6.681
 2030SOL     OW 6988   2.827   6.098   2.758
 2030SOL    HW1 6989   2.850   6.002   2.743
 2030SOL    HW2 6990   2.876   6.132   2.839
 2031SOL     OW 6991   6.878   5.375   2.734
 2031SOL    HW1 6992   6.932   5.400   2.814
 2031SOL    HW2 6993   6.798   5.435   2.728
 2032SOL     OW 6994   3.507   1.307   0.378
 2032SOL    HW1 6995   3.469   1.389   0.335
 2032SOL    HW2 6996   3.443   1.273   0.447
 2033SOL     OW 6997   1.306   1.061   0.616
 2033SOL    HW1 6998   1.307   0.961   0.625
 2033SOL    HW2 6999   1.283   1.087   0.522
 2034SOL     OW 7000   1.462   5.315   5.599
 2034SOL    HW1 7001   1.404   5.272   5.668
 2034SOL    HW2 7002   1.556   5.283   5.609
 2035SOL     OW 7003   6.692   6.716   1.614
 2035SOL    HW1 7004   6.685   6.815   1.606
 2035SOL    HW2 7005   6.739   6.679   1.534
 2036SOL     OW 7006   1.029   3.387   3.276
 2036SOL    HW1 7007   0.969   3.330   3.220
 2036SOL    HW2 7008   1.051   3.471   3.226
 2037SOL     OW 7009   0.063   3.016   6.262
 2037SOL    HW1 7010   7.000   3.047   6.289
 2037SOL    HW2 7011   0.094   3.068   6.182
 2038SOL     OW 7012   2.759   1.254   0.195
 2038SOL    HW1 7013   2.802   1.224   0.279
 2038SOL    HW2 7014   2.796   1.203   0.117
 2039SOL     OW 7015   0.085   5.823   2.561
 2039SOL    HW1 7016   0.084   5.723   2.567
 2039SOL    HW2 7017   7.026   5.860   2.595
 2040SOL     OW 7018   2.034   2.478   6.921
 2040SOL    HW1 7019   2.104   2.450   6.856
 2040SOL    HW2 7020   1.969   2.403   6.935
 2041SOL     OW 7021   1.966   6.955   5.753
 2041SOL    HW1 7022   1.947   0.018   5.791
 2041SOL    HW2 7023   2.031   6.907   5.813
 2042SOL     OW 7024   4.842   0.208   6.170
 2042SOL    HW1 7025   4.916   0.252   6.120
 2042SOL    HW2 7026   4.869   0.195   6.265
 2043SOL     OW 7027   6.773   2.562   1.324
 2043SOL    HW1 7028   6.718   2.484   1.293
 2043SOL    HW2 7029   6.870   2.541   1.314
 2044SOL     OW 7030   5.861   1.171   1.137
 2044SOL    HW1 7031   5.844   1.261   1.177
 2044SOL    HW2 7032   5.852   1.101   1.208
 2045SOL     OW 7033   1.912   5.409   5.679
 2045SOL    HW1 7034   1.896   5.442   5.772
 2045SOL    HW2 7035   1.827   5.372   5.641
 2046SOL     OW 7036   0.369   1.722   5.418
 2046SOL    HW1 7037   0.421   1.740   5.502
 2046SOL    HW2 7038   0.354   1.623   5.410
 2047SOL     OW 7039   6.508   2.419   0.401
 2047SOL    HW1 7040   6.497   2.484   0.326
 2047SOL    HW2 7041   6.448   2.340   0.385
 2048SOL     OW 7042   0.816   1.327   4.089
 2048SOL    HW1 7043   0.881   1.275   4.033
 2048SOL    HW2 7044   0.845   1.422   4.092
 2049SOL     OW 7045   4.219   1.261   4.646
 2049SOL    HW1 7046   4.146   1.330   4.646
 2049SOL    HW2 7047   4.303   1.301   4.681
 2050SOL     OW 7048   0.213   1.765   4.221
 2050SOL    HW1 7049   0.182   1.830   4.290
 2050SOL    HW2 7050   0.142   1.752   4.152
 2051SOL     OW 7051   2.790   6.878   0.524
 2051SOL    HW1 7052   2.788   6.871   0.624
 2051SOL    HW2 7053   2.885   6.889   0.494
 2052SOL     OW 7054   2.074   3.802   0.453
 2052SOL    HW1 7055   2.035   3.800   0.545
 2052SOL    HW2 7056   2.088   3.897   0.425
 2053SOL     OW 7057   1.238   5.092   4.624
 2053SOL    HW1 7058   1.325   5.125   4.662
 2053SOL    HW2 7059   1.166   5.159   4.645
 2054SOL     OW 7060   3.583   3.074   2.479
 2054SOL    HW1 7061   3.664   3.018   2.463
 2054SOL    HW2 7062   3.561   3.075   2.576
 2055SOL     OW 7063   0.982   2.643   4.733
 2055SOL    HW1 7064   0.944   2.707   4.799
 2055SOL    HW2 7065   0.914   2.626   4.661
 2056SOL     OW 7066   3.889   5.211   0.942
 2056SOL    HW1 7067   3.960   5.273   0.909
 2056SOL    HW2 7068   3.882   5.133   0.881
 2057SOL     OW 7069   5.763   2.706   4.480
 2057SOL    HW1 7070   5.812   2.726   4.564
 2057SOL    HW2 7071   5.664   2.709   4.497
 2058SOL     OW 7072   0.988   6.237   3.254
 2058SOL    HW1 7073   1.022   6.302   3.185
 2058SOL    HW2 7074   1.060   6.220   3.322
 2059SOL     OW 7075   2.568   0.321   5.393
 2059SOL    HW1 7076   2.581   0.276   5.304
 2059SOL    HW2 7077   2.483   0.290   5.434
 2060SOL     OW 7078   1.208   3.456   0.583
 2060SOL    HW1 7079   1.195   3.449   0.682
 2060SOL    HW2 7080   1.145   3.394   0.536
 2061SOL     OW 7081   1.950   2.500   2.526
 2061SOL    HW1 7082   1.858   2.528   2.551
 2061SOL    HW2 7083   1.964   2.404   2.550
 2062SOL     OW 7084   6.748   5.287   5.227
 2062SOL    HW1 7085   6.670   5.287   5.165
 2062SOL    HW2 7086   6.829   5.251   5.180
 2063SOL     OW 7087   1.700   6.992   5.124
 2063SOL    HW1 7088   1.632   6.919   5.132
 2063SOL    HW2 7089   1.666   0.046   5.171
 2064SOL     OW 7090   0.766   3.694   4.117
 2064SOL    HW1 7091   0.790   3.615   4.059
 2064SOL    HW2 7092   0.790   3.674   4.212
 2065SOL     OW 7093   4.823   2.848   5.542
 2065SOL    HW1 7094   4.857   2.898   5.462
 2065SOL    HW2 7095   4.750   2.786   5.513
 2066SOL     OW 7096   5.941   3.323   5.361
 2066SOL    HW1 7097   5.982   3.254   5.300
 2066SOL    HW2 7098   5.849   3.294   5.387
 2067SOL     OW 7099   6.562   4.810   1.269
 2067SOL    HW1 7100   6.619   4.770   1.341
 2067SOL    HW2 7101   6.533   4.902   1.297
 2068SOL     OW 7102   3.633   1.049   3.974
 2068SOL    HW1 7103   3.708   0.989   3.947
 2068SOL    HW2 7104   3.635   1.131   3.916
 2069SOL     OW 7105   6.771   1.692   4.151
 2069SOL    HW1 7106   6.761   1.593   4.148
 2069SOL    HW2 7107   6.845   1.721   4.091
 2070SOL     OW 7108   1.349   3.057   1.925
 2070SOL    HW1 7109   1.263   3.017   1.956
 2070SOL    HW2 7110   1.379   3.126   1.990
 2071SOL     OW 7111   6.179   1.304   5.699
 2071SOL    HW1 7112   6.219   1.263   5.780
 2071SOL    HW2 7113   6.196   1.402   5.698
 2072SOL     OW 7114   4.100   4.633   5.247
 2072SOL    HW1 7115   4.155   4.570   5.191
 2072SOL    HW2 7116   4.022   4.583   5.284
 2073SOL     OW 7117   3.989   6.341   6.872
 2073SOL    HW1 7118   3.949   6.379   6.789
 2073SOL    HW2 7119   4.067   6.397   6.901
 2074SOL     OW 7120   2.139   3.795   5.752
 2074SOL    HW1 7121   2.090   3.860   5.811
 2074SOL    HW2 7122   2.134   3.704   5.792
 2075SOL     OW 7123   6.920   2.312   2.194
 2075SOL    HW1 7124   6.843   2.250   2.200
 2075SOL    HW2 7125   6.960   2.325   2.285
 2076SOL     OW 7126   5.409   0.003   4.722
 2076SOL    HW1 7127   5.506   0.002   4.700
 2076SOL    HW2 7128   5.372   0.095   4.705
 2077SOL     OW 7129   0.421   3.124   1.444
 2077SOL    HW1 7130   0.506   3.081   1.414
 2077SOL    HW2 7131   0.435   3.167   1.533
 2078SOL     OW 7132   2.263   4.760   5.734
 2078SOL    HW1 7133   2.211   4.835   5.693
 2078SOL    HW2 7134   2.202   4.683   5.753
 2079SOL     OW 7135   5.103   1.222   1.961
 2079SOL    HW1 7136   5.102   1.294   1.891
 2079SOL    HW2 7137   5.075   1.261   2.049
 2080SOL     OW 7138   2.873   2.284   5.118
 2080SOL    HW1 7139   2.834   2.204   5.073
 2080SOL    HW2 7140   2.969   2.293   5.093
 2081SOL     OW 7141   0.527   6.811   3.043
 2081SOL    HW1 7142   0.529   6.837   2.947
 2081SOL    HW2 7143   0.567   6.720   3.055
 2082SOL     OW 7144   0.617   6.061   2.343
 2082SOL    HW1 7145   0.520   6.046   2.321
 2082SOL    HW2 7146   0.656   5.976   2.378
 2083SOL     OW 7147   0.284   6.146   3.674
 2083SOL    HW1 7148   0.189   6.160   3.702
 2083SOL    HW2 7149   0.293   6.168   3.577
 2084SOL     OW 7150   1.261   1.316   1.705
 2084SOL    HW1 7151   1.168   1.343   1.732
 2084SOL    HW2 7152   1.319   1.308   1.786
 2085SOL     OW 7153   5.152   6.006   6.874
 2085SOL    HW1 7154   5.195   5.915   6.880
 2085SOL    HW2 7155   5.220   6.073   6.847
 2086SOL     OW 7156   4.336   0.041   0.171
 2086SOL    HW1 7157   4.379   6.989   0.128
 2086SOL    HW2 7158   4.374   0.055   0.262
 2087SOL     OW 7159   4.124   1.954   6.813
 2087SOL    HW1 7160   4.049   2.020   6.801
 2087SOL    HW2 7161   4.168   1.938   6.725
 2088SOL     OW 7162   0.150   5.707   5.824
 2088SOL    HW1 7163   0.073   5.654   5.789
 2088SOL    HW2 7164   0.191   5.658   5.901
 2089SOL     OW 7165   3.719   3.014   5.749
 2089SOL    HW1 7166   3.624   2.982   5.743
 2089SOL    HW2 7167   3.721   3.114   5.748
 2090SOL     OW 7168   4.830   3.512   5.363
 2090SOL    HW1 7169   4.766   3.570   5.313
 2090SOL    HW2 7170   4.815   3.522   5.462
 2091SOL     OW 7171   6.254   5.675   1.478
 2091SOL    HW1 7172   6.163   5.667   1.519
 2091SOL    HW2 7173   6.259   5.615   1.398
 2092SOL     OW 7174   4.819   3.777   1.477
 2092SOL    HW1 7175   4.898   3.721   1.452
 2092SOL    HW2 7176   4.800   3.766   1.575
 2093SOL     OW 7177   3.944   2.001   2.384
 2093SOL    HW1 7178   4.011   1.993   2.458
 2093SOL    HW2 7179   3.892   2.086   2.395
 2094SOL     OW 7180   5.756   3.012   0.194
 2094SOL    HW1 7181   5.783   3.070   0.270
 2094SOL    HW2 7182   5.820   3.025   0.118
 2095SOL     OW 7183   5.967   6.205   4.100
 2095SOL    HW1 7184   6.004   6.188   4.009
 2095SOL    HW2 7185   5.891   6.269   4.094
 2096SOL     OW 7186   4.476   6.627   2.074
 2096SOL    HW1 7187   4.400   6.684   2.043
 2096SOL    HW2 7188   4.443   6.534   2.090
 2097SOL     OW 7189   1.920   4.722   6.735
 2097SOL    HW1 7190   1.869   4.807   6.728
 2097SOL    HW2 7191   1.993   4.732   6.803
 2098SOL     OW 7192   3.909   6.263   3.174
 2098SOL    HW1 7193   3.847   6.204   3.122
 2098SOL    HW2 7194   3.962   6.207   3.237
 2099SOL     OW 7195   4.667   1.497   6.833
 2099SOL    HW1 7196   4.639   1.408   6.869
 2099SOL    HW2 7197   4.680   1.490   6.735
 2100SOL     OW 7198   5.580   1.111   0.280
 2100SOL    HW1 7199   5.674   1.106   0.315
 2100SOL    HW2 7200   5.573   1.184   0.213
 2101SOL     OW 7201   6.940   6.547   1.471
 2101SOL    HW1 7202   6.890   6.530   1.555
 2101SOL    HW2 7203   6.997   6.467   1.449
 2102SOL     OW 7204   4.080   3.370   1.294
 2102SOL    HW1 7205   4.049   3.354   1.387
 2102SOL    HW2 7206   4.097   3.283   1.248
 2103SOL     OW 7207   2.994   5.387   0.140
 2103SOL    HW1 7208   2.955   5.346   0.057
 2103SOL    HW2 7209   2.954   5.342   0.220
 2104SOL     OW 7210   1.270   4.806   3.145
 2104SOL    HW1 7211   1.207   4.747   3.196
 2104SOL    HW2 7212   1.268   4.780   3.048
 2105SOL     OW 7213   5.045   4.528   0.059
 2105SOL    HW1 7214   5.084   4.488   7.004
 2105SOL    HW2 7215   5.118   4.565   0.117
 2106SOL     OW 7216   4.859   3.585   2.224
 2106SOL    HW1 7217   4.874   3.522   2.300
 2106SOL    HW2 7218   4.816   3.535   2.148
 2107SOL     OW 7219   5.325   4.001   5.677
 2107SOL    HW1 7220   5.354   4.084   5.724
 2107SOL    HW2 7221   5.340   4.011   5.579
 2108SOL     OW 7222   5.755   6.826   6.371
 2108SOL    HW1 7223   5.743   6.845   6.469
 2108SOL    HW2 7224   5.665   6.809   6.330
 2109SOL     OW 7225   3.177   5.729   2.999
 2109SOL    HW1 7226   3.122   5.649   2.975
 2109SOL    HW2 7227   3.268   5.700   3.029
 2110SOL     OW 7228   3.694   0.290   6.620
 2110SOL    HW1 7229   3.721   0.203   6.580
 2110SOL    HW2 7230   3.599   0.311   6.594
 2111SOL     OW 7231   0.958   3.192   5.723
 2111SOL    HW1 7232   0.882   3.155   5.776
 2111SOL    HW2 7233   1.041   3.193   5.779
 2112SOL     OW 7234   6.951   1.394   0.575
 2112SOL    HW1 7235   7.025   1.417   0.513
 2112SOL    HW2 7236   6.973   1.310   0.624
 2113SOL     OW 7237   1.579   6.792   4.445
 2113SOL    HW1 7238   1.568   6.816   4.542
 2113SOL    HW2 7239   1.522   6.713   4.424
 2114SOL     OW 7240   1.809   2.788   6.980
 2114SOL    HW1 7241   1.859   2.724   0.010
 2114SOL    HW2 7242   1.851   2.790   6.889
 2115SOL     OW 7243   0.439   5.245   3.255
 2115SOL    HW1 7244   0.478   5.279   3.169
 2115SOL    HW2 7245   0.484   5.160   3.281
 2116SOL     OW 7246   1.331   2.089   6.916
 2116SOL    HW1 7247   1.234   2.110   6.928
 2116SOL    HW2 7248   1.352   2.002   6.959
 2117SOL     OW 7249   5.553   1.905   2.413
 2117SOL    HW1 7250   5.457   1.887   2.433
 2117SOL    HW2 7251   5.560   1.983   2.351
 2118SOL     OW 7252   6.780   3.340   2.351
 2118SOL    HW1 7253   6.853   3.340   2.282
 2118SOL    HW2 7254   6.775   3.430   2.394
 2119SOL     OW 7255   2.314   0.559   6.409
 2119SOL    HW1 7256   2.364   0.638   6.444
 2119SOL    HW2 7257   2.379   0.488   6.381
 2120SOL     OW 7258   6.191   1.992   1.274
 2120SOL    HW1 7259   6.187   2.089   1.297
 2120SOL    HW2 7260   6.286   1.961   1.276
 2121SOL     OW 7261   2.202   1.271   5.816
 2121SOL    HW1 7262   2.173   1.213   5.739
 2121SOL    HW2 7263   2.273   1.224   5.868
 2122SOL     OW 7264   6.233   0.327   5.124
 2122SOL    HW1 7265   6.312   0.370   5.167
 2122SOL    HW2 7266   6.154   0.334   5.184
 2123SOL     OW 7267   0.749   5.746   2.913
 2123SOL    HW1 7268   0.678   5.800   2.868
 2123SOL    HW2 7269   0.823   5.806   2.943
 2124SOL     OW 7270   3.137   2.897   5.578
 2124SOL    HW1 7271   3.085   2.887   5.493
 2124SOL    HW2 7272   3.217   2.954   5.562
 2125SOL     OW 7273   1.551   5.650   3.655
 2125SOL    HW1 7274   1.532   5.598   3.571
 2125SOL    HW2 7275   1.620   5.602   3.708
 2126SOL     OW 7276   3.641   3.835   0.136
 2126SOL    HW1 7277   3.584   3.764   0.093
 2126SOL    HW2 7278   3.722   3.851   0.080
 2127SOL     OW 7279   0.407   3.122   6.037
 2127SOL    HW1 7280   0.468   3.199   6.017
 2127SOL    HW2 7281   0.449   3.037   6.005
 2128SOL     OW 7282   5.413   3.597   1.469
 2128SOL    HW1 7283   5.496   3.623   1.520
 2128SOL    HW2 7284   5.348   3.673   1.472
 2129SOL     OW 7285   5.131   3.935   3.702
 2129SOL    HW1 7286   5.174   3.857   3.745
 2129SOL    HW2 7287   5.177   3.955   3.615
 2130SOL     OW 7288   1.849   1.030   2.067
 2130SOL    HW1 7289   1.907   1.060   1.991
 2130SOL    HW2 7290   1.877   1.078   2.151
 2131SOL     OW 7291   5.654   1.765   5.960
 2131SOL    HW1 7292   5.639   1.791   6.055
 2131SOL    HW2 7293   5.648   1.846   5.901
 2132SOL     OW 7294   2.510   1.873   0.063
 2132SOL    HW1 7295   2.539   1.878   0.159
 2132SOL    HW2 7296   2.584   1.831   0.009
 2133SOL     OW 7297   2.508   1.494   1.493
 2133SOL    HW1 7298   2.459   1.465   1.575
 2133SOL    HW2 7299   2.605   1.504   1.514
 2134SOL     OW 7300   0.604   6.262   4.776
 2134SOL    HW1 7301   0.568   6.204   4.850
 2134SOL    HW2 7302   0.620   6.206   4.695
 2135SOL     OW 7303   0.798   0.747   3.489
 2135SOL    HW1 7304   0.778   0.726   3.585
 2135SOL    HW2 7305   0.892   0.780   3.482
 2136SOL     OW 7306   0.805   3.306   4.913
 2136SOL    HW1 7307   0.869   3.324   4.838
 2136SOL    HW2 7308   0.766   3.392   4.945
 2137SOL     OW 7309   1.166   6.578   5.295
 2137SOL    HW1 7310   1.090   6.546   5.351
 2137SOL    HW2 7311   1.245   6.597   5.354
 2138SOL     OW 7312   6.678   2.823   0.803
 2138SOL    HW1 7313   6.771   2.811   0.770
 2138SOL    HW2 7314   6.639   2.734   0.829
 2139SOL     OW 7315   3.272   0.606   4.545
 2139SOL    HW1 7316   3.226   0.685   4.505
 2139SOL    HW2 7317   3.321   0.556   4.474
 2140SOL     OW 7318   2.567   6.198   3.792
 2140SOL    HW1 7319   2.513   6.260   3.736
 2140SOL    HW2 7320   2.515   6.172   3.873
 2141SOL     OW 7321   6.020   2.834   0.913
 2141SOL    HW1 7322   6.007   2.923   0.868
 2141SOL    HW2 7323   6.118   2.813   0.918
 2142SOL     OW 7324   1.645   1.819   3.445
 2142SOL    HW1 7325   1.632   1.752   3.518
 2142SOL    HW2 7326   1.661   1.909   3.485
 2143SOL     OW 7327   3.317   6.938   1.619
 2143SOL    HW1 7328   3.293   6.990   1.538
 2143SOL    HW2 7329   3.408   6.899   1.608
 2144SOL     OW 7330   1.222   0.522   3.614
 2144SOL    HW1 7331   1.158   0.462   3.662
 2144SOL    HW2 7332   1.288   0.467   3.563
 2145SOL     OW 7333   3.520   5.494   3.598
 2145SOL    HW1 7334   3.493   5.402   3.570
 2145SOL    HW2 7335   3.472   5.562   3.542
 2146SOL     OW 7336   3.204   2.890   2.148
 2146SOL    HW1 7337   3.237   2.850   2.062
 2146SOL    HW2 7338   3.116   2.850   2.172
 2147SOL     OW 7339   0.788   1.761   6.347
 2147SOL    HW1 7340   0.841   1.706   6.283
 2147SOL    HW2 7341   0.695   1.724   6.355
 2148SOL     OW 7342   4.904   3.572   3.832
 2148SOL    HW1 7343   4.913   3.478   3.799
 2148SOL    HW2 7344   4.979   3.592   3.895
 2149SOL     OW 7345   3.873   1.159   2.322
 2149SOL    HW1 7346   3.882   1.153   2.421
 2149SOL    HW2 7347   3.850   1.253   2.296
 2150SOL     OW 7348   3.536   2.127   3.275
 2150SOL    HW1 7349   3.586   2.179   3.344
 2150SOL    HW2 7350   3.582   2.040   3.259
 2151SOL     OW 7351   3.769   2.494   5.745
 2151SOL    HW1 7352   3.729   2.556   5.678
 2151SOL    HW2 7353   3.699   2.430   5.777
 2152SOL     OW 7354   5.963   6.732   2.102
 2152SOL    HW1 7355   5.969   6.768   2.009
 2152SOL    HW2 7356   6.053   6.738   2.146
 2153SOL     OW 7357   4.517   1.735   3.981
 2153SOL    HW1 7358   4.486   1.684   4.062
 2153SOL    HW2 7359   4.511   1.676   3.900
 2154SOL     OW 7360   3.044   5.789   4.585
 2154SOL    HW1 7361   3.010   5.697   4.605
 2154SOL    HW2 7362   2.973   5.841   4.538
 2155SOL     OW 7363   1.719   4.464   0.478
 2155SOL    HW1 7364   1.642   4.526   0.460
 2155SOL    HW2 7365   1.692   4.371   0.452
 2156SOL     OW 7366   1.754   0.368   2.350
 2156SOL    HW1 7367   1.664   0.355   2.308
 2156SOL    HW2 7368   1.771   0.465   2.363
 2157SOL     OW 7369   0.002   1.254   5.211
 2157SOL    HW1 7370   7.022   1.352   5.191
 2157SOL    HW2 7371   6.966   1.203   5.153
 2158SOL     OW 7372   3.990   0.423   0.946
 2158SOL    HW1 7373   4.030   0.444   1.035
 2158SOL    HW2 7374   3.991   0.506   0.889
 2159SOL     OW 7375   1.353   0.042   4.517
 2159SOL    HW1 7376   1.448   0.013   4.526
 2159SOL    HW2 7377   1.340   0.087   4.429
 2160SOL     OW 7378   3.370   4.364   1.347
 2160SOL    HW1 7379   3.364   4.362   1.447
 2160SOL    HW2 7380   3.383   4.458   1.316
 2161SOL     OW 7381   5.043   3.333   3.642
 2161SOL    HW1 7382   4.986   3.325   3.723
 2161SOL    HW2 7383   5.011   3.269   3.572
 2162SOL     OW 7384   2.043   0.735   6.747
 2162SOL    HW1 7385   2.053   0.707   6.652
 2162SOL    HW2 7386   1.948   0.762   6.764
 2163SOL     OW 7387   1.698   0.352   0.170
 2163SOL    HW1 7388   1.639   0.294   0.114
 2163SOL    HW2 7389   1.720   0.436   0.120
 2164SOL     OW 7390   1.890   0.390   6.215
 2164SOL    HW1 7391   1.860   0.381   6.310
 2164SOL    HW2 7392   1.981   0.348   6.205
 2165SOL     OW 7393   1.341   0.344   2.267
 2165SOL    HW1 7394   1.280   0.402   2.213
 2165SOL    HW2 7395   1.414   0.309   2.210
 2166SOL     OW 7396   1.585   2.315   5.108
 2166SOL    HW1 7397   1.607   2.296   5.204
 2166SOL    HW2 7398   1.573   2.228   5.059
 2167SOL     OW 7399   3.220   0.750   2.193
 2167SOL    HW1 7400   3.135   0.768   2.243
 2167SOL    HW2 7401   3.284   0.702   2.252
 2168SOL     OW 7402   5.958   3.421   4.422
 2168SOL    HW1 7403   6.035   3.476   4.455
 2168SOL    HW2 7404   5.977   3.389   4.329
 2169SOL     OW 7405   5.202   2.758   6.113
 2169SOL    HW1 7406   5.186   2.786   6.207
 2169SOL    HW2 7407   5.281   2.807   6.076
 2170SOL     OW 7408   4.519   5.096   5.111
 2170SOL    HW1 7409   4.511   5.068   5.207
 2170SOL    HW2 7410   4.453   5.045   5.056
 2171SOL     OW 7411   6.810   3.585   0.049
 2171SOL    HW1 7412   6.905   3.591   0.077
 2171SOL    HW2 7413   6.762   3.518   0.106
 2172SOL     OW 7414   3.149   1.200   0.860
 2172SOL    HW1 7415   3.125   1.296   0.878
 2172SOL    HW2 7416   3.233   1.177   0.908
 2173SOL     OW 7417   4.300   1.208   5.548
 2173SOL    HW1 7418   4.371   1.215   5.618
 2173SOL    HW2 7419   4.304   1.118   5.506
 2174SOL     OW 7420   6.388   4.869   4.596
 2174SOL    HW1 7421   6.454   4.795   4.612
 2174SOL    HW2 7422   6.436   4.951   4.567
 2175SOL     OW 7423   2.835   0.012   3.890
 2175SOL    HW1 7424   2.899   7.012   3.819
 2175SOL    HW2 7425   2.808   0.108   3.876
 2176SOL     OW 7426   2.116   2.447   3.149
 2176SOL    HW1 7427   2.087   2.511   3.078
 2176SOL    HW2 7428   2.215   2.434   3.145
 2177SOL     OW 7429   0.208   2.135   0.921
 2177SOL    HW1 7430   0.168   2.151   0.831
 2177SOL    HW2 7431   0.246   2.043   0.925
 2178SOL     OW 7432   0.640   4.799   0.581
 2178SOL    HW1 7433   0.548   4.787   0.545
 2178SOL    HW2 7434   0.678   4.710   0.607
 2179SOL     OW 7435   1.714   5.155   4.665
 2179SOL    HW1 7436   1.802   5.172   4.708
 2179SOL    HW2 7437   1.724   5.153   4.566
 2180SOL     OW 7438   3.042   3.965   2.482
 2180SOL    HW1 7439   3.142   3.956   2.478
 2180SOL    HW2 7440   3.018   4.048   2.532
 2181SOL     OW 7441   5.121   5.821   5.558
 2181SOL    HW1 7442   5.045   5.839   5.494
 2181SOL    HW2 7443   5.087   5.765   5.633
 2182SOL     OW 7444   7.028   3.890   6.273
 2182SOL    HW1 7445   0.039   3.874   6.182
 2182SOL    HW2 7446   0.074   3.910   6.337
 2183SOL     OW 7447   3.144   2.790   0.623
 2183SOL    HW1 7448   3.213   2.739   0.674
 2183SOL    HW2 7449   3.172   2.798   0.527
 2184SOL     OW 7450   3.659   1.998   6.198
 2184SOL    HW1 7451   3.698   2.035   6.113
 2184SOL    HW2 7452   3.599   2.067   6.239
 2185SOL     OW 7453   1.495   0.611   0.621
 2185SOL    HW1 7454   1.522   0.549   0.695
 2185SOL    HW2 7455   1.497   0.561   0.534
 2186SOL     OW 7456   6.883   5.245   3.064
 2186SOL    HW1 7457   6.876   5.159   3.014
 2186SOL    HW2 7458   6.979   5.273   3.071
 2187SOL     OW 7459   6.191   1.483   0.544
 2187SOL    HW1 7460   6.187   1.508   0.640
 2187SOL    HW2 7461   6.150   1.555   0.488
 2188SOL     OW 7462   5.523   6.504   3.462
 2188SOL    HW1 7463   5.611   6.507   3.510
 2188SOL    HW2 7464   5.467   6.583   3.489
 2189SOL     OW 7465   2.231   7.027   6.058
 2189SOL    HW1 7466   2.281   0.016   5.973
 2189SOL    HW2 7467   2.294   6.989   6.127
 2190SOL     OW 7468   6.132   2.283   1.301
 2190SOL    HW1 7469   6.211   2.309   1.245
 2190SOL    HW2 7470   6.123   2.347   1.378
 2191SOL     OW 7471   3.369   3.283   6.306
 2191SOL    HW1 7472   3.353   3.188   6.280
 2191SOL    HW2 7473   3.291   3.316   6.359
 2192SOL     OW 7474   4.133   5.977   5.117
 2192SOL    HW1 7475   4.194   5.901   5.140
 2192SOL    HW2 7476   4.159   6.015   5.028
 2193SOL     OW 7477   0.779   5.168   5.909
 2193SOL    HW1 7478   0.823   5.164   5.998
 2193SOL    HW2 7479   0.690   5.123   5.913
 2194SOL     OW 7480   2.370   6.122   0.720
 2194SOL    HW1 7481   2.288   6.071   0.746
 2194SOL    HW2 7482   2.432   6.061   0.669
 2195SOL     OW 7483   1.465   5.450   2.999
 2195SOL    HW1 7484   1.382   5.395   3.008
 2195SOL    HW2 7485   1.535   5.398   2.951
 2196SOL     OW 7486   3.695   1.811   6.019
 2196SOL    HW1 7487   3.760   1.748   6.060
 2196SOL    HW2 7488   3.680   1.888   6.081
 2197SOL     OW 7489   5.031   4.980   1.502
 2197SOL    HW1 7490   5.063   4.930   1.583
 2197SOL    HW2 7491   4.947   4.938   1.468
 2198SOL     OW 7492   6.647   4.293   0.153
 2198SOL    HW1 7493   6.732   4.270   0.106
 2198SOL    HW2 7494   6.571   4.286   0.090
 2199SOL     OW 7495   4.562   6.904   1.170
 2199SOL    HW1 7496   4.559   7.000   1.143
 2199SOL    HW2 7497   4.616   6.893   1.253
 2200SOL     OW 7498   3.836   0.837   4.241
 2200SOL    HW1 7499   3.740   0.861   4.253
 2200SOL    HW2 7500   3.881   0.908   4.187
 2201SOL     OW 7501   6.212   3.289   2.307
 2201SOL    HW1 7502   6.199   3.193   2.333
 2201SOL    HW2 7503   6.216   3.296   2.208
 2202SOL     OW 7504   4.235   5.614   3.905
 2202SOL    HW1 7505   4.259   5.708   3.881
 2202SOL    HW2 7506   4.143   5.613   3.945
 2203SOL     OW 7507   3.681   1.944   2.827
 2203SOL    HW1 7508   3.607   2.011   2.830
 2203SOL    HW2 7509   3.642   1.852   2.822
 2204SOL     OW 7510   3.158   2.433   0.536
 2204SOL    HW1 7511   3.235   2.470   0.485
 2204SOL    HW2 7512   3.085   2.407   0.472
 2205SOL     OW 7513   2.571   6.693   0.502
 2205SOL    HW1 7514   2.515   6.666   0.580
 2205SOL    HW2 7515   2.612   6.782   0.519
 2206SOL     OW 7516   3.162   3.111   6.728
 2206SOL    HW1 7517   3.079   3.165   6.711
 2206SOL    HW2 7518   3.185   3.058   6.646
 2207SOL     OW 7519   1.510   4.716   6.349
 2207SOL    HW1 7520   1.537   4.656   6.274
 2207SOL    HW2 7521   1.426   4.682   6.390
 2208SOL     OW 7522   0.405   3.907   1.801
 2208SOL    HW1 7523   0.333   3.949   1.744
 2208SOL    HW2 7524   0.479   3.876   1.742
 2209SOL     OW 7525   1.093   5.555   6.081
 2209SOL    HW1 7526   1.007   5.559   6.133
 2209SOL    HW2 7527   1.168   5.584   6.140
 2210SOL     OW 7528   1.087   5.531   3.840
 2210SOL    HW1 7529   1.155   5.601   3.819
 2210SOL    HW2 7530   1.071   5.474   3.760
 2211SOL     OW 7531   5.868   1.135   5.489
 2211SOL    HW1 7532   5.903   1.079   5.564
 2211SOL    HW2 7533   5.787   1.093   5.450
 2212SOL     OW 7534   1.355   0.364   6.210
 2212SOL    HW1 7535   1.384   0.364   6.114
 2212SOL    HW2 7536   1.266   0.320   6.218
 2213SOL     OW 7537   3.998   2.184   3.374
 2213SOL    HW1 7538   3.988   2.096   3.327
 2213SOL    HW2 7539   4.030   2.253   3.309
 2214SOL     OW 7540   5.386   0.269   4.610
 2214SOL    HW1 7541   5.341   0.345   4.658
 2214SOL    HW2 7542   5.382   0.285   4.511
 2215SOL     OW 7543   6.845   2.337   5.024
 2215SOL    HW1 7544   6.913   2.386   4.970
 2215SOL    HW2 7545   6.801   2.267   4.967
 2216SOL     OW 7546   1.351   6.662   1.189
 2216SOL    HW1 7547   1.394   6.586   1.141
 2216SOL    HW2 7548   1.347   6.742   1.130
 2217SOL     OW 7549   4.312   6.966   1.350
 2217SOL    HW1 7550   4.365   0.010   1.395
 2217SOL    HW2 7551   4.371   6.917   1.285
 2218SOL     OW 7552   0.776   5.580   6.682
 2218SOL    HW1 7553   0.677   5.570   6.697
 2218SOL    HW2 7554   0.793   5.665   6.632
 2219SOL     OW 7555   2.180   4.088   3.221
 2219SOL    HW1 7556   2.209   4.175   3.261
 2219SOL    HW2 7557   2.187   4.092   3.122
 2220SOL     OW 7558   0.429   1.552   5.705
 2220SOL    HW1 7559   0.506   1.514   5.756
 2220SOL    HW2 7560   0.431   1.652   5.710
 2221SOL     OW 7561   6.447   2.207   1.420
 2221SOL    HW1 7562   6.449   2.120   1.469
 2221SOL    HW2 7563   6.489   2.278   1.475
 2222SOL     OW 7564   4.604   6.811   2.282
 2222SOL    HW1 7565   4.582   6.736   2.220
 2222SOL    HW2 7566   4.703   6.825   2.285
 2223SOL     OW 7567   5.587   5.093   3.611
 2223SOL    HW1 7568   5.575   4.994   3.617
 2223SOL    HW2 7569   5.498   5.138   3.613
 2224SOL     OW 7570   2.129   4.575   1.814
 2224SOL    HW1 7571   2.057   4.627   1.861
 2224SOL    HW2 7572   2.159   4.625   1.733
 2225SOL     OW 7573   6.129   4.580   2.011
 2225SOL    HW1 7574   6.121   4.494   2.060
 2225SOL    HW2 7575   6.164   4.651   2.073
 2226SOL     OW 7576   3.913   3.534   0.882
 2226SOL    HW1 7577   3.898   3.436   0.865
 2226SOL    HW2 7578   3.999   3.546   0.932
 2227SOL     OW 7579   6.660   3.960   5.359
 2227SOL    HW1 7580   6.752   3.979   5.323
 2227SOL    HW2 7581   6.653   3.864   5.384
 2228SOL     OW 7582   2.995   4.951   6.210
 2228SOL    HW1 7583   3.026   4.978   6.301
 2228SOL    HW2 7584   2.895   4.956   6.206
 2229SOL     OW 7585   4.398   1.146   3.180
 2229SOL    HW1 7586   4.359   1.055   3.166
 2229SOL    HW2 7587   4.496   1.139   3.197
 2230SOL     OW 7588   0.784   6.169   6.112
 2230SOL    HW1 7589   0.701   6.207   6.071
 2230SOL    HW2 7590   0.864   6.202   6.061
 2231SOL     OW 7591   2.393   6.886   2.028
 2231SOL    HW1 7592   2.467   6.936   2.073
 2231SOL    HW2 7593   2.400   6.789   2.050
 2232SOL     OW 7594   6.496   2.713   2.279
 2232SOL    HW1 7595   6.468   2.693   2.373
 2232SOL    HW2 7596   6.591   2.687   2.266
 2233SOL     OW 7597   3.508   6.820   0.323
 2233SOL    HW1 7598   3.434   6.794   0.261
 2233SOL    HW2 7599   3.579   6.750   0.321
 2234SOL     OW 7600   3.756   1.323   0.458
 2234SOL    HW1 7601   3.672   1.292   0.413
 2234SOL    HW2 7602   3.742   1.325   0.557
 2235SOL     OW 7603   1.155   6.763   0.524
 2235SOL    HW1 7604   1.252   6.791   0.521
 2235SOL    HW2 7605   1.105   6.824   0.585
 2236SOL     OW 7606   0.776   4.367   1.094
 2236SOL    HW1 7607   0.699   4.314   1.058
 2236SOL    HW2 7608   0.801   4.439   1.028
 2237SOL     OW 7609   5.978   2.854   4.654
 2237SOL    HW1 7610   6.064   2.849   4.603
 2237SOL    HW2 7611   5.996   2.866   4.751
 2238SOL     OW 7612   0.499   5.748   2.232
 2238SOL    HW1 7613   0.465   5.837   2.203
 2238SOL    HW2 7614   0.422   5.688   2.255
 2239SOL     OW 7615   4.234   5.340   3.182
 2239SOL    HW1 7616   4.180   5.347   3.266
 2239SOL    HW2 7617   4.182   5.380   3.106
 2240SOL     OW 7618   5.948   5.059   2.633
 2240SOL    HW1 7619   6.031   5.112   2.645
 2240SOL    HW2 7620   5.967   4.981   2.573
 2241SOL     OW 7621   0.238   6.689   1.902
 2241SOL    HW1 7622   0.268   6.783   1.881
 2241SOL    HW2 7623   0.152   6.693   1.954
 2242SOL     OW 7624   4.935   2.000   3.167
 2242SOL    HW1 7625   4.865   2.029   3.102
 2242SOL    HW2 7626   4.915   2.039   3.257
 2243SOL     OW 7627   2.604   5.602   5.105
 2243SOL    HW1 7628   2.599   5.698   5.130
 2243SOL    HW2 7629   2.564   5.546   5.178
 2244SOL     OW 7630   2.609   0.341   4.399
 2244SOL    HW1 7631   2.598   0.416   4.465
 2244SOL    HW2 7632   2.530   0.280   4.403
 2245SOL     OW 7633   1.066   0.901   2.310
 2245SOL    HW1 7634   1.030   0.814   2.345
 2245SOL    HW2 7635   1.150   0.883   2.258
 2246SOL     OW 7636   0.818   4.087   6.278
 2246SOL    HW1 7637   0.889   4.030   6.237
 2246SOL    HW2 7638   0.854   4.179   6.293
 2247SOL     OW 7639   2.436   3.111   6.506
 2247SOL    HW1 7640   2.341   3.084   6.517
 2247SOL    HW2 7641   2.478   3.058   6.432
 2248SOL     OW 7642   4.557   3.588   5.936
 2248SOL    HW1 7643   4.631   3.600   6.003
 2248SOL    HW2 7644   4.594   3.547   5.853
 2249SOL     OW 7645   5.436   5.866   3.548
 2249SOL    HW1 7646   5.393   5.808   3.478
 2249SOL    HW2 7647   5.462   5.954   3.507
 2250SOL     OW 7648   6.957   4.168   0.732
 2250SOL    HW1 7649   6.946   4.074   0.764
 2250SOL    HW2 7650   0.016   4.204   0.766
 2251SOL     OW 7651   5.559   0.871   0.121
 2251SOL    HW1 7652   5.505   0.792   0.148
 2251SOL    HW2 7653   5.551   0.942   0.191
 2252SOL     OW 7654   4.937   2.476   5.774
 2252SOL    HW1 7655   4.903   2.562   5.812
 2252SOL    HW2 7656   4.868   2.438   5.713
 2253SOL     OW 7657   2.390   3.073   0.173
 2253SOL    HW1 7658   2.360   3.073   0.268
 2253SOL    HW2 7659   2.482   3.033   0.167
 2254SOL     OW 7660   2.648   3.808   6.298
 2254SOL    HW1 7661   2.557   3.796   6.258
 2254SOL    HW2 7662   2.676   3.724   6.344
 2255SOL     OW 7663   5.827   2.815   1.781
 2255SOL    HW1 7664   5.779   2.858   1.858
 2255SOL    HW2 7665   5.865   2.887   1.723
 2256SOL     OW 7666   4.224   4.664   2.305
 2256SOL    HW1 7667   4.189   4.698   2.218
 2256SOL    HW2 7668   4.276   4.580   2.290
 2257SOL     OW 7669   1.867   4.418   3.786
 2257SOL    HW1 7670   1.818   4.366   3.716
 2257SOL    HW2 7671   1.850   4.516   3.774
 2258SOL     OW 7672   1.864   5.530   4.813
 2258SOL    HW1 7673   1.783   5.556   4.865
 2258SOL    HW2 7674   1.946   5.554   4.865
 2259SOL     OW 7675   4.938   3.909   6.834
 2259SOL    HW1 7676   5.038   3.897   6.834
 2259SOL    HW2 7677   4.912   3.965   6.756
 2260SOL     OW 7678   5.531   4.802   1.617
 2260SOL    HW1 7679   5.499   4.708   1.614
 2260SOL    HW2 7680   5.462   4.861   1.658
 2261SOL     OW 7681   5.260   0.021   0.129
 2261SOL    HW1 7682   5.337   0.069   0.172
 2261SOL    HW2 7683   5.195   7.019   0.199
 2262SOL     OW 7684   4.850   2.090   3.874
 2262SOL    HW1 7685   4.786   2.014   3.860
 2262SOL    HW2 7686   4.846   2.120   3.969
 2263SOL     OW 7687   1.021   5.184   5.763
 2263SOL    HW1 7688   0.934   5.165   5.809
 2263SOL    HW2 7689   1.020   5.142   5.672
 2264SOL     OW 7690   3.336   3.268   4.461
 2264SOL    HW1 7691   3.401   3.289   4.389
 2264SOL    HW2 7692   3.377   3.286   4.550
 2265SOL     OW 7693   6.979   0.041   1.904
 2265SOL    HW1 7694   6.881   0.028   1.922
 2265SOL    HW2 7695   6.996   0.033   1.806
 2266SOL     OW 7696   5.972   0.601   0.612
 2266SOL    HW1 7697   5.901   0.546   0.656
 2266SOL    HW2 7698   6.004   0.554   0.529
 2267SOL     OW 7699   6.559   2.926   5.859
 2267SOL    HW1 7700   6.586   2.836   5.891
 2267SOL    HW2 7701   6.462   2.941   5.877
 2268SOL     OW 7702   6.871   5.834   6.702
 2268SOL    HW1 7703   6.916   5.744   6.703
 2268SOL    HW2 7704   6.913   5.893   6.771
 2269SOL     OW 7705   6.441   5.425   6.124
 2269SOL    HW1 7706   6.435   5.479   6.207
 2269SOL    HW2 7707   6.456   5.486   6.046
 2270SOL     OW 7708   4.042   3.442   1.867
 2270SOL    HW1 7709   4.108   3.487   1.806
 2270SOL    HW2 7710   3.949   3.463   1.836
 2271SOL     OW 7711   6.362   4.576   2.277
 2271SOL    HW1 7712   6.289   4.617   2.222
 2271SOL    HW2 7713   6.324   4.506   2.336
 2272SOL     OW 7714   5.793   2.175   5.615
 2272SOL    HW1 7715   5.696   2.198   5.620
 2272SOL    HW2 7716   5.812   2.126   5.530
 2273SOL     OW 7717   0.883   1.398   3.298
 2273SOL    HW1 7718   0.813   1.327   3.291
 2273SOL    HW2 7719   0.973   1.358   3.284
 2274SOL     OW 7720   1.436   3.605   4.407
 2274SOL    HW1 7721   1.445   3.515   4.363
 2274SOL    HW2 7722   1.357   3.653   4.368
 2275SOL     OW 7723   5.364   6.647   3.908
 2275SOL    HW1 7724   5.333   6.590   3.984
 2275SOL    HW2 7725   5.287   6.665   3.847
 2276SOL     OW 7726   4.113   4.547   1.594
 2276SOL    HW1 7727   4.094   4.596   1.679
 2276SOL    HW2 7728   4.200   4.499   1.601
 2277SOL     OW 7729   3.495   3.234   0.275
 2277SOL    HW1 7730   3.584   3.247   0.229
 2277SOL    HW2 7731   3.425   3.284   0.224
 2278SOL     OW 7732   5.200   5.832   1.366
 2278SOL    HW1 7733   5.195   5.733   1.349
 2278SOL    HW2 7734   5.295   5.861   1.370
 2279SOL     OW 7735   5.549   3.215   5.015
 2279SOL    HW1 7736   5.457   3.204   5.053
 2279SOL    HW2 7737   5.543   3.255   4.924
 2280SOL     OW 7738   6.186   6.336   6.219
 2280SOL    HW1 7739   6.171   6.341   6.317
 2280SOL    HW2 7740   6.115   6.279   6.177
 2281SOL     OW 7741   3.839   2.297   1.312
 2281SOL    HW1 7742   3.926   2.324   1.271
 2281SOL    HW2 7743   3.852   2.215   1.367
 2282SOL     OW 7744   4.785   5.595   2.899
 2282SOL    HW1 7745   4.708   5.626   2.956
 2282SOL    HW2 7746   4.761   5.508   2.857
 2283SOL     OW 7747   0.039   3.296   3.698
 2283SOL    HW1 7748   6.984   3.349   3.680
 2283SOL    HW2 7749   0.021   3.199   3.683
 2284SOL     OW 7750   2.221   2.326   1.684
 2284SOL    HW1 7751   2.176   2.265   1.619
 2284SOL    HW2 7752   2.216   2.420   1.650
 2285SOL     OW 7753   1.908   4.029   0.998
 2285SOL    HW1 7754   1.893   4.053   0.902
 2285SOL    HW2 7755   1.920   3.929   1.006
 2286SOL     OW 7756   6.488   6.457   4.952
 2286SOL    HW1 7757   6.432   6.433   4.872
 2286SOL    HW2 7758   6.431   6.454   5.034
 2287SOL     OW 7759   2.368   2.542   1.934
 2287SOL    HW1 7760   2.275   2.576   1.919
 2287SOL    HW2 7761   2.426   2.571   1.858
 2288SOL     OW 7762   0.357   6.472   3.072
 2288SOL    HW1 7763   0.288   6.508   3.134
 2288SOL    HW2 7764   0.360   6.372   3.081
 2289SOL     OW 7765   5.535   2.170   2.293
 2289SOL    HW1 7766   5.439   2.160   2.268
 2289SOL    HW2 7767   5.592   2.171   2.211
 2290SOL     OW 7768   3.026   3.534   2.796
 2290SOL    HW1 7769   3.032   3.458   2.732
 2290SOL    HW2 7770   3.008   3.619   2.747
 2291SOL     OW 7771   1.976   3.033   0.885
 2291SOL    HW1 7772   1.906   3.064   0.821
 2291SOL    HW2 7773   1.934   2.977   0.956
 2292SOL     OW 7774   4.360   1.997   3.361
 2292SOL    HW1 7775   4.303   2.062   3.310
 2292SOL    HW2 7776   4.312   1.969   3.444
 2293SOL     OW 7777   6.142   1.298   0.223
 2293SOL    HW1 7778   6.046   1.301   0.250
 2293SOL    HW2 7779   6.176   1.204   0.230
 2294SOL     OW 7780   0.874   2.184   5.772
 2294SOL    HW1 7781   0.872   2.094   5.814
 2294SOL    HW2 7782   0.808   2.244   5.817
 2295SOL     OW 7783   6.200   6.729   1.758
 2295SOL    HW1 7784   6.260   6.760   1.684
 2295SOL    HW2 7785   6.221   6.633   1.779
 2296SOL     OW 7786   2.747   5.523   3.916
 2296SOL    HW1 7787   2.811   5.557   3.847
 2296SOL    HW2 7788   2.792   5.521   4.005
 2297SOL     OW 7789   4.357   4.553   5.430
 2297SOL    HW1 7790   4.304   4.553   5.345
 2297SOL    HW2 7791   4.318   4.486   5.493
 2298SOL     OW 7792   3.702   3.379   4.777
 2298SOL    HW1 7793   3.715   3.326   4.860
 2298SOL    HW2 7794   3.785   3.431   4.756
 2299SOL     OW 7795   5.753   3.043   4.869
 2299SOL    HW1 7796   5.703   3.000   4.794
 2299SOL    HW2 7797   5.701   3.122   4.902
 2300SOL     OW 7798   3.956   6.248   2.703
 2300SOL    HW1 7799   3.894   6.181   2.662
 2300SOL    HW2 7800   3.974   6.322   2.639
 2301SOL     OW 7801   3.545   3.897   4.691
 2301SOL    HW1 7802   3.545   3.997   4.687
 2301SOL    HW2 7803   3.594   3.867   4.774
 2302SOL     OW 7804   4.938   2.220   0.180
 2302SOL    HW1 7805   4.926   2.130   0.222
 2302SOL    HW2 7806   4.854   2.245   0.132
 2303SOL     OW 7807   3.219   2.193   0.980
 2303SOL    HW1 7808   3.227   2.183   1.079
 2303SOL    HW2 7809   3.286   2.134   0.935
 2304SOL     OW 7810   5.980   5.802   2.120
 2304SOL    HW1 7811   5.931   5.812   2.034
 2304SOL    HW2 7812   5.916   5.778   2.193
 2305SOL     OW 7813   1.633   1.117   4.974
 2305SOL    HW1 7814   1.704   1.175   4.934
 2305SOL    HW2 7815   1.673   1.029   5.001
 2306SOL     OW 7816   2.291   5.083   3.729
 2306SOL    HW1 7817   2.203   5.119   3.700
 2306SOL    HW2 7818   2.335   5.037   3.651
 2307SOL     OW 7819   0.683   2.302   5.213
 2307SOL    HW1 7820   0.707   2.364   5.288
 2307SOL    HW2 7821   0.704   2.208   5.239
 2308SOL     OW 7822   2.574   4.456   1.463
 2308SOL    HW1 7823   2.586   4.513   1.383
 2308SOL    HW2 7824   2.568   4.513   1.545
 2309SOL     OW 7825   1.395   6.568   4.450
 2309SOL    HW1 7826   1.313   6.541   4.500
 2309SOL    HW2 7827   1.474   6.519   4.487
 2310SOL     OW 7828   4.598   6.620   1.409
 2310SOL    HW1 7829   4.646   6.707   1.406
 2310SOL    HW2 7830   4.550   6.606   1.322
 2311SOL     OW 7831   2.440   6.038   1.233
 2311SOL    HW1 7832   2.399   6.026   1.143
 2311SOL    HW2 7833   2.372   6.075   1.297
 2312SOL     OW 7834   3.440   4.986   2.845
 2312SOL    HW1 7835   3.436   4.970   2.944
 2312SOL    HW2 7836   3.366   4.936   2.800
 2313SOL     OW 7837   5.415   5.001   2.160
 2313SOL    HW1 7838   5.354   5.029   2.235
 2313SOL    HW2 7839   5.413   4.901   2.151
 2314SOL     OW 7840   3.141   5.906   4.139
 2314SOL    HW1 7841   3.161   6.002   4.118
 2314SOL    HW2 7842   3.126   5.856   4.054
 2315SOL     OW 7843   4.078   3.241   6.658
 2315SOL    HW1 7844   4.081   3.208   6.564
 2315SOL    HW2 7845   4.157   3.204   6.709
 2316SOL     OW 7846   5.333   2.922   3.057
 2316SOL    HW1 7847   5.301   2.903   3.150
 2316SOL    HW2 7848   5.426   2.959   3.061
 2317SOL     OW 7849   1.411   4.342   3.353
 2317SOL    HW1 7850   1.401   4.289   3.269
 2317SOL    HW2 7851   1.508   4.365   3.367
 2318SOL     OW 7852   0.181   0.650   3.442
 2318SOL    HW1 7853   0.266   0.688   3.478
 2318SOL    HW2 7854   0.195   0.555   3.415
 2319SOL     OW 7855   1.525   4.176   4.179
 2319SOL    HW1 7856   1.502   4.255   4.236
 2319SOL    HW2 7857   1.450   4.110   4.181
 2320SOL     OW 7858   6.775   2.853   4.334
 2320SOL    HW1 7859   6.756   2.837   4.431
 2320SOL    HW2 7860   6.830   2.936   4.325
 2321SOL     OW 7861   2.966   6.893   5.247
 2321SOL    HW1 7862   2.944   6.987   5.222
 2321SOL    HW2 7863   3.031   6.893   5.323
 2322SOL     OW 7864   1.804   0.466   4.928
 2322SOL    HW1 7865   1.775   0.434   4.838
 2322SOL    HW2 7866   1.724   0.489   4.983
 2323SOL     OW 7867   4.324   5.781   2.010
 2323SOL    HW1 7868   4.316   5.829   2.097
 2323SOL    HW2 7869   4.287   5.838   1.937
 2324SOL     OW 7870   0.230   5.296   3.424
 2324SOL    HW1 7871   0.229   5.387   3.463
 2324SOL    HW2 7872   0.296   5.292   3.349
 2325SOL     OW 7873   0.440   3.140   1.138
 2325SOL    HW1 7874   0.480   3.219   1.183
 2325SOL    HW2 7875   0.504   3.063   1.143
 2326SOL     OW 7876   1.276   5.303   6.649
 2326SOL    HW1 7877   1.299   5.210   6.621
 2326SOL    HW2 7878   1.177   5.309   6.665
 2327SOL     OW 7879   4.768   2.873   4.336
 2327SOL    HW1 7880   4.736   2.943   4.273
 2327SOL    HW2 7881   4.814   2.916   4.414
 2328SOL     OW 7882   4.410   0.836   3.208
 2328SOL    HW1 7883   4.414   0.825   3.307
 2328SOL    HW2 7884   4.352   0.764   3.168
 2329SOL     OW 7885   1.251   6.005   3.879
 2329SOL    HW1 7886   1.204   6.019   3.966
 2329SOL    HW2 7887   1.206   6.058   3.807
 2330SOL     OW 7888   0.539   4.407   2.773
 2330SOL    HW1 7889   0.587   4.319   2.779
 2330SOL    HW2 7890   0.441   4.392   2.770
 2331SOL     OW 7891   0.826   4.755   5.490
 2331SOL    HW1 7892   0.734   4.736   5.526
 2331SOL    HW2 7893   0.848   4.689   5.418
 2332SOL     OW 7894   5.642   2.752   6.241
 2332SOL    HW1 7895   5.664   2.720   6.333
 2332SOL    HW2 7896   5.726   2.770   6.190
 2333SOL     OW 7897   1.236   5.873   3.492
 2333SOL    HW1 7898   1.164   5.869   3.561
 2333SOL    HW2 7899   1.323   5.896   3.535
 2334SOL     OW 7900   3.275   0.042   6.841
 2334SOL    HW1 7901   3.235   0.128   6.809
 2334SOL    HW2 7902   3.227   0.011   6.923
 2335SOL     OW 7903   5.394   6.904   3.810
 2335SOL    HW1 7904   5.418   6.827   3.871
 2335SOL    HW2 7905   5.478   6.942   3.772
 2336SOL     OW 7906   4.990   1.574   5.939
 2336SOL    HW1 7907   4.975   1.475   5.948
 2336SOL    HW2 7908   5.081   1.597   5.974
 2337SOL     OW 7909   5.307   6.898   3.032
 2337SOL    HW1 7910   5.303   6.996   3.009
 2337SOL    HW2 7911   5.228   6.875   3.089
 2338SOL     OW 7912   0.940   6.740   6.553
 2338SOL    HW1 7913   0.966   6.757   6.458
 2338SOL    HW2 7914   0.861   6.796   6.576
 2339SOL     OW 7915   3.573   4.396   0.122
 2339SOL    HW1 7916   3.635   4.463   0.162
 2339SOL    HW2 7917   3.625   4.316   0.092
 2340SOL     OW 7918   3.571   5.586   4.774
 2340SOL    HW1 7919   3.591   5.550   4.865
 2340SOL    HW2 7920   3.622   5.534   4.705
 2341SOL     OW 7921   5.180   5.370   0.987
 2341SOL    HW1 7922   5.188   5.439   0.915
 2341SOL    HW2 7923   5.256   5.305   0.979
 2342SOL     OW 7924   6.163   0.596   5.144
 2342SOL    HW1 7925   6.209   0.509   5.128
 2342SOL    HW2 7926   6.097   0.586   5.218
 2343SOL     OW 7927   1.495   6.433   1.062
 2343SOL    HW1 7928   1.509   6.337   1.038
 2343SOL    HW2 7929   1.426   6.473   1.003
 2344SOL     OW 7930   1.547   2.227   2.405
 2344SOL    HW1 7931   1.579   2.284   2.481
 2344SOL    HW2 7932   1.626   2.198   2.350
 2345SOL     OW 7933   2.123   1.061   4.391
 2345SOL    HW1 7934   2.098   1.030   4.483
 2345SOL    HW2 7935   2.127   1.161   4.390
 2346SOL     OW 7936   5.146   4.303   5.870
 2346SOL    HW1 7937   5.148   4.255   5.958
 2346SOL    HW2 7938   5.167   4.400   5.885
 2347SOL     OW 7939   1.399   2.674   1.869
 2347SOL    HW1 7940   1.408   2.684   1.968
 2347SOL    HW2 7941   1.389   2.577   1.845
 2348SOL     OW 7942   2.816   6.979   2.346
 2348SOL    HW1 7943   2.855   6.910   2.285
 2348SOL    HW2 7944   2.833   6.952   2.441
 2349SOL     OW 7945   5.916   6.521   5.568
 2349SOL    HW1 7946   5.956   6.605   5.532
 2349SOL    HW2 7947   5.833   6.499   5.516
 2350SOL     OW 7948   2.690   0.090   5.952
 2350SOL    HW1 7949   2.624   0.105   6.026
 2350SOL    HW2 7950   2.660   0.139   5.871
 2351SOL     OW 7951   2.450   5.168   4.155
 2351SOL    HW1 7952   2.357   5.199   4.135
 2351SOL    HW2 7953   2.515   5.220   4.100
 2352SOL     OW 7954   0.646   3.664   2.871
 2352SOL    HW1 7955   0.682   3.757   2.878
 2352SOL    HW2 7956   0.637   3.624   2.962
 2353SOL     OW 7957   3.437   4.939   5.698
 2353SOL    HW1 7958   3.463   4.943   5.601
 2353SOL    HW2 7959   3.420   4.844   5.723
 2354SOL     OW 7960   3.752   2.029   0.678
 2354SOL    HW1 7961   3.756   2.074   0.768
 2354SOL    HW2 7962   3.842   1.990   0.657
 2355SOL     OW 7963   0.276   6.174   0.865
 2355SOL    HW1 7964   0.367   6.197   0.830
 2355SOL    HW2 7965   0.264   6.214   0.956
 2356SOL     OW 7966   2.780   5.099   3.796
 2356SOL    HW1 7967   2.809   5.115   3.891
 2356SOL    HW2 7968   2.730   5.012   3.790
 2357SOL     OW 7969   6.557   4.072   1.948
 2357SOL    HW1 7970   6.588   3.985   1.989
 2357SOL    HW2 7971   6.635   4.122   1.913
 2358SOL     OW 7972   4.040   1.918   5.771
 2358SOL    HW1 7973   3.999   1.827   5.767
 2358SOL    HW2 7974   4.011   1.971   5.691
 2359SOL     OW 7975   1.397   1.690   5.493
 2359SOL    HW1 7976   1.445   1.719   5.576
 2359SOL    HW2 7977   1.357   1.600   5.507
 2360SOL     OW 7978   3.979   4.722   0.817
 2360SOL    HW1 7979   3.930   4.705   0.902
 2360SOL    HW2 7980   3.997   4.635   0.770
 2361SOL     OW 7981   3.228   6.577   1.873
 2361SOL    HW1 7982   3.179   6.636   1.809
 2361SOL    HW2 7983   3.184   6.580   1.962
 2362SOL     OW 7984   3.777   5.732   4.267
 2362SOL    HW1 7985   3.788   5.787   4.184
 2362SOL    HW2 7986   3.826   5.645   4.256
 2363SOL     OW 7987   3.391   3.547   0.706
 2363SOL    HW1 7988   3.381   3.593   0.794
 2363SOL    HW2 7989   3.487   3.523   0.691
 2364SOL     OW 7990   4.422   1.816   2.132
 2364SOL    HW1 7991   4.474   1.732   2.153
 2364SOL    HW2 7992   4.476   1.896   2.158
 2365SOL     OW 7993   5.644   3.619   4.071
 2365SOL    HW1 7994   5.684   3.676   4.143
 2365SOL    HW2 7995   5.714   3.558   4.034
 2366SOL     OW 7996   2.453   4.632   5.290
 2366SOL    HW1 7997   2.546   4.651   5.321
 2366SOL    HW2 7998   2.429   4.537   5.311
 2367SOL     OW 7999   0.639   4.289   5.867
 2367SOL    HW1 8000   0.601   4.236   5.791
 2367SOL    HW2 8001   0.735   4.265   5.881
 2368SOL     OW 8002   5.708   6.576   4.452
 2368SOL    HW1 8003   5.613   6.566   4.423
 2368SOL    HW2 8004   5.723   6.522   4.534
 2369SOL     OW 8005   2.758   1.549   3.704
 2369SOL    HW1 8006   2.668   1.505   3.708
 2369SOL    HW2 8007   2.747   1.648   3.716
 2370SOL     OW 8008   5.413   2.412   1.611
 2370SOL    HW1 8009   5.330   2.457   1.578
 2370SOL    HW2 8010   5.423   2.427   1.709
 2371SOL     OW 8011   0.909   6.957   2.821
 2371SOL    HW1 8012   0.885   6.989   2.730
 2371SOL    HW2 8013   0.869   7.019   2.889
 2372SOL     OW 8014   6.590   1.354   5.938
 2372SOL    HW1 8015   6.499   1.316   5.922
 2372SOL    HW2 8016   6.625   1.393   5.853
 2373SOL     OW 8017   6.246   6.679   6.025
 2373SOL    HW1 8018   6.178   6.720   5.965
 2373SOL    HW2 8019   6.216   6.587   6.051
 2374SOL     OW 8020   6.094   6.189   2.367
 2374SOL    HW1 8021   6.179   6.155   2.407
 2374SOL    HW2 8022   6.016   6.148   2.416
 2375SOL     OW 8023   1.446   0.884   3.983
 2375SOL    HW1 8024   1.375   0.883   4.054
 2375SOL    HW2 8025   1.489   0.974   3.980
 2376SOL     OW 8026   6.103   1.681   2.882
 2376SOL    HW1 8027   6.037   1.615   2.917
 2376SOL    HW2 8028   6.130   1.655   2.789
 2377SOL     OW 8029   3.891   5.069   6.003
 2377SOL    HW1 8030   3.898   4.989   6.063
 2377SOL    HW2 8031   3.982   5.092   5.967
 2378SOL     OW 8032   0.057   1.339   0.034
 2378SOL    HW1 8033   0.090   1.309   0.124
 2378SOL    HW2 8034   0.120   1.407   7.025
 2379SOL     OW 8035   6.651   5.583   1.170
 2379SOL    HW1 8036   6.643   5.682   1.164
 2379SOL    HW2 8037   6.748   5.557   1.172
 2380SOL     OW 8038   5.217   4.656   5.042
 2380SOL    HW1 8039   5.160   4.681   4.963
 2380SOL    HW2 8040   5.252   4.739   5.086
 2381SOL     OW 8041   3.246   5.237   4.835
 2381SOL    HW1 8042   3.248   5.164   4.767
 2381SOL    HW2 8043   3.162   5.231   4.888
 2382SOL     OW 8044   1.294   6.389   1.717
 2382SOL    HW1 8045   1.372   6.444   1.747
 2382SOL    HW2 8046   1.291   6.385   1.618
 2383SOL     OW 8047   5.018   5.913   4.863
 2383SOL    HW1 8048   5.026   5.994   4.805
 2383SOL    HW2 8049   5.099   5.906   4.922
 2384SOL     OW 8050   0.961   1.852   1.809
 2384SOL    HW1 8051   0.987   1.841   1.905
 2384SOL    HW2 8052   1.044   1.854   1.753
 2385SOL     OW 8053   0.536   2.032   0.787
 2385SOL    HW1 8054   0.500   2.099   0.721
 2385SOL    HW2 8055   0.566   1.950   0.738
 2386SOL     OW 8056   4.529   6.196   3.813
 2386SOL    HW1 8057   4.612   6.155   3.852
 2386SOL    HW2 8058   4.548   6.226   3.719
 2387SOL     OW 8059   1.287   1.340   3.260
 2387SOL    HW1 8060   1.250   1.428   3.230
 2387SOL    HW2 8061   1.320   1.349   3.354
 2388SOL     OW 8062   6.550   2.077   5.562
 2388SOL    HW1 8063   6.591   2.169   5.558
 2388SOL    HW2 8064   6.452   2.085   5.581
 2389SOL     OW 8065   5.461   4.400   3.758
 2389SOL    HW1 8066   5.408   4.478   3.723
 2389SOL    HW2 8067   5.408   4.316   3.747
 2390SOL     OW 8068   4.532   4.533   6.075
 2390SOL    HW1 8069   4.574   4.588   6.003
 2390SOL    HW2 8070   4.536   4.436   6.050
 2391SOL     OW 8071   3.644   3.659   6.642
 2391SOL    HW1 8072   3.731   3.693   6.606
 2391SOL    HW2 8073   3.647   3.559   6.649
 2392SOL     OW 8074   3.097   5.976   4.791
 2392SOL    HW1 8075   3.071   5.905   4.726
 2392SOL    HW2 8076   3.115   5.935   4.880
 2393SOL     OW 8077   2.948   5.165   1.332
 2393SOL    HW1 8078   2.956   5.066   1.324
 2393SOL    HW2 8079   2.856   5.190   1.362
 2394SOL     OW 8080   0.621   2.687   3.277
 2394SOL    HW1 8081   0.598   2.609   3.336
 2394SOL    HW2 8082   0.716   2.681   3.249
 2395SOL     OW 8083   0.451   2.404   5.779
 2395SOL    HW1 8084   0.548   2.426   5.788
 2395SOL    HW2 8085   0.418   2.435   5.690
 2396SOL     OW 8086   6.557   1.154   5.594
 2396SOL    HW1 8087   6.597   1.238   5.631
 2396SOL    HW2 8088   6.542   1.089   5.668
 2397SOL     OW 8089   0.633   4.617   5.295
 2397SOL    HW1 8090   0.713   4.577   5.248
 2397SOL    HW2 8091   0.553   4.561   5.276
 2398SOL     OW 8092   3.064   5.342   4.006
 2398SOL    HW1 8093   3.066   5.344   3.906
 2398SOL    HW2 8094   3.097   5.430   4.041
 2399SOL     OW 8095   2.854   2.244   3.566
 2399SOL    HW1 8096   2.896   2.228   3.655
 2399SOL    HW2 8097   2.762   2.281   3.579
 2400SOL     OW 8098   1.390   3.588   0.423
 2400SOL    HW1 8099   1.355   3.536   0.501
 2400SOL    HW2 8100   1.455   3.531   0.372
 2401SOL     OW 8101   3.800   6.781   6.043
 2401SOL    HW1 8102   3.712   6.808   6.003
 2401SOL    HW2 8103   3.827   6.848   6.112
 2402SOL     OW 8104   1.076   2.238   2.183
 2402SOL    HW1 8105   1.099   2.219   2.088
 2402SOL    HW2 8106   1.064   2.336   2.195
 2403SOL     OW 8107   3.757   3.992   2.916
 2403SOL    HW1 8108   3.734   4.018   2.822
 2403SOL    HW2 8109   3.708   4.051   2.979
 2404SOL     OW 8110   6.856   1.740   0.944
 2404SOL    HW1 8111   6.944   1.763   0.903
 2404SOL    HW2 8112   6.819   1.659   0.899
 2405SOL     OW 8113   2.824   3.918   0.693
 2405SOL    HW1 8114   2.844   3.902   0.597
 2405SOL    HW2 8115   2.793   3.833   0.736
 2406SOL     OW 8116   2.477   0.086   4.955
 2406SOL    HW1 8117   2.475   0.056   4.860
 2406SOL    HW2 8118   2.561   0.055   4.999
 2407SOL     OW 8119   3.850   1.273   3.953
 2407SOL    HW1 8120   3.944   1.256   3.923
 2407SOL    HW2 8121   3.789   1.276   3.874
 2408SOL     OW 8122   2.360   6.269   4.435
 2408SOL    HW1 8123   2.456   6.295   4.440
 2408SOL    HW2 8124   2.334   6.219   4.518
 2409SOL     OW 8125   2.623   2.628   0.865
 2409SOL    HW1 8126   2.607   2.677   0.950
 2409SOL    HW2 8127   2.583   2.536   0.871
 2410SOL     OW 8128   6.402   3.853   5.675
 2410SOL    HW1 8129   6.478   3.892   5.727
 2410SOL    HW2 8130   6.347   3.928   5.637
 2411SOL     OW 8131   2.553   3.415   0.240
 2411SOL    HW1 8132   2.584   3.343   0.302
 2411SOL    HW2 8133   2.467   3.453   0.274
 2412SOL     OW 8134   2.601   2.281   6.526
 2412SOL    HW1 8135   2.569   2.192   6.492
 2412SOL    HW2 8136   2.668   2.266   6.599
 2413SOL     OW 8137   0.113   2.600   6.568
 2413SOL    HW1 8138   0.139   2.573   6.475
 2413SOL    HW2 8139   0.100   2.699   6.571
 2414SOL     OW 8140   6.148   2.512   4.529
 2414SOL    HW1 8141   6.114   2.591   4.479
 2414SOL    HW2 8142   6.241   2.530   4.561
 2415SOL     OW 8143   2.683   6.096   1.298
 2415SOL    HW1 8144   2.709   6.186   1.262
 2415SOL    HW2 8145   2.592   6.071   1.265
 2416SOL     OW 8146   6.704   3.234   3.158
 2416SOL    HW1 8147   6.739   3.254   3.067
 2416SOL    HW2 8148   6.651   3.311   3.192
 2417SOL     OW 8149   3.911   3.221   0.871
 2417SOL    HW1 8150   3.902   3.219   0.771
 2417SOL    HW2 8151   3.898   3.129   0.907
 2418SOL     OW 8152   4.935   3.978   5.610
 2418SOL    HW1 8153   4.994   3.934   5.677
 2418SOL    HW2 8154   4.913   4.071   5.640
 2419SOL     OW 8155   1.974   6.023   4.429
 2419SOL    HW1 8156   1.906   5.952   4.408
 2419SOL    HW2 8157   2.031   5.992   4.505
 2420SOL     OW 8158   2.789   5.010   2.501
 2420SOL    HW1 8159   2.718   4.977   2.438
 2420SOL    HW2 8160   2.853   4.936   2.520
 2421SOL     OW 8161   3.345   7.027   4.334
 2421SOL    HW1 8162   3.387   0.035   4.250
 2421SOL    HW2 8163   3.246   7.020   4.321
 2422SOL     OW 8164   3.820   6.505   1.797
 2422SOL    HW1 8165   3.875   6.577   1.839
 2422SOL    HW2 8166   3.852   6.489   1.704
 2423SOL     OW 8167   1.768   4.954   2.337
 2423SOL    HW1 8168   1.752   5.045   2.299
 2423SOL    HW2 8169   1.751   4.955   2.435
 2424SOL     OW 8170   5.268   0.827   6.219
 2424SOL    HW1 8171   5.258   0.822   6.119
 2424SOL    HW2 8172   5.358   0.792   6.244
 2425SOL     OW 8173   4.520   5.264   5.712
 2425SOL    HW1 8174   4.455   5.200   5.671
 2425SOL    HW2 8175   4.483   5.356   5.709
 2426SOL     OW 8176   1.274   4.966   5.500
 2426SOL    HW1 8177   1.245   4.872   5.480
 2426SOL    HW2 8178   1.209   5.009   5.563
 2427SOL     OW 8179   5.092   0.625   6.353
 2427SOL    HW1 8180   5.158   0.552   6.336
 2427SOL    HW2 8181   5.141   0.712   6.364
 2428SOL     OW 8182   0.528   0.967   3.395
 2428SOL    HW1 8183   0.513   0.998   3.301
 2428SOL    HW2 8184   0.625   0.948   3.409
 2429SOL     OW 8185   5.683   5.671   1.887
 2429SOL    HW1 8186   5.726   5.608   1.822
 2429SOL    HW2 8187   5.616   5.622   1.942
 2430SOL     OW 8188   6.625   3.201   0.558
 2430SOL    HW1 8189   6.534   3.237   0.535
 2430SOL    HW2 8190   6.626   3.102   0.543
 2431SOL     OW 8191   6.484   1.934   0.769
 2431SOL    HW1 8192   6.556   1.907   0.705
 2431SOL    HW2 8193   6.523   1.987   0.844
 2432SOL     OW 8194   3.695   5.387   2.105
 2432SOL    HW1 8195   3.623   5.382   2.173
 2432SOL    HW2 8196   3.784   5.390   2.150
 2433SOL     OW 8197   6.919   4.555   0.239
 2433SOL    HW1 8198   6.977   4.600   0.307
 2433SOL    HW2 8199   6.864   4.485   0.284
 2434SOL     OW 8200   4.196   1.963   2.958
 2434SOL    HW1 8201   4.275   1.902   2.951
 2434SOL    HW2 8202   4.129   1.938   2.888
 2435SOL     OW 8203   5.826   0.283   6.845
 2435SOL    HW1 8204   5.730   0.282   6.870
 2435SOL    HW2 8205   5.839   0.345   6.767
 2436SOL     OW 8206   1.167   1.430   0.979
 2436SOL    HW1 8207   1.118   1.495   1.036
 2436SOL    HW2 8208   1.165   1.460   0.883
 2437SOL     OW 8209   6.774   5.908   2.229
 2437SOL    HW1 8210   6.792   5.879   2.135
 2437SOL    HW2 8211   6.830   5.988   2.251
 2438SOL     OW 8212   3.145   1.742   4.539
 2438SOL    HW1 8213   3.115   1.772   4.630
 2438SOL    HW2 8214   3.141   1.642   4.535
 2439SOL     OW 8215   0.264   5.396   0.018
 2439SOL    HW1 8216   0.260   5.495   0.010
 2439SOL    HW2 8217   0.296   5.357   6.960
 2440SOL     OW 8218   3.933   1.095   4.678
 2440SOL    HW1 8219   3.925   1.101   4.579
 2440SOL    HW2 8220   4.026   1.122   4.706
 2441SOL     OW 8221   6.367   0.355   6.770
 2441SOL    HW1 8222   6.397   0.403   6.688
 2441SOL    HW2 8223   6.351   0.259   6.749
 2442SOL     OW 8224   4.919   3.467   1.920
 2442SOL    HW1 8225   4.922   3.415   2.005
 2442SOL    HW2 8226   4.882   3.558   1.938
 2443SOL     OW 8227   2.077   1.414   0.119
 2443SOL    HW1 8228   2.108   1.391   0.211
 2443SOL    HW2 8229   2.100   1.341   0.056
 2444SOL     OW 8230   3.359   5.634   0.779
 2444SOL    HW1 8231   3.310   5.555   0.817
 2444SOL    HW2 8232   3.437   5.603   0.725
 2445SOL     OW 8233   0.667   2.230   0.947
 2445SOL    HW1 8234   0.647   2.137   0.916
 2445SOL    HW2 8235   0.662   2.293   0.870
 2446SOL     OW 8236   1.138   3.787   1.851
 2446SOL    HW1 8237   1.197   3.728   1.906
 2446SOL    HW2 8238   1.178   3.878   1.845
 2447SOL     OW 8239   1.981   0.418   0.928
 2447SOL    HW1 8240   2.063   0.386   0.976
 2447SOL    HW2 8241   1.992   0.404   0.830
 2448SOL     OW 8242   6.142   2.194   4.168
 2448SOL    HW1 8243   6.088   2.220   4.247
 2448SOL    HW2 8244   6.226   2.249   4.165
 2449SOL     OW 8245   1.514   3.947   2.107
 2449SOL    HW1 8246   1.593   3.957   2.047
 2449SOL    HW2 8247   1.521   4.013   2.183
 2450SOL     OW 8248   2.045   5.316   6.456
 2450SOL    HW1 8249   1.955   5.273   6.442
 2450SOL    HW2 8250   2.049   5.355   6.548
 2451SOL     OW 8251   0.925   0.109   4.309
 2451SOL    HW1 8252   0.849   0.140   4.253
 2451SOL    HW2 8253   0.890   0.077   4.397
 2452SOL     OW 8254   2.697   2.399   3.361
 2452SOL    HW1 8255   2.658   2.391   3.453
 2452SOL    HW2 8256   2.655   2.476   3.314
 2453SOL     OW 8257   0.265   2.047   0.051
 2453SOL    HW1 8258   0.197   2.120   0.037
 2453SOL    HW2 8259   0.240   1.968   7.024
 2454SOL     OW 8260   3.633   5.262   0.707
 2454SOL    HW1 8261   3.606   5.231   0.798
 2454SOL    HW2 8262   3.645   5.183   0.647
 2455SOL     OW 8263   3.238   1.176   7.022
 2455SOL    HW1 8264   3.259   1.247   0.062
 2455SOL    HW2 8265   3.273   1.088   0.027
 2456SOL     OW 8266   1.394   3.980   6.991
 2456SOL    HW1 8267   1.420   4.054   6.930
 2456SOL    HW2 8268   1.405   3.892   6.944
 2457SOL     OW 8269   5.447   1.215   5.560
 2457SOL    HW1 8270   5.433   1.116   5.552
 2457SOL    HW2 8271   5.523   1.242   5.501
 2458SOL     OW 8272   0.919   0.317   2.854
 2458SOL    HW1 8273   0.988   0.379   2.817
 2458SOL    HW2 8274   0.859   0.287   2.780
 2459SOL     OW 8275   2.470   5.835   0.368
 2459SOL    HW1 8276   2.507   5.749   0.333
 2459SOL    HW2 8277   2.477   5.905   0.297
 2460SOL     OW 8278   1.083   1.242   6.698
 2460SOL    HW1 8279   1.102   1.338   6.721
 2460SOL    HW2 8280   1.006   1.210   6.754
 2461SOL     OW 8281   4.083   0.161   4.703
 2461SOL    HW1 8282   4.019   0.230   4.738
 2461SOL    HW2 8283   4.089   0.170   4.603
 2462SOL     OW 8284   0.647   5.094   0.526
 2462SOL    HW1 8285   0.653   4.994   0.521
 2462SOL    HW2 8286   0.624   5.121   0.620
 2463SOL     OW 8287   6.413   1.211   0.297
 2463SOL    HW1 8288   6.408   1.120   0.256
 2463SOL    HW2 8289   6.413   1.280   0.225
 2464SOL     OW 8290   0.154   2.607   2.687
 2464SOL    HW1 8291   0.135   2.534   2.752
 2464SOL    HW2 8292   0.194   2.569   2.604
 2465SOL     OW 8293   0.277   5.330   6.201
 2465SOL    HW1 8294   0.245   5.280   6.282
 2465SOL    HW2 8295   0.369   5.299   6.178
 2466SOL     OW 8296   1.661   2.007   1.894
 2466SOL    HW1 8297   1.708   1.954   1.964
 2466SOL    HW2 8298   1.579   1.957   1.865
 2467SOL     OW 8299   4.709   1.508   6.240
 2467SOL    HW1 8300   4.703   1.422   6.189
 2467SOL    HW2 8301   4.664   1.581   6.189
 2468SOL     OW 8302   3.415   0.399   6.507
 2468SOL    HW1 8303   3.442   0.305   6.486
 2468SOL    HW2 8304   3.410   0.452   6.422
 2469SOL     OW 8305   4.517   2.655   5.740
 2469SOL    HW1 8306   4.513   2.661   5.840
 2469SOL    HW2 8307   4.513   2.559   5.712
 2470SOL     OW 8308   3.973   4.860   6.170
 2470SOL    HW1 8309   3.991   4.939   6.229
 2470SOL    HW2 8310   3.935   4.786   6.224
 2471SOL     OW 8311   3.684   6.785   1.023
 2471SOL    HW1 8312   3.735   6.749   1.101
 2471SOL    HW2 8313   3.666   6.711   0.958
 2472SOL     OW 8314   4.750   2.407   3.881
 2472SOL    HW1 8315   4.831   2.369   3.926
 2472SOL    HW2 8316   4.699   2.463   3.947
 2473SOL     OW 8317   1.162   4.415   4.832
 2473SOL    HW1 8318   1.233   4.471   4.874
 2473SOL    HW2 8319   1.124   4.352   4.901
 2474SOL     OW 8320   0.979   5.356   0.473
 2474SOL    HW1 8321   0.958   5.278   0.532
 2474SOL    HW2 8322   0.916   5.358   0.396
 2475SOL     OW 8323   4.601   0.860   0.678
 2475SOL    HW1 8324   4.653   0.920   0.617
 2475SOL    HW2 8325   4.511   0.899   0.694
 2476SOL     OW 8326   5.436   0.803   2.641
 2476SOL    HW1 8327   5.379   0.880   2.613
 2476SOL    HW2 8328   5.378   0.722   2.654
 2477SOL     OW 8329   4.051   0.489   3.414
 2477SOL    HW1 8330   4.030   0.552   3.339
 2477SOL    HW2 8331   4.066   0.397   3.376
 2478SOL     OW 8332   4.138   1.307   2.766
 2478SOL    HW1 8333   4.232   1.273   2.779
 2478SOL    HW2 8334   4.128   1.395   2.811
 2479SOL     OW 8335   0.936   2.788   1.361
 2479SOL    HW1 8336   0.928   2.697   1.401
 2479SOL    HW2 8337   0.893   2.789   1.270
 2480SOL     OW 8338   4.061   2.700   1.295
 2480SOL    HW1 8339   4.039   2.703   1.198
 2480SOL    HW2 8340   3.976   2.708   1.348
 2481SOL     OW 8341   2.726   0.447   1.523
 2481SOL    HW1 8342   2.750   0.381   1.452
 2481SOL    HW2 8343   2.745   0.540   1.489
 2482SOL     OW 8344   5.034   3.509   6.879
 2482SOL    HW1 8345   4.938   3.530   6.856
 2482SOL    HW2 8346   5.037   3.447   6.957
 2483SOL     OW 8347   1.637   1.914   0.249
 2483SOL    HW1 8348   1.641   1.828   0.198
 2483SOL    HW2 8349   1.635   1.895   0.347
 2484SOL     OW 8350   3.460   0.987   1.163
 2484SOL    HW1 8351   3.499   0.904   1.124
 2484SOL    HW2 8352   3.375   0.964   1.210
 2485SOL     OW 8353   5.284   2.858   0.093
 2485SOL    HW1 8354   5.276   2.783   0.027
 2485SOL    HW2 8355   5.275   2.822   0.185
 2486SOL     OW 8356   0.266   5.627   5.508
 2486SOL    HW1 8357   0.308   5.582   5.586
 2486SOL    HW2 8358   0.232   5.717   5.535
 2487SOL     OW 8359   3.995   6.283   0.570
 2487SOL    HW1 8360   3.967   6.249   0.480
 2487SOL    HW2 8361   3.914   6.313   0.621
 2488SOL     OW 8362   0.621   3.403   1.531
 2488SOL    HW1 8363   0.546   3.464   1.557
 2488SOL    HW2 8364   0.663   3.365   1.613
 2489SOL     OW 8365   1.161   6.264   3.807
 2489SOL    HW1 8366   1.184   6.268   3.904
 2489SOL    HW2 8367   1.061   6.258   3.797
 2490SOL     OW 8368   0.963   5.674   1.021
 2490SOL    HW1 8369   0.924   5.755   0.978
 2490SOL    HW2 8370   0.946   5.594   0.963
 2491SOL     OW 8371   3.902   4.092   1.211
 2491SOL    HW1 8372   3.874   4.131   1.123
 2491SOL    HW2 8373   3.824   4.044   1.252
 2492SOL     OW 8374   4.811   3.598   1.244
 2492SOL    HW1 8375   4.755   3.592   1.162
 2492SOL    HW2 8376   4.820   3.694   1.272
 2493SOL     OW 8377   6.489   0.018   0.921
 2493SOL    HW1 8378   6.545   0.078   0.864
 2493SOL    HW2 8379   6.548   6.980   0.969
 2494SOL     OW 8380   6.187   3.947   2.123
 2494SOL    HW1 8381   6.119   3.886   2.164
 2494SOL    HW2 8382   6.256   3.972   2.191
 2495SOL     OW 8383   5.447   5.971   3.815
 2495SOL    HW1 8384   5.460   5.942   3.720
 2495SOL    HW2 8385   5.533   5.962   3.865
 2496SOL     OW 8386   0.525   3.620   7.002
 2496SOL    HW1 8387   0.453   3.583   0.034
 2496SOL    HW2 8388   0.507   3.591   6.907
 2497SOL     OW 8389   0.671   0.195   0.716
 2497SOL    HW1 8390   0.596   0.134   0.691
 2497SOL    HW2 8391   0.744   0.144   0.761
 2498SOL     OW 8392   3.394   1.962   5.674
 2498SOL    HW1 8393   3.449   2.014   5.609
 2498SOL    HW2 8394   3.430   1.975   5.766
 2499SOL     OW 8395   5.761   2.890   2.175
 2499SOL    HW1 8396   5.686   2.895   2.240
 2499SOL    HW2 8397   5.730   2.920   2.085
 2500SOL     OW 8398   4.155   3.505   6.654
 2500SOL    HW1 8399   4.199   3.538   6.571
 2500SOL    HW2 8400   4.120   3.412   6.639
 2501SOL     OW 8401   5.399   5.660   0.040
 2501SOL    HW1 8402   5.481   5.701   0.002
 2501SOL    HW2 8403   5.414   5.562   0.054
 2502SOL     OW 8404   2.215   0.210   4.940
 2502SOL    HW1 8405   2.300   0.157   4.940
 2502SOL    HW2 8406   2.152   0.172   5.008
 2503SOL     OW 8407   3.428   6.583   5.021
 2503SOL    HW1 8408   3.453   6.521   4.947
 2503SOL    HW2 8409   3.409   6.530   5.104
 2504SOL     OW 8410   3.764   5.138   3.068
 2504SOL    HW1 8411   3.845   5.108   3.018
 2504SOL    HW2 8412   3.709   5.057   3.093
 2505SOL     OW 8413   0.017   5.515   2.915
 2505SOL    HW1 8414   0.012   5.609   2.879
 2505SOL    HW2 8415   0.011   5.517   3.014
 2506SOL     OW 8416   6.405   3.120   6.262
 2506SOL    HW1 8417   6.476   3.049   6.264
 2506SOL    HW2 8418   6.409   3.173   6.347
 2507SOL     OW 8419   0.400   3.051   0.135
 2507SOL    HW1 8420   0.468   3.011   0.074
 2507SOL    HW2 8421   0.436   3.137   0.173
 2508SOL     OW 8422   2.380   1.869   4.440
 2508SOL    HW1 8423   2.389   1.937   4.367
 2508SOL    HW2 8424   2.449   1.798   4.428
 2509SOL     OW 8425   0.042   4.529   1.093
 2509SOL    HW1 8426   7.015   4.456   1.133
 2509SOL    HW2 8427   0.110   4.560   1.159
 2510SOL     OW 8428   3.572   4.805   0.693
 2510SOL    HW1 8429   3.618   4.888   0.660
 2510SOL    HW2 8430   3.489   4.790   0.639
 2511SOL     OW 8431   2.386   1.537   4.909
 2511SOL    HW1 8432   2.310   1.507   4.966
 2511SOL    HW2 8433   2.351   1.564   4.819
 2512SOL     OW 8434   4.247   4.091   5.448
 2512SOL    HW1 8435   4.181   4.160   5.418
 2512SOL    HW2 8436   4.331   4.136   5.479
 2513SOL     OW 8437   2.088   5.627   4.998
 2513SOL    HW1 8438   2.170   5.578   4.966
 2513SOL    HW2 8439   2.054   5.584   5.081
 2514SOL     OW 8440   0.354   4.262   4.352
 2514SOL    HW1 8441   0.383   4.169   4.374
 2514SOL    HW2 8442   0.379   4.323   4.427
 2515SOL     OW 8443   1.962   6.329   0.699
 2515SOL    HW1 8444   1.887   6.372   0.750
 2515SOL    HW2 8445   1.927   6.250   0.649
 2516SOL     OW 8446   5.537   1.491   2.272
 2516SOL    HW1 8447   5.519   1.589   2.285
 2516SOL    HW2 8448   5.477   1.438   2.332
 2517SOL     OW 8449   1.746   0.617   6.309
 2517SOL    HW1 8450   1.655   0.650   6.283
 2517SOL    HW2 8451   1.777   0.550   6.241
 2518SOL     OW 8452   1.153   5.712   0.713
 2518SOL    HW1 8453   1.237   5.757   0.744
 2518SOL    HW2 8454   1.074   5.768   0.738
 2519SOL     OW 8455   3.480   0.634   1.722
 2519SOL    HW1 8456   3.464   0.703   1.652
 2519SOL    HW2 8457   3.409   0.641   1.792
 2520SOL     OW 8458   3.421   1.921   0.597
 2520SOL    HW1 8459   3.432   1.865   0.515
 2520SOL    HW2 8460   3.362   1.999   0.576
 2521SOL     OW 8461   3.209   1.107   5.349
 2521SOL    HW1 8462   3.234   1.051   5.271
 2521SOL    HW2 8463   3.277   1.097   5.421
 2522SOL     OW 8464   1.196   1.268   5.255
 2522SOL    HW1 8465   1.273   1.316   5.213
 2522SOL    HW2 8466   1.228   1.181   5.293
 2523SOL     OW 8467   1.173   3.208   1.121
 2523SOL    HW1 8468   1.228   3.211   1.038
 2523SOL    HW2 8469   1.164   3.301   1.159
 2524SOL     OW 8470   6.868   6.553   4.327
 2524SOL    HW1 8471   6.802   6.602   4.384
 2524SOL    HW2 8472   6.820   6.507   4.252
 2525SOL     OW 8473   1.080   2.930   4.794
 2525SOL    HW1 8474   1.075   2.905   4.891
 2525SOL    HW2 8475   1.084   3.029   4.786
 2526SOL     OW 8476   1.645   4.306   6.969
 2526SOL    HW1 8477   1.672   4.292   0.037
 2526SOL    HW2 8478   1.643   4.404   6.949
 2527SOL     OW 8479   5.825   6.520   5.868
 2527SOL    HW1 8480   5.884   6.480   5.938
 2527SOL    HW2 8481   5.870   6.601   5.829
 2528SOL     OW 8482   5.814   4.823   5.924
 2528SOL    HW1 8483   5.749   4.784   5.990
 2528SOL    HW2 8484   5.763   4.865   5.848
 2529SOL     OW 8485   6.749   6.390   6.889
 2529SOL    HW1 8486   6.786   6.336   6.813
 2529SOL    HW2 8487   6.755   6.487   6.866
 2530SOL     OW 8488   2.491   6.154   4.993
 2530SOL    HW1 8489   2.436   6.220   4.941
 2530SOL    HW2 8490   2.587   6.169   4.974
 2531SOL     OW 8491   6.360   6.396   5.193
 2531SOL    HW1 8492   6.438   6.348   5.233
 2531SOL    HW2 8493   6.284   6.332   5.180
 2532SOL     OW 8494   6.848   6.310   0.727
 2532SOL    HW1 8495   6.781   6.270   0.665
 2532SOL    HW2 8496   6.934   6.258   0.720
 2533SOL     OW 8497   4.746   0.220   3.694
 2533SOL    HW1 8498   4.806   0.170   3.632
 2533SOL    HW2 8499   4.650   0.200   3.671
 2534SOL     OW 8500   3.265   1.489   1.889
 2534SOL    HW1 8501   3.332   1.417   1.908
 2534SOL    HW2 8502   3.210   1.506   1.970
 2535SOL     OW 8503   3.453   3.042   6.176
 2535SOL    HW1 8504   3.361   3.036   6.135
 2535SOL    HW2 8505   3.521   3.046   6.103
 2536SOL     OW 8506   1.400   0.956   6.523
 2536SOL    HW1 8507   1.347   0.957   6.438
 2536SOL    HW2 8508   1.498   0.954   6.501
 2537SOL     OW 8509   3.238   6.835   6.559
 2537SOL    HW1 8510   3.318   6.796   6.512
 2537SOL    HW2 8511   3.269   6.903   6.625
 2538SOL     OW 8512   0.539   4.017   3.688
 2538SOL    HW1 8513   0.588   4.046   3.606
 2538SOL    HW2 8514   0.601   3.965   3.747
 2539SOL     OW 8515   5.166   1.007   4.118
 2539SOL    HW1 8516   5.107   0.929   4.099
 2539SOL    HW2 8517   5.212   1.035   4.033
 2540SOL     OW 8518   4.653   1.753   2.867
 2540SOL    HW1 8519   4.678   1.677   2.927
 2540SOL    HW2 8520   4.682   1.733   2.774
 2541SOL     OW 8521   3.595   0.376   5.408
 2541SOL    HW1 8522   3.577   0.347   5.314
 2541SOL    HW2 8523   3.568   0.471   5.420
 2542SOL     OW 8524   3.871   3.576   6.336
 2542SOL    HW1 8525   3.923   3.501   6.293
 2542SOL    HW2 8526   3.774   3.566   6.312
 2543SOL     OW 8527   0.486   0.744   3.842
 2543SOL    HW1 8528   0.428   0.665   3.861
 2543SOL    HW2 8529   0.475   0.813   3.914
 2544SOL     OW 8530   0.130   5.801   0.145
 2544SOL    HW1 8531   0.187   5.761   0.072
 2544SOL    HW2 8532   0.169   5.888   0.174
 2545SOL     OW 8533   2.036   6.661   1.889
 2545SOL    HW1 8534   1.945   6.680   1.853
 2545SOL    HW2 8535   2.033   6.659   1.989
 2546SOL     OW 8536   0.333   1.606   1.504
 2546SOL    HW1 8537   0.352   1.701   1.479
 2546SOL    HW2 8538   0.235   1.588   1.497
 2547SOL     OW 8539   0.712   4.508   6.677
 2547SOL    HW1 8540   0.674   4.545   6.592
 2547SOL    HW2 8541   0.693   4.410   6.682
 2548SOL     OW 8542   0.977   6.800   4.764
 2548SOL    HW1 8543   0.966   6.890   4.804
 2548SOL    HW2 8544   1.019   6.808   4.673
 2549SOL     OW 8545   0.951   0.132   1.300
 2549SOL    HW1 8546   0.890   0.109   1.375
 2549SOL    HW2 8547   0.920   0.216   1.255
 2550SOL     OW 8548   5.922   6.768   0.312
 2550SOL    HW1 8549   5.913   6.853   0.259
 2550SOL    HW2 8550   5.962   6.789   0.401
 2551SOL     OW 8551   3.309   4.410   0.216
 2551SOL    HW1 8552   3.406   4.403   0.192
 2551SOL    HW2 8553   3.284   4.506   0.229
 2552SOL     OW 8554   1.519   6.222   4.266
 2552SOL    HW1 8555   1.555   6.310   4.235
 2552SOL    HW2 8556   1.545   6.151   4.201
 2553SOL     OW 8557   3.903   3.650   5.828
 2553SOL    HW1 8558   3.949   3.643   5.739
 2553SOL    HW2 8559   3.972   3.657   5.900
 2554SOL     OW 8560   2.656   0.457   0.509
 2554SOL    HW1 8561   2.707   0.455   0.423
 2554SOL    HW2 8562   2.563   0.489   0.491
 2555SOL     OW 8563   6.023   1.546   4.881
 2555SOL    HW1 8564   6.028   1.493   4.797
 2555SOL    HW2 8565   6.080   1.628   4.873
 2556SOL     OW 8566   4.618   6.529   0.550
 2556SOL    HW1 8567   4.634   6.482   0.637
 2556SOL    HW2 8568   4.538   6.588   0.559
 2557SOL     OW 8569   1.667   3.719   0.926
 2557SOL    HW1 8570   1.702   3.650   0.862
 2557SOL    HW2 8571   1.616   3.674   0.999
 2558SOL     OW 8572   4.686   1.246   4.576
 2558SOL    HW1 8573   4.644   1.248   4.666
 2558SOL    HW2 8574   4.636   1.307   4.514
 2559SOL     OW 8575   0.947   4.342   5.326
 2559SOL    HW1 8576   0.981   4.248   5.329
 2559SOL    HW2 8577   0.970   4.389   5.411
 2560SOL     OW 8578   5.838   2.443   5.956
 2560SOL    HW1 8579   5.741   2.452   5.934
 2560SOL    HW2 8580   5.892   2.446   5.872
 2561SOL     OW 8581   2.594   4.757   4.978
 2561SOL    HW1 8582   2.563   4.716   4.893
 2561SOL    HW2 8583   2.692   4.740   4.990
 2562SOL     OW 8584   2.566   4.981   1.616
 2562SOL    HW1 8585   2.497   4.927   1.666
 2562SOL    HW2 8586   2.586   5.065   1.667
 2563SOL     OW 8587   3.322   1.601   0.671
 2563SOL    HW1 8588   3.256   1.665   0.711
 2563SOL    HW2 8589   3.336   1.524   0.734
 2564SOL     OW 8590   1.994   5.790   6.852
 2564SOL    HW1 8591   1.995   5.748   6.943
 2564SOL    HW2 8592   1.901   5.816   6.828
 2565SOL     OW 8593   1.693   0.228   6.746
 2565SOL    HW1 8594   1.740   0.316   6.744
 2565SOL    HW2 8595   1.603   0.239   6.789
 2566SOL     OW 8596   2.456   0.121   1.246
 2566SOL    HW1 8597   2.411   0.206   1.274
 2566SOL    HW2 8598   2.410   0.043   1.288
 2567SOL     OW 8599   0.828   0.466   0.434
 2567SOL    HW1 8600   0.919   0.450   0.473
 2567SOL    HW2 8601   0.759   0.423   0.492
 2568SOL     OW 8602   4.622   1.983   6.391
 2568SOL    HW1 8603   4.608   1.884   6.392
 2568SOL    HW2 8604   4.630   2.014   6.296
 2569SOL     OW 8605   2.728   0.697   2.925
 2569SOL    HW1 8606   2.789   0.618   2.932
 2569SOL    HW2 8607   2.723   0.727   2.830
 2570SOL     OW 8608   5.524   0.607   5.862
 2570SOL    HW1 8609   5.555   0.649   5.777
 2570SOL    HW2 8610   5.597   0.548   5.898
 2571SOL     OW 8611   2.387   4.882   4.382
 2571SOL    HW1 8612   2.439   4.965   4.402
 2571SOL    HW2 8613   2.324   4.863   4.458
 2572SOL     OW 8614   2.666   5.934   1.785
 2572SOL    HW1 8615   2.730   6.001   1.822
 2572SOL    HW2 8616   2.588   5.981   1.745
 2573SOL     OW 8617   0.846   1.902   0.871
 2573SOL    HW1 8618   0.800   1.892   0.960
 2573SOL    HW2 8619   0.920   1.969   0.880
 2574SOL     OW 8620   5.411   4.038   0.740
 2574SOL    HW1 8621   5.491   4.032   0.799
 2574SOL    HW2 8622   5.362   4.124   0.758
 2575SOL     OW 8623   5.645   5.744   6.974
 2575SOL    HW1 8624   5.691   5.793   6.900
 2575SOL    HW2 8625   5.701   5.666   7.003
 2576SOL     OW 8626   4.554   6.262   4.109
 2576SOL    HW1 8627   4.537   6.198   4.034
 2576SOL    HW2 8628   4.632   6.319   4.087
 2577SOL     OW 8629   3.169   5.423   2.449
 2577SOL    HW1 8630   3.145   5.330   2.477
 2577SOL    HW2 8631   3.167   5.430   2.349
 2578SOL     OW 8632   3.871   1.580   3.892
 2578SOL    HW1 8633   3.814   1.500   3.911
 2578SOL    HW2 8634   3.916   1.569   3.804
 2579SOL     OW 8635   0.872   6.335   3.844
 2579SOL    HW1 8636   0.814   6.261   3.876
 2579SOL    HW2 8637   0.817   6.418   3.832
 2580SOL     OW 8638   2.509   4.803   0.001
 2580SOL    HW1 8639   2.501   4.903   0.010
 2580SOL    HW2 8640   2.442   4.770   6.962
 2581SOL     OW 8641   2.284   5.516   1.263
 2581SOL    HW1 8642   2.339   5.585   1.217
 2581SOL    HW2 8643   2.334   5.480   1.342
 2582SOL     OW 8644   0.387   4.367   1.749
 2582SOL    HW1 8645   0.295   4.397   1.775
 2582SOL    HW2 8646   0.415   4.291   1.807
 2583SOL     OW 8647   0.741   0.871   6.295
 2583SOL    HW1 8648   0.650   0.863   6.256
 2583SOL    HW2 8649   0.807   0.827   6.235
 2584SOL     OW 8650   3.877   5.352   5.735
 2584SOL    HW1 8651   3.959   5.400   5.705
 2584SOL    HW2 8652   3.883   5.256   5.708
 2585SOL     OW 8653   3.016   3.504   0.600
 2585SOL    HW1 8654   2.994   3.409   0.618
 2585SOL    HW2 8655   3.115   3.517   0.603
 2586SOL     OW 8656   3.040   0.997   5.580
 2586SOL    HW1 8657   2.966   0.941   5.616
 2586SOL    HW2 8658   3.013   1.035   5.491
 2587SOL     OW 8659   6.629   1.208   3.464
 2587SOL    HW1 8660   6.656   1.145   3.391
 2587SOL    HW2 8661   6.702   1.214   3.531
 2588SOL     OW 8662   3.962   2.321   5.863
 2588SOL    HW1 8663   3.923   2.313   5.955
 2588SOL    HW2 8664   3.918   2.396   5.814
 2589SOL     OW 8665   1.581   7.008   5.712
 2589SOL    HW1 8666   1.626   0.011   5.796
 2589SOL    HW2 8667   1.586   6.908   5.707
 2590SOL     OW 8668   2.647   4.881   0.274
 2590SOL    HW1 8669   2.616   4.966   0.232
 2590SOL    HW2 8670   2.719   4.840   0.218
 2591SOL     OW 8671   6.497   4.953   3.476
 2591SOL    HW1 8672   6.596   4.963   3.482
 2591SOL    HW2 8673   6.474   4.888   3.403
 2592SOL     OW 8674   2.895   4.625   6.549
 2592SOL    HW1 8675   2.806   4.602   6.510
 2592SOL    HW2 8676   2.938   4.542   6.585
 2593SOL     OW 8677   3.130   5.815   0.739
 2593SOL    HW1 8678   3.223   5.789   0.765
 2593SOL    HW2 8679   3.122   5.915   0.741
 2594SOL     OW 8680   2.533   4.221   5.818
 2594SOL    HW1 8681   2.511   4.317   5.835
 2594SOL    HW2 8682   2.575   4.181   5.899
 2595SOL     OW 8683   0.122   1.348   3.821
 2595SOL    HW1 8684   0.097   1.385   3.731
 2595SOL    HW2 8685   0.154   1.254   3.811
 2596SOL     OW 8686   2.680   2.509   1.329
 2596SOL    HW1 8687   2.630   2.483   1.412
 2596SOL    HW2 8688   2.713   2.427   1.283
 2597SOL     OW 8689   0.575   5.243   6.300
 2597SOL    HW1 8690   0.554   5.171   6.366
 2597SOL    HW2 8691   0.672   5.239   6.277
 2598SOL     OW 8692   6.570   1.520   1.793
 2598SOL    HW1 8693   6.543   1.615   1.779
 2598SOL    HW2 8694   6.585   1.476   1.704
 2599SOL     OW 8695   1.733   5.930   0.512
 2599SOL    HW1 8696   1.807   5.944   0.447
 2599SOL    HW2 8697   1.645   5.946   0.467
 2600SOL     OW 8698   5.966   2.667   4.320
 2600SOL    HW1 8699   5.925   2.681   4.230
 2600SOL    HW2 8700   5.917   2.722   4.388
 2601SOL     OW 8701   1.366   1.725   1.107
 2601SOL    HW1 8702   1.463   1.744   1.120
 2601SOL    HW2 8703   1.335   1.661   1.177
 2602SOL     OW 8704   1.672   4.384   4.821
 2602SOL    HW1 8705   1.764   4.405   4.856
 2602SOL    HW2 8706   1.648   4.290   4.847
 2603SOL     OW 8707   2.702   0.942   3.055
 2603SOL    HW1 8708   2.703   0.849   3.020
 2603SOL    HW2 8709   2.666   1.004   2.985
 2604SOL     OW 8710   5.255   1.737   2.960
 2604SOL    HW1 8711   5.169   1.745   2.910
 2604SOL    HW2 8712   5.270   1.641   2.986
 2605SOL     OW 8713   1.870   3.246   2.453
 2605SOL    HW1 8714   1.825   3.178   2.510
 2605SOL    HW2 8715   1.896   3.205   2.366
 2606SOL     OW 8716   5.742   5.243   1.718
 2606SOL    HW1 8717   5.784   5.272   1.804
 2606SOL    HW2 8718   5.770   5.150   1.697
 2607SOL     OW 8719   0.713   1.431   0.983
 2607SOL    HW1 8720   0.734   1.485   0.901
 2607SOL    HW2 8721   0.616   1.407   0.983
 2608SOL     OW 8722   3.009   5.562   6.726
 2608SOL    HW1 8723   3.095   5.522   6.694
 2608SOL    HW2 8724   3.026   5.617   6.807
 2609SOL     OW 8725   6.606   1.581   1.376
 2609SOL    HW1 8726   6.528   1.624   1.330
 2609SOL    HW2 8727   6.574   1.504   1.431
 2610SOL     OW 8728   1.046   4.395   4.157
 2610SOL    HW1 8729   1.027   4.435   4.246
 2610SOL    HW2 8730   1.142   4.406   4.135
 2611SOL     OW 8731   4.591   6.216   0.154
 2611SOL    HW1 8732   4.611   6.180   0.244
 2611SOL    HW2 8733   4.575   6.315   0.160
 2612SOL     OW 8734   5.663   6.832   4.089
 2612SOL    HW1 8735   5.591   6.774   4.050
 2612SOL    HW2 8736   5.728   6.857   4.017
 2613SOL     OW 8737   2.262   4.729   6.535
 2613SOL    HW1 8738   2.237   4.801   6.600
 2613SOL    HW2 8739   2.213   4.743   6.449
 2614SOL     OW 8740   5.899   1.142   6.352
 2614SOL    HW1 8741   5.944   1.085   6.283
 2614SOL    HW2 8742   5.833   1.202   6.306
 2615SOL     OW 8743   0.342   2.504   1.871
 2615SOL    HW1 8744   0.295   2.442   1.934
 2615SOL    HW2 8745   0.347   2.463   1.780
 2616SOL     OW 8746   0.872   1.876   5.478
 2616SOL    HW1 8747   0.870   1.901   5.381
 2616SOL    HW2 8748   0.896   1.779   5.487
 2617SOL     OW 8749   4.720   0.525   0.713
 2617SOL    HW1 8750   4.765   0.584   0.779
 2617SOL    HW2 8751   4.788   0.468   0.667
 2618SOL     OW 8752   1.116   5.819   4.805
 2618SOL    HW1 8753   1.058   5.858   4.734
 2618SOL    HW2 8754   1.112   5.877   4.887
 2619SOL     OW 8755   3.827   1.915   1.838
 2619SOL    HW1 8756   3.834   1.939   1.935
 2619SOL    HW2 8757   3.737   1.874   1.821
 2620SOL     OW 8758   6.268   6.412   1.713
 2620SOL    HW1 8759   6.332   6.336   1.705
 2620SOL    HW2 8760   6.211   6.416   1.632
 2621SOL     OW 8761   0.337   4.864   2.828
 2621SOL    HW1 8762   0.399   4.914   2.890
 2621SOL    HW2 8763   0.389   4.799   2.774
 2622SOL     OW 8764   3.076   3.107   5.808
 2622SOL    HW1 8765   3.004   3.172   5.784
 2622SOL    HW2 8766   3.074   3.030   5.745
 2623SOL     OW 8767   0.599   0.338   3.935
 2623SOL    HW1 8768   0.582   0.432   3.907
 2623SOL    HW2 8769   0.516   0.301   3.977
 2624SOL     OW 8770   6.859   2.130   4.546
 2624SOL    HW1 8771   6.857   2.179   4.458
 2624SOL    HW2 8772   6.801   2.049   4.540
 2625SOL     OW 8773   2.171   5.379   5.586
 2625SOL    HW1 8774   2.080   5.414   5.609
 2625SOL    HW2 8775   2.223   5.365   5.671
 2626SOL     OW 8776   6.391   6.934   5.499
 2626SOL    HW1 8777   6.360   7.012   5.443
 2626SOL    HW2 8778   6.395   6.852   5.442
 2627SOL     OW 8779   1.394   0.252   6.590
 2627SOL    HW1 8780   1.400   0.189   6.513
 2627SOL    HW2 8781   1.374   0.200   6.673
 2628SOL     OW 8782   1.830   3.401   3.668
 2628SOL    HW1 8783   1.823   3.323   3.730
 2628SOL    HW2 8784   1.926   3.423   3.652
 2629SOL     OW 8785   3.675   3.497   3.331
 2629SOL    HW1 8786   3.613   3.462   3.261
 2629SOL    HW2 8787   3.749   3.431   3.346
 2630SOL     OW 8788   3.505   1.015   3.613
 2630SOL    HW1 8789   3.577   0.946   3.619
 2630SOL    HW2 8790   3.516   1.067   3.529
 2631SOL     OW 8791   6.037   0.653   6.406
 2631SOL    HW1 8792   6.047   0.556   6.427
 2631SOL    HW2 8793   5.973   0.695   6.470
 2632SOL     OW 8794   5.627   4.390   1.710
 2632SOL    HW1 8795   5.553   4.443   1.751
 2632SOL    HW2 8796   5.700   4.451   1.681
 2633SOL     OW 8797   6.537   2.556   5.658
 2633SOL    HW1 8798   6.597   2.507   5.594
 2633SOL    HW2 8799   6.456   2.500   5.677
 2634SOL     OW 8800   0.568   5.903   4.486
 2634SOL    HW1 8801   0.498   5.954   4.437
 2634SOL    HW2 8802   0.592   5.821   4.434
 2635SOL     OW 8803   5.765   5.227   3.932
 2635SOL    HW1 8804   5.842   5.255   3.989
 2635SOL    HW2 8805   5.781   5.135   3.897
 2636SOL     OW 8806   3.388   1.346   6.405
 2636SOL    HW1 8807   3.464   1.358   6.470
 2636SOL    HW2 8808   3.421   1.364   6.312
 2637SOL     OW 8809   0.066   1.705   3.624
 2637SOL    HW1 8810   0.072   1.614   3.582
 2637SOL    HW2 8811   6.998   1.729   3.638
 2638SOL     OW 8812   0.376   0.643   4.640
 2638SOL    HW1 8813   0.389   0.742   4.633
 2638SOL    HW2 8814   0.288   0.624   4.682
 2639SOL     OW 8815   4.832   5.064   5.166
 2639SOL    HW1 8816   4.857   5.142   5.109
 2639SOL    HW2 8817   4.734   5.045   5.155
 2640SOL     OW 8818   0.529   6.967   5.178
 2640SOL    HW1 8819   0.457   6.907   5.144
 2640SOL    HW2 8820   0.614   6.950   5.128
 2641SOL     OW 8821   4.991   2.834   0.599
 2641SOL    HW1 8822   5.033   2.747   0.622
 2641SOL    HW2 8823   5.027   2.906   0.658
 2642SOL     OW 8824   0.006   0.684   3.669
 2642SOL    HW1 8825   0.093   0.675   3.619
 2642SOL    HW2 8826   6.969   0.615   3.635
 2643SOL     OW 8827   0.548   3.123   3.902
 2643SOL    HW1 8828   0.451   3.113   3.878
 2643SOL    HW2 8829   0.587   3.198   3.848
 2644SOL     OW 8830   4.852   5.595   5.230
 2644SOL    HW1 8831   4.754   5.577   5.222
 2644SOL    HW2 8832   4.898   5.513   5.264
 2645SOL     OW 8833   4.917   4.853   3.781
 2645SOL    HW1 8834   5.000   4.883   3.828
 2645SOL    HW2 8835   4.911   4.896   3.692
 2646SOL     OW 8836   0.653   4.245   6.661
 2646SOL    HW1 8837   0.602   4.184   6.601
 2646SOL    HW2 8838   0.677   4.196   6.745
 2647SOL     OW 8839   4.889   0.159   1.845
 2647SOL    HW1 8840   4.941   0.214   1.909
 2647SOL    HW2 8841   4.933   0.162   1.755
 2648SOL     OW 8842   0.918   0.083   3.528
 2648SOL    HW1 8843   0.999   0.112   3.477
 2648SOL    HW2 8844   0.853   0.158   3.533
 2649SOL     OW 8845   5.152   3.050   1.812
 2649SOL    HW1 8846   5.091   3.005   1.877
 2649SOL    HW2 8847   5.180   2.984   1.741
 2650SOL     OW 8848   2.907   5.539   4.671
 2650SOL    HW1 8849   2.974   5.465   4.666
 2650SOL    HW2 8850   2.928   5.599   4.749
 2651SOL     OW 8851   3.461   1.720   6.401
 2651SOL    HW1 8852   3.429   1.740   6.308
 2651SOL    HW2 8853   3.547   1.669   6.397
 2652SOL     OW 8854   4.439   3.518   5.473
 2652SOL    HW1 8855   4.483   3.608   5.473
 2652SOL    HW2 8856   4.492   3.455   5.531
 2653SOL     OW 8857   3.620   6.105   5.967
 2653SOL    HW1 8858   3.629   6.052   5.883
 2653SOL    HW2 8859   3.650   6.050   6.045
 2654SOL     OW 8860   4.923   6.455   0.687
 2654SOL    HW1 8861   4.865   6.429   0.609
 2654SOL    HW2 8862   5.018   6.459   0.657
 2655SOL     OW 8863   4.498   6.262   3.549
 2655SOL    HW1 8864   4.568   6.206   3.505
 2655SOL    HW2 8865   4.529   6.358   3.551
 2656SOL     OW 8866   3.713   5.941   3.880
 2656SOL    HW1 8867   3.805   5.963   3.847
 2656SOL    HW2 8868   3.651   5.936   3.802
 2657SOL     OW 8869   1.749   3.265   0.435
 2657SOL    HW1 8870   1.690   3.225   0.506
 2657SOL    HW2 8871   1.693   3.320   0.373
 2658SOL     OW 8872   4.350   4.044   6.500
 2658SOL    HW1 8873   4.300   4.131   6.499
 2658SOL    HW2 8874   4.370   4.018   6.594
 2659SOL     OW 8875   5.647   2.714   4.966
 2659SOL    HW1 8876   5.637   2.812   4.983
 2659SOL    HW2 8877   5.715   2.699   4.894
 2660SOL     OW 8878   0.310   1.189   0.868
 2660SOL    HW1 8879   0.229   1.133   0.887
 2660SOL    HW2 8880   0.345   1.167   0.777
 2661SOL     OW 8881   0.998   0.670   1.970
 2661SOL    HW1 8882   0.902   0.675   1.999
 2661SOL    HW2 8883   1.003   0.659   1.871
 2662SOL     OW 8884   3.173   0.719   3.859
 2662SOL    HW1 8885   3.183   0.817   3.845
 2662SOL    HW2 8886   3.088   0.701   3.910
 2663SOL     OW 8887   3.113   0.151   5.820
 2663SOL    HW1 8888   3.193   0.091   5.828
 2663SOL    HW2 8889   3.058   0.143   5.903
 2664SOL     OW 8890   3.810   2.469   5.357
 2664SOL    HW1 8891   3.875   2.535   5.395
 2664SOL    HW2 8892   3.720   2.511   5.350
 2665SOL     OW 8893   2.516   3.542   5.388
 2665SOL    HW1 8894   2.504   3.445   5.408
 2665SOL    HW2 8895   2.593   3.578   5.442
 2666SOL     OW 8896   1.950   2.944   2.339
 2666SOL    HW1 8897   1.865   2.996   2.337
 2666SOL    HW2 8898   2.005   2.967   2.260
 2667SOL     OW 8899   6.498   4.520   3.994
 2667SOL    HW1 8900   6.445   4.576   3.930
 2667SOL    HW2 8901   6.435   4.464   4.048
 2668SOL     OW 8902   5.327   2.257   4.566
 2668SOL    HW1 8903   5.243   2.298   4.602
 2668SOL    HW2 8904   5.400   2.325   4.568
 2669SOL     OW 8905   2.802   5.919   0.011
 2669SOL    HW1 8906   2.769   5.893   0.102
 2669SOL    HW2 8907   2.805   5.838   6.980
 2670SOL     OW 8908   6.230   1.659   5.152
 2670SOL    HW1 8909   6.233   1.634   5.249
 2670SOL    HW2 8910   6.164   1.734   5.140
 2671SOL     OW 8911   4.447   6.112   6.415
 2671SOL    HW1 8912   4.359   6.069   6.435
 2671SOL    HW2 8913   4.441   6.159   6.327
 2672SOL     OW 8914   3.733   1.002   1.847
 2672SOL    HW1 8915   3.645   0.980   1.890
 2672SOL    HW2 8916   3.793   1.045   1.914
 2673SOL     OW 8917   5.178   6.735   2.802
 2673SOL    HW1 8918   5.242   6.793   2.853
 2673SOL    HW2 8919   5.125   6.792   2.739
 2674SOL     OW 8920   1.541   5.356   4.082
 2674SOL    HW1 8921   1.559   5.292   4.008
 2674SOL    HW2 8922   1.453   5.334   4.124
 2675SOL     OW 8923   0.276   6.825   3.723
 2675SOL    HW1 8924   0.230   6.748   3.679
 2675SOL    HW2 8925   0.366   6.838   3.682
 2676SOL     OW 8926   3.048   3.958   2.163
 2676SOL    HW1 8927   3.103   3.973   2.245
 2676SOL    HW2 8928   2.964   4.012   2.169
 2677SOL     OW 8929   2.592   4.369   1.015
 2677SOL    HW1 8930   2.567   4.272   1.017
 2677SOL    HW2 8931   2.518   4.422   0.973
 2678SOL     OW 8932   7.004   2.346   2.455
 2678SOL    HW1 8933   0.076   2.336   2.458
 2678SOL    HW2 8934   6.961   2.272   2.507
 2679SOL     OW 8935   2.005   5.593   2.247
 2679SOL    HW1 8936   1.914   5.587   2.204
 2679SOL    HW2 8937   2.051   5.505   2.238
 2680SOL     OW 8938   1.300   2.402   0.114
 2680SOL    HW1 8939   1.305   2.321   0.173
 2680SOL    HW2 8940   1.297   2.484   0.171
 2681SOL     OW 8941   1.480   2.564   5.275
 2681SOL    HW1 8942   1.441   2.519   5.195
 2681SOL    HW2 8943   1.407   2.604   5.330
 2682SOL     OW 8944   5.010   4.219   1.911
 2682SOL    HW1 8945   4.926   4.224   1.964
 2682SOL    HW2 8946   5.042   4.312   1.889
 2683SOL     OW 8947   2.475   4.453   2.703
 2683SOL    HW1 8948   2.463   4.478   2.799
 2683SOL    HW2 8949   2.505   4.358   2.697
 2684SOL     OW 8950   5.271   6.382   2.255
 2684SOL    HW1 8951   5.254   6.284   2.253
 2684SOL    HW2 8952   5.348   6.404   2.196
 2685SOL     OW 8953   6.642   4.804   4.939
 2685SOL    HW1 8954   6.673   4.864   4.866
 2685SOL    HW2 8955   6.544   4.787   4.929
 2686SOL     OW 8956   1.235   1.441   4.843
 2686SOL    HW1 8957   1.197   1.364   4.894
 2686SOL    HW2 8958   1.269   1.409   4.754
 2687SOL     OW 8959   3.923   0.857   2.020
 2687SOL    HW1 8960   4.000   0.794   2.023
 2687SOL    HW2 8961   3.871   0.842   1.936
 2688SOL     OW 8962   3.419   2.033   0.871
 2688SOL    HW1 8963   3.477   1.984   0.935
 2688SOL    HW2 8964   3.434   1.997   0.779
 2689SOL     OW 8965   0.822   4.132   2.464
 2689SOL    HW1 8966   0.738   4.178   2.433
 2689SOL    HW2 8967   0.841   4.054   2.404
 2690SOL     OW 8968   3.163   2.511   6.379
 2690SOL    HW1 8969   3.207   2.422   6.366
 2690SOL    HW2 8970   3.227   2.584   6.356
 2691SOL     OW 8971   0.592   4.551   3.640
 2691SOL    HW1 8972   0.573   4.517   3.732
 2691SOL    HW2 8973   0.597   4.475   3.576
 2692SOL     OW 8974   2.791   5.950   3.458
 2692SOL    HW1 8975   2.780   5.851   3.461
 2692SOL    HW2 8976   2.703   5.994   3.440
 2693SOL     OW 8977   1.820   4.913   3.796
 2693SOL    HW1 8978   1.805   4.921   3.698
 2693SOL    HW2 8979   1.866   4.996   3.830
 2694SOL     OW 8980   4.080   6.217   3.602
 2694SOL    HW1 8981   4.027   6.301   3.600
 2694SOL    HW2 8982   4.165   6.232   3.653
 2695SOL     OW 8983   6.579   7.007   2.660
 2695SOL    HW1 8984   6.607   6.946   2.735
 2695SOL    HW2 8985   6.484   6.988   2.636
 2696SOL     OW 8986   4.466   3.737   6.620
 2696SOL    HW1 8987   4.451   3.655   6.675
 2696SOL    HW2 8988   4.399   3.741   6.546
 2697SOL     OW 8989   4.342   1.585   1.094
 2697SOL    HW1 8990   4.398   1.547   1.020
 2697SOL    HW2 8991   4.317   1.680   1.072
 2698SOL     OW 8992   1.408   4.959   5.884
 2698SOL    HW1 8993   1.417   4.884   5.818
 2698SOL    HW2 8994   1.359   4.928   5.964
 2699SOL     OW 8995   2.897   6.015   1.981
 2699SOL    HW1 8996   2.850   6.025   2.068
 2699SOL    HW2 8997   2.989   6.054   1.987
 2700SOL     OW 8998   2.637   1.977   1.071
 2700SOL    HW1 8999   2.556   1.925   1.043
 2700SOL    HW2 9000   2.706   1.915   1.107
 2701SOL     OW 9001   4.953   2.474   4.948
 2701SOL    HW1 9002   4.915   2.467   5.040
 2701SOL    HW2 9003   4.911   2.404   4.889
 2702SOL     OW 9004   2.069   1.528   4.007
 2702SOL    HW1 9005   2.126   1.456   3.967
 2702SOL    HW2 9006   2.125   1.610   4.021
 2703SOL     OW 9007   1.565   5.712   1.448
 2703SOL    HW1 9008   1.516   5.774   1.509
 2703SOL    HW2 9009   1.502   5.644   1.412
 2704SOL     OW 9010   7.006   5.510   3.185
 2704SOL    HW1 9011   0.069   5.526   3.224
 2704SOL    HW2 9012   6.959   5.439   3.236
 2705SOL     OW 9013   0.036   1.583   5.499
 2705SOL    HW1 9014   0.060   1.665   5.446
 2705SOL    HW2 9015   6.985   1.603   5.557
 2706SOL     OW 9016   5.783   4.454   4.145
 2706SOL    HW1 9017   5.784   4.374   4.085
 2706SOL    HW2 9018   5.760   4.535   4.092
 2707SOL     OW 9019   4.572   6.694   3.337
 2707SOL    HW1 9020   4.524   6.664   3.255
 2707SOL    HW2 9021   4.512   6.684   3.416
 2708SOL     OW 9022   5.936   3.349   0.217
 2708SOL    HW1 9023   5.946   3.448   0.211
 2708SOL    HW2 9024   5.922   3.311   0.125
 2709SOL     OW 9025   5.206   6.920   6.377
 2709SOL    HW1 9026   5.264   6.864   6.438
 2709SOL    HW2 9027   5.140   6.861   6.331
 2710SOL     OW 9028   1.739   2.818   3.905
 2710SOL    HW1 9029   1.640   2.828   3.902
 2710SOL    HW2 9030   1.772   2.777   3.820
 2711SOL     OW 9031   3.205   2.054   3.795
 2711SOL    HW1 9032   3.294   2.083   3.759
 2711SOL    HW2 9033   3.135   2.066   3.724
 2712SOL     OW 9034   3.471   5.408   2.271
 2712SOL    HW1 9035   3.424   5.409   2.183
 2712SOL    HW2 9036   3.446   5.490   2.323
 2713SOL     OW 9037   4.397   4.720   6.219
 2713SOL    HW1 9038   4.427   4.655   6.149
 2713SOL    HW2 9039   4.459   4.799   6.219
 2714SOL     OW 9040   3.501   3.911   6.621
 2714SOL    HW1 9041   3.540   3.824   6.594
 2714SOL    HW2 9042   3.520   3.980   6.550
 2715SOL     OW 9043   5.269   1.820   0.981
 2715SOL    HW1 9044   5.336   1.806   0.909
 2715SOL    HW2 9045   5.264   1.918   1.003
 2716SOL     OW 9046   4.519   2.348   2.668
 2716SOL    HW1 9047   4.438   2.294   2.690
 2716SOL    HW2 9048   4.495   2.419   2.602
 2717SOL     OW 9049   0.627   0.511   1.870
 2717SOL    HW1 9050   0.711   0.463   1.845
 2717SOL    HW2 9051   0.580   0.462   1.942
 2718SOL     OW 9052   0.429   1.040   5.722
 2718SOL    HW1 9053   0.475   1.083   5.645
 2718SOL    HW2 9054   0.496   0.989   5.776
 2719SOL     OW 9055   1.440   4.453   2.733
 2719SOL    HW1 9056   1.346   4.427   2.753
 2719SOL    HW2 9057   1.480   4.388   2.668
 2720SOL     OW 9058   0.741   6.926   5.009
 2720SOL    HW1 9059   0.795   6.994   4.960
 2720SOL    HW2 9060   0.794   6.894   5.088
 2721SOL     OW 9061   3.236   6.374   1.364
 2721SOL    HW1 9062   3.318   6.359   1.419
 2721SOL    HW2 9063   3.167   6.422   1.419
 2722SOL     OW 9064   4.970   5.861   6.732
 2722SOL    HW1 9065   5.041   5.918   6.773
 2722SOL    HW2 9066   5.003   5.824   6.645
 2723SOL     OW 9067   3.115   6.968   0.025
 2723SOL    HW1 9068   3.197   6.913   0.042
 2723SOL    HW2 9069   3.097   7.025   0.105
 2724SOL     OW 9070   1.420   5.888   6.400
 2724SOL    HW1 9071   1.367   5.823   6.345
 2724SOL    HW2 9072   1.437   5.849   6.490
 2725SOL     OW 9073   5.248   4.179   4.222
 2725SOL    HW1 9074   5.332   4.187   4.169
 2725SOL    HW2 9075   5.171   4.214   4.167
 2726SOL     OW 9076   1.000   1.633   1.097
 2726SOL    HW1 9077   0.918   1.612   1.150
 2726SOL    HW2 9078   1.046   1.713   1.136
 2727SOL     OW 9079   2.241   4.054   4.269
 2727SOL    HW1 9080   2.238   3.961   4.306
 2727SOL    HW2 9081   2.198   4.056   4.180
 2728SOL     OW 9082   5.652   6.145   6.545
 2728SOL    HW1 9083   5.719   6.097   6.487
 2728SOL    HW2 9084   5.694   6.167   6.633
 2729SOL     OW 9085   5.847   6.366   7.025
 2729SOL    HW1 9086   5.857   6.456   6.981
 2729SOL    HW2 9087   5.856   6.377   0.096
 2730SOL     OW 9088   0.439   5.546   1.636
 2730SOL    HW1 9089   0.482   5.602   1.707
 2730SOL    HW2 9090   0.351   5.512   1.670
 2731SOL     OW 9091   3.110   3.214   3.478
 2731SOL    HW1 9092   3.171   3.135   3.466
 2731SOL    HW2 9093   3.094   3.257   3.389
 2732SOL     OW 9094   4.788   1.218   1.157
 2732SOL    HW1 9095   4.861   1.154   1.181
 2732SOL    HW2 9096   4.814   1.268   1.074
 2733SOL     OW 9097   6.953   1.255   5.769
 2733SOL    HW1 9098   0.009   1.209   5.739
 2733SOL    HW2 9099   6.978   1.338   5.820
 2734SOL     OW 9100   3.555   6.554   1.657
 2734SOL    HW1 9101   3.642   6.519   1.693
 2734SOL    HW2 9102   3.556   6.654   1.659
 2735SOL     OW 9103   1.494   2.145   0.292
 2735SOL    HW1 9104   1.535   2.070   0.240
 2735SOL    HW2 9105   1.566   2.200   0.335
 2736SOL     OW 9106   5.633   5.865   4.483
 2736SOL    HW1 9107   5.682   5.788   4.525
 2736SOL    HW2 9108   5.578   5.831   4.407
 2737SOL     OW 9109   2.715   2.102   6.044
 2737SOL    HW1 9110   2.786   2.147   6.097
 2737SOL    HW2 9111   2.633   2.160   6.043
 2738SOL     OW 9112   5.923   0.280   1.627
 2738SOL    HW1 9113   5.942   0.184   1.612
 2738SOL    HW2 9114   5.927   0.329   1.540
 2739SOL     OW 9115   1.192   5.492   1.192
 2739SOL    HW1 9116   1.216   5.559   1.122
 2739SOL    HW2 9117   1.107   5.446   1.167
 2740SOL     OW 9118   0.012   5.087   2.628
 2740SOL    HW1 9119   0.023   5.130   2.718
 2740SOL    HW2 9120   0.034   4.990   2.635
 2741SOL     OW 9121   1.308   2.253   4.086
 2741SOL    HW1 9122   1.254   2.242   4.002
 2741SOL    HW2 9123   1.254   2.223   4.165
 2742SOL     OW 9124   3.263   4.777   1.856
 2742SOL    HW1 9125   3.186   4.737   1.806
 2742SOL    HW2 9126   3.345   4.721   1.840
 2743SOL     OW 9127   6.912   4.556   2.195
 2743SOL    HW1 9128   6.969   4.543   2.113
 2743SOL    HW2 9129   6.817   4.568   2.167
 2744SOL     OW 9130   3.644   3.336   2.345
 2744SOL    HW1 9131   3.650   3.258   2.408
 2744SOL    HW2 9132   3.734   3.377   2.335
 2745SOL     OW 9133   6.441   1.763   5.834
 2745SOL    HW1 9134   6.511   1.784   5.766
 2745SOL    HW2 9135   6.485   1.735   5.920
 2746SOL     OW 9136   0.725   1.017   4.410
 2746SOL    HW1 9137   0.717   1.111   4.377
 2746SOL    HW2 9138   0.816   1.002   4.448
 2747SOL     OW 9139   4.030   5.758   6.644
 2747SOL    HW1 9140   4.098   5.689   6.620
 2747SOL    HW2 9141   3.941   5.733   6.604
 2748SOL     OW 9142   4.461   0.683   1.416
 2748SOL    HW1 9143   4.482   0.767   1.466
 2748SOL    HW2 9144   4.465   0.700   1.318
 2749SOL     OW 9145   1.119   3.715   0.391
 2749SOL    HW1 9146   1.046   3.728   0.459
 2749SOL    HW2 9147   1.196   3.668   0.434
 2750SOL     OW 9148   2.571   5.283   1.755
 2750SOL    HW1 9149   2.617   5.324   1.834
 2750SOL    HW2 9150   2.477   5.261   1.778
 2751SOL     OW 9151   2.022   1.802   1.752
 2751SOL    HW1 9152   2.046   1.830   1.845
 2751SOL    HW2 9153   2.101   1.817   1.692
 2752SOL     OW 9154   4.183   4.402   6.175
 2752SOL    HW1 9155   4.097   4.427   6.218
 2752SOL    HW2 9156   4.166   4.369   6.082
 2753SOL     OW 9157   6.117   6.191   5.096
 2753SOL    HW1 9158   6.044   6.132   5.063
 2753SOL    HW2 9159   6.099   6.216   5.191
 2754SOL     OW 9160   0.799   6.494   6.621
 2754SOL    HW1 9161   0.728   6.542   6.674
 2754SOL    HW2 9162   0.865   6.561   6.586
 2755SOL     OW 9163   2.640   6.917   2.655
 2755SOL    HW1 9164   2.569   6.853   2.627
 2755SOL    HW2 9165   2.730   6.881   2.630
 2756SOL     OW 9166   4.422   6.248   0.742
 2756SOL    HW1 9167   4.346   6.192   0.710
 2756SOL    HW2 9168   4.496   6.245   0.675
 2757SOL     OW 9169   1.779   5.501   0.332
 2757SOL    HW1 9170   1.750   5.462   0.419
 2757SOL    HW2 9171   1.699   5.518   0.274
 2758SOL     OW 9172   5.244   0.438   4.764
 2758SOL    HW1 9173   5.175   0.452   4.835
 2758SOL    HW2 9174   5.264   0.525   4.719
 2759SOL     OW 9175   5.429   6.188   4.135
 2759SOL    HW1 9176   5.389   6.138   4.213
 2759SOL    HW2 9177   5.453   6.280   4.164
 2760SOL     OW 9178   1.201   5.489   2.476
 2760SOL    HW1 9179   1.161   5.404   2.441
 2760SOL    HW2 9180   1.289   5.469   2.519
 2761SOL     OW 9181   1.818   4.681   3.948
 2761SOL    HW1 9182   1.908   4.658   3.986
 2761SOL    HW2 9183   1.828   4.757   3.884
 2762SOL     OW 9184   0.886   0.518   5.392
 2762SOL    HW1 9185   0.894   0.478   5.483
 2762SOL    HW2 9186   0.807   0.579   5.389
 2763SOL     OW 9187   5.668   2.039   3.968
 2763SOL    HW1 9188   5.630   1.948   3.984
 2763SOL    HW2 9189   5.594   2.102   3.942
 2764SOL     OW 9190   5.706   0.072   1.210
 2764SOL    HW1 9191   5.634   0.089   1.142
 2764SOL    HW2 9192   5.668   0.082   1.302
 2765SOL     OW 9193   5.370   0.612   1.407
 2765SOL    HW1 9194   5.272   0.633   1.408
 2765SOL    HW2 9195   5.416   0.666   1.478
 2766SOL     OW 9196   5.569   1.867   0.530
 2766SOL    HW1 9197   5.505   1.935   0.494
 2766SOL    HW2 9198   5.616   1.822   0.453
 2767SOL     OW 9199   6.805   4.679   7.003
 2767SOL    HW1 9200   6.711   4.645   6.993
 2767SOL    HW2 9201   6.865   4.627   6.942
 2768SOL     OW 9202   5.748   1.460   0.305
 2768SOL    HW1 9203   5.821   1.420   0.361
 2768SOL    HW2 9204   5.784   1.477   0.213
 2769SOL     OW 9205   6.104   4.504   3.940
 2769SOL    HW1 9206   6.112   4.413   3.898
 2769SOL    HW2 9207   6.189   4.555   3.928
 2770SOL     OW 9208   1.738   5.620   6.724
 2770SOL    HW1 9209   1.800   5.585   6.654
 2770SOL    HW2 9210   1.703   5.543   6.779
 2771SOL     OW 9211   5.038   1.248   1.631
 2771SOL    HW1 9212   5.072   1.329   1.679
 2771SOL    HW2 9213   5.115   1.190   1.607
 2772SOL     OW 9214   4.805   2.386   0.492
 2772SOL    HW1 9215   4.832   2.473   0.450
 2772SOL    HW2 9216   4.706   2.374   0.484
 2773SOL     OW 9217   4.480   3.162   6.064
 2773SOL    HW1 9218   4.528   3.233   6.114
 2773SOL    HW2 9219   4.448   3.198   5.976
 2774SOL     OW 9220   6.361   3.011   2.983
 2774SOL    HW1 9221   6.305   3.012   3.066
 2774SOL    HW2 9222   6.339   3.092   2.928
 2775SOL     OW 9223   6.808   5.590   0.784
 2775SOL    HW1 9224   6.814   5.669   0.844
 2775SOL    HW2 9225   6.731   5.532   0.813
 2776SOL     OW 9226   4.242   5.741   5.197
 2776SOL    HW1 9227   4.174   5.681   5.239
 2776SOL    HW2 9228   4.291   5.691   5.126
 2777SOL     OW 9229   3.188   1.194   2.476
 2777SOL    HW1 9230   3.133   1.111   2.483
 2777SOL    HW2 9231   3.174   1.251   2.557
 2778SOL     OW 9232   1.859   1.036   5.522
 2778SOL    HW1 9233   1.880   0.982   5.441
 2778SOL    HW2 9234   1.862   0.978   5.603
 2779SOL     OW 9235   4.409   0.199   0.415
 2779SOL    HW1 9236   4.445   0.203   0.508
 2779SOL    HW2 9237   4.312   0.221   0.416
 2780SOL     OW 9238   6.111   5.844   5.638
 2780SOL    HW1 9239   6.084   5.776   5.707
 2780SOL    HW2 9240   6.045   5.843   5.563
 2781SOL     OW 9241   6.214   5.275   1.831
 2781SOL    HW1 9242   6.283   5.269   1.903
 2781SOL    HW2 9243   6.254   5.322   1.752
 2782SOL     OW 9244   3.302   2.768   6.328
 2782SOL    HW1 9245   3.273   2.796   6.236
 2782SOL    HW2 9246   3.282   2.841   6.393
 2783SOL     OW 9247   6.137   3.015   5.009
 2783SOL    HW1 9248   6.211   2.949   5.020
 2783SOL    HW2 9249   6.169   3.095   4.959
 2784SOL     OW 9250   2.249   2.369   1.359
 2784SOL    HW1 9251   2.188   2.317   1.420
 2784SOL    HW2 9252   2.202   2.451   1.327
 2785SOL     OW 9253   6.391   0.948   0.220
 2785SOL    HW1 9254   6.297   0.926   0.197
 2785SOL    HW2 9255   6.448   0.943   0.138
 2786SOL     OW 9256   3.234   0.014   1.383
 2786SOL    HW1 9257   3.182   0.088   1.339
 2786SOL    HW2 9258   3.313   7.019   1.326
 2787SOL     OW 9259   2.529   3.165   6.748
 2787SOL    HW1 9260   2.457   3.121   6.802
 2787SOL    HW2 9261   2.507   3.157   6.651
 2788SOL     OW 9262   2.196   4.036   0.186
 2788SOL    HW1 9263   2.201   4.135   0.199
 2788SOL    HW2 9264   2.104   4.012   0.155
 2789SOL     OW 9265   1.605   1.825   3.880
 2789SOL    HW1 9266   1.605   1.767   3.799
 2789SOL    HW2 9267   1.668   1.788   3.949
 2790SOL     OW 9268   3.517   5.290   2.774
 2790SOL    HW1 9269   3.478   5.198   2.772
 2790SOL    HW2 9270   3.597   5.294   2.715
 2791SOL     OW 9271   1.724   4.095   4.871
 2791SOL    HW1 9272   1.745   3.999   4.891
 2791SOL    HW2 9273   1.807   4.149   4.880
 2792SOL     OW 9274   1.496   0.169   4.905
 2792SOL    HW1 9275   1.491   0.192   5.002
 2792SOL    HW2 9276   1.565   0.097   4.891
 2793SOL     OW 9277   4.922   2.363   2.566
 2793SOL    HW1 9278   4.932   2.323   2.658
 2793SOL    HW2 9279   4.990   2.323   2.505
 2794SOL     OW 9280   6.984   2.992   0.404
 2794SOL    HW1 9281   6.885   2.978   0.392
 2794SOL    HW2 9282   0.006   2.914   0.367
 2795SOL     OW 9283   2.966   4.183   1.501
 2795SOL    HW1 9284   3.001   4.233   1.580
 2795SOL    HW2 9285   3.030   4.191   1.425
 2796SOL     OW 9286   6.530   4.391   2.609
 2796SOL    HW1 9287   6.569   4.303   2.637
 2796SOL    HW2 9288   6.435   4.378   2.580
 2797SOL     OW 9289   5.162   5.814   5.114
 2797SOL    HW1 9290   5.190   5.886   5.178
 2797SOL    HW2 9291   5.163   5.726   5.161
 2798SOL     OW 9292   1.079   4.238   2.448
 2798SOL    HW1 9293   0.982   4.234   2.423
 2798SOL    HW2 9294   1.114   4.145   2.461
 2799SOL     OW 9295   0.356   6.010   6.944
 2799SOL    HW1 9296   0.337   5.974   6.853
 2799SOL    HW2 9297   0.432   5.960   6.985
 2800SOL     OW 9298   4.683   4.285   6.607
 2800SOL    HW1 9299   4.673   4.269   6.509
 2800SOL    HW2 9300   4.594   4.305   6.647
 2801SOL     OW 9301   4.399   5.901   3.862
 2801SOL    HW1 9302   4.474   5.916   3.927
 2801SOL    HW2 9303   4.422   5.941   3.774
 2802SOL     OW 9304   4.475   3.202   6.402
 2802SOL    HW1 9305   4.418   3.121   6.420
 2802SOL    HW2 9306   4.493   3.250   6.488
 2803SOL     OW 9307   2.266   6.356   5.911
 2803SOL    HW1 9308   2.257   6.371   6.010
 2803SOL    HW2 9309   2.287   6.444   5.867
 2804SOL     OW 9310   6.766   4.401   3.669
 2804SOL    HW1 9311   6.763   4.338   3.591
 2804SOL    HW2 9312   6.757   4.349   3.754
 2805SOL     OW 9313   4.530   3.808   1.408
 2805SOL    HW1 9314   4.504   3.858   1.326
 2805SOL    HW2 9315   4.627   3.783   1.403
 2806SOL     OW 9316   5.627   5.196   3.357
 2806SOL    HW1 9317   5.625   5.199   3.457
 2806SOL    HW2 9318   5.614   5.102   3.326
 2807SOL     OW 9319   5.294   4.825   3.651
 2807SOL    HW1 9320   5.276   4.916   3.614
 2807SOL    HW2 9321   5.297   4.829   3.751
 2808SOL     OW 9322   4.153   1.518   3.002
 2808SOL    HW1 9323   4.237   1.481   3.042
 2808SOL    HW2 9324   4.074   1.481   3.051
 2809SOL     OW 9325   6.551   2.761   1.337
 2809SOL    HW1 9326   6.522   2.805   1.422
 2809SOL    HW2 9327   6.636   2.710   1.353
 2810SOL     OW 9328   3.498   6.551   4.748
 2810SOL    HW1 9329   3.516   6.523   4.654
 2810SOL    HW2 9330   3.400   6.555   4.764
 2811SOL     OW 9331   0.731   0.775   3.210
 2811SOL    HW1 9332   0.791   0.753   3.287
 2811SOL    HW2 9333   0.674   0.696   3.187
 2812SOL     OW 9334   5.273   3.501   1.915
 2812SOL    HW1 9335   5.304   3.592   1.889
 2812SOL    HW2 9336   5.177   3.490   1.892
 2813SOL     OW 9337   6.068   6.783   5.855
 2813SOL    HW1 9338   6.135   6.846   5.815
 2813SOL    HW2 9339   5.984   6.786   5.801
 2814SOL     OW 9340   4.142   2.959   6.984
 2814SOL    HW1 9341   4.044   2.970   7.003
 2814SOL    HW2 9342   4.188   3.046   7.000
 2815SOL     OW 9343   0.131   1.336   4.814
 2815SOL    HW1 9344   0.132   1.374   4.907
 2815SOL    HW2 9345   0.100   1.406   4.750
 2816SOL     OW 9346   6.498   6.185   3.710
 2816SOL    HW1 9347   6.596   6.172   3.696
 2816SOL    HW2 9348   6.458   6.099   3.743
 2817SOL     OW 9349   1.565   0.032   1.461
 2817SOL    HW1 9350   1.654   0.066   1.491
 2817SOL    HW2 9351   1.578   6.991   1.390
 2818SOL     OW 9352   6.893   5.363   0.022
 2818SOL    HW1 9353   6.881   5.462   0.025
 2818SOL    HW2 9354   6.912   5.329   0.114
 2819SOL     OW 9355   0.412   2.272   0.636
 2819SOL    HW1 9356   0.322   2.263   0.677
 2819SOL    HW2 9357   0.403   2.281   0.536
 2820SOL     OW 9358   1.001   2.488   2.258
 2820SOL    HW1 9359   0.914   2.536   2.251
 2820SOL    HW2 9360   1.076   2.552   2.240
 2821SOL     OW 9361   3.237   4.142   6.599
 2821SOL    HW1 9362   3.311   4.149   6.666
 2821SOL    HW2 9363   3.203   4.233   6.576
 2822SOL     OW 9364   3.667   2.461   0.431
 2822SOL    HW1 9365   3.731   2.536   0.447
 2822SOL    HW2 9366   3.703   2.377   0.471
 2823SOL     OW 9367   2.122   6.395   1.345
 2823SOL    HW1 9368   2.134   6.444   1.432
 2823SOL    HW2 9369   2.090   6.459   1.275
 2824SOL     OW 9370   2.549   1.367   5.034
 2824SOL    HW1 9371   2.584   1.391   5.125
 2824SOL    HW2 9372   2.483   1.436   5.005
 2825SOL     OW 9373   6.282   6.829   0.368
 2825SOL    HW1 9374   6.291   6.817   0.269
 2825SOL    HW2 9375   6.371   6.848   0.408
 2826SOL     OW 9376   5.376   2.270   6.334
 2826SOL    HW1 9377   5.358   2.294   6.239
 2826SOL    HW2 9378   5.440   2.194   6.338
 2827SOL     OW 9379   6.791   1.094   5.422
 2827SOL    HW1 9380   6.749   1.125   5.508
 2827SOL    HW2 9381   6.890   1.110   5.426
 2828SOL     OW 9382   3.720   1.232   6.475
 2828SOL    HW1 9383   3.745   1.174   6.553
 2828SOL    HW2 9384   3.643   1.291   6.500
 2829SOL     OW 9385   4.074   4.125   6.359
 2829SOL    HW1 9386   3.981   4.153   6.381
 2829SOL    HW2 9387   4.139   4.186   6.404
 2830SOL     OW 9388   6.912   4.533   6.804
 2830SOL    HW1 9389   6.832   4.480   6.774
 2830SOL    HW2 9390   6.995   4.496   6.762
 2831SOL     OW 9391   6.773   6.059   4.248
 2831SOL    HW1 9392   6.811   5.967   4.259
 2831SOL    HW2 9393   6.815   6.121   4.315
 2832SOL     OW 9394   0.587   1.015   1.411
 2832SOL    HW1 9395   0.638   1.090   1.368
 2832SOL    HW2 9396   0.628   0.928   1.386
 2833SOL     OW 9397   5.333   1.762   2.319
 2833SOL    HW1 9398   5.364   1.799   2.231
 2833SOL    HW2 9399   5.233   1.753   2.318
 2834SOL     OW 9400   2.825   0.765   5.646
 2834SOL    HW1 9401   2.777   0.851   5.633
 2834SOL    HW2 9402   2.771   0.704   5.703
 2835SOL     OW 9403   0.367   0.151   1.654
 2835SOL    HW1 9404   0.445   0.117   1.707
 2835SOL    HW2 9405   0.394   0.231   1.601
 2836SOL     OW 9406   6.889   0.168   1.122
 2836SOL    HW1 9407   6.881   0.266   1.142
 2836SOL    HW2 9408   6.850   0.115   1.197
 2837SOL     OW 9409   5.609   3.025   3.093
 2837SOL    HW1 9410   5.607   2.976   3.180
 2837SOL    HW2 9411   5.696   3.007   3.047
 2838SOL     OW 9412   1.960   3.978   1.785
 2838SOL    HW1 9413   1.906   3.936   1.858
 2838SOL    HW2 9414   1.899   4.021   1.719
 2839SOL     OW 9415   5.841   1.182   2.054
 2839SOL    HW1 9416   5.912   1.202   1.986
 2839SOL    HW2 9417   5.785   1.264   2.069
 2840SOL     OW 9418   0.544   0.830   4.310
 2840SOL    HW1 9419   0.617   0.892   4.339
 2840SOL    HW2 9420   0.468   0.836   4.375
 2841SOL     OW 9421   6.818   1.055   6.153
 2841SOL    HW1 9422   6.793   1.103   6.237
 2841SOL    HW2 9423   6.845   0.961   6.175
 2842SOL     OW 9424   0.275   2.029   4.004
 2842SOL    HW1 9425   0.195   2.020   3.944
 2842SOL    HW2 9426   0.342   2.090   3.962
 2843SOL     OW 9427   3.304   1.798   3.804
 2843SOL    HW1 9428   3.243   1.852   3.745
 2843SOL    HW2 9429   3.256   1.778   3.890
 2844SOL     OW 9430   1.135   4.040   0.375
 2844SOL    HW1 9431   1.111   3.946   0.348
 2844SOL    HW2 9432   1.234   4.051   0.375
 2845SOL     OW 9433   1.144   3.418   0.869
 2845SOL    HW1 9434   1.107   3.492   0.925
 2845SOL    HW2 9435   1.237   3.397   0.899
 2846SOL     OW 9436   5.026   1.825   6.990
 2846SOL    HW1 9437   5.019   1.875   0.049
 2846SOL    HW2 9438   4.946   1.766   6.979
 2847SOL     OW 9439   5.146   3.573   3.583
 2847SOL    HW1 9440   5.109   3.486   3.615
 2847SOL    HW2 9441   5.072   3.630   3.548
 2848SOL     OW 9442   0.277   4.747   6.176
 2848SOL    HW1 9443   0.213   4.670   6.172
 2848SOL    HW2 9444   0.365   4.719   6.138
 2849SOL     OW 9445   3.479   0.392   1.411
 2849SOL    HW1 9446   3.410   0.451   1.371
 2849SOL    HW2 9447   3.436   0.327   1.474
 2850SOL     OW 9448   3.674   0.472   1.605
 2850SOL    HW1 9449   3.625   0.447   1.521
 2850SOL    HW2 9450   3.624   0.544   1.653
 2851SOL     OW 9451   0.745   4.183   5.559
 2851SOL    HW1 9452   0.646   4.180   5.552
 2851SOL    HW2 9453   0.771   4.189   5.656
 2852SOL     OW 9454   5.620   4.473   0.096
 2852SOL    HW1 9455   5.685   4.478   0.171
 2852SOL    HW2 9456   5.636   4.389   0.044
 2853SOL     OW 9457   2.803   2.299   6.696
 2853SOL    HW1 9458   2.819   2.370   6.765
 2853SOL    HW2 9459   2.855   2.217   6.720
 2854SOL     OW 9460   3.003   1.558   4.276
 2854SOL    HW1 9461   2.964   1.494   4.210
 2854SOL    HW2 9462   2.949   1.558   4.360
 2855SOL     OW 9463   2.016   0.722   5.558
 2855SOL    HW1 9464   2.094   0.751   5.613
 2855SOL    HW2 9465   2.026   0.626   5.532
 2856SOL     OW 9466   2.159   3.087   6.041
 2856SOL    HW1 9467   2.187   3.182   6.050
 2856SOL    HW2 9468   2.068   3.075   6.083
 2857SOL     OW 9469   3.097   1.677   1.811
 2857SOL    HW1 9470   3.086   1.736   1.891
 2857SOL    HW2 9471   3.161   1.603   1.833
 2858SOL     OW 9472   6.312   3.567   1.831
 2858SOL    HW1 9473   6.275   3.655   1.862
 2858SOL    HW2 9474   6.292   3.497   1.900
 2859SOL     OW 9475   5.203   2.095   0.860
 2859SOL    HW1 9476   5.195   2.156   0.781
 2859SOL    HW2 9477   5.191   2.000   0.829
 2860SOL     OW 9478   3.863   1.960   1.073
 2860SOL    HW1 9479   3.838   1.968   1.170
 2860SOL    HW2 9480   3.898   1.868   1.056
 2861SOL     OW 9481   4.710   5.512   5.584
 2861SOL    HW1 9482   4.670   5.544   5.498
 2861SOL    HW2 9483   4.794   5.462   5.566
 2862SOL     OW 9484   5.534   1.500   2.934
 2862SOL    HW1 9485   5.529   1.565   2.859
 2862SOL    HW2 9486   5.591   1.538   3.008
 2863SOL     OW 9487   5.914   1.229   6.891
 2863SOL    HW1 9488   5.992   1.261   6.838
 2863SOL    HW2 9489   5.903   1.130   6.879
 2864SOL     OW 9490   4.032   0.388   1.295
 2864SOL    HW1 9491   3.934   0.371   1.288
 2864SOL    HW2 9492   4.048   0.477   1.339
 2865SOL     OW 9493   5.063   4.719   5.462
 2865SOL    HW1 9494   4.987   4.682   5.515
 2865SOL    HW2 9495   5.097   4.649   5.399
 2866SOL     OW 9496   6.351   6.546   0.201
 2866SOL    HW1 9497   6.444   6.534   0.165
 2866SOL    HW2 9498   6.354   6.549   0.301
 2867SOL     OW 9499   5.822   3.717   1.941
 2867SOL    HW1 9500   5.884   3.766   1.880
 2867SOL    HW2 9501   5.874   3.674   2.014
 2868SOL     OW 9502   0.272   3.280   5.314
 2868SOL    HW1 9503   0.335   3.356   5.298
 2868SOL    HW2 9504   0.290   3.207   5.249
 2869SOL     OW 9505   6.252   1.410   3.002
 2869SOL    HW1 9506   6.173   1.462   2.969
 2869SOL    HW2 9507   6.325   1.473   3.028
 2870SOL     OW 9508   0.025   1.482   4.598
 2870SOL    HW1 9509   0.015   1.419   4.521
 2870SOL    HW2 9510   7.018   1.572   4.572
 2871SOL     OW 9511   1.930   1.578   6.478
 2871SOL    HW1 9512   1.948   1.676   6.483
 2871SOL    HW2 9513   2.006   1.532   6.432
 2872SOL     OW 9514   2.591   1.741   3.951
 2872SOL    HW1 9515   2.551   1.806   3.886
 2872SOL    HW2 9516   2.690   1.747   3.948
 2873SOL     OW 9517   1.308   5.037   3.749
 2873SOL    HW1 9518   1.350   5.097   3.682
 2873SOL    HW2 9519   1.378   5.005   3.814
 2874SOL     OW 9520   4.838   5.512   2.280
 2874SOL    HW1 9521   4.930   5.511   2.319
 2874SOL    HW2 9522   4.842   5.542   2.185
 2875SOL     OW 9523   4.487   6.357   6.607
 2875SOL    HW1 9524   4.518   6.312   6.523
 2875SOL    HW2 9525   4.510   6.299   6.686
 2876SOL     OW 9526   0.638   0.165   1.678
 2876SOL    HW1 9527   0.602   0.243   1.627
 2876SOL    HW2 9528   0.734   0.150   1.652
 2877SOL     OW 9529   3.543   3.022   5.142
 2877SOL    HW1 9530   3.464   2.960   5.138
 2877SOL    HW2 9531   3.596   3.002   5.224
 2878SOL     OW 9532   3.848   4.881   4.507
 2878SOL    HW1 9533   3.875   4.923   4.593
 2878SOL    HW2 9534   3.750   4.898   4.491
 2879SOL     OW 9535   4.970   5.307   0.172
 2879SOL    HW1 9536   4.970   5.228   0.233
 2879SOL    HW2 9537   4.877   5.326   0.141
 2880SOL     OW 9538   6.116   6.495   0.615
 2880SOL    HW1 9539   6.115   6.593   0.594
 2880SOL    HW2 9540   6.038   6.473   0.673
 2881SOL     OW 9541   5.593   6.077   0.624
 2881SOL    HW1 9542   5.634   6.157   0.668
 2881SOL    HW2 9543   5.497   6.069   0.653
 2882SOL     OW 9544   0.766   3.434   2.658
 2882SOL    HW1 9545   0.762   3.359   2.723
 2882SOL    HW2 9546   0.683   3.489   2.665
 2883SOL     OW 9547   4.751   6.697   4.034
 2883SOL    HW1 9548   4.752   6.728   3.939
 2883SOL    HW2 9549   4.667   6.728   4.078
 2884SOL     OW 9550   0.581   5.750   3.193
 2884SOL    HW1 9551   0.679   5.761   3.174
 2884SOL    HW2 9552   0.568   5.677   3.259
 2885SOL     OW 9553   6.878   2.508   2.904
 2885SOL    HW1 9554   6.888   2.605   2.927
 2885SOL    HW2 9555   6.968   2.468   2.887
 2886SOL     OW 9556   2.235   3.350   6.839
 2886SOL    HW1 9557   2.257   3.390   6.750
 2886SOL    HW2 9558   2.140   3.371   6.863
 2887SOL     OW 9559   2.242   7.005   5.156
 2887SOL    HW1 9560   2.144   6.990   5.148
 2887SOL    HW2 9561   2.283   7.008   5.065
 2888SOL     OW 9562   0.194   5.026   6.663
 2888SOL    HW1 9563   0.095   5.031   6.652
 2888SOL    HW2 9564   0.216   4.953   6.728
 2889SOL     OW 9565   1.738   0.677   2.299
 2889SOL    HW1 9566   1.641   0.690   2.320
 2889SOL    HW2 9567   1.749   0.669   2.200
 2890SOL     OW 9568   2.783   0.673   1.353
 2890SOL    HW1 9569   2.719   0.738   1.395
 2890SOL    HW2 9570   2.755   0.653   1.260
 2891SOL     OW 9571   2.188   4.518   3.275
 2891SOL    HW1 9572   2.142   4.540   3.189
 2891SOL    HW2 9573   2.224   4.602   3.316
 2892SOL     OW 9574   5.030   4.067   0.256
 2892SOL    HW1 9575   4.978   4.148   0.284
 2892SOL    HW2 9576   5.067   4.022   0.337
 2893SOL     OW 9577   1.524   6.758   5.102
 2893SOL    HW1 9578   1.478   6.814   5.033
 2893SOL    HW2 9579   1.480   6.771   5.191
 2894SOL     OW 9580   3.100   2.388   6.792
 2894SOL    HW1 9581   3.030   2.356   6.857
 2894SOL    HW2 9582   3.131   2.311   6.736
 2895SOL     OW 9583   4.022   3.156   6.416
 2895SOL    HW1 9584   4.049   3.121   6.325
 2895SOL    HW2 9585   3.930   3.125   6.437
 2896SOL     OW 9586   2.527   5.201   6.340
 2896SOL    HW1 9587   2.442   5.161   6.375
 2896SOL    HW2 9588   2.599   5.191   6.408
 2897SOL     OW 9589   2.385   6.077   4.060
 2897SOL    HW1 9590   2.300   6.032   4.088
 2897SOL    HW2 9591   2.461   6.014   4.074
 2898SOL     OW 9592   4.600   5.005   2.868
 2898SOL    HW1 9593   4.553   4.977   2.785
 2898SOL    HW2 9594   4.538   5.058   2.925
 2899SOL     OW 9595   0.139   1.813   6.603
 2899SOL    HW1 9596   0.039   1.803   6.608
 2899SOL    HW2 9597   0.163   1.854   6.515
 2900SOL     OW 9598   1.534   4.963   5.360
 2900SOL    HW1 9599   1.444   4.988   5.396
 2900SOL    HW2 9600   1.587   5.047   5.344
 2901SOL     OW 9601   1.646   6.737   2.722
 2901SOL    HW1 9602   1.690   6.820   2.754
 2901SOL    HW2 9603   1.554   6.758   2.691
 2902SOL     OW 9604   5.449   6.421   0.639
 2902SOL    HW1 9605   5.414   6.328   0.649
 2902SOL    HW2 9606   5.475   6.457   0.729
 2903SOL     OW 9607   3.132   6.906   2.151
 2903SOL    HW1 9608   3.229   6.924   2.140
 2903SOL    HW2 9609   3.118   6.819   2.198
 2904SOL     OW 9610   2.470   3.277   5.365
 2904SOL    HW1 9611   2.486   3.203   5.299
 2904SOL    HW2 9612   2.399   3.249   5.430
 2905SOL     OW 9613   1.322   1.806   2.834
 2905SOL    HW1 9614   1.377   1.889   2.829
 2905SOL    HW2 9615   1.238   1.825   2.884
 2906SOL     OW 9616   5.366   5.119   2.409
 2906SOL    HW1 9617   5.344   5.061   2.488
 2906SOL    HW2 9618   5.459   5.154   2.418
 2907SOL     OW 9619   6.373   0.930   4.780
 2907SOL    HW1 9620   6.374   0.854   4.845
 2907SOL    HW2 9621   6.429   1.005   4.815
 2908SOL     OW 9622   4.249   6.597   4.062
 2908SOL    HW1 9623   4.280   6.554   4.147
 2908SOL    HW2 9624   4.168   6.549   4.028
 2909SOL     OW 9625   0.367   5.424   4.336
 2909SOL    HW1 9626   0.431   5.454   4.407
 2909SOL    HW2 9627   0.377   5.325   4.322
 2910SOL     OW 9628   3.960   6.548   4.490
 2910SOL    HW1 9629   3.908   6.608   4.551
 2910SOL    HW2 9630   3.950   6.580   4.396
 2911SOL     OW 9631   2.355   5.328   3.845
 2911SOL    HW1 9632   2.325   5.235   3.830
 2911SOL    HW2 9633   2.437   5.328   3.902
 2912SOL     OW 9634   3.420   6.267   6.952
 2912SOL    HW1 9635   3.393   6.231   0.013
 2912SOL    HW2 9636   3.340   6.270   6.892
 2913SOL     OW 9637   1.932   4.979   2.811
 2913SOL    HW1 9638   2.022   5.015   2.834
 2913SOL    HW2 9639   1.861   5.029   2.861
 2914SOL     OW 9640   5.677   5.281   6.461
 2914SOL    HW1 9641   5.621   5.316   6.536
 2914SOL    HW2 9642   5.738   5.353   6.428
 2915SOL     OW 9643   4.706   2.000   4.215
 2915SOL    HW1 9644   4.621   2.047   4.190
 2915SOL    HW2 9645   4.692   1.951   4.301
 2916SOL     OW 9646   6.461   4.878   5.985
 2916SOL    HW1 9647   6.370   4.879   6.026
 2916SOL    HW2 9648   6.459   4.927   5.898
 2917SOL     OW 9649   4.085   0.475   1.762
 2917SOL    HW1 9650   4.143   0.506   1.687
 2917SOL    HW2 9651   3.995   0.450   1.726
 2918SOL     OW 9652   0.224   2.908   3.288
 2918SOL    HW1 9653   0.135   2.943   3.318
 2918SOL    HW2 9654   0.237   2.815   3.323
 2919SOL     OW 9655   6.406   0.484   0.320
 2919SOL    HW1 9656   6.422   0.401   0.266
 2919SOL    HW2 9657   6.470   0.555   0.291
 2920SOL     OW 9658   3.500   2.086   2.527
 2920SOL    HW1 9659   3.487   2.096   2.626
 2920SOL    HW2 9660   3.570   2.151   2.496
 2921SOL     OW 9661   0.139   0.593   2.688
 2921SOL    HW1 9662   0.094   0.671   2.731
 2921SOL    HW2 9663   0.173   0.619   2.598
 2922SOL     OW 9664   5.678   6.657   0.255
 2922SOL    HW1 9665   5.669   6.592   0.331
 2922SOL    HW2 9666   5.764   6.708   0.264
 2923SOL     OW 9667   7.009   5.326   2.038
 2923SOL    HW1 9668   7.013   5.267   2.118
 2923SOL    HW2 9669   6.980   5.273   1.958
 2924SOL     OW 9670   0.108   1.920   6.308
 2924SOL    HW1 9671   0.206   1.917   6.288
 2924SOL    HW2 9672   0.062   1.851   6.253
 2925SOL     OW 9673   5.492   0.737   2.972
 2925SOL    HW1 9674   5.478   0.827   3.013
 2925SOL    HW2 9675   5.422   0.720   2.903
 2926SOL     OW 9676   7.014   1.480   5.049
 2926SOL    HW1 9677   6.940   1.506   4.986
 2926SOL    HW2 9678   0.025   1.562   5.090
 2927SOL     OW 9679   1.757   1.690   2.313
 2927SOL    HW1 9680   1.832   1.623   2.311
 2927SOL    HW2 9681   1.677   1.648   2.356
 2928SOL     OW 9682   6.248   2.434   6.449
 2928SOL    HW1 9683   6.186   2.489   6.393
 2928SOL    HW2 9684   6.342   2.451   6.420
 2929SOL     OW 9685   1.048   1.217   5.595
 2929SOL    HW1 9686   1.017   1.273   5.519
 2929SOL    HW2 9687   1.040   1.268   5.680
 2930SOL     OW 9688   4.837   6.635   4.909
 2930SOL    HW1 9689   4.793   6.561   4.961
 2930SOL    HW2 9690   4.779   6.716   4.911
 2931SOL     OW 9691   4.974   6.049   6.389
 2931SOL    HW1 9692   4.999   6.120   6.323
 2931SOL    HW2 9693   5.011   6.074   6.479
 2932SOL     OW 9694   1.498   4.843   2.149
 2932SOL    HW1 9695   1.541   4.797   2.227
 2932SOL    HW2 9696   1.565   4.900   2.103
 2933SOL     OW 9697   5.183   2.635   3.945
 2933SOL    HW1 9698   5.214   2.639   3.850
 2933SOL    HW2 9699   5.146   2.544   3.964
 2934SOL     OW 9700   3.561   0.960   0.655
 2934SOL    HW1 9701   3.648   0.964   0.704
 2934SOL    HW2 9702   3.555   0.873   0.606
 2935SOL     OW 9703   6.560   2.954   1.540
 2935SOL    HW1 9704   6.587   2.926   1.632
 2935SOL    HW2 9705   6.520   3.046   1.544
 2936SOL     OW 9706   4.937   5.709   1.492
 2936SOL    HW1 9707   4.941   5.727   1.394
 2936SOL    HW2 9708   4.857   5.652   1.512
 2937SOL     OW 9709   3.372   5.035   0.688
 2937SOL    HW1 9710   3.331   4.944   0.685
 2937SOL    HW2 9711   3.445   5.041   0.621
 2938SOL     OW 9712   4.561   4.849   5.582
 2938SOL    HW1 9713   4.602   4.867   5.672
 2938SOL    HW2 9714   4.612   4.776   5.537
 2939SOL     OW 9715   0.487   6.486   4.108
 2939SOL    HW1 9716   0.527   6.403   4.068
 2939SOL    HW2 9717   0.543   6.515   4.186
 2940SOL     OW 9718   5.983   0.260   4.984
 2940SOL    HW1 9719   6.082   0.263   4.993
 2940SOL    HW2 9720   5.948   0.353   4.968
 2941SOL     OW 9721   1.947   2.246   5.474
 2941SOL    HW1 9722   2.037   2.261   5.434
 2941SOL    HW2 9723   1.938   2.149   5.500
 2942SOL     OW 9724   2.562   0.903   2.056
 2942SOL    HW1 9725   2.603   0.847   2.128
 2942SOL    HW2 9726   2.597   0.875   1.967
 2943SOL     OW 9727   5.189   3.229   3.304
 2943SOL    HW1 9728   5.130   3.303   3.271
 2943SOL    HW2 9729   5.133   3.157   3.344
 2944SOL     OW 9730   3.197   5.586   5.632
 2944SOL    HW1 9731   3.141   5.511   5.599
 2944SOL    HW2 9732   3.278   5.596   5.575
 2945SOL     OW 9733   4.106   3.362   3.510
 2945SOL    HW1 9734   4.156   3.445   3.485
 2945SOL    HW2 9735   4.104   3.300   3.431
 2946SOL     OW 9736   6.967   5.516   5.764
 2946SOL    HW1 9737   6.871   5.533   5.785
 2946SOL    HW2 9738   7.004   5.449   5.828
 2947SOL     OW 9739   0.924   4.079   0.585
 2947SOL    HW1 9740   0.851   4.028   0.540
 2947SOL    HW2 9741   1.008   4.073   0.531
 2948SOL     OW 9742   6.369   3.792   5.305
 2948SOL    HW1 9743   6.272   3.785   5.326
 2948SOL    HW2 9744   6.419   3.721   5.355
 2949SOL     OW 9745   1.893   5.959   1.142
 2949SOL    HW1 9746   1.870   5.977   1.046
 2949SOL    HW2 9747   1.873   5.864   1.164
 2950SOL     OW 9748   5.473   3.409   4.496
 2950SOL    HW1 9749   5.566   3.388   4.526
 2950SOL    HW2 9750   5.476   3.459   4.410
 2951SOL     OW 9751   6.917   2.648   6.976
 2951SOL    HW1 9752   6.989   2.618   0.011
 2951SOL    HW2 9753   6.875   2.568   6.934
 2952SOL     OW 9754   1.905   4.863   4.407
 2952SOL    HW1 9755   1.859   4.812   4.334
 2952SOL    HW2 9756   1.848   4.940   4.434
 2953SOL     OW 9757   5.215   2.663   2.358
 2953SOL    HW1 9758   5.137   2.602   2.369
 2953SOL    HW2 9759   5.186   2.749   2.317
 2954SOL     OW 9760   1.228   5.622   1.741
 2954SOL    HW1 9761   1.260   5.579   1.656
 2954SOL    HW2 9762   1.306   5.652   1.795
 2955SOL     OW 9763   0.747   3.061   0.356
 2955SOL    HW1 9764   0.697   3.133   0.405
 2955SOL    HW2 9765   0.819   3.102   0.300
 2956SOL     OW 9766   6.914   5.905   2.721
 2956SOL    HW1 9767   6.925   5.889   2.819
 2956SOL    HW2 9768   6.869   5.993   2.706
 2957SOL     OW 9769   6.535   3.425   0.916
 2957SOL    HW1 9770   6.563   3.446   0.823
 2957SOL    HW2 9771   6.616   3.415   0.974
 2958SOL     OW 9772   2.552   4.630   4.728
 2958SOL    HW1 9773   2.513   4.617   4.637
 2958SOL    HW2 9774   2.637   4.579   4.736
 2959SOL     OW 9775   5.218   4.413   6.834
 2959SOL    HW1 9776   5.311   4.446   6.845
 2959SOL    HW2 9777   5.169   4.471   6.769
 2960SOL     OW 9778   2.739   1.186   6.776
 2960SOL    HW1 9779   2.793   1.189   6.691
 2960SOL    HW2 9780   2.787   1.235   6.848
 2961SOL     OW 9781   5.066   2.364   4.670
 2961SOL    HW1 9782   4.993   2.308   4.709
 2961SOL    HW2 9783   5.048   2.460   4.691
 2962SOL     OW 9784   4.739   0.743   3.954
 2962SOL    HW1 9785   4.760   0.694   4.039
 2962SOL    HW2 9786   4.731   0.841   3.973
 2963SOL     OW 9787   1.812   1.699   5.556
 2963SOL    HW1 9788   1.736   1.759   5.578
 2963SOL    HW2 9789   1.896   1.737   5.595
 2964SOL     OW 9790   1.294   0.366   1.789
 2964SOL    HW1 9791   1.340   0.291   1.742
 2964SOL    HW2 9792   1.332   0.453   1.759
 2965SOL     OW 9793   0.259   1.298   5.113
 2965SOL    HW1 9794   0.164   1.277   5.138
 2965SOL    HW2 9795   0.266   1.394   5.088
 2966SOL     OW 9796   5.934   4.703   3.949
 2966SOL    HW1 9797   5.987   4.619   3.964
 2966SOL    HW2 9798   5.994   4.775   3.915
 2967SOL     OW 9799   6.122   2.957   3.645
 2967SOL    HW1 9800   6.046   2.985   3.587
 2967SOL    HW2 9801   6.096   2.875   3.696
 2968SOL     OW 9802   0.915   4.168   5.848
 2968SOL    HW1 9803   1.003   4.168   5.800
 2968SOL    HW2 9804   0.919   4.104   5.924
 2969SOL     OW 9805   5.376   1.248   5.070
 2969SOL    HW1 9806   5.387   1.329   5.129
 2969SOL    HW2 9807   5.370   1.278   4.975
 2970SOL     OW 9808   1.218   4.118   0.119
 2970SOL    HW1 9809   1.270   4.071   0.048
 2970SOL    HW2 9810   1.268   4.112   0.206
 2971SOL     OW 9811   5.625   2.924   4.660
 2971SOL    HW1 9812   5.548   2.864   4.638
 2971SOL    HW2 9813   5.696   2.913   4.590
 2972SOL     OW 9814   6.531   4.599   6.867
 2972SOL    HW1 9815   6.525   4.599   6.767
 2972SOL    HW2 9816   6.498   4.512   6.903
 2973SOL     OW 9817   5.779   0.735   4.498
 2973SOL    HW1 9818   5.866   0.772   4.466
 2973SOL    HW2 9819   5.720   0.810   4.528
 2974SOL     OW 9820   6.739   3.739   3.369
 2974SOL    HW1 9821   6.641   3.747   3.383
 2974SOL    HW2 9822   6.787   3.768   3.452
 2975SOL     OW 9823   0.534   2.083   5.021
 2975SOL    HW1 9824   0.482   2.100   5.105
 2975SOL    HW2 9825   0.605   2.152   5.012
 2976SOL     OW 9826   3.994   1.597   2.677
 2976SOL    HW1 9827   3.962   1.573   2.768
 2976SOL    HW2 9828   3.928   1.566   2.609
 2977SOL     OW 9829   2.065   0.408   4.536
 2977SOL    HW1 9830   2.020   0.343   4.475
 2977SOL    HW2 9831   2.156   0.374   4.560
 2978SOL     OW 9832   4.414   4.723   6.945
 2978SOL    HW1 9833   4.496   4.701   6.892
 2978SOL    HW2 9834   4.416   4.819   6.970
 2979SOL     OW 9835   4.196   6.899   4.077
 2979SOL    HW1 9836   4.246   6.876   4.160
 2979SOL    HW2 9837   4.227   6.840   4.002
 2980SOL     OW 9838   1.656   6.224   3.985
 2980SOL    HW1 9839   1.752   6.212   4.011
 2980SOL    HW2 9840   1.629   6.151   3.923
 2981SOL     OW 9841   0.865   0.161   6.377
 2981SOL    HW1 9842   0.897   0.251   6.406
 2981SOL    HW2 9843   0.768   0.167   6.350
 2982SOL     OW 9844   4.765   6.228   3.280
 2982SOL    HW1 9845   4.672   6.190   3.273
 2982SOL    HW2 9846   4.760   6.326   3.299
 2983SOL     OW 9847   1.028   0.721   4.008
 2983SOL    HW1 9848   0.954   0.656   3.991
 2983SOL    HW2 9849   1.114   0.683   3.972
 2984SOL     OW 9850   4.670   5.830   1.330
 2984SOL    HW1 9851   4.605   5.827   1.406
 2984SOL    HW2 9852   4.722   5.915   1.333
 2985SOL     OW 9853   0.884   2.150   4.384
 2985SOL    HW1 9854   0.789   2.121   4.369
 2985SOL    HW2 9855   0.888   2.205   4.468
 2986SOL     OW 9856   2.217   4.078   6.554
 2986SOL    HW1 9857   2.204   4.062   6.651
 2986SOL    HW2 9858   2.174   4.004   6.502
 2987SOL     OW 9859   4.859   1.203   3.849
 2987SOL    HW1 9860   4.902   1.176   3.762
 2987SOL    HW2 9861   4.925   1.256   3.903
 2988SOL     OW 9862   0.134   6.711   2.240
 2988SOL    HW1 9863   0.076   6.768   2.298
 2988SOL    HW2 9864   0.224   6.702   2.282
 2989SOL     OW 9865   5.784   5.897   1.078
 2989SOL    HW1 9866   5.806   5.841   0.998
 2989SOL    HW2 9867   5.752   5.837   1.152
 2990SOL     OW 9868   4.286   1.067   3.407
 2990SOL    HW1 9869   4.358   1.135   3.394
 2990SOL    HW2 9870   4.201   1.101   3.369
 2991SOL     OW 9871   0.030   3.654   0.149
 2991SOL    HW1 9872   0.015   3.724   0.220
 2991SOL    HW2 9873   0.050   3.566   0.193
 2992SOL     OW 9874   2.343   5.589   5.461
 2992SOL    HW1 9875   2.272   5.520   5.473
 2992SOL    HW2 9876   2.360   5.634   5.548
 2993SOL     OW 9877   1.027   4.653   2.072
 2993SOL    HW1 9878   0.971   4.711   2.013
 2993SOL    HW2 9879   1.107   4.703   2.103
 2994SOL     OW 9880   4.170   1.176   0.252
 2994SOL    HW1 9881   4.252   1.200   0.303
 2994SOL    HW2 9882   4.160   1.237   0.174
 2995SOL     OW 9883   1.096   3.154   6.731
 2995SOL    HW1 9884   0.999   3.150   6.754
 2995SOL    HW2 9885   1.149   3.173   6.814
 2996SOL     OW 9886   3.159   6.253   4.386
 2996SOL    HW1 9887   3.088   6.212   4.443
 2996SOL    HW2 9888   3.245   6.255   4.436
 2997SOL     OW 9889   5.255   6.026   1.840
 2997SOL    HW1 9890   5.325   5.963   1.807
 2997SOL    HW2 9891   5.166   5.979   1.841
 2998SOL     OW 9892   4.991   6.106   5.125
 2998SOL    HW1 9893   4.963   6.167   5.050
 2998SOL    HW2 9894   4.945   6.018   5.115
 2999SOL     OW 9895   3.880   6.250   4.013
 2999SOL    HW1 9896   3.800   6.194   4.035
 2999SOL    HW2 9897   3.924   6.281   4.098
 3000SOL     OW 9898   1.716   4.115   6.255
 3000SOL    HW1 9899   1.780   4.125   6.331
 3000SOL    HW2 9900   1.622   4.122   6.289
 3001SOL     OW 9901   5.424   0.141   6.796
 3001SOL    HW1 9902   5.342   0.193   6.771
 3001SOL    HW2 9903   5.438   0.067   6.730
 3002SOL     OW 9904   4.122   0.363   5.502
 3002SOL    HW1 9905   4.062   0.294   5.462
 3002SOL    HW2 9906   4.081   0.400   5.585
 3003SOL     OW 9907   2.814   6.195   6.627
 3003SOL    HW1 9908   2.862   6.154   6.550
 3003SOL    HW2 9909   2.843   6.150   6.712
 3004SOL     OW 9910   6.726   4.650   4.096
 3004SOL    HW1 9911   6.640   4.602   4.086
 3004SOL    HW2 9912   6.780   4.642   4.012
 3005SOL     OW 9913   3.663   3.276   1.205
 3005SOL    HW1 9914   3.669   3.356   1.264
 3005SOL    HW2 9915   3.624   3.199   1.256
 3006SOL     OW 9916   6.251   2.182   0.711
 3006SOL    HW1 9917   6.186   2.186   0.787
 3006SOL    HW2 9918   6.206   2.141   0.631
 3007SOL     OW 9919   6.081   5.507   2.422
 3007SOL    HW1 9920   6.021   5.580   2.455
 3007SOL    HW2 9921   6.034   5.419   2.431
 3008SOL     OW 9922   4.017   0.316   6.246
 3008SOL    HW1 9923   3.939   0.290   6.189
 3008SOL    HW2 9924   4.101   0.276   6.209
 3009SOL     OW 9925   0.516   6.480   2.562
 3009SOL    HW1 9926   0.561   6.449   2.645
 3009SOL    HW2 9927   0.552   6.428   2.484
 3010SOL     OW 9928   3.781   5.650   3.439
 3010SOL    HW1 9929   3.684   5.629   3.450
 3010SOL    HW2 9930   3.801   5.740   3.478
 3011SOL     OW 9931   5.616   0.971   6.302
 3011SOL    HW1 9932   5.534   1.028   6.299
 3011SOL    HW2 9933   5.655   0.964   6.210
 3012SOL     OW 9934   0.509   3.809   4.465
 3012SOL    HW1 9935   0.427   3.802   4.521
 3012SOL    HW2 9936   0.530   3.719   4.426
 3013SOL     OW 9937   5.091   5.952   3.717
 3013SOL    HW1 9938   5.134   5.996   3.796
 3013SOL    HW2 9939   5.048   5.866   3.747
 3014SOL     OW 9940   5.037   2.416   4.021
 3014SOL    HW1 9941   5.099   2.391   4.096
 3014SOL    HW2 9942   4.972   2.341   4.007
 3015SOL     OW 9943   3.640   2.632   0.691
 3015SOL    HW1 9944   3.654   2.558   0.625
 3015SOL    HW2 9945   3.719   2.694   0.688
 3016SOL     OW 9946   3.243   5.852   4.408
 3016SOL    HW1 9947   3.164   5.829   4.466
 3016SOL    HW2 9948   3.211   5.874   4.316
 3017SOL     OW 9949   1.354   5.599   0.929
 3017SOL    HW1 9950   1.301   5.619   0.846
 3017SOL    HW2 9951   1.445   5.566   0.904
 3018SOL     OW 9952   3.477   0.143   6.420
 3018SOL    HW1 9953   3.379   0.136   6.400
 3018SOL    HW2 9954   3.529   0.142   6.335
 3019SOL     OW 9955   2.732   6.538   0.999
 3019SOL    HW1 9956   2.719   6.635   1.018
 3019SOL    HW2 9957   2.825   6.523   0.965
 3020SOL     OW 9958   3.719   3.851   1.436
 3020SOL    HW1 9959   3.685   3.792   1.510
 3020SOL    HW2 9960   3.716   3.946   1.466
 3021SOL     OW 9961   2.407   1.789   0.384
 3021SOL    HW1 9962   2.452   1.709   0.425
 3021SOL    HW2 9963   2.477   1.853   0.352
 3022SOL     OW 9964   4.208   6.135   2.737
 3022SOL    HW1 9965   4.269   6.201   2.782
 3022SOL    HW2 9966   4.124   6.182   2.709
 3023SOL     OW 9967   3.380   6.048   3.193
 3023SOL    HW1 9968   3.338   6.111   3.128
 3023SOL    HW2 9969   3.433   5.980   3.143
 3024SOL     OW 9970   3.159   0.781   6.679
 3024SOL    HW1 9971   3.165   0.701   6.737
 3024SOL    HW2 9972   3.120   0.755   6.590
 3025SOL     OW 9973   3.367   2.618   0.698
 3025SOL    HW1 9974   3.465   2.612   0.684
 3025SOL    HW2 9975   3.334   2.533   0.739
 3026SOL     OW 9976   1.401   3.243   1.292
 3026SOL    HW1 9977   1.440   3.155   1.316
 3026SOL    HW2 9978   1.320   3.229   1.235
 3027SOL     OW 9979   3.902   1.173   2.016
 3027SOL    HW1 9980   3.815   1.174   2.064
 3027SOL    HW2 9981   3.936   1.266   2.005
 3028SOL     OW 9982   1.201   4.316   6.357
 3028SOL    HW1 9983   1.184   4.318   6.258
 3028SOL    HW2 9984   1.295   4.342   6.376
 3029SOL     OW 9985   6.949   5.223   5.043
 3029SOL    HW1 9986   6.940   5.124   5.032
 3029SOL    HW2 9987   6.913   5.269   4.962
 3030SOL     OW 9988   0.448   1.821   5.705
 3030SOL    HW1 9989   0.370   1.878   5.729
 3030SOL    HW2 9990   0.510   1.873   5.646
 3031SOL     OW 9991   0.683   3.720   0.766
 3031SOL    HW1 9992   0.638   3.632   0.748
 3031SOL    HW2 9993   0.691   3.733   0.865
 3032SOL     OW 9994   5.179   0.836   0.355
 3032SOL    HW1 9995   5.197   0.844   0.453
 3032SOL    HW2 9996   5.157   0.926   0.318
 3033SOL     OW 9997   0.909   2.568   0.397
 3033SOL    HW1 9998   0.853   2.485   0.404
 3033SOL    HW2 9999   1.006   2.543   0.392
 3034SOL     OW10000   2.297   5.735   3.899
 3034SOL    HW110001   2.386   5.727   3.945
 3034SOL    HW210002   2.298   5.815   3.840
 3035SOL     OW10003   6.967   2.514   0.486
 3035SOL    HW110004   6.958   2.572   0.567
 3035SOL    HW210005   6.893   2.447   0.484
 3036SOL     OW10006   1.741   3.485   7.000
 3036SOL    HW110007   1.766   3.401   0.020
 3036SOL    HW210008   1.644   3.505   7.018
 3037SOL     OW10009   6.230   5.829   4.730
 3037SOL    HW110010   6.204   5.758   4.665
 3037SOL    HW210011   6.191   5.917   4.702
 3038SOL     OW10012   6.088   6.711   6.673
 3038SOL    HW110013   6.019   6.672   6.612
 3038SOL    HW210014   6.160   6.754   6.618
 3039SOL     OW10015   6.835   3.925   2.290
 3039SOL    HW110016   6.918   3.979   2.277
 3039SOL    HW210017   6.853   3.849   2.352
 3040SOL     OW10018   4.903   4.336   6.110
 3040SOL    HW110019   4.967   4.403   6.073
 3040SOL    HW210020   4.904   4.340   6.210
 3041SOL     OW10021   1.727   2.389   5.447
 3041SOL    HW110022   1.747   2.472   5.395
 3041SOL    HW210023   1.813   2.341   5.467
 3042SOL     OW10024   4.938   6.238   1.578
 3042SOL    HW110025   4.972   6.329   1.602
 3042SOL    HW210026   5.006   6.189   1.524
 3043SOL     OW10027   0.159   5.637   0.868
 3043SOL    HW110028   0.150   5.562   0.802
 3043SOL    HW210029   0.255   5.663   0.876
 3044SOL     OW10030   3.129   4.682   6.055
 3044SOL    HW110031   3.085   4.756   6.106
 3044SOL    HW210032   3.072   4.658   5.976
 3045SOL     OW10033   4.582   0.238   2.277
 3045SOL    HW110034   4.557   0.142   2.270
 3045SOL    HW210035   4.600   0.276   2.186
 3046SOL     OW10036   1.605   2.816   5.338
 3046SOL    HW110037   1.530   2.753   5.317
 3046SOL    HW210038   1.579   2.909   5.311
 3047SOL     OW10039   5.035   5.829   1.944
 3047SOL    HW110040   5.050   5.809   1.847
 3047SOL    HW210041   5.103   5.781   1.999
 3048SOL     OW10042   3.529   3.193   1.601
 3048SOL    HW110043   3.486   3.205   1.691
 3048SOL    HW210044   3.467   3.224   1.530
 3049SOL     OW10045   1.125   6.011   1.525
 3049SOL    HW110046   1.085   5.965   1.605
 3049SOL    HW210047   1.146   5.943   1.455
 3050SOL     OW10048   3.484   0.361   3.378
 3050SOL    HW110049   3.523   0.409   3.456
 3050SOL    HW210050   3.509   0.409   3.293
 3051SOL     OW10051   2.801   3.492   0.169
 3051SOL    HW110052   2.724   3.429   0.160
 3051SOL    HW210053   2.794   3.541   0.256
 3052SOL     OW10054   4.166   0.862   2.719
 3052SOL    HW110055   4.260   0.893   2.701
 3052SOL    HW210056   4.121   0.928   2.779
 3053SOL     OW10057   6.420   0.694   6.953
 3053SOL    HW110058   6.461   0.606   6.930
 3053SOL    HW210059   6.491   0.758   6.982
 3054SOL     OW10060   0.654   2.430   0.020
 3054SOL    HW110061   0.586   2.412   0.090
 3054SOL    HW210062   0.713   2.506   0.049
 3055SOL     OW10063   5.263   0.394   3.562
 3055SOL    HW110064   5.295   0.438   3.646
 3055SOL    HW210065   5.168   0.366   3.574
 3056SOL     OW10066   0.038   0.446   6.703
 3056SOL    HW110067   0.090   0.433   6.788
 3056SOL    HW210068   0.084   0.399   6.628
 3057SOL     OW10069   4.159   5.672   2.859
 3057SOL    HW110070   4.257   5.691   2.866
 3057SOL    HW210071   4.142   5.614   2.779
 3058SOL     OW10072   6.472   5.408   1.265
 3058SOL    HW110073   6.512   5.385   1.353
 3058SOL    HW210074   6.537   5.462   1.211
 3059SOL     OW10075   1.749   2.751   4.995
 3059SOL    HW110076   1.781   2.814   5.066
 3059SOL    HW210077   1.764   2.657   5.025
 3060SOL     OW10078   0.277   6.053   0.179
 3060SOL    HW110079   0.309   6.049   0.084
 3060SOL    HW210080   0.200   6.116   0.185
 3061SOL     OW10081   6.728   0.953   5.040
 3061SOL    HW110082   6.677   0.929   4.958
 3061SOL    HW210083   6.803   1.015   5.015
 3062SOL     OW10084   1.545   6.554   0.702
 3062SOL    HW110085   1.590   6.465   0.713
 3062SOL    HW210086   1.604   6.615   0.650
 3063SOL     OW10087   2.275   5.087   2.277
 3063SOL    HW110088   2.250   5.030   2.199
 3063SOL    HW210089   2.356   5.141   2.254
 3064SOL     OW10090   6.169   3.678   3.792
 3064SOL    HW110091   6.229   3.698   3.870
 3064SOL    HW210092   6.190   3.587   3.756
 3065SOL     OW10093   2.110   0.432   6.575
 3065SOL    HW110094   2.177   0.490   6.529
 3065SOL    HW210095   2.018   0.456   6.545
 3066SOL     OW10096   5.538   4.330   0.577
 3066SOL    HW110097   5.508   4.315   0.671
 3066SOL    HW210098   5.604   4.405   0.573
 3067SOL     OW10099   3.385   1.236   4.256
 3067SOL    HW110100   3.289   1.209   4.250
 3067SOL    HW210101   3.403   1.309   4.190
 3068SOL     OW10102   5.359   5.955   0.403
 3068SOL    HW110103   5.375   5.916   0.493
 3068SOL    HW210104   5.406   6.043   0.396
 3069SOL     OW10105   6.706   5.554   1.553
 3069SOL    HW110106   6.796   5.588   1.525
 3069SOL    HW210107   6.644   5.632   1.568
 3070SOL     OW10108   2.217   0.680   1.945
 3070SOL    HW110109   2.265   0.745   1.886
 3070SOL    HW210110   2.120   0.677   1.920
 3071SOL     OW10111   6.504   6.773   3.520
 3071SOL    HW110112   6.452   6.768   3.606
 3071SOL    HW210113   6.537   6.866   3.507
 3072SOL     OW10114   1.117   6.111   1.035
 3072SOL    HW110115   1.052   6.126   0.960
 3072SOL    HW210116   1.202   6.073   0.999
 3073SOL     OW10117   1.048   3.543   4.843
 3073SOL    HW110118   1.145   3.553   4.824
 3073SOL    HW210119   1.035   3.503   4.933
 3074SOL     OW10120   5.396   2.863   0.814
 3074SOL    HW110121   5.453   2.935   0.855
 3074SOL    HW210122   5.392   2.785   0.877
 3075SOL     OW10123   1.907   5.989   1.427
 3075SOL    HW110124   1.926   5.999   1.329
 3075SOL    HW210125   1.808   5.986   1.441
 3076SOL     OW10126   6.773   0.822   4.211
 3076SOL    HW110127   6.779   0.864   4.301
 3076SOL    HW210128   6.842   0.860   4.150
 3077SOL     OW10129   5.354   4.377   2.686
 3077SOL    HW110130   5.408   4.455   2.717
 3077SOL    HW210131   5.271   4.410   2.641
 3078SOL     OW10132   2.193   3.621   1.105
 3078SOL    HW110133   2.279   3.640   1.057
 3078SOL    HW210134   2.213   3.596   1.200
 3079SOL     OW10135   2.083   2.710   4.508
 3079SOL    HW110136   2.155   2.670   4.564
 3079SOL    HW210137   2.040   2.785   4.558
 3080SOL     OW10138   5.776   4.938   2.234
 3080SOL    HW110139   5.768   4.848   2.191
 3080SOL    HW210140   5.744   4.932   2.328
 3081SOL     OW10141   0.401   4.459   5.902
 3081SOL    HW110142   0.467   4.390   5.871
 3081SOL    HW210143   0.372   4.514   5.824
 3082SOL     OW10144   3.859   0.086   3.507
 3082SOL    HW110145   3.788   0.100   3.577
 3082SOL    HW210146   3.859   7.018   3.478
 3083SOL     OW10147   4.031   6.423   2.943
 3083SOL    HW110148   4.033   6.403   2.845
 3083SOL    HW210149   3.954   6.484   2.963
 3084SOL     OW10150   4.716   4.726   4.563
 3084SOL    HW110151   4.804   4.757   4.525
 3084SOL    HW210152   4.656   4.698   4.489
 3085SOL     OW10153   0.098   4.644   2.853
 3085SOL    HW110154   0.136   4.557   2.822
 3085SOL    HW210155   0.150   4.676   2.932
 3086SOL     OW10156   4.374   1.561   1.479
 3086SOL    HW110157   4.294   1.603   1.522
 3086SOL    HW210158   4.438   1.531   1.550
 3087SOL     OW10159   0.091   4.723   3.702
 3087SOL    HW110160   0.171   4.758   3.652
 3087SOL    HW210161   0.080   4.776   3.786
 3088SOL     OW10162   2.887   5.118   5.760
 3088SOL    HW110163   2.921   5.193   5.816
 3088SOL    HW210164   2.864   5.040   5.819
 3089SOL     OW10165   1.213   2.818   0.241
 3089SOL    HW110166   1.279   2.878   0.196
 3089SOL    HW210167   1.120   2.848   0.220
 3090SOL     OW10168   1.818   1.692   1.642
 3090SOL    HW110169   1.903   1.734   1.676
 3090SOL    HW210170   1.774   1.641   1.715
 3091SOL     OW10171   2.825   6.373   0.417
 3091SOL    HW110172   2.767   6.310   0.365
 3091SOL    HW210173   2.822   6.464   0.374
 3092SOL     OW10174   5.114   0.204   7.003
 3092SOL    HW110175   5.166   0.127   0.013
 3092SOL    HW210176   5.121   0.282   0.037
 3093SOL     OW10177   5.642   4.893   5.738
 3093SOL    HW110178   5.610   4.822   5.675
 3093SOL    HW210179   5.568   4.958   5.756
 3094SOL     OW10180   3.519   0.034   4.927
 3094SOL    HW110181   3.612   0.011   4.957
 3094SOL    HW210182   3.466   6.978   4.912
 3095SOL     OW10183   2.644   4.693   4.415
 3095SOL    HW110184   2.584   4.615   4.430
 3095SOL    HW210185   2.630   4.729   4.323
 3096SOL     OW10186   0.327   0.459   4.265
 3096SOL    HW110187   0.366   0.491   4.352
 3096SOL    HW210188   0.235   0.424   4.281
 3097SOL     OW10189   0.746   2.379   0.322
 3097SOL    HW110190   0.714   2.302   0.378
 3097SOL    HW210191   0.673   2.447   0.315
 3098SOL     OW10192   2.249   3.400   1.415
 3098SOL    HW110193   2.241   3.351   1.501
 3098SOL    HW210194   2.345   3.423   1.399
 3099SOL     OW10195   0.143   5.884   4.912
 3099SOL    HW110196   0.163   5.888   4.814
 3099SOL    HW210197   0.086   5.962   4.937
 3100SOL     OW10198   6.867   0.226   4.400
 3100SOL    HW110199   6.891   0.133   4.374
 3100SOL    HW210200   6.877   0.236   4.499
 3101SOL     OW10201   4.376   6.328   5.375
 3101SOL    HW110202   4.313   6.404   5.359
 3101SOL    HW210203   4.451   6.359   5.434
 3102SOL     OW10204   1.229   4.826   2.145
 3102SOL    HW110205   1.197   4.918   2.169
 3102SOL    HW210206   1.328   4.825   2.140
 3103SOL     OW10207   3.242   1.796   1.473
 3103SOL    HW110208   3.229   1.819   1.377
 3103SOL    HW210209   3.189   1.858   1.530
 3104SOL     OW10210   5.933   6.513   4.275
 3104SOL    HW110211   5.842   6.517   4.316
 3104SOL    HW210212   5.971   6.605   4.267
 3105SOL     OW10213   6.342   5.580   3.523
 3105SOL    HW110214   6.388   5.641   3.587
 3105SOL    HW210215   6.372   5.601   3.430
 3106SOL     OW10216   6.871   1.553   2.806
 3106SOL    HW110217   6.876   1.645   2.847
 3106SOL    HW210218   6.783   1.512   2.829
 3107SOL     OW10219   3.336   0.383   4.339
 3107SOL    HW110220   3.328   0.307   4.404
 3107SOL    HW210221   3.245   0.408   4.305
 3108SOL     OW10222   1.850   0.574   4.449
 3108SOL    HW110223   1.892   0.645   4.505
 3108SOL    HW210224   1.885   0.484   4.478
 3109SOL     OW10225   6.002   5.683   2.955
 3109SOL    HW110226   6.061   5.668   2.876
 3109SOL    HW210227   6.053   5.730   3.027
 3110SOL     OW10228   1.000   1.540   3.908
 3110SOL    HW110229   1.002   1.473   3.834
 3110SOL    HW210230   1.087   1.537   3.958
 3111SOL     OW10231   6.350   5.498   4.244
 3111SOL    HW110232   6.427   5.479   4.183
 3111SOL    HW210233   6.264   5.492   4.194
 3112SOL     OW10234   5.157   2.506   5.988
 3112SOL    HW110235   5.095   2.494   5.911
 3112SOL    HW210236   5.175   2.603   6.002
 3113SOL     OW10237   1.986   0.251   4.321
 3113SOL    HW110238   2.029   0.310   4.253
 3113SOL    HW210239   1.996   0.155   4.294
 3114SOL     OW10240   4.922   3.314   0.020
 3114SOL    HW110241   4.827   3.286   0.029
 3114SOL    HW210242   4.981   3.249   0.068
 3115SOL     OW10243   4.730   3.421   0.584
 3115SOL    HW110244   4.794   3.362   0.535
 3115SOL    HW210245   4.775   3.507   0.608
 3116SOL     OW10246   0.566   3.912   6.897
 3116SOL    HW110247   0.589   3.815   6.905
 3116SOL    HW210248   0.555   3.935   6.800
 3117SOL     OW10249   4.566   3.747   5.375
 3117SOL    HW110250   4.487   3.807   5.361
 3117SOL    HW210251   4.615   3.736   5.289
 3118SOL     OW10252   6.867   4.604   6.519
 3118SOL    HW110253   6.797   4.664   6.480
 3118SOL    HW210254   6.822   4.526   6.564
 3119SOL     OW10255   2.056   3.866   5.502
 3119SOL    HW110256   2.071   3.791   5.438
 3119SOL    HW210257   2.078   3.836   5.595
 3120SOL     OW10258   2.253   6.155   4.636
 3120SOL    HW110259   2.256   6.085   4.707
 3120SOL    HW210260   2.159   6.185   4.623
 3121SOL     OW10261   0.747   1.328   2.507
 3121SOL    HW110262   0.708   1.373   2.587
 3121SOL    HW210263   0.846   1.347   2.503
 3122SOL     OW10264   3.717   5.810   6.190
 3122SOL    HW110265   3.631   5.758   6.179
 3122SOL    HW210266   3.790   5.763   6.141
 3123SOL     OW10267   3.370   6.469   3.878
 3123SOL    HW110268   3.370   6.371   3.894
 3123SOL    HW210269   3.404   6.488   3.786
 3124SOL     OW10270   3.679   0.675   5.337
 3124SOL    HW110271   3.739   0.624   5.399
 3124SOL    HW210272   3.700   0.650   5.242
 3125SOL     OW10273   6.167   2.181   6.324
 3125SOL    HW110274   6.171   2.192   6.224
 3125SOL    HW210275   6.185   2.269   6.367
 3126SOL     OW10276   4.915   4.826   6.693
 3126SOL    HW110277   4.878   4.882   6.768
 3126SOL    HW210278   4.949   4.886   6.621
 3127SOL     OW10279   0.675   2.430   2.785
 3127SOL    HW110280   0.678   2.416   2.686
 3127SOL    HW210281   0.586   2.466   2.811
 3128SOL     OW10282   1.532   0.478   0.373
 3128SOL    HW110283   1.555   0.575   0.365
 3128SOL    HW210284   1.573   0.427   0.297
 3129SOL     OW10285   0.620   4.575   6.432
 3129SOL    HW110286   0.622   4.488   6.383
 3129SOL    HW210287   0.530   4.617   6.421
 3130SOL     OW10288   2.477   4.453   2.422
 3130SOL    HW110289   2.544   4.513   2.377
 3130SOL    HW210290   2.512   4.427   2.512
 3131SOL     OW10291   1.243   2.872   2.725
 3131SOL    HW110292   1.273   2.807   2.655
 3131SOL    HW210293   1.215   2.822   2.807
 3132SOL     OW10294   5.379   6.369   5.225
 3132SOL    HW110295   5.431   6.286   5.207
 3132SOL    HW210296   5.303   6.348   5.286
 3133SOL     OW10297   2.464   2.060   4.270
 3133SOL    HW110298   2.387   2.088   4.213
 3133SOL    HW210299   2.539   2.125   4.261
 3134SOL     OW10300   5.339   3.736   1.802
 3134SOL    HW110301   5.252   3.739   1.753
 3134SOL    HW210302   5.377   3.828   1.808
 3135SOL     OW10303   4.167   2.044   4.574
 3135SOL    HW110304   4.105   2.019   4.649
 3135SOL    HW210305   4.213   1.962   4.541
 3136SOL     OW10306   6.098   6.733   5.400
 3136SOL    HW110307   6.065   6.688   5.316
 3136SOL    HW210308   6.042   6.813   5.419
 3137SOL     OW10309   5.358   0.898   3.934
 3137SOL    HW110310   5.386   0.910   4.029
 3137SOL    HW210311   5.430   0.933   3.874
 3138SOL     OW10312   6.033   1.826   4.455
 3138SOL    HW110313   5.987   1.901   4.504
 3138SOL    HW210314   6.112   1.862   4.406
 3139SOL     OW10315   5.092   0.059   6.601
 3139SOL    HW110316   5.108   0.147   6.644
 3139SOL    HW210317   5.156   0.048   6.524
 3140SOL     OW10318   6.605   5.709   6.229
 3140SOL    HW110319   6.577   5.647   6.302
 3140SOL    HW210320   6.529   5.723   6.165
 3141SOL     OW10321   0.755   6.388   6.379
 3141SOL    HW110322   0.756   6.434   6.468
 3141SOL    HW210323   0.797   6.298   6.387
 3142SOL     OW10324   4.970   6.390   6.977
 3142SOL    HW110325   5.032   6.427   0.018
 3142SOL    HW210326   4.884   6.440   6.980
 3143SOL     OW10327   6.830   2.462   6.434
 3143SOL    HW110328   6.898   2.460   6.508
 3143SOL    HW210329   6.876   2.445   6.347
 3144SOL     OW10330   2.551   3.463   0.910
 3144SOL    HW110331   2.552   3.448   1.008
 3144SOL    HW210332   2.563   3.376   0.862
 3145SOL     OW10333   2.712   5.667   2.826
 3145SOL    HW110334   2.647   5.642   2.754
 3145SOL    HW210335   2.663   5.685   2.911
 3146SOL     OW10336   1.375   6.061   3.201
 3146SOL    HW110337   1.441   6.136   3.200
 3146SOL    HW210338   1.389   6.005   3.283
 3147SOL     OW10339   4.199   5.268   0.059
 3147SOL    HW110340   4.293   5.301   0.066
 3147SOL    HW210341   4.177   5.248   6.992
 3148SOL     OW10342   3.986   5.498   4.235
 3148SOL    HW110343   3.948   5.422   4.288
 3148SOL    HW210344   4.084   5.484   4.222
 3149SOL     OW10345   3.043   0.156   5.556
 3149SOL    HW110346   3.056   0.149   5.655
 3149SOL    HW210347   2.971   0.224   5.537
 3150SOL     OW10348   5.297   6.010   4.316
 3150SOL    HW110349   5.204   5.983   4.292
 3150SOL    HW210350   5.299   6.044   4.411
 3151SOL     OW10351   4.739   1.486   6.556
 3151SOL    HW110352   4.767   1.392   6.576
 3151SOL    HW210353   4.724   1.496   6.457
 3152SOL     OW10354   1.152   5.177   1.817
 3152SOL    HW110355   1.077   5.111   1.819
 3152SOL    HW210356   1.156   5.224   1.905
 3153SOL     OW10357   6.315   4.230   1.897
 3153SOL    HW110358   6.230   4.182   1.919
 3153SOL    HW210359   6.393   4.177   1.929
 3154SOL     OW10360   6.284   2.271   0.319
 3154SOL    HW110361   6.302   2.258   0.221
 3154SOL    HW210362   6.292   2.184   0.366
 3155SOL     OW10363   0.458   5.191   1.864
 3155SOL    HW110364   0.539   5.248   1.859
 3155SOL    HW210365   0.471   5.109   1.808
 3156SOL     OW10366   4.150   3.514   3.960
 3156SOL    HW110367   4.101   3.554   3.882
 3156SOL    HW210368   4.157   3.415   3.948
 3157SOL     OW10369   1.446   2.911   4.566
 3157SOL    HW110370   1.411   2.998   4.600
 3157SOL    HW210371   1.375   2.841   4.575
 3158SOL     OW10372   4.565   0.102   1.352
 3158SOL    HW110373   4.604   0.138   1.268
 3158SOL    HW210374   4.631   0.041   1.396
 3159SOL     OW10375   5.037   6.393   6.673
 3159SOL    HW110376   4.988   6.469   6.631
 3159SOL    HW210377   5.004   6.380   6.767
 3160SOL     OW10378   6.287   4.435   6.213
 3160SOL    HW110379   6.323   4.361   6.157
 3160SOL    HW210380   6.254   4.508   6.154
 3161SOL     OW10381   1.691   1.289   2.723
 3161SOL    HW110382   1.632   1.270   2.645
 3161SOL    HW210383   1.760   1.216   2.730
 3162SOL     OW10384   6.951   5.292   0.323
 3162SOL    HW110385   0.010   5.255   0.291
 3162SOL    HW210386   6.965   5.341   0.409
 3163SOL     OW10387   3.729   2.700   6.281
 3163SOL    HW110388   3.807   2.747   6.239
 3163SOL    HW210389   3.669   2.767   6.324
 3164SOL     OW10390   5.154   4.177   1.624
 3164SOL    HW110391   5.061   4.210   1.636
 3164SOL    HW210392   5.201   4.233   1.555
 3165SOL     OW10393   1.246   6.614   2.007
 3165SOL    HW110394   1.282   6.661   1.927
 3165SOL    HW210395   1.149   6.639   2.020
 3166SOL     OW10396   5.184   3.137   6.124
 3166SOL    HW110397   5.097   3.112   6.168
 3166SOL    HW210398   5.256   3.139   6.193
 3167SOL     OW10399   6.615   4.617   1.761
 3167SOL    HW110400   6.572   4.697   1.804
 3167SOL    HW210401   6.562   4.536   1.784
 3168SOL     OW10402   5.145   2.930   0.932
 3168SOL    HW110403   5.224   2.898   0.880
 3168SOL    HW210404   5.171   2.944   1.027
 3169SOL     OW10405   0.873   3.543   5.945
 3169SOL    HW110406   0.875   3.498   5.856
 3169SOL    HW210407   0.913   3.482   6.014
 3170SOL     OW10408   3.664   0.532   6.812
 3170SOL    HW110409   3.682   0.589   6.731
 3170SOL    HW210410   3.570   0.498   6.809
 3171SOL     OW10411   6.341   6.877   1.552
 3171SOL    HW110412   6.408   6.950   1.563
 3171SOL    HW210413   6.300   6.883   1.461
 3172SOL     OW10414   6.758   6.366   5.059
 3172SOL    HW110415   6.701   6.337   4.982
 3172SOL    HW210416   6.703   6.366   5.143
 3173SOL     OW10417   2.282   0.530   2.426
 3173SOL    HW110418   2.203   0.491   2.472
 3173SOL    HW210419   2.263   0.626   2.405
 3174SOL     OW10420   2.566   3.227   6.233
 3174SOL    HW110421   2.554   3.133   6.203
 3174SOL    HW210422   2.624   3.276   6.168
 3175SOL     OW10423   0.839   6.250   6.767
 3175SOL    HW110424   0.816   6.285   6.858
 3175SOL    HW210425   0.824   6.323   6.699
 3176SOL     OW10426   1.889   4.489   6.102
 3176SOL    HW110427   1.878   4.553   6.026
 3176SOL    HW210428   1.907   4.397   6.065
 3177SOL     OW10429   5.813   5.120   6.036
 3177SOL    HW110430   5.717   5.143   6.027
 3177SOL    HW210431   5.829   5.073   6.122
 3178SOL     OW10432   0.420   4.192   1.970
 3178SOL    HW110433   0.352   4.211   2.041
 3178SOL    HW210434   0.442   4.095   1.970
 3179SOL     OW10435   2.080   2.301   1.927
 3179SOL    HW110436   2.126   2.309   1.838
 3179SOL    HW210437   2.140   2.337   1.998
 3180SOL     OW10438   4.282   0.797   5.585
 3180SOL    HW110439   4.366   0.848   5.607
 3180SOL    HW210440   4.304   0.723   5.521
 3181SOL     OW10441   0.721   0.660   3.734
 3181SOL    HW110442   0.642   0.707   3.773
 3181SOL    HW210443   0.771   0.612   3.806
 3182SOL     OW10444   0.544   0.375   5.631
 3182SOL    HW110445   0.510   0.283   5.646
 3182SOL    HW210446   0.634   0.370   5.587
 3183SOL     OW10447   3.952   4.645   1.408
 3183SOL    HW110448   4.002   4.606   1.485
 3183SOL    HW210449   3.861   4.603   1.403
 3184SOL     OW10450   2.363   1.830   2.149
 3184SOL    HW110451   2.339   1.890   2.225
 3184SOL    HW210452   2.458   1.849   2.122
 3185SOL     OW10453   0.263   0.151   5.409
 3185SOL    HW110454   0.301   0.124   5.498
 3185SOL    HW210455   0.331   0.204   5.359
 3186SOL     OW10456   3.563   1.218   2.931
 3186SOL    HW110457   3.504   1.276   2.988
 3186SOL    HW210458   3.508   1.170   2.863
 3187SOL     OW10459   3.830   4.235   0.153
 3187SOL    HW110460   3.799   4.221   0.058
 3187SOL    HW210461   3.898   4.165   0.176
 3188SOL     OW10462   3.542   5.857   2.985
 3188SOL    HW110463   3.604   5.780   2.967
 3188SOL    HW210464   3.523   5.905   2.900
 3189SOL     OW10465   1.561   0.932   3.061
 3189SOL    HW110466   1.587   0.949   2.966
 3189SOL    HW210467   1.524   0.840   3.069
 3190SOL     OW10468   1.589   6.458   1.629
 3190SOL    HW110469   1.508   6.433   1.575
 3190SOL    HW210470   1.578   6.551   1.664
 3191SOL     OW10471   3.672   0.830   1.336
 3191SOL    HW110472   3.611   0.862   1.408
 3191SOL    HW210473   3.708   0.908   1.285
 3192SOL     OW10474   0.679   1.800   0.664
 3192SOL    HW110475   0.743   1.822   0.738
 3192SOL    HW210476   0.658   1.702   0.667
 3193SOL     OW10477   4.540   2.324   6.326
 3193SOL    HW110478   4.604   2.263   6.279
 3193SOL    HW210479   4.448   2.309   6.290
 3194SOL     OW10480   1.416   3.486   6.607
 3194SOL    HW110481   1.507   3.479   6.649
 3194SOL    HW210482   1.423   3.537   6.521
 3195SOL     OW10483   1.705   2.585   3.377
 3195SOL    HW110484   1.701   2.681   3.403
 3195SOL    HW210485   1.621   2.539   3.406
 3196SOL     OW10486   0.201   0.132   4.520
 3196SOL    HW110487   0.132   0.123   4.591
 3196SOL    HW210488   0.157   0.162   4.435
 3197SOL     OW10489   1.160   5.762   3.254
 3197SOL    HW110490   1.245   5.730   3.210
 3197SOL    HW210491   1.183   5.819   3.333
 3198SOL     OW10492   6.903   2.095   6.218
 3198SOL    HW110493   6.997   2.066   6.231
 3198SOL    HW210494   6.857   2.104   6.307
 3199SOL     OW10495   4.729   1.789   2.011
 3199SOL    HW110496   4.658   1.858   2.022
 3199SOL    HW210497   4.798   1.823   1.946
 3200SOL     OW10498   6.984   2.662   0.706
 3200SOL    HW110499   6.945   2.610   0.782
 3200SOL    HW210500   6.988   2.759   0.732
 3201SOL     OW10501   5.095   3.637   4.001
 3201SOL    HW110502   5.151   3.667   3.924
 3201SOL    HW210503   5.150   3.636   4.084
 3202SOL     OW10504   2.020   4.354   2.810
 3202SOL    HW110505   1.990   4.398   2.725
 3202SOL    HW210506   1.942   4.309   2.853
 3203SOL     OW10507   6.449   0.750   1.462
 3203SOL    HW110508   6.388   0.702   1.399
 3203SOL    HW210509   6.544   0.733   1.436
 3204SOL     OW10510   6.068   5.593   1.727
 3204SOL    HW110511   6.112   5.505   1.745
 3204SOL    HW210512   6.117   5.666   1.776
 3205SOL     OW10513   6.498   3.965   6.167
 3205SOL    HW110514   6.591   4.001   6.157
 3205SOL    HW210515   6.494   3.874   6.125
 3206SOL     OW10516   0.176   6.766   5.743
 3206SOL    HW110517   0.183   6.730   5.836
 3206SOL    HW210518   0.107   6.839   5.740
 3207SOL     OW10519   0.891   1.342   5.387
 3207SOL    HW110520   0.806   1.394   5.392
 3207SOL    HW210521   0.894   1.292   5.301
 3208SOL     OW10522   4.477   5.728   4.861
 3208SOL    HW110523   4.416   5.691   4.931
 3208SOL    HW210524   4.424   5.755   4.781
 3209SOL     OW10525   2.898   6.682   4.060
 3209SOL    HW110526   2.834   6.661   3.986
 3209SOL    HW210527   2.987   6.644   4.039
 3210SOL     OW10528   6.880   3.745   2.496
 3210SOL    HW110529   6.924   3.712   2.579
 3210SOL    HW210530   6.800   3.688   2.476
 3211SOL     OW10531   2.216   4.332   1.223
 3211SOL    HW110532   2.205   4.369   1.315
 3211SOL    HW210533   2.151   4.258   1.208
 3212SOL     OW10534   4.282   2.575   6.589
 3212SOL    HW110535   4.240   2.643   6.529
 3212SOL    HW210536   4.378   2.598   6.604
 3213SOL     OW10537   5.528   5.977   3.194
 3213SOL    HW110538   5.505   5.973   3.096
 3213SOL    HW210539   5.627   5.968   3.205
 3214SOL     OW10540   4.318   6.232   6.897
 3214SOL    HW110541   4.256   6.184   6.834
 3214SOL    HW210542   4.296   6.329   6.898
 3215SOL     OW10543   6.709   2.431   0.126
 3215SOL    HW110544   6.736   2.404   0.033
 3215SOL    HW210545   6.642   2.505   0.120
 3216SOL     OW10546   5.613   6.279   3.372
 3216SOL    HW110547   5.563   6.363   3.393
 3216SOL    HW210548   5.561   6.200   3.407
 3217SOL     OW10549   0.588   4.979   2.996
 3217SOL    HW110550   0.661   4.962   3.062
 3217SOL    HW210551   0.626   5.021   2.914
 3218SOL     OW10552   3.796   6.641   2.885
 3218SOL    HW110553   3.833   6.733   2.892
 3218SOL    HW210554   3.716   6.642   2.824
 3219SOL     OW10555   0.258   0.054   2.742
 3219SOL    HW110556   0.233   0.115   2.667
 3219SOL    HW210557   0.207   0.080   2.825
 3220SOL     OW10558   0.028   4.822   4.552
 3220SOL    HW110559   6.964   4.855   4.531
 3220SOL    HW210560   0.061   4.766   4.476
 3221SOL     OW10561   2.403   6.413   3.699
 3221SOL    HW110562   2.412   6.512   3.706
 3221SOL    HW210563   2.329   6.382   3.759
 3222SOL     OW10564   5.180   1.898   3.171
 3222SOL    HW110565   5.184   1.837   3.092
 3222SOL    HW210566   5.094   1.949   3.169
 3223SOL     OW10567   2.619   5.268   6.078
 3223SOL    HW110568   2.572   5.286   6.164
 3223SOL    HW210569   2.563   5.302   6.002
 3224SOL     OW10570   4.694   5.754   6.728
 3224SOL    HW110571   4.690   5.713   6.636
 3224SOL    HW210572   4.775   5.813   6.735
 3225SOL     OW10573   3.999   3.092   0.276
 3225SOL    HW110574   3.967   3.060   0.187
 3225SOL    HW210575   4.084   3.144   0.264
 3226SOL     OW10576   2.365   0.959   4.245
 3226SOL    HW110577   2.377   0.866   4.280
 3226SOL    HW210578   2.267   0.978   4.236
 3227SOL     OW10579   3.626   1.793   5.756
 3227SOL    HW110580   3.645   1.809   5.853
 3227SOL    HW210581   3.530   1.765   5.746
 3228SOL     OW10582   6.147   3.172   4.055
 3228SOL    HW110583   6.071   3.109   4.042
 3228SOL    HW210584   6.189   3.192   3.967
 3229SOL     OW10585   3.727   2.145   5.960
 3229SOL    HW110586   3.756   2.122   5.867
 3229SOL    HW210587   3.702   2.242   5.964
 3230SOL     OW10588   0.248   0.973   2.950
 3230SOL    HW110589   0.315   1.011   2.886
 3230SOL    HW210590   0.167   1.031   2.952
 3231SOL     OW10591   4.611   5.578   1.212
 3231SOL    HW110592   4.583   5.674   1.222
 3231SOL    HW210593   4.558   5.536   1.138
 3232SOL     OW10594   3.440   5.356   4.432
 3232SOL    HW110595   3.416   5.266   4.467
 3232SOL    HW210596   3.389   5.426   4.481
 3233SOL     OW10597   0.564   4.126   1.125
 3233SOL    HW110598   0.509   4.081   1.196
 3233SOL    HW210599   0.658   4.093   1.129
 3234SOL     OW10600   0.041   2.269   7.005
 3234SOL    HW110601   0.099   2.350   6.996
 3234SOL    HW210602   0.051   2.211   6.924
 3235SOL     OW10603   5.805   6.888   2.953
 3235SOL    HW110604   5.723   6.848   2.995
 3235SOL    HW210605   5.806   6.986   2.972
 3236SOL     OW10606   0.987   2.815   2.446
 3236SOL    HW110607   1.042   2.822   2.363
 3236SOL    HW210608   1.046   2.794   2.524
 3237SOL     OW10609   4.164   6.559   4.685
 3237SOL    HW110610   4.119   6.488   4.740
 3237SOL    HW210611   4.118   6.567   4.597
 3238SOL     OW10612   0.361   5.681   6.451
 3238SOL    HW110613   0.268   5.651   6.435
 3238SOL    HW210614   0.364   5.737   6.534
 3239SOL     OW10615   6.293   0.674   5.735
 3239SOL    HW110616   6.311   0.593   5.679
 3239SOL    HW210617   6.378   0.705   5.777
 3240SOL     OW10618   0.509   0.227   4.618
 3240SOL    HW110619   0.482   0.315   4.579
 3240SOL    HW210620   0.593   0.239   4.671
 3241SOL     OW10621   4.843   1.185   3.555
 3241SOL    HW110622   4.811   1.102   3.510
 3241SOL    HW210623   4.881   1.248   3.487
 3242SOL     OW10624   3.836   6.017   6.308
 3242SOL    HW110625   3.927   6.011   6.268
 3242SOL    HW210626   3.778   5.944   6.273
 3243SOL     OW10627   4.460   5.350   0.060
 3243SOL    HW110628   4.526   5.424   0.073
 3243SOL    HW210629   4.498   5.282   7.025
 3244SOL     OW10630   4.230   5.882   5.767
 3244SOL    HW110631   4.276   5.836   5.691
 3244SOL    HW210632   4.278   5.967   5.788
 3245SOL     OW10633   4.049   3.416   6.229
 3245SOL    HW110634   4.059   3.410   6.130
 3245SOL    HW210635   4.025   3.327   6.266
 3246SOL     OW10636   5.958   6.772   2.506
 3246SOL    HW110637   5.912   6.762   2.593
 3246SOL    HW210638   5.898   6.817   2.440
 3247SOL     OW10639   0.054   3.493   3.881
 3247SOL    HW110640   7.018   3.558   3.840
 3247SOL    HW210641   0.066   3.415   3.821
 3248SOL     OW10642   6.194   3.292   2.012
 3248SOL    HW110643   6.273   3.231   2.008
 3248SOL    HW210644   6.132   3.271   1.936
 3249SOL     OW10645   3.204   4.947   4.881
 3249SOL    HW110646   3.114   4.915   4.911
 3249SOL    HW210647   3.214   4.932   4.783
 3250SOL     OW10648   4.595   6.619   2.533
 3250SOL    HW110649   4.601   6.703   2.479
 3250SOL    HW210650   4.529   6.557   2.491
 3251SOL     OW10651   3.952   1.868   2.762
 3251SOL    HW110652   3.862   1.908   2.774
 3251SOL    HW210653   3.943   1.773   2.732
 3252SOL     OW10654   3.027   1.085   2.976
 3252SOL    HW110655   2.983   1.154   3.034
 3252SOL    HW210656   3.074   1.018   3.033
 3253SOL     OW10657   4.946   2.942   1.288
 3253SOL    HW110658   4.939   2.997   1.205
 3253SOL    HW210659   4.863   2.954   1.343
 3254SOL     OW10660   4.144   4.852   3.277
 3254SOL    HW110661   4.142   4.903   3.363
 3254SOL    HW210662   4.179   4.911   3.204
 3255SOL     OW10663   4.727   5.793   0.172
 3255SOL    HW110664   4.821   5.790   0.206
 3255SOL    HW210665   4.705   5.886   0.141
 3256SOL     OW10666   5.197   6.828   5.969
 3256SOL    HW110667   5.159   6.757   6.029
 3256SOL    HW210668   5.145   6.912   5.979
 3257SOL     OW10669   1.911   1.890   1.153
 3257SOL    HW110670   1.854   1.809   1.167
 3257SOL    HW210671   2.003   1.862   1.128
 3258SOL     OW10672   4.815   6.537   1.635
 3258SOL    HW110673   4.904   6.526   1.592
 3258SOL    HW210674   4.745   6.551   1.565
 3259SOL     OW10675   4.192   6.019   4.299
 3259SOL    HW110676   4.209   6.011   4.201
 3259SOL    HW210677   4.099   5.988   4.319
 3260SOL     OW10678   1.645   1.582   6.607
 3260SOL    HW110679   1.731   1.581   6.658
 3260SOL    HW210680   1.574   1.625   6.662
 3261SOL     OW10681   4.159   6.923   0.949
 3261SOL    HW110682   4.220   6.855   0.908
 3261SOL    HW210683   4.125   6.984   0.878
 3262SOL     OW10684   3.534   1.877   3.430
 3262SOL    HW110685   3.442   1.843   3.451
 3262SOL    HW210686   3.579   1.905   3.515
 3263SOL     OW10687   4.292   6.797   1.967
 3263SOL    HW110688   4.351   6.861   1.919
 3263SOL    HW210689   4.203   6.793   1.920
 3264SOL     OW10690   0.159   5.234   0.189
 3264SOL    HW110691   0.136   5.138   0.169
 3264SOL    HW210692   0.191   5.278   0.105
 3265SOL     OW10693   4.392   2.014   6.570
 3265SOL    HW110694   4.460   2.017   6.496
 3265SOL    HW210695   4.343   1.927   6.565
 3266SOL     OW10696   0.203   2.510   6.329
 3266SOL    HW110697   0.191   2.583   6.262
 3266SOL    HW210698   0.300   2.486   6.335
 3267SOL     OW10699   3.455   1.963   1.127
 3267SOL    HW110700   3.524   1.916   1.181
 3267SOL    HW210701   3.461   2.062   1.143
 3268SOL     OW10702   0.797   4.121   0.315
 3268SOL    HW110703   0.759   4.051   0.375
 3268SOL    HW210704   0.759   4.110   0.223
 3269SOL     OW10705   4.349   4.568   1.086
 3269SOL    HW110706   4.316   4.559   1.180
 3269SOL    HW210707   4.446   4.544   1.083
 3270SOL     OW10708   0.781   5.462   4.083
 3270SOL    HW110709   0.836   5.520   4.143
 3270SOL    HW210710   0.826   5.373   4.071
 3271SOL     OW10711   6.238   2.816   1.679
 3271SOL    HW110712   6.265   2.721   1.662
 3271SOL    HW210713   6.310   2.877   1.648
 3272SOL     OW10714   3.554   0.670   0.522
 3272SOL    HW110715   3.537   0.574   0.545
 3272SOL    HW210716   3.624   0.676   0.451
 3273SOL     OW10717   0.668   6.332   2.371
 3273SOL    HW110718   0.616   6.259   2.326
 3273SOL    HW210719   0.703   6.299   2.458
 3274SOL     OW10720   2.634   1.917   5.615
 3274SOL    HW110721   2.610   1.981   5.542
 3274SOL    HW210722   2.701   1.959   5.676
 3275SOL     OW10723   2.202   0.519   6.884
 3275SOL    HW110724   2.140   0.574   6.828
 3275SOL    HW210725   2.296   0.537   6.856
 3276SOL     OW10726   3.236   5.688   6.355
 3276SOL    HW110727   3.205   5.758   6.290
 3276SOL    HW210728   3.284   5.732   6.430
 3277SOL     OW10729   0.027   6.485   5.796
 3277SOL    HW110730   0.071   6.416   5.738
 3277SOL    HW210731   0.093   6.517   5.865
 3278SOL     OW10732   1.333   1.034   5.341
 3278SOL    HW110733   1.422   1.001   5.374
 3278SOL    HW210734   1.260   0.986   5.390
 3279SOL     OW10735   0.402   6.811   1.013
 3279SOL    HW110736   0.354   6.724   1.021
 3279SOL    HW210737   0.390   6.848   0.921
 3280SOL     OW10738   2.189   5.228   6.092
 3280SOL    HW110739   2.113   5.180   6.136
 3280SOL    HW210740   2.245   5.162   6.041
 3281SOL     OW10741   2.399   5.498   0.103
 3281SOL    HW110742   2.475   5.520   0.165
 3281SOL    HW210743   2.382   5.577   0.043
 3282SOL     OW10744   2.789   5.405   4.352
 3282SOL    HW110745   2.854   5.329   4.351
 3282SOL    HW210746   2.837   5.491   4.367
 3283SOL     OW10747   2.940   0.861   3.435
 3283SOL    HW110748   2.874   0.794   3.470
 3283SOL    HW210749   3.029   0.817   3.424
 3284SOL     OW10750   6.967   5.669   0.003
 3284SOL    HW110751   6.870   5.672   0.024
 3284SOL    HW210752   7.015   5.740   0.056
 3285SOL     OW10753   0.446   1.937   3.086
 3285SOL    HW110754   0.538   1.975   3.098
 3285SOL    HW210755   0.378   2.010   3.097
 3286SOL     OW10756   3.314   3.737   4.691
 3286SOL    HW110757   3.233   3.796   4.689
 3286SOL    HW210758   3.392   3.786   4.653
 3287SOL     OW10759   2.065   5.351   0.269
 3287SOL    HW110760   2.116   5.279   0.315
 3287SOL    HW210761   2.000   5.391   0.333
 3288SOL     OW10762   0.738   5.755   6.083
 3288SOL    HW110763   0.783   5.677   6.127
 3288SOL    HW210764   0.802   5.832   6.079
 3289SOL     OW10765   0.376   6.163   5.276
 3289SOL    HW110766   0.334   6.241   5.230
 3289SOL    HW210767   0.391   6.090   5.210
 3290SOL     OW10768   6.999   5.569   2.159
 3290SOL    HW110769   6.981   5.477   2.122
 3290SOL    HW210770   0.061   5.600   2.130
 3291SOL     OW10771   1.423   6.230   6.940
 3291SOL    HW110772   1.339   6.178   6.952
 3291SOL    HW210773   1.408   6.304   6.874
 3292SOL     OW10774   6.802   6.657   6.340
 3292SOL    HW110775   6.879   6.698   6.291
 3292SOL    HW210776   6.778   6.570   6.298
 3293SOL     OW10777   6.810   1.070   2.920
 3293SOL    HW110778   6.770   1.093   2.832
 3293SOL    HW210779   6.889   1.130   2.937
 3294SOL     OW10780   6.551   0.470   6.006
 3294SOL    HW110781   6.557   0.552   5.948
 3294SOL    HW210782   6.470   0.477   6.064
 3295SOL     OW10783   2.335   2.912   0.991
 3295SOL    HW110784   2.348   2.941   0.896
 3295SOL    HW210785   2.242   2.934   1.020
 3296SOL     OW10786   2.200   6.616   2.430
 3296SOL    HW110787   2.257   6.695   2.450
 3296SOL    HW210788   2.104   6.641   2.442
 3297SOL     OW10789   3.139   2.458   5.753
 3297SOL    HW110790   3.110   2.367   5.725
 3297SOL    HW210791   3.158   2.513   5.671
 3298SOL     OW10792   6.572   3.307   2.665
 3298SOL    HW110793   6.529   3.393   2.639
 3298SOL    HW210794   6.562   3.293   2.763
 3299SOL     OW10795   1.273   0.052   4.765
 3299SOL    HW110796   1.303   0.047   4.670
 3299SOL    HW210797   1.340   0.103   4.819
 3300SOL     OW10798   6.311   6.743   4.913
 3300SOL    HW110799   6.411   6.739   4.923
 3300SOL    HW210800   6.281   6.679   4.843
 3301SOL     OW10801   0.247   3.401   3.253
 3301SOL    HW110802   0.234   3.472   3.322
 3301SOL    HW210803   0.282   3.318   3.297
 3302SOL     OW10804   1.461   4.735   3.873
 3302SOL    HW110805   1.371   4.693   3.890
 3302SOL    HW210806   1.491   4.783   3.955
 3303SOL     OW10807   4.070   3.234   3.957
 3303SOL    HW110808   4.020   3.164   4.009
 3303SOL    HW210809   4.034   3.238   3.864
 3304SOL     OW10810   0.618   6.211   4.102
 3304SOL    HW110811   0.673   6.175   4.027
 3304SOL    HW210812   0.676   6.222   4.183
 3305SOL     OW10813   1.787   0.754   1.671
 3305SOL    HW110814   1.818   0.706   1.753
 3305SOL    HW210815   1.712   0.815   1.695
 3306SOL     OW10816   2.144   3.837   3.374
 3306SOL    HW110817   2.152   3.918   3.315
 3306SOL    HW210818   2.172   3.861   3.467
 3307SOL     OW10819   6.398   6.016   0.784
 3307SOL    HW110820   6.324   5.998   0.849
 3307SOL    HW210821   6.360   6.025   0.692
 3308SOL     OW10822   4.549   5.844   0.614
 3308SOL    HW110823   4.491   5.763   0.603
 3308SOL    HW210824   4.530   5.908   0.539
 3309SOL     OW10825   1.164   4.834   3.688
 3309SOL    HW110826   1.233   4.906   3.701
 3309SOL    HW210827   1.073   4.876   3.685
 3310SOL     OW10828   0.575   4.954   2.590
 3310SOL    HW110829   0.489   4.937   2.638
 3310SOL    HW210830   0.635   5.010   2.648
 3311SOL     OW10831   4.076   6.994   1.199
 3311SOL    HW110832   4.156   7.001   1.259
 3311SOL    HW210833   4.105   6.962   1.109
 3312SOL     OW10834   3.316   3.941   6.004
 3312SOL    HW110835   3.263   3.857   6.013
 3312SOL    HW210836   3.336   3.957   5.907
 3313SOL     OW10837   0.784   5.167   3.620
 3313SOL    HW110838   0.689   5.145   3.603
 3313SOL    HW210839   0.790   5.246   3.681
 3314SOL     OW10840   1.833   3.137   5.016
 3314SOL    HW110841   1.798   3.154   4.924
 3314SOL    HW210842   1.868   3.043   5.022
 3315SOL     OW10843   6.912   2.434   3.856
 3315SOL    HW110844   6.998   2.383   3.862
 3315SOL    HW210845   6.840   2.384   3.904
 3316SOL     OW10846   4.687   2.167   6.136
 3316SOL    HW110847   4.643   2.135   6.053
 3316SOL    HW210848   4.785   2.177   6.121
 3317SOL     OW10849   4.408   2.725   1.711
 3317SOL    HW110850   4.326   2.782   1.702
 3317SOL    HW210851   4.484   2.769   1.663
 3318SOL     OW10852   2.613   5.864   5.239
 3318SOL    HW110853   2.653   5.956   5.242
 3318SOL    HW210854   2.654   5.808   5.310
 3319SOL     OW10855   0.709   6.198   4.524
 3319SOL    HW110856   0.720   6.102   4.497
 3319SOL    HW210857   0.717   6.256   4.443
 3320SOL     OW10858   6.113   0.905   5.379
 3320SOL    HW110859   6.071   0.983   5.332
 3320SOL    HW210860   6.212   0.915   5.379
 3321SOL     OW10861   3.458   2.863   3.201
 3321SOL    HW110862   3.385   2.900   3.142
 3321SOL    HW210863   3.459   2.763   3.193
 3322SOL     OW10864   3.884   2.389   0.941
 3322SOL    HW110865   3.820   2.455   0.979
 3322SOL    HW210866   3.842   2.298   0.942
 3323SOL     OW10867   1.979   4.612   0.401
 3323SOL    HW110868   1.897   4.557   0.420
 3323SOL    HW210869   2.059   4.566   0.439
 3324SOL     OW10870   1.172   3.196   0.346
 3324SOL    HW110871   1.085   3.222   0.388
 3324SOL    HW210872   1.181   3.240   0.257
 3325SOL     OW10873   1.557   2.802   0.854
 3325SOL    HW110874   1.463   2.792   0.888
 3325SOL    HW210875   1.597   2.886   0.892
 3326SOL     OW10876   6.466   1.686   0.944
 3326SOL    HW110877   6.466   1.757   0.874
 3326SOL    HW210878   6.432   1.723   1.030
 3327SOL     OW10879   3.104   6.618   2.140
 3327SOL    HW110880   3.067   6.548   2.201
 3327SOL    HW210881   3.030   6.661   2.090
 3328SOL     OW10882   4.932   1.162   2.354
 3328SOL    HW110883   4.837   1.155   2.323
 3328SOL    HW210884   4.952   1.258   2.377
 3329SOL     OW10885   4.360   0.906   5.030
 3329SOL    HW110886   4.262   0.891   5.046
 3329SOL    HW210887   4.407   0.818   5.029
 3330SOL     OW10888   5.800   6.854   2.275
 3330SOL    HW110889   5.857   6.811   2.205
 3330SOL    HW210890   5.735   6.787   2.312
 3331SOL     OW10891   2.153   3.347   3.209
 3331SOL    HW110892   2.196   3.260   3.185
 3331SOL    HW210893   2.141   3.402   3.126
 3332SOL     OW10894   4.436   5.219   0.307
 3332SOL    HW110895   4.523   5.179   0.335
 3332SOL    HW210896   4.448   5.269   0.221
 3333SOL     OW10897   3.554   3.711   1.930
 3333SOL    HW110898   3.605   3.785   1.887
 3333SOL    HW210899   3.456   3.724   1.914
 3334SOL     OW10900   1.914   2.075   2.501
 3334SOL    HW110901   1.946   2.100   2.409
 3334SOL    HW210902   1.842   2.007   2.494
 3335SOL     OW10903   3.904   4.449   5.326
 3335SOL    HW110904   3.825   4.499   5.360
 3335SOL    HW210905   3.875   4.358   5.295
 3336SOL     OW10906   3.926   6.891   4.034
 3336SOL    HW110907   4.019   6.906   4.068
 3336SOL    HW210908   3.901   6.966   3.974
 3337SOL     OW10909   3.474   4.165   2.873
 3337SOL    HW110910   3.490   4.175   2.972
 3337SOL    HW210911   3.386   4.122   2.858
 3338SOL     OW10912   2.113   1.265   1.250
 3338SOL    HW110913   2.206   1.297   1.267
 3338SOL    HW210914   2.049   1.319   1.304
 3339SOL     OW10915   2.247   0.444   5.763
 3339SOL    HW110916   2.175   0.458   5.831
 3339SOL    HW210917   2.329   0.495   5.790
 3340SOL     OW10918   4.174   1.025   3.976
 3340SOL    HW110919   4.162   1.111   3.925
 3340SOL    HW210920   4.259   0.981   3.948
 3341SOL     OW10921   2.414   5.038   2.706
 3341SOL    HW110922   2.441   4.960   2.763
 3341SOL    HW210923   2.490   5.103   2.700
 3342SOL     OW10924   6.383   0.265   3.013
 3342SOL    HW110925   6.420   0.182   3.056
 3342SOL    HW210926   6.421   0.273   2.920
 3343SOL     OW10927   4.962   5.473   6.515
 3343SOL    HW110928   5.026   5.548   6.530
 3343SOL    HW210929   4.969   5.442   6.420
 3344SOL     OW10930   0.171   3.282   1.411
 3344SOL    HW110931   0.093   3.272   1.473
 3344SOL    HW210932   0.232   3.204   1.422
 3345SOL     OW10933   0.354   4.551   0.791
 3345SOL    HW110934   0.258   4.566   0.814
 3345SOL    HW210935   0.412   4.578   0.869
 3346SOL     OW10936   2.149   0.964   6.877
 3346SOL    HW110937   2.121   0.876   6.840
 3346SOL    HW210938   2.199   0.950   6.963
 3347SOL     OW10939   0.861   3.119   6.482
 3347SOL    HW110940   0.923   3.057   6.530
 3347SOL    HW210941   0.766   3.095   6.503
 3348SOL     OW10942   3.962   4.089   6.127
 3348SOL    HW110943   4.030   4.077   6.200
 3348SOL    HW210944   4.009   4.123   6.045
 3349SOL     OW10945   2.633   4.852   3.774
 3349SOL    HW110946   2.694   4.772   3.768
 3349SOL    HW210947   2.540   4.821   3.792
 3350SOL     OW10948   0.154   4.132   5.423
 3350SOL    HW110949   0.140   4.033   5.418
 3350SOL    HW210950   0.095   4.170   5.494
 3351SOL     OW10951   4.940   0.819   0.626
 3351SOL    HW110952   4.885   0.756   0.682
 3351SOL    HW210953   4.881   0.863   0.558
 3352SOL     OW10954   5.385   2.909   6.386
 3352SOL    HW110955   5.401   3.006   6.369
 3352SOL    HW210956   5.287   2.891   6.393
 3353SOL     OW10957   2.339   0.860   1.797
 3353SOL    HW110958   2.316   0.869   1.700
 3353SOL    HW210959   2.436   0.837   1.805
 3354SOL     OW10960   3.914   2.884   5.903
 3354SOL    HW110961   3.846   2.925   5.842
 3354SOL    HW210962   3.893   2.911   5.998
 3355SOL     OW10963   1.934   0.791   4.594
 3355SOL    HW110964   1.879   0.784   4.678
 3355SOL    HW210965   2.006   0.859   4.606
 3356SOL     OW10966   1.692   6.767   5.438
 3356SOL    HW110967   1.594   6.781   5.423
 3356SOL    HW210968   1.737   6.754   5.350
 3357SOL     OW10969   3.065   3.144   2.131
 3357SOL    HW110970   3.099   3.213   2.195
 3357SOL    HW210971   3.122   3.063   2.135
 3358SOL     OW10972   6.387   0.987   2.732
 3358SOL    HW110973   6.396   0.925   2.810
 3358SOL    HW210974   6.290   1.007   2.717
 3359SOL     OW10975   6.802   5.792   4.312
 3359SOL    HW110976   6.796   5.740   4.227
 3359SOL    HW210977   6.752   5.744   4.384
 3360SOL     OW10978   6.984   2.817   5.675
 3360SOL    HW110979   6.911   2.884   5.684
 3360SOL    HW210980   0.041   2.854   5.714
 3361SOL     OW10981   0.458   1.052   4.687
 3361SOL    HW110982   0.519   1.126   4.716
 3361SOL    HW210983   0.488   1.018   4.598
 3362SOL     OW10984   3.558   1.776   3.823
 3362SOL    HW110985   3.569   1.721   3.905
 3362SOL    HW210986   3.461   1.791   3.805
 3363SOL     OW10987   5.706   3.636   1.447
 3363SOL    HW110988   5.709   3.542   1.479
 3363SOL    HW210989   5.703   3.699   1.525
 3364SOL     OW10990   2.524   4.443   3.150
 3364SOL    HW110991   2.435   4.421   3.189
 3364SOL    HW210992   2.596   4.410   3.211
 3365SOL     OW10993   1.755   3.161   4.567
 3365SOL    HW110994   1.752   3.250   4.522
 3365SOL    HW210995   1.842   3.151   4.615
 3366SOL     OW10996   6.253   3.763   4.292
 3366SOL    HW110997   6.280   3.668   4.307
 3366SOL    HW210998   6.318   3.824   4.336
 3367SOL     OW10999   3.635   3.443   4.504
 3367SOL    HW111000   3.618   3.407   4.596
 3367SOL    HW211001   3.662   3.539   4.510
 3368SOL     OW11002   1.636   5.847   6.939
 3368SOL    HW111003   1.618   5.758   6.897
 3368SOL    HW211004   1.651   5.836   0.009
 3369SOL     OW11005   4.518   2.283   1.253
 3369SOL    HW111006   4.506   2.380   1.274
 3369SOL    HW211007   4.473   2.229   1.324
 3370SOL     OW11008   0.214   5.736   1.794
 3370SOL    HW111009   0.184   5.642   1.776
 3370SOL    HW211010   0.306   5.734   1.834
 3371SOL     OW11011   2.353   2.789   3.268
 3371SOL    HW111012   2.315   2.735   3.344
 3371SOL    HW211013   2.322   2.884   3.277
 3372SOL     OW11014   6.525   3.277   1.352
 3372SOL    HW111015   6.563   3.192   1.315
 3372SOL    HW211016   6.474   3.257   1.436
 3373SOL     OW11017   0.321   2.321   1.643
 3373SOL    HW111018   0.353   2.301   1.551
 3373SOL    HW211019   0.221   2.318   1.645
 3374SOL     OW11020   0.937   0.492   3.321
 3374SOL    HW111021   0.997   0.415   3.302
 3374SOL    HW211022   0.891   0.478   3.409
 3375SOL     OW11023   6.882   4.943   6.885
 3375SOL    HW111024   6.966   4.900   6.851
 3375SOL    HW211025   6.836   4.880   6.948
 3376SOL     OW11026   2.599   3.840   5.511
 3376SOL    HW111027   2.651   3.755   5.524
 3376SOL    HW211028   2.636   3.911   5.571
 3377SOL     OW11029   5.598   4.443   3.174
 3377SOL    HW111030   5.682   4.455   3.226
 3377SOL    HW211031   5.532   4.514   3.200
 3378SOL     OW11032   1.393   6.424   6.744
 3378SOL    HW111033   1.363   6.518   6.761
 3378SOL    HW211034   1.408   6.412   6.646
 3379SOL     OW11035   0.717   3.851   3.834
 3379SOL    HW111036   0.721   3.830   3.932
 3379SOL    HW211037   0.781   3.925   3.813
 3380SOL     OW11038   3.778   4.503   6.019
 3380SOL    HW111039   3.739   4.594   6.029
 3380SOL    HW211040   3.720   4.448   5.959
 3381SOL     OW11041   1.605   3.193   1.553
 3381SOL    HW111042   1.511   3.193   1.587
 3381SOL    HW211043   1.655   3.271   1.591
 3382SOL     OW11044   6.849   2.493   0.865
 3382SOL    HW111045   6.764   2.534   0.832
 3382SOL    HW211046   6.863   2.405   0.820
 3383SOL     OW11047   4.570   5.157   6.910
 3383SOL    HW111048   4.644   5.121   6.969
 3383SOL    HW211049   4.483   5.116   6.938
 3384SOL     OW11050   2.954   4.154   0.756
 3384SOL    HW111051   2.936   4.165   0.854
 3384SOL    HW211052   2.899   4.078   0.721
 3385SOL     OW11053   0.575   2.304   3.055
 3385SOL    HW111054   0.627   2.230   3.098
 3385SOL    HW211055   0.631   2.347   2.984
 3386SOL     OW11056   6.600   4.863   6.919
 3386SOL    HW111057   6.590   4.768   6.888
 3386SOL    HW211058   6.571   4.869   7.015
 3387SOL     OW11059   6.292   0.680   2.906
 3387SOL    HW111060   6.324   0.620   2.832
 3387SOL    HW211061   6.322   0.643   2.994
 3388SOL     OW11062   5.748   3.367   1.500
 3388SOL    HW111063   5.655   3.341   1.476
 3388SOL    HW211064   5.754   3.386   1.598
 3389SOL     OW11065   6.136   5.990   0.747
 3389SOL    HW111066   6.039   5.988   0.771
 3389SOL    HW211067   6.148   6.034   0.659
 3390SOL     OW11068   3.951   6.380   6.175
 3390SOL    HW111069   3.999   6.396   6.261
 3390SOL    HW211070   3.874   6.444   6.168
 3391SOL     OW11071   5.563   2.867   3.325
 3391SOL    HW111072   5.507   2.893   3.403
 3391SOL    HW211073   5.515   2.796   3.272
 3392SOL     OW11074   4.289   6.998   5.771
 3392SOL    HW111075   4.364   6.992   5.837
 3392SOL    HW211076   4.316   6.954   5.685
 3393SOL     OW11077   5.093   6.912   1.012
 3393SOL    HW111078   5.052   6.876   1.096
 3393SOL    HW211079   5.071   6.851   0.936
 3394SOL     OW11080   3.083   5.662   1.727
 3394SOL    HW111081   3.021   5.720   1.675
 3394SOL    HW211082   3.065   5.566   1.706
 3395SOL     OW11083   3.765   0.343   2.966
 3395SOL    HW111084   3.799   0.397   2.889
 3395SOL    HW211085   3.720   0.260   2.932
 3396SOL     OW11086   4.092   2.030   3.838
 3396SOL    HW111087   4.030   2.044   3.915
 3396SOL    HW211088   4.183   2.009   3.871
 3397SOL     OW11089   2.185   5.644   6.364
 3397SOL    HW111090   2.275   5.603   6.372
 3397SOL    HW211091   2.128   5.589   6.302
 3398SOL     OW11092   6.828   1.988   5.028
 3398SOL    HW111093   6.745   1.935   5.040
 3398SOL    HW211094   6.820   2.046   4.947
 3399SOL     OW11095   6.941   4.792   3.138
 3399SOL    HW111096   6.987   4.860   3.080
 3399SOL    HW211097   6.935   4.705   3.089
 3400SOL     OW11098   5.669   2.348   5.404
 3400SOL    HW111099   5.570   2.363   5.413
 3400SOL    HW211100   5.685   2.272   5.341
 3401SOL     OW11101   6.842   3.712   5.900
 3401SOL    HW111102   6.743   3.704   5.911
 3401SOL    HW211103   6.869   3.676   5.811
 3402SOL     OW11104   6.971   4.915   1.544
 3402SOL    HW111105   6.878   4.949   1.538
 3402SOL    HW211106   0.001   4.983   1.589
 3403SOL     OW11107   4.653   6.560   6.645
 3403SOL    HW111108   4.586   6.489   6.625
 3403SOL    HW211109   4.726   6.558   6.576
 3404SOL     OW11110   5.114   3.305   5.285
 3404SOL    HW111111   5.154   3.313   5.376
 3404SOL    HW211112   5.152   3.376   5.225
 3405SOL     OW11113   5.637   6.290   5.768
 3405SOL    HW111114   5.678   6.259   5.854
 3405SOL    HW211115   5.694   6.362   5.728
 3406SOL     OW11116   2.057   3.878   2.081
 3406SOL    HW111117   2.099   3.794   2.114
 3406SOL    HW211118   2.103   3.908   1.997
 3407SOL     OW11119   1.889   3.613   0.346
 3407SOL    HW111120   1.924   3.694   0.392
 3407SOL    HW211121   1.957   3.581   0.279
 3408SOL     OW11122   5.090   2.084   3.767
 3408SOL    HW111123   5.001   2.112   3.802
 3408SOL    HW211124   5.078   2.014   3.696
 3409SOL     OW11125   4.781   1.216   0.747
 3409SOL    HW111126   4.827   1.129   0.763
 3409SOL    HW211127   4.696   1.200   0.696
 3410SOL     OW11128   5.351   0.006   2.036
 3410SOL    HW111129   5.324   7.019   2.131
 3410SOL    HW211130   5.354   0.104   2.017
 3411SOL     OW11131   6.790   2.044   0.976
 3411SOL    HW111132   6.872   2.081   1.020
 3411SOL    HW211133   6.798   1.944   0.970
 3412SOL     OW11134   5.397   3.335   1.403
 3412SOL    HW111135   5.326   3.305   1.340
 3412SOL    HW211136   5.381   3.430   1.429
 3413SOL     OW11137   6.974   2.108   5.953
 3413SOL    HW111138   6.929   2.074   6.036
 3413SOL    HW211139   0.042   2.080   5.953
 3414SOL     OW11140   4.188   3.103   1.100
 3414SOL    HW111141   4.185   3.147   1.011
 3414SOL    HW211142   4.095   3.076   1.127
 3415SOL     OW11143   2.298   2.743   5.039
 3415SOL    HW111144   2.346   2.831   5.039
 3415SOL    HW211145   2.222   2.748   4.974
 3416SOL     OW11146   6.483   6.882   6.698
 3416SOL    HW111147   6.576   6.860   6.670
 3416SOL    HW211148   6.454   6.819   6.771
 3417SOL     OW11149   6.931   0.078   2.865
 3417SOL    HW111150   7.001   0.068   2.936
 3417SOL    HW211151   6.873   7.025   2.864
 3418SOL     OW11152   4.380   4.809   1.932
 3418SOL    HW111153   4.378   4.857   1.844
 3418SOL    HW211154   4.359   4.712   1.917
 3419SOL     OW11155   3.314   6.018   6.215
 3419SOL    HW111156   3.232   5.976   6.177
 3419SOL    HW211157   3.326   6.109   6.176
 3420SOL     OW11158   4.416   2.423   3.766
 3420SOL    HW111159   4.446   2.455   3.856
 3420SOL    HW211160   4.323   2.388   3.773
 3421SOL     OW11161   5.746   2.549   3.535
 3421SOL    HW111162   5.676   2.530   3.603
 3421SOL    HW211163   5.818   2.479   3.538
 3422SOL     OW11164   2.150   6.797   0.979
 3422SOL    HW111165   2.079   6.776   1.046
 3422SOL    HW211166   2.120   6.770   0.888
 3423SOL     OW11167   0.960   4.472   5.599
 3423SOL    HW111168   0.898   4.499   5.673
 3423SOL    HW211169   1.005   4.387   5.623
 3424SOL     OW11170   4.611   0.177   1.725
 3424SOL    HW111171   4.651   0.254   1.674
 3424SOL    HW211172   4.661   0.165   1.811
 3425SOL     OW11173   6.066   4.332   1.708
 3425SOL    HW111174   5.982   4.343   1.655
 3425SOL    HW211175   6.056   4.255   1.771
 3426SOL     OW11176   5.219   3.517   0.332
 3426SOL    HW111177   5.262   3.572   0.260
 3426SOL    HW211178   5.276   3.437   0.351
 3427SOL     OW11179   1.104   2.422   0.767
 3427SOL    HW111180   1.031   2.379   0.820
 3427SOL    HW211181   1.101   2.389   0.673
 3428SOL     OW11182   5.311   6.001   5.291
 3428SOL    HW111183   5.396   6.043   5.257
 3428SOL    HW211184   5.324   5.971   5.385
 3429SOL     OW11185   6.932   0.419   1.448
 3429SOL    HW111186   6.961   0.499   1.501
 3429SOL    HW211187   6.908   0.448   1.355
 3430SOL     OW11188   2.226   4.518   5.505
 3430SOL    HW111189   2.254   4.472   5.420
 3430SOL    HW211190   2.308   4.547   5.555
 3431SOL     OW11191   2.392   5.862   2.714
 3431SOL    HW111192   2.430   5.890   2.802
 3431SOL    HW211193   2.458   5.883   2.641
 3432SOL     OW11194   2.696   4.356   0.721
 3432SOL    HW111195   2.779   4.333   0.772
 3432SOL    HW211196   2.641   4.273   0.707
 3433SOL     OW11197   2.511   1.239   6.448
 3433SOL    HW111198   2.491   1.250   6.545
 3433SOL    HW211199   2.603   1.201   6.437
 3434SOL     OW11200   3.111   1.918   1.667
 3434SOL    HW111201   3.109   1.834   1.721
 3434SOL    HW211202   3.151   1.992   1.722
 3435SOL     OW11203   1.818   0.640   0.576
 3435SOL    HW111204   1.765   0.646   0.491
 3435SOL    HW211205   1.839   0.544   0.595
 3436SOL     OW11206   3.441   5.839   0.951
 3436SOL    HW111207   3.428   5.772   0.878
 3436SOL    HW211208   3.504   5.910   0.921
 3437SOL     OW11209   1.133   6.515   5.986
 3437SOL    HW111210   1.109   6.611   5.969
 3437SOL    HW211211   1.139   6.500   6.085
 3438SOL     OW11212   1.311   4.184   1.218
 3438SOL    HW111213   1.213   4.163   1.215
 3438SOL    HW211214   1.347   4.190   1.125
 3439SOL     OW11215   1.939   5.654   2.481
 3439SOL    HW111216   1.955   5.638   2.384
 3439SOL    HW211217   1.853   5.704   2.493
 3440SOL     OW11218   3.985   3.596   4.517
 3440SOL    HW111219   4.045   3.517   4.520
 3440SOL    HW211220   3.964   3.619   4.422
 3441SOL     OW11221   5.632   5.798   5.455
 3441SOL    HW111222   5.673   5.851   5.381
 3441SOL    HW211223   5.542   5.838   5.478
 3442SOL     OW11224   3.712   2.980   1.674
 3442SOL    HW111225   3.777   2.971   1.598
 3442SOL    HW211226   3.662   3.066   1.665
 3443SOL     OW11227   2.207   5.905   2.468
 3443SOL    HW111228   2.250   5.868   2.551
 3443SOL    HW211229   2.109   5.918   2.484
 3444SOL     OW11230   5.835   4.075   1.407
 3444SOL    HW111231   5.917   4.095   1.352
 3444SOL    HW211232   5.858   4.081   1.504
 3445SOL     OW11233   6.148   4.384   3.591
 3445SOL    HW111234   6.245   4.401   3.577
 3445SOL    HW211235   6.095   4.465   3.566
 3446SOL     OW11236   5.000   0.934   1.429
 3446SOL    HW111237   4.963   0.953   1.520
 3446SOL    HW211238   5.033   1.018   1.388
 3447SOL     OW11239   4.759   1.015   0.498
 3447SOL    HW111240   4.812   1.084   0.449
 3447SOL    HW211241   4.689   0.978   0.437
 3448SOL     OW11242   1.392   6.183   4.913
 3448SOL    HW111243   1.354   6.112   4.853
 3448SOL    HW211244   1.326   6.258   4.921
 3449SOL     OW11245   6.579   4.318   5.255
 3449SOL    HW111246   6.588   4.257   5.176
 3449SOL    HW211247   6.551   4.265   5.335
 3450SOL     OW11248   1.309   6.443   0.264
 3450SOL    HW111249   1.243   6.513   0.292
 3450SOL    HW211250   1.381   6.485   0.209
 3451SOL     OW11251   2.067   6.035   0.882
 3451SOL    HW111252   2.131   5.978   0.933
 3451SOL    HW211253   2.040   6.114   0.937
 3452SOL     OW11254   4.896   0.251   5.519
 3452SOL    HW111255   4.817   0.250   5.457
 3452SOL    HW211256   4.975   0.291   5.473
 3453SOL     OW11257   5.236   6.479   5.826
 3453SOL    HW111258   5.283   6.527   5.752
 3453SOL    HW211259   5.138   6.475   5.805
 3454SOL     OW11260   1.291   2.438   2.445
 3454SOL    HW111261   1.246   2.410   2.361
 3454SOL    HW211262   1.380   2.477   2.424
 3455SOL     OW11263   1.483   3.663   5.929
 3455SOL    HW111264   1.582   3.647   5.921
 3455SOL    HW211265   1.463   3.758   5.904
 3456SOL     OW11266   5.201   4.076   2.497
 3456SOL    HW111267   5.134   4.148   2.477
 3456SOL    HW211268   5.258   4.105   2.574
 3457SOL     OW11269   3.867   5.776   5.232
 3457SOL    HW111270   3.962   5.802   5.247
 3457SOL    HW211271   3.827   5.746   5.319
 3458SOL     OW11272   4.388   1.791   2.955
 3458SOL    HW111273   4.479   1.776   2.915
 3458SOL    HW211274   4.381   1.742   3.041
 3459SOL     OW11275   4.097   0.382   3.060
 3459SOL    HW111276   4.012   0.433   3.064
 3459SOL    HW211277   4.101   0.317   3.137
 3460SOL     OW11278   4.002   2.198   5.614
 3460SOL    HW111279   3.913   2.153   5.614
 3460SOL    HW211280   4.012   2.252   5.698
 3461SOL     OW11281   5.248   4.739   6.343
 3461SOL    HW111282   5.238   4.670   6.272
 3461SOL    HW211283   5.279   4.697   6.427
 3462SOL     OW11284   2.599   3.432   6.732
 3462SOL    HW111285   2.594   3.339   6.767
 3462SOL    HW211286   2.507   3.469   6.723
 3463SOL     OW11287   6.473   4.314   1.049
 3463SOL    HW111288   6.473   4.391   0.985
 3463SOL    HW211289   6.559   4.313   1.100
 3464SOL     OW11290   0.038   4.925   5.982
 3464SOL    HW111291   0.093   4.842   5.993
 3464SOL    HW211292   7.008   4.937   6.063
 3465SOL     OW11293   1.921   0.343   1.899
 3465SOL    HW111294   1.982   0.318   1.823
 3465SOL    HW211295   1.945   0.289   1.979
 3466SOL     OW11296   6.610   3.615   5.142
 3466SOL    HW111297   6.627   3.557   5.063
 3466SOL    HW211298   6.638   3.709   5.122
 3467SOL     OW11299   1.606   2.477   6.536
 3467SOL    HW111300   1.612   2.575   6.514
 3467SOL    HW211301   1.560   2.430   6.461
 3468SOL     OW11302   3.377   0.510   3.968
 3468SOL    HW111303   3.308   0.489   4.037
 3468SOL    HW211304   3.334   0.550   3.888
 3469SOL     OW11305   5.909   2.461   3.123
 3469SOL    HW111306   5.821   2.449   3.169
 3469SOL    HW211307   5.966   2.523   3.176
 3470SOL     OW11308   0.420   5.689   0.873
 3470SOL    HW111309   0.498   5.740   0.838
 3470SOL    HW211310   0.448   5.595   0.894
 3471SOL     OW11311   4.029   5.949   4.663
 3471SOL    HW111312   3.988   5.945   4.571
 3471SOL    HW211313   3.956   5.946   4.731
 3472SOL     OW11314   3.272   0.956   5.097
 3472SOL    HW111315   3.360   0.914   5.117
 3472SOL    HW211316   3.284   1.027   5.028
 3473SOL     OW11317   5.724   0.939   6.051
 3473SOL    HW111318   5.821   0.936   6.077
 3473SOL    HW211319   5.710   0.888   5.967
 3474SOL     OW11320   3.984   5.074   1.915
 3474SOL    HW111321   3.956   5.015   1.991
 3474SOL    HW211322   3.904   5.101   1.862
 3475SOL     OW11323   1.302   5.606   4.341
 3475SOL    HW111324   1.239   5.575   4.270
 3475SOL    HW211325   1.394   5.610   4.304
 3476SOL     OW11326   4.447   0.821   4.145
 3476SOL    HW111327   4.455   0.725   4.169
 3476SOL    HW211328   4.450   0.832   4.045
 3477SOL     OW11329   3.829   6.248   1.059
 3477SOL    HW111330   3.809   6.326   1.000
 3477SOL    HW211331   3.861   6.172   1.004
 3478SOL     OW11332   3.873   5.496   6.915
 3478SOL    HW111333   3.830   5.428   6.974
 3478SOL    HW211334   3.918   5.450   6.838
 3479SOL     OW11335   1.019   0.595   1.676
 3479SOL    HW111336   1.053   0.556   1.590
 3479SOL    HW211337   0.948   0.535   1.714
 3480SOL     OW11338   0.557   1.563   3.136
 3480SOL    HW111339   0.478   1.602   3.184
 3480SOL    HW211340   0.563   1.465   3.157
 3481SOL     OW11341   2.414   6.566   6.587
 3481SOL    HW111342   2.476   6.589   6.661
 3481SOL    HW211343   2.342   6.635   6.581
 3482SOL     OW11344   0.127   2.216   0.638
 3482SOL    HW111345   0.158   2.200   0.544
 3482SOL    HW211346   0.113   2.314   0.652
 3483SOL     OW11347   2.091   0.579   1.323
 3483SOL    HW111348   2.014   0.582   1.387
 3483SOL    HW211349   2.174   0.608   1.371
 3484SOL     OW11350   3.733   3.133   3.835
 3484SOL    HW111351   3.797   3.183   3.777
 3484SOL    HW211352   3.785   3.076   3.900
 3485SOL     OW11353   1.333   3.232   5.278
 3485SOL    HW111354   1.418   3.196   5.317
 3485SOL    HW211355   1.337   3.332   5.276
 3486SOL     OW11356   4.433   2.027   1.697
 3486SOL    HW111357   4.395   1.941   1.730
 3486SOL    HW211358   4.432   2.095   1.771
 3487SOL     OW11359   6.202   1.869   6.321
 3487SOL    HW111360   6.226   1.955   6.366
 3487SOL    HW211361   6.247   1.864   6.232
 3488SOL     OW11362   5.729   3.537   3.704
 3488SOL    HW111363   5.818   3.556   3.746
 3488SOL    HW211364   5.737   3.544   3.605
 3489SOL     OW11365   3.268   0.567   1.254
 3489SOL    HW111366   3.179   0.524   1.266
 3489SOL    HW211367   3.265   0.629   1.176
 3490SOL     OW11368   4.638   3.842   0.297
 3490SOL    HW111369   4.673   3.922   0.249
 3490SOL    HW211370   4.682   3.835   0.386
 3491SOL     OW11371   0.522   3.098   5.677
 3491SOL    HW111372   0.580   3.022   5.648
 3491SOL    HW211373   0.538   3.117   5.774
 3492SOL     OW11374   0.079   4.724   6.555
 3492SOL    HW111375   0.048   4.818   6.543
 3492SOL    HW211376   0.002   4.661   6.542
 3493SOL     OW11377   6.486   4.510   0.870
 3493SOL    HW111378   6.583   4.535   0.863
 3493SOL    HW211379   6.449   4.495   0.779
 3494SOL     OW11380   3.127   0.435   1.636
 3494SOL    HW111381   3.154   0.527   1.662
 3494SOL    HW211382   3.058   0.439   1.564
 3495SOL     OW11383   4.753   4.931   1.262
 3495SOL    HW111384   4.765   4.865   1.336
 3495SOL    HW211385   4.736   5.022   1.300
 3496SOL     OW11386   1.889   2.925   0.589
 3496SOL    HW111387   1.848   2.869   0.517
 3496SOL    HW211388   1.943   2.866   0.650
 3497SOL     OW11389   4.473   0.673   3.912
 3497SOL    HW111390   4.457   0.636   3.821
 3497SOL    HW211391   4.569   0.662   3.937
 3498SOL     OW11392   2.752   1.518   1.593
 3498SOL    HW111393   2.830   1.575   1.567
 3498SOL    HW211394   2.785   1.428   1.623
 3499SOL     OW11395   6.698   2.818   4.594
 3499SOL    HW111396   6.739   2.904   4.625
 3499SOL    HW211397   6.697   2.752   4.670
 3500SOL     OW11398   6.208   4.079   6.964
 3500SOL    HW111399   6.127   4.032   6.930
 3500SOL    HW211400   6.290   4.025   6.942
 3501SOL     OW11401   1.920   4.271   4.911
 3501SOL    HW111402   2.012   4.252   4.877
 3501SOL    HW211403   1.927   4.319   4.999
 3502SOL     OW11404   0.901   2.195   0.668
 3502SOL    HW111405   0.996   2.202   0.638
 3502SOL    HW211406   0.868   2.102   0.652
 3503SOL     OW11407   4.907   5.941   5.387
 3503SOL    HW111408   4.924   5.951   5.289
 3503SOL    HW211409   4.915   6.030   5.431
 3504SOL     OW11410   2.233   3.255   1.701
 3504SOL    HW111411   2.278   3.323   1.760
 3504SOL    HW211412   2.294   3.178   1.686
 3505SOL     OW11413   5.435   5.526   5.508
 3505SOL    HW111414   5.439   5.591   5.432
 3505SOL    HW211415   5.428   5.575   5.595
 3506SOL     OW11416   4.878   5.293   3.044
 3506SOL    HW111417   4.808   5.311   3.112
 3506SOL    HW211418   4.835   5.270   2.956
 3507SOL     OW11419   1.024   0.090   6.602
 3507SOL    HW111420   0.969   0.053   6.677
 3507SOL    HW211421   0.963   0.119   6.528
 3508SOL     OW11422   5.422   3.852   6.788
 3508SOL    HW111423   5.487   3.870   6.863
 3508SOL    HW211424   5.338   3.813   6.826
 3509SOL     OW11425   6.522   6.053   6.821
 3509SOL    HW111426   6.485   6.095   6.904
 3509SOL    HW211427   6.577   5.973   6.846
 3510SOL     OW11428   2.433   2.064   1.785
 3510SOL    HW111429   2.418   2.159   1.760
 3510SOL    HW211430   2.531   2.046   1.788
 3511SOL     OW11431   0.362   2.678   6.715
 3511SOL    HW111432   0.308   2.631   6.646
 3511SOL    HW211433   0.301   2.726   6.778
 3512SOL     OW11434   2.969   2.977   0.617
 3512SOL    HW111435   3.038   2.905   0.619
 3512SOL    HW211436   2.926   2.980   0.527
 3513SOL     OW11437   6.570   4.175   1.445
 3513SOL    HW111438   6.639   4.108   1.474
 3513SOL    HW211439   6.526   4.215   1.526
 3514SOL     OW11440   0.755   6.324   0.950
 3514SOL    HW111441   0.803   6.406   0.918
 3514SOL    HW211442   0.694   6.348   1.025
 3515SOL     OW11443   3.121   6.219   3.393
 3515SOL    HW111444   3.216   6.197   3.416
 3515SOL    HW211445   3.064   6.210   3.475
 3516SOL     OW11446   2.927   0.986   0.737
 3516SOL    HW111447   2.857   1.057   0.751
 3516SOL    HW211448   3.017   1.026   0.750
 3517SOL     OW11449   1.202   1.403   6.291
 3517SOL    HW111450   1.250   1.453   6.219
 3517SOL    HW211451   1.215   1.449   6.378
 3518SOL     OW11452   4.596   3.362   6.198
 3518SOL    HW111453   4.568   3.458   6.195
 3518SOL    HW211454   4.555   3.318   6.278
 3519SOL     OW11455   2.104   6.720   6.344
 3519SOL    HW111456   2.119   6.802   6.399
 3519SOL    HW211457   2.018   6.729   6.294
 3520SOL     OW11458   3.855   5.719   1.381
 3520SOL    HW111459   3.901   5.650   1.325
 3520SOL    HW211460   3.779   5.677   1.430
 3521SOL     OW11461   5.741   2.192   1.642
 3521SOL    HW111462   5.705   2.278   1.606
 3521SOL    HW211463   5.680   2.156   1.712
 3522SOL     OW11464   3.412   4.917   2.424
 3522SOL    HW111465   3.444   5.011   2.410
 3522SOL    HW211466   3.491   4.858   2.442
 3523SOL     OW11467   2.977   4.840   4.669
 3523SOL    HW111468   2.900   4.795   4.714
 3523SOL    HW211469   2.962   4.939   4.668
 3524SOL     OW11470   2.558   0.304   0.708
 3524SOL    HW111471   2.543   0.207   0.691
 3524SOL    HW211472   2.610   0.344   0.632
 3525SOL     OW11473   0.733   2.936   2.069
 3525SOL    HW111474   0.820   2.963   2.110
 3525SOL    HW211475   0.702   3.007   2.006
 3526SOL     OW11476   1.240   0.657   2.330
 3526SOL    HW111477   1.146   0.661   2.362
 3526SOL    HW211478   1.244   0.607   2.243
 3527SOL     OW11479   5.550   3.350   6.286
 3527SOL    HW111480   5.647   3.337   6.265
 3527SOL    HW211481   5.523   3.444   6.264
 3528SOL     OW11482   0.698   6.579   3.664
 3528SOL    HW111483   0.772   6.583   3.597
 3528SOL    HW211484   0.629   6.649   3.642
 3529SOL     OW11485   4.439   6.613   5.905
 3529SOL    HW111486   4.354   6.563   5.924
 3529SOL    HW211487   4.513   6.577   5.961
 3530SOL     OW11488   2.511   5.605   2.600
 3530SOL    HW111489   2.417   5.615   2.633
 3530SOL    HW211490   2.539   5.688   2.553
 3531SOL     OW11491   5.963   4.563   0.532
 3531SOL    HW111492   5.943   4.470   0.562
 3531SOL    HW211493   6.044   4.597   0.579
 3532SOL     OW11494   2.410   0.215   6.864
 3532SOL    HW111495   2.498   0.176   6.891
 3532SOL    HW211496   2.339   0.145   6.870
 3533SOL     OW11497   1.292   1.577   3.656
 3533SOL    HW111498   1.289   1.637   3.735
 3533SOL    HW211499   1.203   1.577   3.610
 3534SOL     OW11500   4.942   1.116   4.507
 3534SOL    HW111501   4.983   1.129   4.416
 3534SOL    HW211502   4.862   1.174   4.516
 3535SOL     OW11503   5.390   5.355   6.004
 3535SOL    HW111504   5.457   5.281   6.003
 3535SOL    HW211505   5.432   5.439   5.971
 3536SOL     OW11506   1.869   3.625   2.880
 3536SOL    HW111507   1.858   3.545   2.820
 3536SOL    HW211508   1.792   3.687   2.866
 3537SOL     OW11509   1.787   5.212   0.677
 3537SOL    HW111510   1.854   5.178   0.611
 3537SOL    HW211511   1.824   5.292   0.724
 3538SOL     OW11512   2.881   0.257   3.557
 3538SOL    HW111513   2.938   0.338   3.573
 3538SOL    HW211514   2.844   0.260   3.465
 3539SOL     OW11515   4.990   4.761   6.208
 3539SOL    HW111516   4.916   4.778   6.273
 3539SOL    HW211517   5.078   4.780   6.252
 3540SOL     OW11518   3.376   3.370   6.740
 3540SOL    HW111519   3.320   3.289   6.721
 3540SOL    HW211520   3.326   3.452   6.714
 3541SOL     OW11521   2.959   2.208   0.875
 3541SOL    HW111522   3.045   2.202   0.926
 3541SOL    HW211523   2.922   2.301   0.883
 3542SOL     OW11524   5.542   2.064   6.345
 3542SOL    HW111525   5.619   2.064   6.281
 3542SOL    HW211526   5.574   2.038   6.436
 3543SOL     OW11527   1.950   2.453   3.396
 3543SOL    HW111528   1.855   2.469   3.371
 3543SOL    HW211529   2.006   2.448   3.313
 3544SOL     OW11530   2.716   4.453   5.897
 3544SOL    HW111531   2.623   4.475   5.868
 3544SOL    HW211532   2.743   4.364   5.859
 3545SOL     OW11533   3.266   0.170   1.065
 3545SOL    HW111534   3.241   0.098   1.001
 3545SOL    HW211535   3.186   0.196   1.120
 3546SOL     OW11536   6.681   3.555   3.136
 3546SOL    HW111537   6.723   3.610   3.209
 3546SOL    HW211538   6.708   3.591   3.047
 3547SOL     OW11539   0.318   3.406   5.889
 3547SOL    HW111540   0.285   3.475   5.954
 3547SOL    HW211541   0.245   3.341   5.869
 3548SOL     OW11542   5.649   0.991   5.675
 3548SOL    HW111543   5.714   0.920   5.700
 3548SOL    HW211544   5.651   1.004   5.576
 3549SOL     OW11545   2.442   5.479   6.381
 3549SOL    HW111546   2.461   5.381   6.388
 3549SOL    HW211547   2.523   5.526   6.345
 3550SOL     OW11548   4.964   1.207   4.952
 3550SOL    HW111549   5.014   1.194   5.038
 3550SOL    HW211550   4.866   1.197   4.969
 3551SOL     OW11551   4.240   2.351   4.458
 3551SOL    HW111552   4.307   2.278   4.471
 3551SOL    HW211553   4.261   2.427   4.520
 3552SOL     OW11554   0.198   6.138   3.075
 3552SOL    HW111555   0.210   6.039   3.069
 3552SOL    HW211556   0.136   6.160   3.151
 3553SOL     OW11557   3.990   5.150   6.727
 3553SOL    HW111558   3.958   5.083   6.659
 3553SOL    HW211559   3.966   5.242   6.698
 3554SOL     OW11560   4.590   3.575   1.726
 3554SOL    HW111561   4.527   3.649   1.703
 3554SOL    HW211562   4.677   3.613   1.756
 3555SOL     OW11563   2.200   2.179   4.221
 3555SOL    HW111564   2.181   2.117   4.297
 3555SOL    HW211565   2.127   2.247   4.215
 3556SOL     OW11566   4.259   1.008   5.352
 3556SOL    HW111567   4.224   0.941   5.417
 3556SOL    HW211568   4.183   1.048   5.300
 3557SOL     OW11569   6.338   1.724   1.548
 3557SOL    HW111570   6.366   1.711   1.643
 3557SOL    HW211571   6.262   1.663   1.527
 3558SOL     OW11572   3.011   6.921   1.155
 3558SOL    HW111573   2.987   6.944   1.061
 3558SOL    HW211574   2.931   6.881   1.201
 3559SOL     OW11575   4.007   6.286   4.587
 3559SOL    HW111576   4.095   6.263   4.545
 3559SOL    HW211577   3.974   6.373   4.550
 3560SOL     OW11578   1.843   5.924   4.874
 3560SOL    HW111579   1.918   5.903   4.937
 3560SOL    HW211580   1.757   5.931   4.925
 3561SOL     OW11581   5.090   4.276   5.199
 3561SOL    HW111582   5.100   4.187   5.244
 3561SOL    HW211583   5.114   4.268   5.102
 3562SOL     OW11584   2.450   1.514   5.528
 3562SOL    HW111585   2.487   1.607   5.525
 3562SOL    HW211586   2.373   1.506   5.464
 3563SOL     OW11587   5.740   2.535   5.567
 3563SOL    HW111588   5.827   2.514   5.611
 3563SOL    HW211589   5.721   2.467   5.497
 3564SOL     OW11590   6.769   4.330   2.416
 3564SOL    HW111591   6.763   4.375   2.327
 3564SOL    HW211592   6.727   4.388   2.485
 3565SOL     OW11593   3.766   6.134   3.623
 3565SOL    HW111594   3.765   6.084   3.536
 3565SOL    HW211595   3.855   6.123   3.666
 3566SOL     OW11596   0.198   1.459   5.670
 3566SOL    HW111597   0.132   1.500   5.607
 3566SOL    HW211598   0.279   1.517   5.675
 3567SOL     OW11599   0.064   4.794   6.827
 3567SOL    HW111600   0.066   4.762   6.732
 3567SOL    HW211601   0.075   4.716   6.888
 3568SOL     OW11602   6.338   3.699   6.132
 3568SOL    HW111603   6.380   3.643   6.060
 3568SOL    HW211604   6.348   3.652   6.220
 3569SOL     OW11605   2.418   2.479   5.470
 3569SOL    HW111606   2.468   2.400   5.434
 3569SOL    HW211607   2.482   2.551   5.494
 3570SOL     OW11608   6.744   1.389   4.180
 3570SOL    HW111609   6.798   1.375   4.096
 3570SOL    HW211610   6.647   1.381   4.158
 3571SOL     OW11611   6.509   5.478   6.384
 3571SOL    HW111612   6.479   5.393   6.429
 3571SOL    HW211613   6.534   5.545   6.453
 3572SOL     OW11614   5.646   3.591   4.862
 3572SOL    HW111615   5.646   3.601   4.961
 3572SOL    HW211616   5.699   3.665   4.821
 3573SOL     OW11617   1.204   3.565   3.141
 3573SOL    HW111618   1.293   3.545   3.182
 3573SOL    HW211619   1.217   3.603   3.049
 3574SOL     OW11620   0.378   4.327   0.507
 3574SOL    HW111621   0.299   4.386   0.524
 3574SOL    HW211622   0.366   4.241   0.556
 3575SOL     OW11623   6.393   5.644   2.879
 3575SOL    HW111624   6.362   5.556   2.914
 3575SOL    HW211625   6.472   5.631   2.819
 3576SOL     OW11626   0.603   1.399   6.124
 3576SOL    HW111627   0.645   1.312   6.150
 3576SOL    HW211628   0.581   1.399   6.027
 3577SOL     OW11629   0.654   2.694   6.314
 3577SOL    HW111630   0.686   2.632   6.242
 3577SOL    HW211631   0.731   2.720   6.372
 3578SOL     OW11632   3.126   4.801   6.996
 3578SOL    HW111633   3.191   4.728   6.976
 3578SOL    HW211634   3.167   4.865   0.034
 3579SOL     OW11635   6.626   3.066   4.953
 3579SOL    HW111636   6.640   3.123   5.034
 3579SOL    HW211637   6.546   3.098   4.903
 3580SOL     OW11638   6.150   1.734   2.025
 3580SOL    HW111639   6.191   1.782   1.948
 3580SOL    HW211640   6.221   1.710   2.091
 3581SOL     OW11641   7.002   0.493   2.375
 3581SOL    HW111642   0.070   0.492   2.403
 3581SOL    HW211643   6.952   0.560   2.431
 3582SOL     OW11644   0.991   0.457   6.147
 3582SOL    HW111645   1.021   0.551   6.165
 3582SOL    HW211646   1.042   0.421   6.069
 3583SOL     OW11647   0.936   4.357   6.834
 3583SOL    HW111648   0.969   4.328   6.924
 3583SOL    HW211649   0.877   4.436   6.844
 3584SOL     OW11650   5.430   6.546   6.781
 3584SOL    HW111651   5.507   6.574   6.723
 3584SOL    HW211652   5.386   6.465   6.741
 3585SOL     OW11653   3.947   4.877   4.247
 3585SOL    HW111654   4.039   4.841   4.232
 3585SOL    HW211655   3.920   4.860   4.342
 3586SOL     OW11656   6.401   3.207   5.966
 3586SOL    HW111657   6.484   3.188   5.914
 3586SOL    HW211658   6.416   3.184   6.062
 3587SOL     OW11659   3.548   6.755   0.754
 3587SOL    HW111660   3.494   6.827   0.798
 3587SOL    HW211661   3.637   6.792   0.729
 3588SOL     OW11662   1.717   2.065   5.774
 3588SOL    HW111663   1.632   2.097   5.733
 3588SOL    HW211664   1.697   2.014   5.858
 3589SOL     OW11665   3.003   0.958   5.158
 3589SOL    HW111666   3.092   0.967   5.112
 3589SOL    HW211667   2.930   0.984   5.095
 3590SOL     OW11668   1.503   5.399   5.994
 3590SOL    HW111669   1.454   5.359   5.916
 3590SOL    HW211670   1.577   5.338   6.022
 3591SOL     OW11671   5.371   2.790   5.789
 3591SOL    HW111672   5.384   2.863   5.722
 3591SOL    HW211673   5.416   2.816   5.875
 3592SOL     OW11674   5.167   3.219   2.809
 3592SOL    HW111675   5.153   3.224   2.710
 3592SOL    HW211676   5.163   3.123   2.838
 3593SOL     OW11677   2.256   6.877   4.200
 3593SOL    HW111678   2.323   6.939   4.158
 3593SOL    HW211679   2.304   6.798   4.238
 3594SOL     OW11680   2.396   1.028   3.436
 3594SOL    HW111681   2.339   1.068   3.365
 3594SOL    HW211682   2.339   0.978   3.501
 3595SOL     OW11683   2.221   6.368   6.180
 3595SOL    HW111684   2.289   6.404   6.245
 3595SOL    HW211685   2.211   6.270   6.194
 3596SOL     OW11686   6.444   1.084   2.114
 3596SOL    HW111687   6.406   1.152   2.176
 3596SOL    HW211688   6.373   1.017   2.090
 3597SOL     OW11689   4.275   6.249   4.463
 3597SOL    HW111690   4.280   6.162   4.414
 3597SOL    HW211691   4.330   6.243   4.546
 3598SOL     OW11692   0.955   7.026   6.132
 3598SOL    HW111693   0.952   0.016   6.033
 3598SOL    HW211694   0.874   0.038   6.175
 3599SOL     OW11695   6.725   2.164   4.817
 3599SOL    HW111696   6.762   2.188   4.728
 3599SOL    HW211697   6.652   2.097   4.806
 3600SOL     OW11698   6.255   3.082   1.528
 3600SOL    HW111699   6.323   3.140   1.573
 3600SOL    HW211700   6.293   3.044   1.444
 3601SOL     OW11701   0.323   3.481   0.087
 3601SOL    HW111702   0.365   3.413   0.148
 3601SOL    HW211703   0.253   3.436   0.031
 3602SOL     OW11704   1.816   0.859   0.061
 3602SOL    HW111705   1.862   0.886   0.146
 3602SOL    HW211706   1.808   0.759   0.058
 3603SOL     OW11707   3.976   4.849   3.968
 3603SOL    HW111708   3.953   4.862   4.064
 3603SOL    HW211709   4.053   4.786   3.961
 3604SOL     OW11710   6.698   2.321   2.505
 3604SOL    HW111711   6.653   2.346   2.590
 3604SOL    HW211712   6.768   2.251   2.524
 3605SOL     OW11713   6.052   4.235   6.312
 3605SOL    HW111714   6.122   4.263   6.246
 3605SOL    HW211715   6.084   4.254   6.405
 3606SOL     OW11716   6.751   4.359   5.547
 3606SOL    HW111717   6.754   4.424   5.472
 3606SOL    HW211718   6.734   4.407   5.633
 3607SOL     OW11719   5.210   0.932   0.616
 3607SOL    HW111720   5.125   0.883   0.635
 3607SOL    HW211721   5.202   1.026   0.648
 3608SOL     OW11722   0.536   1.860   1.627
 3608SOL    HW111723   0.611   1.795   1.609
 3608SOL    HW211724   0.489   1.880   1.541
 3609SOL     OW11725   6.661   0.749   4.493
 3609SOL    HW111726   6.566   0.742   4.524
 3609SOL    HW211727   6.701   0.834   4.527
 3610SOL     OW11728   0.439   6.615   5.296
 3610SOL    HW111729   0.499   6.654   5.366
 3610SOL    HW211730   0.424   6.518   5.315
 3611SOL     OW11731   3.529   5.323   5.340
 3611SOL    HW111732   3.523   5.335   5.439
 3611SOL    HW211733   3.539   5.225   5.319
 3612SOL     OW11734   1.127   6.220   6.785
 3612SOL    HW111735   1.184   6.297   6.811
 3612SOL    HW211736   1.033   6.251   6.771
 3613SOL     OW11737   4.901   4.899   0.501
 3613SOL    HW111738   4.838   4.877   0.575
 3613SOL    HW211739   4.993   4.868   0.527
 3614SOL     OW11740   3.999   3.515   3.726
 3614SOL    HW111741   4.040   3.458   3.655
 3614SOL    HW211742   3.900   3.499   3.730
 3615SOL     OW11743   6.146   5.127   5.648
 3615SOL    HW111744   6.166   5.049   5.707
 3615SOL    HW211745   6.047   5.144   5.648
 3616SOL     OW11746   6.801   2.137   6.497
 3616SOL    HW111747   6.734   2.063   6.500
 3616SOL    HW211748   6.766   2.215   6.548
 3617SOL     OW11749   6.062   2.451   6.702
 3617SOL    HW111750   5.963   2.458   6.704
 3617SOL    HW211751   6.093   2.445   6.607
 3618SOL     OW11752   1.724   1.445   5.618
 3618SOL    HW111753   1.704   1.451   5.716
 3618SOL    HW211754   1.761   1.532   5.585
 3619SOL     OW11755   6.067   2.449   3.871
 3619SOL    HW111756   5.993   2.385   3.850
 3619SOL    HW211757   6.070   2.465   3.970
 3620SOL     OW11758   5.717   0.344   5.657
 3620SOL    HW111759   5.708   0.305   5.748
 3620SOL    HW211760   5.642   0.313   5.600
 3621SOL     OW11761   2.802   2.780   5.827
 3621SOL    HW111762   2.840   2.711   5.766
 3621SOL    HW211763   2.703   2.772   5.830
 3622SOL     OW11764   0.718   1.454   2.738
 3622SOL    HW111765   0.759   1.407   2.816
 3622SOL    HW211766   0.636   1.503   2.769
 3623SOL     OW11767   5.760   5.178   4.264
 3623SOL    HW111768   5.785   5.256   4.207
 3623SOL    HW211769   5.717   5.107   4.208
 3624SOL     OW11770   2.330   6.490   3.200
 3624SOL    HW111771   2.369   6.569   3.246
 3624SOL    HW211772   2.366   6.406   3.241
 3625SOL     OW11773   6.359   3.504   5.906
 3625SOL    HW111774   6.286   3.549   5.854
 3625SOL    HW211775   6.379   3.415   5.865
 3626SOL     OW11776   2.110   3.465   4.957
 3626SOL    HW111777   2.114   3.449   5.056
 3626SOL    HW211778   2.130   3.561   4.938
 3627SOL     OW11779   3.831   3.962   3.272
 3627SOL    HW111780   3.849   3.884   3.332
 3627SOL    HW211781   3.823   4.045   3.327
 3628SOL     OW11782   2.264   5.665   1.864
 3628SOL    HW111783   2.230   5.571   1.868
 3628SOL    HW211784   2.187   5.728   1.872
 3629SOL     OW11785   6.201   2.380   5.537
 3629SOL    HW111786   6.174   2.476   5.544
 3629SOL    HW211787   6.268   2.358   5.607
 3630SOL     OW11788   5.743   2.180   4.579
 3630SOL    HW111789   5.729   2.187   4.481
 3630SOL    HW211790   5.706   2.260   4.625
 3631SOL     OW11791   2.490   0.072   4.677
 3631SOL    HW111792   2.460   0.088   4.582
 3631SOL    HW211793   2.578   0.024   4.676
 3632SOL     OW11794   5.355   0.735   1.097
 3632SOL    HW111795   5.336   0.703   1.190
 3632SOL    HW211796   5.405   0.821   1.101
 3633SOL     OW11797   2.732   2.466   5.877
 3633SOL    HW111798   2.804   2.404   5.846
 3633SOL    HW211799   2.644   2.439   5.836
 3634SOL     OW11800   0.805   6.643   4.580
 3634SOL    HW111801   0.711   6.623   4.607
 3634SOL    HW211802   0.841   6.717   4.637
 3635SOL     OW11803   3.112   1.352   5.076
 3635SOL    HW111804   3.021   1.324   5.106
 3635SOL    HW211805   3.106   1.438   5.025
 3636SOL     OW11806   0.242   5.972   6.115
 3636SOL    HW111807   0.290   5.884   6.109
 3636SOL    HW211808   0.177   5.969   6.191
 3637SOL     OW11809   6.078   2.207   0.956
 3637SOL    HW111810   6.056   2.301   0.930
 3637SOL    HW211811   5.996   2.164   0.994
 3638SOL     OW11812   6.573   4.437   4.343
 3638SOL    HW111813   6.668   4.456   4.318
 3638SOL    HW211814   6.513   4.461   4.267
 3639SOL     OW11815   3.714   3.553   1.057
 3639SOL    HW111816   3.772   3.568   0.977
 3639SOL    HW211817   3.754   3.481   1.114
 3640SOL     OW11818   3.671   6.279   6.870
 3640SOL    HW111819   3.728   6.203   6.902
 3640SOL    HW211820   3.576   6.263   6.897
 3641SOL     OW11821   3.543   1.540   4.517
 3641SOL    HW111822   3.557   1.605   4.443
 3641SOL    HW211823   3.466   1.480   4.494
 3642SOL     OW11824   4.803   1.145   5.709
 3642SOL    HW111825   4.766   1.056   5.739
 3642SOL    HW211826   4.863   1.132   5.630
 3643SOL     OW11827   3.463   5.679   4.408
 3643SOL    HW111828   3.378   5.727   4.386
 3643SOL    HW211829   3.456   5.637   4.498
 3644SOL     OW11830   0.127   1.917   1.280
 3644SOL    HW111831   0.134   1.932   1.379
 3644SOL    HW211832   0.162   1.826   1.259
 3645SOL     OW11833   5.590   1.506   3.724
 3645SOL    HW111834   5.659   1.541   3.787
 3645SOL    HW211835   5.520   1.456   3.775
 3646SOL     OW11836   6.717   4.558   5.312
 3646SOL    HW111837   6.661   4.627   5.359
 3646SOL    HW211838   6.659   4.481   5.286
 3647SOL     OW11839   1.519   3.167   0.223
 3647SOL    HW111840   1.590   3.124   0.167
 3647SOL    HW211841   1.474   3.097   0.280
 3648SOL     OW11842   4.125   5.522   2.636
 3648SOL    HW111843   4.174   5.435   2.640
 3648SOL    HW211844   4.167   5.581   2.567
 3649SOL     OW11845   4.191   3.301   0.846
 3649SOL    HW111846   4.092   3.309   0.859
 3649SOL    HW211847   4.235   3.388   0.869
 3650SOL     OW11848   6.474   6.098   1.153
 3650SOL    HW111849   6.459   6.081   1.056
 3650SOL    HW211850   6.394   6.066   1.205
 3651SOL     OW11851   0.389   6.014   2.217
 3651SOL    HW111852   0.301   5.990   2.256
 3651SOL    HW211853   0.376   6.080   2.143
 3652SOL     OW11854   4.764   6.487   3.333
 3652SOL    HW111855   4.854   6.526   3.354
 3652SOL    HW211856   4.702   6.561   3.305
 3653SOL     OW11857   6.435   1.272   3.264
 3653SOL    HW111858   6.451   1.187   3.214
 3653SOL    HW211859   6.436   1.254   3.362
 3654SOL     OW11860   2.098   6.470   0.927
 3654SOL    HW111861   2.059   6.434   0.842
 3654SOL    HW211862   2.196   6.451   0.928
 3655SOL     OW11863   1.332   6.817   3.932
 3655SOL    HW111864   1.320   6.816   4.031
 3655SOL    HW211865   1.244   6.807   3.887
 3656SOL     OW11866   1.750   2.165   1.593
 3656SOL    HW111867   1.764   2.256   1.556
 3656SOL    HW211868   1.837   2.128   1.626
 3657SOL     OW11869   4.299   5.529   6.629
 3657SOL    HW111870   4.377   5.485   6.675
 3657SOL    HW211871   4.331   5.575   6.546
 3658SOL     OW11872   1.045   5.837   5.299
 3658SOL    HW111873   0.965   5.783   5.325
 3658SOL    HW211874   1.127   5.797   5.340
 3659SOL     OW11875   2.448   4.309   6.791
 3659SOL    HW111876   2.479   4.290   6.884
 3659SOL    HW211877   2.527   4.316   6.730
 3660SOL     OW11878   4.572   6.355   2.170
 3660SOL    HW111879   4.488   6.363   2.116
 3660SOL    HW211880   4.548   6.329   2.264
 3661SOL     OW11881   4.957   2.560   6.560
 3661SOL    HW111882   4.987   2.593   6.471
 3661SOL    HW211883   4.879   2.499   6.548
 3662SOL     OW11884   3.637   6.818   4.745
 3662SOL    HW111885   3.578   6.739   4.735
 3662SOL    HW211886   3.587   6.901   4.719
 3663SOL     OW11887   1.266   1.595   0.345
 3663SOL    HW111888   1.294   1.502   0.368
 3663SOL    HW211889   1.305   1.659   0.412
 3664SOL     OW11890   4.872   1.525   0.432
 3664SOL    HW111891   4.935   1.578   0.375
 3664SOL    HW211892   4.783   1.519   0.386
 3665SOL     OW11893   0.166   5.880   5.558
 3665SOL    HW111894   0.117   5.888   5.645
 3665SOL    HW211895   0.114   5.925   5.486
 3666SOL     OW11896   1.668   4.453   4.061
 3666SOL    HW111897   1.687   4.533   4.003
 3666SOL    HW211898   1.754   4.421   4.101
 3667SOL     OW11899   5.992   0.665   0.148
 3667SOL    HW111900   5.910   0.699   0.193
 3667SOL    HW211901   6.037   0.598   0.207
 3668SOL     OW11902   1.434   6.587   2.452
 3668SOL    HW111903   1.437   6.659   2.521
 3668SOL    HW211904   1.505   6.520   2.472
 3669SOL     OW11905   5.863   1.465   4.368
 3669SOL    HW111906   5.957   1.487   4.395
 3669SOL    HW211907   5.803   1.477   4.447
 3670SOL     OW11908   2.227   5.615   0.278
 3670SOL    HW111909   2.229   5.713   0.258
 3670SOL    HW211910   2.285   5.567   0.211
 3671SOL     OW11911   6.421   0.563   3.107
 3671SOL    HW111912   6.399   0.622   3.184
 3671SOL    HW211913   6.410   0.468   3.133
 3672SOL     OW11914   6.032   2.052   0.578
 3672SOL    HW111915   6.006   1.979   0.641
 3672SOL    HW211916   5.953   2.077   0.522
 3673SOL     OW11917   4.119   1.043   6.282
 3673SOL    HW111918   4.022   1.024   6.297
 3673SOL    HW211919   4.172   1.004   6.358
 3674SOL     OW11920   0.520   6.671   6.519
 3674SOL    HW111921   0.494   6.619   6.601
 3674SOL    HW211922   0.502   6.616   6.438
 3675SOL     OW11923   1.805   2.463   5.035
 3675SOL    HW111924   1.726   2.407   5.061
 3675SOL    HW211925   1.881   2.402   5.009
 3676SOL     OW11926   4.096   5.204   4.073
 3676SOL    HW111927   4.139   5.179   3.987
 3676SOL    HW211928   3.997   5.210   4.060
 3677SOL     OW11929   0.901   5.815   3.187
 3677SOL    HW111930   0.916   5.866   3.102
 3677SOL    HW211931   0.983   5.761   3.208
 3678SOL     OW11932   0.792   2.650   3.558
 3678SOL    HW111933   0.853   2.698   3.494
 3678SOL    HW211934   0.757   2.715   3.625
 3679SOL     OW11935   0.308   0.740   2.484
 3679SOL    HW111936   0.396   0.777   2.516
 3679SOL    HW211937   0.291   0.771   2.391
 3680SOL     OW11938   6.247   3.154   3.802
 3680SOL    HW111939   6.344   3.142   3.824
 3680SOL    HW211940   6.213   3.074   3.753
 3681SOL     OW11941   0.777   0.761   5.985
 3681SOL    HW111942   0.706   0.712   5.934
 3681SOL    HW211943   0.863   0.756   5.935
 3682SOL     OW11944   5.979   2.406   5.698
 3682SOL    HW111945   5.929   2.320   5.691
 3682SOL    HW211946   6.058   2.403   5.636
 3683SOL     OW11947   6.665   0.215   4.841
 3683SOL    HW111948   6.626   0.169   4.920
 3683SOL    HW211949   6.642   0.164   4.758
 3684SOL     OW11950   1.948   3.025   1.477
 3684SOL    HW111951   1.951   3.097   1.547
 3684SOL    HW211952   2.028   3.033   1.418
 3685SOL     OW11953   6.430   6.133   5.920
 3685SOL    HW111954   6.331   6.143   5.920
 3685SOL    HW211955   6.461   6.100   6.009
 3686SOL     OW11956   6.257   5.086   2.986
 3686SOL    HW111957   6.252   5.076   2.887
 3686SOL    HW211958   6.165   5.095   3.024
 3687SOL     OW11959   3.215   6.481   5.989
 3687SOL    HW111960   3.258   6.465   5.900
 3687SOL    HW211961   3.119   6.450   5.986
 3688SOL     OW11962   0.972   4.010   0.063
 3688SOL    HW111963   0.978   3.923   0.111
 3688SOL    HW211964   1.034   4.076   0.106
 3689SOL     OW11965   0.979   0.459   5.147
 3689SOL    HW111966   0.916   0.495   5.078
 3689SOL    HW211967   0.951   0.492   5.237
 3690SOL     OW11968   4.587   0.676   6.004
 3690SOL    HW111969   4.630   0.732   5.933
 3690SOL    HW211970   4.657   0.645   6.068
 3691SOL     OW11971   2.632   2.741   6.675
 3691SOL    HW111972   2.689   2.680   6.620
 3691SOL    HW211973   2.602   2.819   6.619
 3692SOL     OW11974   0.850   5.400   4.838
 3692SOL    HW111975   0.793   5.333   4.885
 3692SOL    HW211976   0.885   5.466   4.904
 3693SOL     OW11977   1.525   2.526   2.959
 3693SOL    HW111978   1.542   2.441   3.009
 3693SOL    HW211979   1.447   2.514   2.897
 3694SOL     OW11980   0.755   5.540   3.458
 3694SOL    HW111981   0.793   5.490   3.536
 3694SOL    HW211982   0.730   5.632   3.487
 3695SOL     OW11983   0.623   2.335   2.476
 3695SOL    HW111984   0.591   2.281   2.398
 3695SOL    HW211985   0.720   2.355   2.465
 3696SOL     OW11986   4.563   6.497   5.519
 3696SOL    HW111987   4.608   6.521   5.433
 3696SOL    HW211988   4.550   6.580   5.574
 3697SOL     OW11989   6.904   6.390   3.056
 3697SOL    HW111990   6.849   6.397   3.139
 3697SOL    HW211991   6.983   6.451   3.063
 3698SOL     OW11992   3.546   0.232   5.650
 3698SOL    HW111993   3.530   0.301   5.721
 3698SOL    HW211994   3.573   0.277   5.565
 3699SOL     OW11995   6.777   4.001   3.143
 3699SOL    HW111996   6.705   4.008   3.074
 3699SOL    HW211997   6.739   4.025   3.233
 3700SOL     OW11998   6.057   0.485   3.411
 3700SOL    HW111999   5.989   0.526   3.351
 3700SOL    HW212000   6.106   0.412   3.362
 3701SOL     OW12001   0.402   0.896   4.089
 3701SOL    HW112002   0.409   0.993   4.066
 3701SOL    HW212003   0.460   0.877   4.168
 3702SOL     OW12004   4.350   0.208   1.772
 3702SOL    HW112005   4.353   0.291   1.827
 3702SOL    HW212006   4.443   0.184   1.742
 3703SOL     OW12007   4.269   3.897   5.654
 3703SOL    HW112008   4.360   3.915   5.692
 3703SOL    HW212009   4.245   3.968   5.588
 3704SOL     OW12010   2.971   0.811   2.313
 3704SOL    HW112011   2.961   0.902   2.353
 3704SOL    HW212012   2.882   0.776   2.286
 3705SOL     OW12013   4.977   6.930   3.948
 3705SOL    HW112014   4.983   6.894   4.041
 3705SOL    HW212015   4.941   7.024   3.950
 3706SOL     OW12016   1.652   2.628   4.257
 3706SOL    HW112017   1.734   2.594   4.210
 3706SOL    HW212018   1.677   2.708   4.312
 3707SOL     OW12019   5.428   3.164   5.336
 3707SOL    HW112020   5.380   3.120   5.413
 3707SOL    HW212021   5.371   3.159   5.254
 3708SOL     OW12022   5.930   0.264   6.525
 3708SOL    HW112023   5.917   0.181   6.470
 3708SOL    HW212024   5.841   0.293   6.562
 3709SOL     OW12025   3.776   1.085   6.270
 3709SOL    HW112026   3.690   1.043   6.241
 3709SOL    HW212027   3.760   1.143   6.350
 3710SOL     OW12028   6.649   6.048   0.254
 3710SOL    HW112029   6.618   6.135   0.291
 3710SOL    HW212030   6.587   6.019   0.181
 3711SOL     OW12031   0.533   5.638   2.648
 3711SOL    HW112032   0.483   5.712   2.604
 3711SOL    HW212033   0.631   5.653   2.640
 3712SOL     OW12034   6.964   6.388   6.701
 3712SOL    HW112035   0.020   6.350   6.741
 3712SOL    HW212036   6.916   6.317   6.650
 3713SOL     OW12037   2.059   6.221   4.906
 3713SOL    HW112038   2.075   6.233   5.004
 3713SOL    HW212039   1.962   6.230   4.886
 3714SOL     OW12040   5.008   6.452   4.810
 3714SOL    HW112041   5.092   6.506   4.802
 3714SOL    HW212042   4.936   6.507   4.853
 3715SOL     OW12043   5.842   4.051   5.057
 3715SOL    HW112044   5.919   4.026   4.998
 3715SOL    HW212045   5.817   4.147   5.040
 3716SOL     OW12046   0.082   6.453   4.405
 3716SOL    HW112047   0.096   6.360   4.372
 3716SOL    HW212048   7.016   6.482   4.385
 3717SOL     OW12049   5.875   5.575   0.269
 3717SOL    HW112050   5.899   5.663   0.226
 3717SOL    HW212051   5.902   5.500   0.208
 3718SOL     OW12052   1.624   6.618   6.408
 3718SOL    HW112053   1.663   6.537   6.364
 3718SOL    HW212054   1.644   6.616   6.506
 3719SOL     OW12055   4.586   4.466   1.103
 3719SOL    HW112056   4.671   4.505   1.067
 3719SOL    HW212057   4.606   4.378   1.147
 3720SOL     OW12058   6.513   2.637   6.663
 3720SOL    HW112059   6.585   2.699   6.631
 3720SOL    HW212060   6.513   2.554   6.606
 3721SOL     OW12061   5.361   4.867   0.071
 3721SOL    HW112062   5.291   4.878   0.141
 3721SOL    HW212063   5.446   4.910   0.101
 3722SOL     OW12064   6.790   6.483   2.244
 3722SOL    HW112065   6.792   6.418   2.168
 3722SOL    HW212066   6.834   6.443   2.324
 3723SOL     OW12067   5.577   6.897   1.811
 3723SOL    HW112068   5.491   6.892   1.861
 3723SOL    HW212069   5.645   6.945   1.865
 3724SOL     OW12070   1.967   5.008   6.718
 3724SOL    HW112071   2.062   4.984   6.701
 3724SOL    HW212072   1.946   4.996   6.815
 3725SOL     OW12073   6.120   5.916   6.875
 3725SOL    HW112074   6.073   5.992   6.920
 3725SOL    HW212075   6.171   5.864   6.943
 3726SOL     OW12076   6.994   3.965   1.431
 3726SOL    HW112077   0.020   3.972   1.347
 3726SOL    HW212078   6.908   3.918   1.411
 3727SOL     OW12079   0.559   3.355   6.029
 3727SOL    HW112080   0.468   3.365   5.988
 3727SOL    HW212081   0.577   3.433   6.090
 3728SOL     OW12082   2.081   3.412   0.237
 3728SOL    HW112083   2.180   3.415   0.224
 3728SOL    HW212084   2.061   3.407   0.335
 3729SOL     OW12085   0.866   2.640   2.909
 3729SOL    HW112086   0.871   2.540   2.906
 3729SOL    HW212087   0.783   2.671   2.864
 3730SOL     OW12088   2.234   6.608   7.012
 3730SOL    HW112089   2.305   6.679   7.014
 3730SOL    HW212090   2.274   6.523   6.979
 3731SOL     OW12091   4.968   1.846   0.454
 3731SOL    HW112092   4.971   1.756   0.497
 3731SOL    HW212093   4.896   1.901   0.496
 3732SOL     OW12094   2.289   3.637   5.558
 3732SOL    HW112095   2.221   3.564   5.551
 3732SOL    HW212096   2.338   3.646   5.472
 3733SOL     OW12097   2.219   3.966   1.868
 3733SOL    HW112098   2.254   3.884   1.822
 3733SOL    HW212099   2.133   3.994   1.825
 3734SOL     OW12100   4.518   1.451   1.680
 3734SOL    HW112101   4.551   1.509   1.755
 3734SOL    HW212102   4.530   1.355   1.703
 3735SOL     OW12103   1.102   2.034   2.742
 3735SOL    HW112104   1.036   2.036   2.817
 3735SOL    HW212105   1.145   2.124   2.732
 3736SOL     OW12106   0.056   3.102   0.635
 3736SOL    HW112107   0.155   3.083   0.639
 3736SOL    HW212108   0.021   3.076   0.545
 3737SOL     OW12109   4.977   0.265   3.465
 3737SOL    HW112110   4.912   0.334   3.433
 3737SOL    HW212111   4.996   0.201   3.391
 3738SOL     OW12112   6.192   5.588   3.204
 3738SOL    HW112113   6.287   5.606   3.230
 3738SOL    HW212114   6.149   5.674   3.175
 3739SOL     OW12115   1.922   4.159   2.987
 3739SOL    HW112116   1.935   4.153   3.086
 3739SOL    HW212117   2.006   4.130   2.941
 3740SOL     OW12118   4.440   0.509   6.799
 3740SOL    HW112119   4.391   0.429   6.765
 3740SOL    HW212120   4.526   0.480   6.841
 3741SOL     OW12121   4.820   3.896   1.195
 3741SOL    HW112122   4.866   3.936   1.274
 3741SOL    HW212123   4.724   3.924   1.193
 3742SOL     OW12124   2.947   2.279   5.654
 3742SOL    HW112125   2.988   2.286   5.563
 3742SOL    HW212126   2.901   2.191   5.663
 3743SOL     OW12127   6.181   4.814   0.863
 3743SOL    HW112128   6.119   4.771   0.929
 3743SOL    HW212129   6.211   4.903   0.898
 3744SOL     OW12130   0.628   5.630   4.374
 3744SOL    HW112131   0.548   5.645   4.316
 3744SOL    HW212132   0.605   5.565   4.446
 3745SOL     OW12133   3.255   5.201   2.912
 3745SOL    HW112134   3.286   5.114   2.950
 3745SOL    HW212135   3.318   5.273   2.938
 3746SOL     OW12136   4.451   1.370   1.287
 3746SOL    HW112137   4.440   1.422   1.203
 3746SOL    HW212138   4.405   1.418   1.362
 3747SOL     OW12139   3.146   6.651   6.368
 3747SOL    HW112140   3.185   6.691   6.286
 3747SOL    HW212141   3.156   6.715   6.444
 3748SOL     OW12142   5.738   1.123   1.641
 3748SOL    HW112143   5.795   1.201   1.666
 3748SOL    HW212144   5.642   1.151   1.642
 3749SOL     OW12145   1.953   6.921   4.517
 3749SOL    HW112146   1.917   6.921   4.423
 3749SOL    HW212147   1.950   6.828   4.554
 3750SOL     OW12148   1.479   3.832   0.466
 3750SOL    HW112149   1.441   3.743   0.441
 3750SOL    HW212150   1.441   3.860   0.554
 3751SOL     OW12151   6.844   3.721   2.947
 3751SOL    HW112152   6.832   3.812   2.987
 3751SOL    HW212153   6.923   3.721   2.886
 3752SOL     OW12154   5.130   0.650   5.765
 3752SOL    HW112155   5.089   0.741   5.762
 3752SOL    HW212156   5.197   0.645   5.839
 3753SOL     OW12157   6.395   0.733   4.591
 3753SOL    HW112158   6.365   0.653   4.643
 3753SOL    HW212159   6.405   0.811   4.653
 3754SOL     OW12160   2.336   0.413   1.943
 3754SOL    HW112161   2.391   0.416   1.860
 3754SOL    HW212162   2.294   0.502   1.958
 3755SOL     OW12163   3.481   4.964   4.684
 3755SOL    HW112164   3.548   5.019   4.734
 3755SOL    HW212165   3.442   4.895   4.744
 3756SOL     OW12166   2.752   5.897   0.294
 3756SOL    HW112167   2.787   5.803   0.298
 3756SOL    HW212168   2.712   5.920   0.383
 3757SOL     OW12169   6.331   4.929   1.889
 3757SOL    HW112170   6.425   4.909   1.863
 3757SOL    HW212171   6.325   5.022   1.924
 3758SOL     OW12172   2.052   0.845   4.243
 3758SOL    HW112173   2.072   0.934   4.283
 3758SOL    HW212174   1.967   0.850   4.190
 3759SOL     OW12175   5.361   0.930   4.412
 3759SOL    HW112176   5.320   0.850   4.456
 3759SOL    HW212177   5.288   0.989   4.376
 3760SOL     OW12178   0.324   0.495   3.937
 3760SOL    HW112179   0.321   0.484   4.037
 3760SOL    HW212180   0.252   0.441   3.895
 3761SOL     OW12181   5.725   1.576   4.596
 3761SOL    HW112182   5.743   1.633   4.676
 3761SOL    HW212183   5.646   1.518   4.615
 3762SOL     OW12184   1.647   3.956   2.614
 3762SOL    HW112185   1.720   3.959   2.546
 3762SOL    HW212186   1.651   3.869   2.663
 3763SOL     OW12187   0.034   4.132   0.343
 3763SOL    HW112188   7.001   4.200   0.383
 3763SOL    HW212189   0.102   4.104   0.411
 3764SOL     OW12190   1.938   0.087   3.198
 3764SOL    HW112191   1.896   0.051   3.281
 3764SOL    HW212192   2.030   0.119   3.218
 3765SOL     OW12193   6.460   1.981   1.182
 3765SOL    HW112194   6.548   2.023   1.207
 3765SOL    HW212195   6.427   2.023   1.097
 3766SOL     OW12196   2.018   2.649   3.847
 3766SOL    HW112197   1.960   2.635   3.768
 3766SOL    HW212198   1.963   2.647   3.931
 3767SOL     OW12199   2.963   4.427   6.163
 3767SOL    HW112200   2.995   4.509   6.116
 3767SOL    HW212201   2.864   4.418   6.151
 3768SOL     OW12202   1.391   1.042   4.262
 3768SOL    HW112203   1.354   1.096   4.187
 3768SOL    HW212204   1.490   1.053   4.266
 3769SOL     OW12205   5.655   5.601   4.843
 3769SOL    HW112206   5.634   5.506   4.819
 3769SOL    HW212207   5.687   5.604   4.938
 3770SOL     OW12208   0.986   1.315   0.566
 3770SOL    HW112209   0.987   1.221   0.601
 3770SOL    HW212210   1.066   1.330   0.508
 3771SOL     OW12211   0.126   5.168   0.991
 3771SOL    HW112212   0.147   5.085   0.940
 3771SOL    HW212213   0.028   5.172   1.011
 3772SOL     OW12214   1.082   6.494   0.614
 3772SOL    HW112215   1.132   6.431   0.554
 3772SOL    HW212216   1.124   6.584   0.611
 3773SOL     OW12217   5.670   4.029   5.763
 3773SOL    HW112218   5.607   4.104   5.743
 3773SOL    HW212219   5.629   3.969   5.831
 3774SOL     OW12220   5.336   5.525   1.682
 3774SOL    HW112221   5.239   5.500   1.679
 3774SOL    HW212222   5.346   5.613   1.728
 3775SOL     OW12223   4.182   5.032   3.039
 3775SOL    HW112224   4.156   5.100   2.970
 3775SOL    HW212225   4.140   4.944   3.016
 3776SOL     OW12226   3.858   2.924   6.167
 3776SOL    HW112227   3.792   2.997   6.149
 3776SOL    HW212228   3.946   2.964   6.190
 3777SOL     OW12229   2.618   6.449   4.097
 3777SOL    HW112230   2.537   6.392   4.086
 3777SOL    HW212231   2.689   6.398   4.146
 3778SOL     OW12232   2.965   6.142   4.616
 3778SOL    HW112233   2.868   6.164   4.624
 3778SOL    HW212234   2.993   6.086   4.694
 3779SOL     OW12235   0.126   5.334   0.749
 3779SOL    HW112236   0.180   5.364   0.670
 3779SOL    HW212237   0.177   5.266   0.800
 3780SOL     OW12238   0.257   2.166   2.338
 3780SOL    HW112239   0.301   2.103   2.274
 3780SOL    HW212240   0.303   2.255   2.335
 3781SOL     OW12241   1.149   6.608   5.041
 3781SOL    HW112242   1.169   6.599   5.139
 3781SOL    HW212243   1.054   6.633   5.029
 3782SOL     OW12244   3.729   6.153   2.243
 3782SOL    HW112245   3.697   6.067   2.205
 3782SOL    HW212246   3.715   6.227   2.176
 3783SOL     OW12247   5.484   4.827   5.340
 3783SOL    HW112248   5.425   4.858   5.266
 3783SOL    HW212249   5.501   4.729   5.330
 3784SOL     OW12250   5.665   2.491   2.257
 3784SOL    HW112251   5.599   2.552   2.301
 3784SOL    HW212252   5.667   2.403   2.304
 3785SOL     OW12253   0.535   3.211   5.090
 3785SOL    HW112254   0.457   3.156   5.119
 3785SOL    HW212255   0.616   3.183   5.142
 3786SOL     OW12256   2.590   2.311   3.613
 3786SOL    HW112257   2.519   2.382   3.617
 3786SOL    HW212258   2.550   2.226   3.579
 3787SOL     OW12259   4.081   0.366   2.629
 3787SOL    HW112260   4.070   0.465   2.623
 3787SOL    HW212261   4.178   0.343   2.635
 3788SOL     OW12262   0.057   3.618   4.921
 3788SOL    HW112263   0.056   3.521   4.895
 3788SOL    HW212264   6.992   3.655   4.913
 3789SOL     OW12265   1.245   2.317   3.094
 3789SOL    HW112266   1.146   2.325   3.104
 3789SOL    HW212267   1.290   2.363   3.171
 3790SOL     OW12268   1.102   5.607   0.194
 3790SOL    HW112269   1.143   5.656   0.117
 3790SOL    HW212270   1.129   5.650   0.280
 3791SOL     OW12271   5.476   1.692   5.751
 3791SOL    HW112272   5.549   1.695   5.819
 3791SOL    HW212273   5.409   1.764   5.770
 3792SOL     OW12274   0.703   0.636   4.441
 3792SOL    HW112275   0.650   0.700   4.385
 3792SOL    HW212276   0.753   0.573   4.381
 3793SOL     OW12277   6.075   5.988   0.465
 3793SOL    HW112278   6.047   6.081   0.490
 3793SOL    HW212279   5.999   5.925   0.478
 3794SOL     OW12280   1.913   3.614   1.155
 3794SOL    HW112281   1.894   3.642   1.249
 3794SOL    HW212282   2.012   3.608   1.142
 3795SOL     OW12283   2.956   5.776   1.089
 3795SOL    HW112284   2.978   5.826   1.006
 3795SOL    HW212285   2.967   5.678   1.075
 3796SOL     OW12286   4.097   2.294   1.075
 3796SOL    HW112287   4.166   2.363   1.096
 3796SOL    HW212288   4.020   2.338   1.027
 3797SOL     OW12289   1.246   4.023   2.509
 3797SOL    HW112290   1.278   4.026   2.604
 3797SOL    HW212291   1.190   3.941   2.496
 3798SOL     OW12292   2.557   6.755   3.149
 3798SOL    HW112293   2.586   6.664   3.120
 3798SOL    HW212294   2.557   6.816   3.069
 3799SOL     OW12295   6.360   2.462   2.936
 3799SOL    HW112296   6.299   2.541   2.949
 3799SOL    HW212297   6.453   2.494   2.918
 3800SOL     OW12298   5.268   1.447   3.075
 3800SOL    HW112299   5.358   1.453   3.033
 3800SOL    HW212300   5.268   1.495   3.162
 3801SOL     OW12301   5.237   6.580   1.938
 3801SOL    HW112302   5.198   6.500   1.892
 3801SOL    HW212303   5.315   6.551   1.994
 3802SOL     OW12304   0.274   1.489   2.178
 3802SOL    HW112305   0.338   1.417   2.204
 3802SOL    HW212306   0.274   1.560   2.248
 3803SOL     OW12307   3.063   3.850   3.567
 3803SOL    HW112308   2.988   3.785   3.561
 3803SOL    HW212309   3.070   3.883   3.661
 3804SOL     OW12310   3.753   0.489   4.524
 3804SOL    HW112311   3.695   0.486   4.443
 3804SOL    HW212312   3.723   0.563   4.585
 3805SOL     OW12313   2.575   2.712   1.118
 3805SOL    HW112314   2.493   2.770   1.123
 3805SOL    HW212315   2.565   2.634   1.180
 3806SOL     OW12316   3.886   4.616   6.334
 3806SOL    HW112317   3.873   4.527   6.290
 3806SOL    HW212318   3.972   4.616   6.384
 3807SOL     OW12319   1.710   5.098   4.377
 3807SOL    HW112320   1.758   5.151   4.307
 3807SOL    HW212321   1.641   5.156   4.421
 3808SOL     OW12322   4.884   0.278   5.790
 3808SOL    HW112323   4.872   0.374   5.815
 3808SOL    HW212324   4.850   0.263   5.697
 3809SOL     OW12325   5.839   2.231   1.312
 3809SOL    HW112326   5.932   2.240   1.278
 3809SOL    HW212327   5.839   2.179   1.397
 3810SOL     OW12328   6.640   2.499   3.273
 3810SOL    HW112329   6.623   2.495   3.371
 3810SOL    HW212330   6.666   2.592   3.247
 3811SOL     OW12331   0.023   5.190   4.696
 3811SOL    HW112332   0.104   5.242   4.723
 3811SOL    HW212333   0.030   5.097   4.731
 3812SOL     OW12334   3.470   6.045   6.808
 3812SOL    HW112335   3.389   5.993   6.835
 3812SOL    HW212336   3.464   6.138   6.842
 3813SOL     OW12337   6.455   3.798   1.057
 3813SOL    HW112338   6.488   3.870   1.119
 3813SOL    HW212339   6.371   3.758   1.094
 3814SOL     OW12340   0.022   6.945   3.770
 3814SOL    HW112341   0.109   6.924   3.724
 3814SOL    HW212342   0.033   7.026   3.827
 3815SOL     OW12343   5.086   3.108   0.733
 3815SOL    HW112344   5.113   3.202   0.755
 3815SOL    HW212345   5.102   3.050   0.813
 3816SOL     OW12346   0.237   6.793   5.227
 3816SOL    HW112347   0.307   6.723   5.212
 3816SOL    HW212348   0.206   6.790   5.322
 3817SOL     OW12349   4.895   3.333   2.714
 3817SOL    HW112350   4.993   3.343   2.697
 3817SOL    HW212351   4.880   3.256   2.776
 3818SOL     OW12352   0.283   0.553   1.026
 3818SOL    HW112353   0.253   0.639   1.066
 3818SOL    HW212354   0.324   0.495   1.096
 3819SOL     OW12355   6.373   4.234   2.841
 3819SOL    HW112356   6.370   4.326   2.801
 3819SOL    HW212357   6.451   4.184   2.802
 3820SOL     OW12358   5.582   6.469   3.796
 3820SOL    HW112359   5.509   6.537   3.806
 3820SOL    HW212360   5.654   6.507   3.738
 3821SOL     OW12361   0.663   6.943   0.102
 3821SOL    HW112362   0.604   6.862   0.107
 3821SOL    HW212363   0.757   6.915   0.085
 3822SOL     OW12364   3.383   0.532   6.736
 3822SOL    HW112365   3.292   0.556   6.771
 3822SOL    HW212366   3.380   0.527   6.637
 3823SOL     OW12367   4.793   4.805   6.379
 3823SOL    HW112368   4.694   4.813   6.388
 3823SOL    HW212369   4.836   4.821   6.468
 3824SOL     OW12370   1.196   2.962   0.778
 3824SOL    HW112371   1.104   2.977   0.813
 3824SOL    HW212372   1.195   2.965   0.678
 3825SOL     OW12373   1.121   4.302   0.710
 3825SOL    HW112374   1.091   4.224   0.764
 3825SOL    HW212375   1.129   4.383   0.769
 3826SOL     OW12376   6.857   4.091   2.774
 3826SOL    HW112377   6.916   4.068   2.696
 3826SOL    HW212378   6.906   4.076   2.859
 3827SOL     OW12379   0.736   0.917   1.138
 3827SOL    HW112380   0.673   0.940   1.064
 3827SOL    HW212381   0.809   0.986   1.143
 3828SOL     OW12382   3.677   4.206   5.023
 3828SOL    HW112383   3.605   4.193   4.955
 3828SOL    HW212384   3.722   4.294   5.007
 3829SOL     OW12385   0.563   5.421   2.323
 3829SOL    HW112386   0.476   5.464   2.298
 3829SOL    HW212387   0.624   5.490   2.361
 3830SOL     OW12388   0.340   0.586   5.333
 3830SOL    HW112389   0.418   0.648   5.321
 3830SOL    HW212390   0.324   0.571   5.430
 3831SOL     OW12391   4.110   2.231   2.932
 3831SOL    HW112392   4.128   2.134   2.952
 3831SOL    HW212393   4.082   2.278   3.015
 3832SOL     OW12394   0.424   0.562   1.674
 3832SOL    HW112395   0.492   0.534   1.742
 3832SOL    HW212396   0.465   0.627   1.610
 3833SOL     OW12397   1.811   6.393   6.768
 3833SOL    HW112398   1.873   6.314   6.760
 3833SOL    HW212399   1.749   6.377   6.845
 3834SOL     OW12400   4.309   4.268   1.414
 3834SOL    HW112401   4.244   4.193   1.429
 3834SOL    HW212402   4.337   4.305   1.502
 3835SOL     OW12403   3.775   6.024   5.276
 3835SOL    HW112404   3.853   6.049   5.334
 3835SOL    HW212405   3.779   5.926   5.255
 3836SOL     OW12406   0.589   4.879   5.926
 3836SOL    HW112407   0.636   4.907   5.842
 3836SOL    HW212408   0.564   4.960   5.979
 3837SOL     OW12409   3.969   5.171   5.282
 3837SOL    HW112410   3.945   5.085   5.239
 3837SOL    HW212411   3.989   5.156   5.379
 3838SOL     OW12412   1.563   1.342   3.207
 3838SOL    HW112413   1.465   1.336   3.230
 3838SOL    HW212414   1.576   1.321   3.110
 3839SOL     OW12415   4.610   0.862   2.977
 3839SOL    HW112416   4.651   0.953   2.961
 3839SOL    HW212417   4.535   0.871   3.042
 3840SOL     OW12418   2.403   1.521   6.095
 3840SOL    HW112419   2.336   1.454   6.125
 3840SOL    HW212420   2.479   1.523   6.160
 3841SOL     OW12421   0.823   4.338   3.973
 3841SOL    HW112422   0.902   4.357   4.032
 3841SOL    HW212423   0.739   4.365   4.020
 3842SOL     OW12424   2.272   2.485   4.193
 3842SOL    HW112425   2.307   2.511   4.283
 3842SOL    HW212426   2.346   2.484   4.126
 3843SOL     OW12427   5.766   3.522   0.954
 3843SOL    HW112428   5.825   3.558   0.881
 3843SOL    HW212429   5.735   3.598   1.011
 3844SOL     OW12430   1.375   4.450   6.816
 3844SOL    HW112431   1.365   4.411   6.907
 3844SOL    HW212432   1.357   4.548   6.820
 3845SOL     OW12433   2.449   6.037   0.180
 3845SOL    HW112434   2.369   6.097   0.179
 3845SOL    HW212435   2.461   5.998   0.089
 3846SOL     OW12436   0.615   3.343   4.596
 3846SOL    HW112437   0.528   3.377   4.631
 3846SOL    HW212438   0.644   3.265   4.652
 3847SOL     OW12439   5.487   2.003   4.310
 3847SOL    HW112440   5.388   2.013   4.302
 3847SOL    HW212441   5.510   1.960   4.397
 3848SOL     OW12442   4.839   3.259   3.227
 3848SOL    HW112443   4.889   3.343   3.208
 3848SOL    HW212444   4.811   3.216   3.141
 3849SOL     OW12445   0.397   0.051   6.714
 3849SOL    HW112446   0.413   0.117   6.787
 3849SOL    HW212447   0.448   6.995   6.733
 3850SOL     OW12448   3.315   3.085   1.261
 3850SOL    HW112449   3.408   3.061   1.290
 3850SOL    HW212450   3.257   3.096   1.341
 3851SOL     OW12451   6.455   4.914   3.892
 3851SOL    HW112452   6.391   4.837   3.897
 3851SOL    HW212453   6.541   4.884   3.851
 3852SOL     OW12454   3.767   6.606   4.275
 3852SOL    HW112455   3.725   6.696   4.263
 3852SOL    HW212456   3.711   6.537   4.229
 3853SOL     OW12457   1.841   1.786   3.242
 3853SOL    HW112458   1.916   1.720   3.253
 3853SOL    HW212459   1.768   1.764   3.307
 3854SOL     OW12460   1.256   3.076   3.107
 3854SOL    HW112461   1.200   3.120   3.037
 3854SOL    HW212462   1.237   2.978   3.109
 3855SOL     OW12463   4.147   6.467   0.727
 3855SOL    HW112464   4.096   6.396   0.679
 3855SOL    HW212465   4.214   6.424   0.788
 3856SOL     OW12466   0.839   1.697   5.805
 3856SOL    HW112467   0.810   1.636   5.732
 3856SOL    HW212468   0.761   1.715   5.866
 3857SOL     OW12469   1.443   6.517   5.657
 3857SOL    HW112470   1.478   6.479   5.742
 3857SOL    HW212471   1.419   6.442   5.594
 3858SOL     OW12472   3.313   1.283   5.649
 3858SOL    HW112473   3.357   1.218   5.587
 3858SOL    HW212474   3.257   1.233   5.715
 3859SOL     OW12475   6.095   1.033   0.980
 3859SOL    HW112476   6.018   1.083   1.020
 3859SOL    HW212477   6.125   1.078   0.897
 3860SOL     OW12478   1.768   1.268   4.590
 3860SOL    HW112479   1.706   1.301   4.661
 3860SOL    HW212480   1.748   1.316   4.504
 3861SOL     OW12481   4.565   6.045   2.943
 3861SOL    HW112482   4.642   6.080   2.891
 3861SOL    HW212483   4.566   6.085   3.035
 3862SOL     OW12484   0.863   0.429   4.299
 3862SOL    HW112485   0.822   0.365   4.234
 3862SOL    HW212486   0.963   0.416   4.301
 3863SOL     OW12487   6.073   1.582   6.661
 3863SOL    HW112488   6.058   1.590   6.562
 3863SOL    HW212489   6.002   1.635   6.708
 3864SOL     OW12490   2.386   0.732   5.014
 3864SOL    HW112491   2.394   0.786   5.098
 3864SOL    HW212492   2.347   0.642   5.035
 3865SOL     OW12493   4.180   1.417   0.509
 3865SOL    HW112494   4.159   1.464   0.423
 3865SOL    HW212495   4.244   1.343   0.491
 3866SOL     OW12496   3.542   1.378   6.629
 3866SOL    HW112497   3.607   1.347   6.699
 3866SOL    HW212498   3.500   1.464   6.657
 3867SOL     OW12499   1.348   3.995   3.331
 3867SOL    HW112500   1.431   4.031   3.374
 3867SOL    HW212501   1.356   3.896   3.323
 3868SOL     OW12502   4.257   0.287   6.776
 3868SOL    HW112503   4.292   0.243   6.859
 3868SOL    HW212504   4.263   0.222   6.700
 3869SOL     OW12505   6.378   2.966   3.524
 3869SOL    HW112506   6.293   2.942   3.570
 3869SOL    HW212507   6.430   3.030   3.582
 3870SOL     OW12508   6.622   6.685   1.958
 3870SOL    HW112509   6.687   6.703   2.032
 3870SOL    HW212510   6.580   6.771   1.929
 3871SOL     OW12511   3.054   6.959   3.283
 3871SOL    HW112512   3.144   6.922   3.258
 3871SOL    HW212513   2.987   6.885   3.284
 3872SOL     OW12514   3.072   3.273   4.353
 3872SOL    HW112515   3.095   3.304   4.261
 3872SOL    HW212516   3.154   3.239   4.399
 3873SOL     OW12517   5.525   3.962   0.995
 3873SOL    HW112518   5.474   3.878   1.010
 3873SOL    HW212519   5.556   3.999   1.082
 3874SOL     OW12520   4.260   0.916   0.280
 3874SOL    HW112521   4.218   0.905   0.370
 3874SOL    HW212522   4.239   1.007   0.245
 3875SOL     OW12523   1.904   2.637   3.610
 3875SOL    HW112524   1.834   2.707   3.592
 3875SOL    HW212525   1.932   2.595   3.523
 3876SOL     OW12526   3.557   5.485   1.217
 3876SOL    HW112527   3.491   5.561   1.215
 3876SOL    HW212528   3.605   5.485   1.305
 3877SOL     OW12529   6.469   2.586   1.144
 3877SOL    HW112530   6.503   2.646   1.216
 3877SOL    HW212531   6.493   2.491   1.166
 3878SOL     OW12532   4.850   6.547   4.620
 3878SOL    HW112533   4.922   6.498   4.667
 3878SOL    HW212534   4.856   6.645   4.641
 3879SOL     OW12535   5.562   5.396   0.848
 3879SOL    HW112536   5.543   5.458   0.924
 3879SOL    HW212537   5.581   5.448   0.765
 3880SOL     OW12538   5.127   4.090   4.441
 3880SOL    HW112539   5.029   4.067   4.442
 3880SOL    HW212540   5.152   4.124   4.350
 3881SOL     OW12541   1.278   3.498   1.705
 3881SOL    HW112542   1.264   3.400   1.691
 3881SOL    HW212543   1.320   3.512   1.795
 3882SOL     OW12544   0.301   1.151   6.713
 3882SOL    HW112545   0.349   1.236   6.733
 3882SOL    HW212546   0.204   1.169   6.701
 3883SOL     OW12547   3.919   1.253   2.601
 3883SOL    HW112548   4.008   1.279   2.639
 3883SOL    HW212549   3.883   1.330   2.547
 3884SOL     OW12550   0.696   5.856   2.499
 3884SOL    HW112551   0.660   5.875   2.590
 3884SOL    HW212552   0.792   5.882   2.494
 3885SOL     OW12553   6.687   5.589   2.805
 3885SOL    HW112554   6.681   5.538   2.890
 3885SOL    HW212555   6.678   5.687   2.824
 3886SOL     OW12556   4.454   5.891   5.325
 3886SOL    HW112557   4.384   5.846   5.271
 3886SOL    HW212558   4.524   5.825   5.351
 3887SOL     OW12559   0.691   6.738   6.863
 3887SOL    HW112560   0.592   6.750   6.870
 3887SOL    HW212561   0.731   6.818   6.819
 3888SOL     OW12562   6.649   0.161   5.281
 3888SOL    HW112563   6.744   0.192   5.277
 3888SOL    HW212564   6.631   0.097   5.206
 3889SOL     OW12565   0.014   3.400   0.339
 3889SOL    HW112566   0.085   3.333   0.362
 3889SOL    HW212567   6.962   3.352   0.302
 3890SOL     OW12568   5.893   5.048   3.664
 3890SOL    HW112569   5.969   5.096   3.619
 3890SOL    HW212570   5.808   5.068   3.615
 3891SOL     OW12571   5.379   3.884   4.270
 3891SOL    HW112572   5.462   3.890   4.215
 3891SOL    HW212573   5.323   3.966   4.255
 3892SOL     OW12574   0.173   2.463   0.711
 3892SOL    HW112575   0.256   2.502   0.750
 3892SOL    HW212576   0.094   2.514   0.744
 3893SOL     OW12577   4.065   3.778   0.300
 3893SOL    HW112578   4.052   3.776   0.399
 3893SOL    HW212579   4.051   3.871   0.266
 3894SOL     OW12580   4.902   1.091   0.028
 3894SOL    HW112581   4.980   1.098   0.090
 3894SOL    HW212582   4.819   1.077   0.081
 3895SOL     OW12583   0.972   0.116   5.489
 3895SOL    HW112584   0.938   0.064   5.568
 3895SOL    HW212585   1.028   0.192   5.521
 3896SOL     OW12586   0.685   1.025   5.926
 3896SOL    HW112587   0.717   0.932   5.946
 3896SOL    HW212588   0.645   1.064   6.009
 3897SOL     OW12589   3.920   5.477   2.452
 3897SOL    HW112590   3.851   5.545   2.425
 3897SOL    HW212591   3.980   5.517   2.522
 3898SOL     OW12592   2.542   2.604   6.041
 3898SOL    HW112593   2.620   2.541   6.041
 3898SOL    HW212594   2.522   2.632   5.947
 3899SOL     OW12595   4.768   6.899   5.758
 3899SOL    HW112596   4.745   6.993   5.731
 3899SOL    HW212597   4.868   6.889   5.762
 3900SOL     OW12598   4.520   2.523   3.510
 3900SOL    HW112599   4.482   2.525   3.602
 3900SOL    HW212600   4.620   2.527   3.514
 3901SOL     OW12601   3.403   0.839   6.371
 3901SOL    HW112602   3.320   0.810   6.324
 3901SOL    HW212603   3.380   0.879   6.460
 3902SOL     OW12604   6.605   2.811   1.798
 3902SOL    HW112605   6.524   2.789   1.851
 3902SOL    HW212606   6.622   2.738   1.731
 3903SOL     OW12607   3.588   6.057   0.525
 3903SOL    HW112608   3.580   6.141   0.471
 3903SOL    HW212609   3.562   6.076   0.620
 3904SOL     OW12610   2.161   1.104   6.202
 3904SOL    HW112611   2.152   1.120   6.300
 3904SOL    HW212612   2.194   1.011   6.187
 3905SOL     OW12613   0.189   7.011   6.502
 3905SOL    HW112614   0.098   0.025   6.504
 3905SOL    HW212615   0.257   0.051   6.530
 3906SOL     OW12616   5.522   6.124   5.174
 3906SOL    HW112617   5.581   6.193   5.132
 3906SOL    HW212618   5.566   6.034   5.164
 3907SOL     OW12619   6.072   0.728   3.569
 3907SOL    HW112620   6.076   0.637   3.527
 3907SOL    HW212621   5.983   0.739   3.615
 3908SOL     OW12622   0.783   2.519   6.714
 3908SOL    HW112623   0.841   2.519   6.796
 3908SOL    HW212624   0.706   2.582   6.728
 3909SOL     OW12625   6.289   5.881   5.361
 3909SOL    HW112626   6.374   5.830   5.377
 3909SOL    HW212627   6.300   5.936   5.278
 3910SOL     OW12628   3.058   3.857   2.795
 3910SOL    HW112629   3.011   3.816   2.718
 3910SOL    HW212630   3.003   3.846   2.878
 3911SOL     OW12631   5.457   1.682   5.333
 3911SOL    HW112632   5.523   1.749   5.366
 3911SOL    HW212633   5.382   1.729   5.286
 3912SOL     OW12634   5.139   0.776   5.390
 3912SOL    HW112635   5.075   0.813   5.458
 3912SOL    HW212636   5.218   0.735   5.436
 3913SOL     OW12637   2.714   6.576   5.972
 3913SOL    HW112638   2.723   6.584   5.872
 3913SOL    HW212639   2.701   6.667   6.011
 3914SOL     OW12640   2.790   1.033   1.692
 3914SOL    HW112641   2.816   1.127   1.713
 3914SOL    HW212642   2.740   1.031   1.606
 3915SOL     OW12643   4.848   5.389   1.255
 3915SOL    HW112644   4.787   5.468   1.251
 3915SOL    HW212645   4.943   5.419   1.249
 3916SOL     OW12646   1.100   7.012   4.111
 3916SOL    HW112647   1.178   0.047   4.109
 3916SOL    HW212648   1.029   0.021   4.171
 3917SOL     OW12649   6.890   6.056   0.073
 3917SOL    HW112650   6.824   6.124   0.043
 3917SOL    HW212651   6.846   5.994   0.138
 3918SOL     OW12652   5.420   5.806   1.731
 3918SOL    HW112653   5.487   5.800   1.657
 3918SOL    HW212654   5.467   5.823   1.818
 3919SOL     OW12655   3.996   6.468   0.332
 3919SOL    HW112656   4.025   6.473   0.428
 3919SOL    HW212657   4.077   6.472   0.274
 3920SOL     OW12658   3.324   3.296   0.821
 3920SOL    HW112659   3.317   3.382   0.770
 3920SOL    HW212660   3.416   3.289   0.860
 3921SOL     OW12661   0.432   3.615   1.579
 3921SOL    HW112662   0.371   3.607   1.500
 3921SOL    HW212663   0.468   3.708   1.584
 3922SOL     OW12664   6.705   3.499   2.040
 3922SOL    HW112665   6.774   3.475   2.109
 3922SOL    HW212666   6.615   3.465   2.069
 3923SOL     OW12667   6.871   0.742   0.390
 3923SOL    HW112668   6.821   0.824   0.362
 3923SOL    HW212669   6.967   0.766   0.407
 3924SOL     OW12670   6.039   5.099   3.383
 3924SOL    HW112671   6.037   5.148   3.296
 3924SOL    HW212672   6.117   5.131   3.437
 3925SOL     OW12673   2.452   5.370   1.451
 3925SOL    HW112674   2.432   5.287   1.503
 3925SOL    HW212675   2.551   5.386   1.450
 3926SOL     OW12676   6.490   5.229   3.072
 3926SOL    HW112677   6.484   5.240   3.171
 3926SOL    HW212678   6.419   5.166   3.041
 3927SOL     OW12679   6.556   2.718   4.207
 3927SOL    HW112680   6.624   2.772   4.256
 3927SOL    HW212681   6.495   2.779   4.156
 3928SOL     OW12682   4.064   5.888   6.221
 3928SOL    HW112683   4.085   5.799   6.181
 3928SOL    HW212684   4.097   5.960   6.159
 3929SOL     OW12685   7.022   0.892   5.220
 3929SOL    HW112686   0.044   0.913   5.136
 3929SOL    HW212687   0.030   0.948   5.295
 3930SOL     OW12688   2.825   1.894   3.726
 3930SOL    HW112689   2.907   1.930   3.682
 3930SOL    HW212690   2.829   1.911   3.824
 3931SOL     OW12691   1.454   0.549   1.314
 3931SOL    HW112692   1.484   0.462   1.353
 3931SOL    HW212693   1.532   0.595   1.273
 3932SOL     OW12694   1.809   4.798   3.247
 3932SOL    HW112695   1.875   4.868   3.274
 3932SOL    HW212696   1.851   4.738   3.178
 3933SOL     OW12697   2.032   6.556   6.761
 3933SOL    HW112698   1.947   6.503   6.755
 3933SOL    HW212699   2.096   6.524   6.692
 3934SOL     OW12700   6.680   1.237   6.939
 3934SOL    HW112701   6.722   1.225   0.001
 3934SOL    HW212702   6.581   1.235   6.947
 3935SOL     OW12703   2.954   6.333   0.088
 3935SOL    HW112704   2.902   6.278   0.153
 3935SOL    HW212705   3.016   6.394   0.137
 3936SOL     OW12706   0.042   5.376   5.518
 3936SOL    HW112707   0.001   5.417   5.600
 3936SOL    HW212708   0.010   5.425   5.437
 3937SOL     OW12709   6.720   2.111   3.669
 3937SOL    HW112710   6.689   2.075   3.581
 3937SOL    HW212711   6.641   2.122   3.730
 3938SOL     OW12712   0.622   2.055   3.856
 3938SOL    HW112713   0.606   2.132   3.794
 3938SOL    HW212714   0.573   1.974   3.822
 3939SOL     OW12715   2.569   2.360   2.555
 3939SOL    HW112716   2.615   2.351   2.467
 3939SOL    HW212717   2.474   2.388   2.540
 3940SOL     OW12718   5.077   4.758   1.097
 3940SOL    HW112719   5.027   4.838   1.065
 3940SOL    HW212720   5.060   4.681   1.035
 3941SOL     OW12721   5.001   3.534   5.806
 3941SOL    HW112722   4.990   3.585   5.891
 3941SOL    HW212723   4.988   3.436   5.824
 3942SOL     OW12724   0.688   6.868   6.445
 3942SOL    HW112725   0.613   6.804   6.460
 3942SOL    HW212726   0.683   6.905   6.353
 3943SOL     OW12727   0.171   3.197   2.919
 3943SOL    HW112728   0.110   3.245   2.982
 3943SOL    HW212729   0.118   3.154   2.846
 3944SOL     OW12730   4.484   2.517   5.048
 3944SOL    HW112731   4.496   2.430   5.096
 3944SOL    HW212732   4.387   2.537   5.039
 3945SOL     OW12733   0.398   1.606   0.387
 3945SOL    HW112734   0.477   1.580   0.332
 3945SOL    HW212735   0.354   1.686   0.345
 3946SOL     OW12736   5.726   5.264   5.145
 3946SOL    HW112737   5.809   5.305   5.182
 3946SOL    HW212738   5.665   5.238   5.220
 3947SOL     OW12739   5.330   6.149   0.657
 3947SOL    HW112740   5.271   6.160   0.737
 3947SOL    HW212741   5.274   6.142   0.575
 3948SOL     OW12742   0.852   5.039   2.346
 3948SOL    HW112743   0.842   5.132   2.380
 3948SOL    HW212744   0.863   4.976   2.423
 3949SOL     OW12745   4.749   0.254   3.209
 3949SOL    HW112746   4.737   0.164   3.168
 3949SOL    HW212747   4.683   0.267   3.283
 3950SOL     OW12748   1.868   4.079   0.742
 3950SOL    HW112749   1.847   4.177   0.743
 3950SOL    HW212750   1.807   4.032   0.678
 3951SOL     OW12751   5.155   0.151   1.321
 3951SOL    HW112752   5.227   0.218   1.338
 3951SOL    HW212753   5.197   0.061   1.303
 3952SOL     OW12754   6.455   2.577   2.525
 3952SOL    HW112755   6.412   2.492   2.556
 3952SOL    HW212756   6.546   2.585   2.566
 3953SOL     OW12757   3.676   4.813   1.547
 3953SOL    HW112758   3.683   4.718   1.518
 3953SOL    HW212759   3.640   4.869   1.472
 3954SOL     OW12760   3.969   5.193   4.743
 3954SOL    HW112761   3.930   5.220   4.831
 3954SOL    HW212762   4.042   5.256   4.717
 3955SOL     OW12763   3.025   6.360   6.714
 3955SOL    HW112764   2.993   6.390   6.625
 3955SOL    HW212765   2.950   6.313   6.762
 3956SOL     OW12766   0.963   0.739   2.693
 3956SOL    HW112767   0.990   0.659   2.745
 3956SOL    HW212768   0.893   0.790   2.743
 3957SOL     OW12769   5.009   6.390   3.897
 3957SOL    HW112770   4.934   6.436   3.945
 3957SOL    HW212771   4.991   6.292   3.893
 3958SOL     OW12772   5.759   1.284   4.833
 3958SOL    HW112773   5.702   1.216   4.788
 3958SOL    HW212774   5.792   1.248   4.920
 3959SOL     OW12775   3.900   0.174   0.846
 3959SOL    HW112776   3.918   0.269   0.871
 3959SOL    HW212777   3.829   0.137   0.906
 3960SOL     OW12778   4.833   2.150   6.523
 3960SOL    HW112779   4.780   2.080   6.476
 3960SOL    HW212780   4.914   2.172   6.469
 3961SOL     OW12781   5.533   1.647   2.658
 3961SOL    HW112782   5.565   1.700   2.737
 3961SOL    HW212783   5.610   1.629   2.596
 3962SOL     OW12784   2.958   3.925   7.011
 3962SOL    HW112785   2.908   4.000   0.027
 3962SOL    HW212786   3.051   3.921   0.020
 3963SOL     OW12787   5.077   5.566   3.323
 3963SOL    HW112788   5.132   5.648   3.308
 3963SOL    HW212789   5.123   5.487   3.281
 3964SOL     OW12790   4.841   5.330   3.955
 3964SOL    HW112791   4.813   5.363   4.045
 3964SOL    HW212792   4.897   5.399   3.909
 3965SOL     OW12793   4.940   2.762   4.893
 3965SOL    HW112794   4.852   2.807   4.876
 3965SOL    HW212795   4.924   2.668   4.922
 3966SOL     OW12796   5.060   6.270   6.239
 3966SOL    HW112797   5.156   6.240   6.240
 3966SOL    HW212798   5.054   6.360   6.196
 3967SOL     OW12799   2.123   3.581   2.502
 3967SOL    HW112800   2.127   3.483   2.520
 3967SOL    HW212801   2.204   3.625   2.541
 3968SOL     OW12802   4.358   0.104   1.006
 3968SOL    HW112803   4.335   0.009   0.983
 3968SOL    HW212804   4.283   0.145   1.058
 3969SOL     OW12805   1.523   4.035   2.382
 3969SOL    HW112806   1.555   3.986   2.463
 3969SOL    HW212807   1.423   4.027   2.375
 3970SOL     OW12808   6.176   6.173   3.226
 3970SOL    HW112809   6.115   6.200   3.152
 3970SOL    HW212810   6.197   6.252   3.283
 3971SOL     OW12811   3.379   5.266   3.543
 3971SOL    HW112812   3.461   5.210   3.526
 3971SOL    HW212813   3.315   5.254   3.467
 3972SOL     OW12814   1.358   3.997   0.672
 3972SOL    HW112815   1.346   4.095   0.657
 3972SOL    HW212816   1.436   3.982   0.733
 3973SOL     OW12817   1.736   5.576   6.227
 3973SOL    HW112818   1.724   5.643   6.154
 3973SOL    HW212819   1.669   5.595   6.299
 3974SOL     OW12820   2.216   0.180   5.378
 3974SOL    HW112821   2.131   0.150   5.422
 3974SOL    HW212822   2.226   0.133   5.290
 3975SOL     OW12823   4.961   1.371   5.279
 3975SOL    HW112824   4.967   1.322   5.192
 3975SOL    HW212825   4.944   1.305   5.353
 3976SOL     OW12826   1.377   5.943   1.775
 3976SOL    HW112827   1.403   5.850   1.800
 3976SOL    HW212828   1.444   6.008   1.813
 3977SOL     OW12829   2.544   3.896   5.772
 3977SOL    HW112830   2.603   3.875   5.850
 3977SOL    HW212831   2.465   3.948   5.804
 3978SOL     OW12832   5.785   5.356   4.575
 3978SOL    HW112833   5.763   5.354   4.672
 3978SOL    HW212834   5.798   5.263   4.541
 3979SOL     OW12835   3.328   0.332   6.911
 3979SOL    HW112836   3.356   0.413   6.860
 3979SOL    HW212837   3.380   0.327   6.997
 3980SOL     OW12838   5.473   6.210   0.378
 3980SOL    HW112839   5.532   6.221   0.458
 3980SOL    HW212840   5.441   6.299   0.348
 3981SOL     OW12841   3.489   0.232   0.504
 3981SOL    HW112842   3.580   0.242   0.544
 3981SOL    HW212843   3.435   0.315   0.524
 3982SOL     OW12844   2.210   6.806   3.470
 3982SOL    HW112845   2.208   6.867   3.549
 3982SOL    HW212846   2.304   6.776   3.454
 3983SOL     OW12847   5.090   4.896   4.007
 3983SOL    HW112848   5.176   4.908   4.058
 3983SOL    HW212849   5.027   4.970   4.030
 3984SOL     OW12850   6.351   1.216   2.579
 3984SOL    HW112851   6.378   1.196   2.674
 3984SOL    HW212852   6.390   1.304   2.552
 3985SOL     OW12853   2.390   4.573   6.741
 3985SOL    HW112854   2.338   4.622   6.671
 3985SOL    HW212855   2.369   4.476   6.737
 3986SOL     OW12856   4.985   1.650   2.604
 3986SOL    HW112857   5.083   1.638   2.589
 3986SOL    HW212858   4.969   1.709   2.682
 3987SOL     OW12859   3.900   5.192   3.318
 3987SOL    HW112860   3.854   5.218   3.233
 3987SOL    HW212861   3.974   5.257   3.336
 3988SOL     OW12862   3.392   4.648   7.027
 3988SOL    HW112863   3.482   4.633   0.042
 3988SOL    HW212864   3.405   4.678   6.933
 3989SOL     OW12865   6.900   2.905   0.121
 3989SOL    HW112866   6.832   2.896   0.194
 3989SOL    HW212867   6.899   2.822   0.065
 3990SOL     OW12868   4.445   2.146   2.999
 3990SOL    HW112869   4.515   2.088   3.041
 3990SOL    HW212870   4.356   2.101   3.007
 3991SOL     OW12871   6.496   0.771   2.546
 3991SOL    HW112872   6.526   0.698   2.484
 3991SOL    HW212873   6.548   0.765   2.631
 3992SOL     OW12874   2.998   1.599   0.552
 3992SOL    HW112875   3.056   1.537   0.500
 3992SOL    HW212876   3.052   1.677   0.583
 3993SOL     OW12877   1.440   1.954   2.319
 3993SOL    HW112878   1.343   1.930   2.326
 3993SOL    HW212879   1.449   2.054   2.312
 3994SOL     OW12880   1.599   0.151   6.179
 3994SOL    HW112881   1.542   0.232   6.164
 3994SOL    HW212882   1.558   0.095   6.251
 3995SOL     OW12883   2.687   3.356   6.031
 3995SOL    HW112884   2.675   3.347   5.932
 3995SOL    HW212885   2.758   3.424   6.049
 3996SOL     OW12886   0.781   6.984   4.484
 3996SOL    HW112887   0.832   6.909   4.442
 3996SOL    HW212888   0.708   6.947   4.542
 3997SOL     OW12889   5.308   1.411   3.476
 3997SOL    HW112890   5.311   1.333   3.539
 3997SOL    HW212891   5.401   1.448   3.465
 3998SOL     OW12892   4.225   1.073   3.685
 3998SOL    HW112893   4.246   1.090   3.589
 3998SOL    HW212894   4.303   1.029   3.729
 3999SOL     OW12895   5.370   3.235   4.014
 3999SOL    HW112896   5.273   3.231   4.036
 3999SOL    HW212897   5.423   3.195   4.089
 4000SOL     OW12898   3.305   6.865   3.165
 4000SOL    HW112899   3.312   6.867   3.065
 4000SOL    HW212900   3.335   6.953   3.202
 4001SOL     OW12901   2.555   1.615   3.431
 4001SOL    HW112902   2.457   1.607   3.413
 4001SOL    HW212903   2.575   1.579   3.522
 4002SOL     OW12904   2.958   4.120   0.320
 4002SOL    HW112905   2.939   4.217   0.334
 4002SOL    HW212906   3.057   4.104   0.326
 4003SOL     OW12907   3.555   0.078   4.133
 4003SOL    HW112908   3.500   0.138   4.076
 4003SOL    HW212909   3.640   0.125   4.158
 4004SOL     OW12910   5.378   1.865   3.928
 4004SOL    HW112911   5.360   1.785   3.984
 4004SOL    HW212912   5.411   1.836   3.838
 4005SOL     OW12913   5.260   5.492   6.760
 4005SOL    HW112914   5.201   5.412   6.771
 4005SOL    HW212915   5.244   5.556   6.836
 4006SOL     OW12916   4.348   5.592   2.460
 4006SOL    HW112917   4.437   5.546   2.455
 4006SOL    HW212918   4.360   5.689   2.439
 4007SOL     OW12919   0.177   2.831   6.852
 4007SOL    HW112920   0.157   2.871   6.762
 4007SOL    HW212921   0.101   2.771   6.879
 4008SOL     OW12922   2.663   1.989   4.603
 4008SOL    HW112923   2.726   2.047   4.551
 4008SOL    HW212924   2.648   1.903   4.553
 4009SOL     OW12925   4.438   3.525   1.411
 4009SOL    HW112926   4.406   3.474   1.491
 4009SOL    HW212927   4.484   3.608   1.440
 4010SOL     OW12928   2.733   3.023   1.323
 4010SOL    HW112929   2.686   3.016   1.235
 4010SOL    HW212930   2.735   2.933   1.367
 4011SOL     OW12931   0.363   1.215   2.047
 4011SOL    HW112932   0.265   1.203   2.064
 4011SOL    HW212933   0.415   1.154   2.107
 4012SOL     OW12934   6.413   4.495   1.905
 4012SOL    HW112935   6.330   4.547   1.883
 4012SOL    HW212936   6.391   4.397   1.908
 4013SOL     OW12937   3.292   1.603   4.943
 4013SOL    HW112938   3.209   1.573   4.895
 4013SOL    HW212939   3.360   1.632   4.876
 4014SOL     OW12940   5.133   6.459   2.467
 4014SOL    HW112941   5.172   6.420   2.383
 4014SOL    HW212942   5.206   6.481   2.530
 4015SOL     OW12943   5.120   5.027   6.259
 4015SOL    HW112944   5.169   4.965   6.198
 4015SOL    HW212945   5.037   5.060   6.214
 4016SOL     OW12946   2.611   6.380   6.135
 4016SOL    HW112947   2.646   6.440   6.063
 4016SOL    HW212948   2.564   6.303   6.093
 4017SOL     OW12949   6.674   5.918   0.697
 4017SOL    HW112950   6.736   5.994   0.716
 4017SOL    HW212951   6.580   5.946   0.718
 4018SOL     OW12952   3.580   6.007   2.724
 4018SOL    HW112953   3.609   6.093   2.764
 4018SOL    HW212954   3.506   6.024   2.659
 4019SOL     OW12955   5.073   4.403   3.465
 4019SOL    HW112956   5.053   4.311   3.430
 4019SOL    HW212957   4.987   4.451   3.483
 4020SOL     OW12958   4.825   1.982   4.897
 4020SOL    HW112959   4.786   1.989   4.989
 4020SOL    HW212960   4.917   2.019   4.897
 4021SOL     OW12961   3.663   5.099   5.894
 4021SOL    HW112962   3.587   5.076   5.954
 4021SOL    HW212963   3.748   5.066   5.934
 4022SOL     OW12964   5.133   1.639   6.619
 4022SOL    HW112965   5.157   1.592   6.534
 4022SOL    HW212966   5.208   1.630   6.684
 4023SOL     OW12967   6.185   1.744   4.680
 4023SOL    HW112968   6.120   1.755   4.606
 4023SOL    HW212969   6.278   1.746   4.643
 4024SOL     OW12970   3.708   6.785   3.616
 4024SOL    HW112971   3.763   6.816   3.538
 4024SOL    HW212972   3.748   6.819   3.701
 4025SOL     OW12973   0.686   4.155   2.695
 4025SOL    HW112974   0.709   4.151   2.597
 4025SOL    HW212975   0.759   4.201   2.744
 4026SOL     OW12976   5.764   5.983   4.200
 4026SOL    HW112977   5.860   5.969   4.224
 4026SOL    HW212978   5.708   5.916   4.248
 4027SOL     OW12979   3.708   4.048   2.093
 4027SOL    HW112980   3.733   4.029   2.188
 4027SOL    HW212981   3.688   4.145   2.083
 4028SOL     OW12982   1.699   1.921   4.633
 4028SOL    HW112983   1.610   1.964   4.615
 4028SOL    HW212984   1.747   1.908   4.546
 4029SOL     OW12985   2.848   4.242   5.776
 4029SOL    HW112986   2.873   4.150   5.806
 4029SOL    HW212987   2.787   4.236   5.697
 4030SOL     OW12988   0.970   2.291   5.554
 4030SOL    HW112989   0.984   2.238   5.471
 4030SOL    HW212990   0.925   2.234   5.623
 4031SOL     OW12991   4.636   5.512   3.768
 4031SOL    HW112992   4.721   5.540   3.812
 4031SOL    HW212993   4.626   5.559   3.681
 4032SOL     OW12994   6.275   6.532   4.143
 4032SOL    HW112995   6.266   6.596   4.066
 4032SOL    HW212996   6.371   6.515   4.162
 4033SOL     OW12997   3.275   3.989   4.476
 4033SOL    HW112998   3.179   3.964   4.484
 4033SOL    HW212999   3.305   4.034   4.561
 4034SOL     OW13000   6.309   1.376   4.733
 4034SOL    HW113001   6.360   1.400   4.816
 4034SOL    HW213002   6.258   1.455   4.701
 4035SOL     OW13003   0.481   4.804   6.901
 4035SOL    HW113004   0.480   4.705   6.912
 4035SOL    HW213005   0.410   4.831   6.836
 4036SOL     OW13006   6.293   6.178   2.896
 4036SOL    HW113007   6.241   6.246   2.845
 4036SOL    HW213008   6.364   6.139   2.837
 4037SOL     OW13009   1.459   3.872   6.300
 4037SOL    HW113010   1.448   3.927   6.217
 4037SOL    HW213011   1.404   3.911   6.374
 4038SOL     OW13012   4.900   4.307   2.926
 4038SOL    HW113013   4.977   4.323   2.988
 4038SOL    HW213014   4.907   4.368   2.848
 4039SOL     OW13015   5.112   5.795   0.576
 4039SOL    HW113016   5.092   5.855   0.654
 4039SOL    HW213017   5.211   5.781   0.570
 4040SOL     OW13018   3.016   0.478   1.337
 4040SOL    HW113019   2.982   0.441   1.250
 4040SOL    HW213020   2.967   0.563   1.358
 4041SOL     OW13021   1.252   6.079   2.950
 4041SOL    HW113022   1.234   6.177   2.955
 4041SOL    HW213023   1.294   6.048   3.036
 4042SOL     OW13024   6.267   5.579   2.125
 4042SOL    HW113025   6.217   5.644   2.182
 4042SOL    HW213026   6.313   5.628   2.051
 4043SOL     OW13027   5.131   2.252   2.429
 4043SOL    HW113028   5.181   2.246   2.343
 4043SOL    HW213029   5.108   2.160   2.460
 4044SOL     OW13030   6.196   0.366   3.210
 4044SOL    HW113031   6.292   0.338   3.220
 4044SOL    HW213032   6.183   0.406   3.120
 4045SOL     OW13033   2.236   4.910   6.764
 4045SOL    HW113034   2.308   4.955   6.816
 4045SOL    HW213035   2.179   4.856   6.826
 4046SOL     OW13036   0.728   2.267   2.013
 4046SOL    HW113037   0.700   2.238   1.921
 4046SOL    HW213038   0.711   2.365   2.023
 4047SOL     OW13039   3.095   3.611   1.762
 4047SOL    HW113040   3.057   3.596   1.671
 4047SOL    HW213041   3.113   3.523   1.806
 4048SOL     OW13042   5.530   0.947   1.077
 4048SOL    HW113043   5.506   1.001   1.158
 4048SOL    HW213044   5.592   1.000   1.020
 4049SOL     OW13045   5.662   0.013   5.757
 4049SOL    HW113046   5.745   6.987   5.750
 4049SOL    HW213047   5.588   6.984   5.794
 4050SOL     OW13048   1.807   6.310   0.401
 4050SOL    HW113049   1.816   6.409   0.405
 4050SOL    HW213050   1.710   6.285   0.396
 4051SOL     OW13051   2.967   4.744   0.527
 4051SOL    HW113052   2.881   4.701   0.498
 4051SOL    HW213053   2.947   4.818   0.591
 4052SOL     OW13054   0.305   0.809   0.054
 4052SOL    HW113055   0.317   0.853   6.993
 4052SOL    HW213056   0.353   0.721   0.055
 4053SOL     OW13057   3.457   4.943   3.831
 4053SOL    HW113058   3.442   4.911   3.924
 4053SOL    HW213059   3.553   4.929   3.806
 4054SOL     OW13060   3.297   2.444   0.905
 4054SOL    HW113061   3.262   2.358   0.942
 4054SOL    HW213062   3.284   2.516   0.973
 4055SOL     OW13063   2.930   2.598   6.330
 4055SOL    HW113064   2.909   2.554   6.242
 4055SOL    HW213065   3.021   2.569   6.360
 4056SOL     OW13066   3.757   2.895   6.848
 4056SOL    HW113067   3.710   2.807   6.857
 4056SOL    HW213068   3.696   2.961   6.805
 4057SOL     OW13069   4.801   3.486   6.658
 4057SOL    HW113070   4.751   3.567   6.688
 4057SOL    HW213071   4.895   3.513   6.633
 4058SOL     OW13072   2.302   1.169   5.291
 4058SOL    HW113073   2.314   1.081   5.338
 4058SOL    HW213074   2.211   1.172   5.249
 4059SOL     OW13075   1.810   2.021   4.873
 4059SOL    HW113076   1.791   1.986   4.781
 4059SOL    HW213077   1.874   2.098   4.866
 4060SOL     OW13078   4.205   4.698   3.986
 4060SOL    HW113079   4.290   4.721   3.940
 4060SOL    HW213080   4.220   4.694   4.085
 4061SOL     OW13081   3.562   4.492   1.663
 4061SOL    HW113082   3.555   4.570   1.726
 4061SOL    HW213083   3.471   4.458   1.641
 4062SOL     OW13084   3.386   1.101   2.774
 4062SOL    HW113085   3.404   1.066   2.682
 4062SOL    HW213086   3.296   1.145   2.776
 4063SOL     OW13087   3.186   5.482   6.000
 4063SOL    HW113088   3.172   5.470   6.099
 4063SOL    HW213089   3.141   5.566   5.970
 4064SOL     OW13090   0.559   0.127   2.854
 4064SOL    HW113091   0.636   0.120   2.918
 4064SOL    HW213092   0.521   0.220   2.858
 4065SOL     OW13093   6.835   6.707   0.809
 4065SOL    HW113094   6.829   6.783   0.874
 4065SOL    HW213095   6.885   6.632   0.851
 4066SOL     OW13096   5.605   4.132   1.784
 4066SOL    HW113097   5.599   4.221   1.740
 4066SOL    HW213098   5.517   4.109   1.827
 4067SOL     OW13099   5.802   1.250   2.945
 4067SOL    HW113100   5.813   1.155   2.918
 4067SOL    HW213101   5.704   1.272   2.952
 4068SOL     OW13102   5.678   0.641   4.121
 4068SOL    HW113103   5.639   0.630   4.212
 4068SOL    HW213104   5.763   0.588   4.115
 4069SOL     OW13105   5.501   4.989   0.883
 4069SOL    HW113106   5.465   5.064   0.938
 4069SOL    HW213107   5.554   4.927   0.940
 4070SOL     OW13108   2.080   3.772   3.104
 4070SOL    HW113109   2.109   3.683   3.068
 4070SOL    HW213110   2.141   3.798   3.180
 4071SOL     OW13111   1.692   0.327   4.324
 4071SOL    HW113112   1.636   0.314   4.405
 4071SOL    HW213113   1.789   0.320   4.349
 4072SOL     OW13114   1.516   6.978   4.244
 4072SOL    HW113115   1.553   6.931   4.324
 4072SOL    HW213116   1.436   6.929   4.211
 4073SOL     OW13117   2.875   5.818   6.324
 4073SOL    HW113118   2.923   5.816   6.412
 4073SOL    HW213119   2.780   5.789   6.337
 4074SOL     OW13120   0.943   2.465   1.018
 4074SOL    HW113121   0.874   2.505   0.958
 4074SOL    HW213122   0.899   2.401   1.081
 4075SOL     OW13123   4.688   1.120   3.209
 4075SOL    HW113124   4.760   1.188   3.225
 4075SOL    HW213125   4.668   1.071   3.294
 4076SOL     OW13126   1.713   3.379   4.395
 4076SOL    HW113127   1.754   3.311   4.334
 4076SOL    HW213128   1.615   3.387   4.376
 4077SOL     OW13129   3.401   0.965   0.078
 4077SOL    HW113130   3.441   0.948   0.168
 4077SOL    HW213131   3.439   0.901   0.011
 4078SOL     OW13132   6.283   4.112   1.438
 4078SOL    HW113133   6.315   4.170   1.513
 4078SOL    HW213134   6.280   4.165   1.353
 4079SOL     OW13135   0.797   1.154   3.688
 4079SOL    HW113136   0.875   1.119   3.635
 4079SOL    HW213137   0.745   1.077   3.725
 4080SOL     OW13138   3.160   3.575   1.454
 4080SOL    HW113139   3.100   3.651   1.430
 4080SOL    HW213140   3.137   3.495   1.397
 4081SOL     OW13141   2.088   1.654   5.425
 4081SOL    HW113142   2.127   1.744   5.403
 4081SOL    HW213143   2.089   1.640   5.524
 4082SOL     OW13144   1.062   2.820   5.032
 4082SOL    HW113145   1.107   2.874   5.104
 4082SOL    HW213146   1.128   2.758   4.990
 4083SOL     OW13147   5.684   4.920   3.313
 4083SOL    HW113148   5.655   4.885   3.402
 4083SOL    HW213149   5.784   4.915   3.307
 4084SOL     OW13150   4.373   1.575   3.647
 4084SOL    HW113151   4.436   1.649   3.625
 4084SOL    HW213152   4.308   1.563   3.572
 4085SOL     OW13153   2.818   5.444   2.240
 4085SOL    HW113154   2.904   5.400   2.213
 4085SOL    HW213155   2.745   5.413   2.179
 4086SOL     OW13156   6.550   5.655   6.607
 4086SOL    HW113157   6.559   5.754   6.622
 4086SOL    HW213158   6.626   5.607   6.650
 4087SOL     OW13159   2.289   6.996   2.663
 4087SOL    HW113160   2.348   0.013   2.730
 4087SOL    HW213161   2.197   6.986   2.702
 4088SOL     OW13162   0.189   1.195   5.642
 4088SOL    HW113163   0.268   1.150   5.683
 4088SOL    HW213164   0.185   1.290   5.675
 4089SOL     OW13165   0.223   6.699   3.380
 4089SOL    HW113166   0.279   6.769   3.334
 4089SOL    HW213167   0.283   6.626   3.414
 4090SOL     OW13168   2.361   6.898   5.362
 4090SOL    HW113169   2.438   6.961   5.371
 4090SOL    HW213170   2.298   6.932   5.292
 4091SOL     OW13171   2.118   5.544   0.928
 4091SOL    HW113172   2.046   5.492   0.974
 4091SOL    HW213173   2.197   5.484   0.913
 4092SOL     OW13174   4.892   3.304   4.517
 4092SOL    HW113175   4.882   3.365   4.438
 4092SOL    HW213176   4.886   3.356   4.601
 4093SOL     OW13177   5.133   5.709   2.895
 4093SOL    HW113178   5.120   5.622   2.942
 4093SOL    HW213179   5.062   5.719   2.824
 4094SOL     OW13180   0.011   5.601   6.744
 4094SOL    HW113181   0.065   5.520   6.720
 4094SOL    HW213182   7.005   5.593   6.837
 4095SOL     OW13183   0.337   4.909   0.310
 4095SOL    HW113184   0.307   4.968   0.385
 4095SOL    HW213185   0.380   4.965   0.239
 4096SOL     OW13186   1.969   1.845   6.492
 4096SOL    HW113187   1.950   1.901   6.411
 4096SOL    HW213188   1.971   1.903   6.573
 4097SOL     OW13189   0.371   4.244   5.085
 4097SOL    HW113190   0.431   4.321   5.061
 4097SOL    HW213191   0.419   4.183   5.148
 4098SOL     OW13192   2.349   5.168   3.072
 4098SOL    HW113193   2.357   5.267   3.087
 4098SOL    HW213194   2.268   5.149   3.017
 4099SOL     OW13195   4.268   4.558   5.910
 4099SOL    HW113196   4.174   4.589   5.916
 4099SOL    HW213197   4.303   4.535   6.001
 4100SOL     OW13198   1.737   1.081   3.544
 4100SOL    HW113199   1.707   1.082   3.449
 4100SOL    HW213200   1.822   1.030   3.552
 4101SOL     OW13201   6.021   0.653   6.883
 4101SOL    HW113202   6.021   0.745   6.923
 4101SOL    HW213203   6.037   0.585   6.954
 4102SOL     OW13204   1.803   0.588   0.031
 4102SOL    HW113205   1.777   0.536   6.978
 4102SOL    HW213206   1.902   0.586   0.043
 4103SOL     OW13207   1.802   6.682   1.726
 4103SOL    HW113208   1.817   6.780   1.740
 4103SOL    HW213209   1.754   6.644   1.804
 4104SOL     OW13210   0.421   5.729   3.807
 4104SOL    HW113211   0.450   5.634   3.821
 4104SOL    HW213212   0.443   5.783   3.888
 4105SOL     OW13213   4.395   1.272   0.937
 4105SOL    HW113214   4.310   1.273   0.989
 4105SOL    HW213215   4.458   1.205   0.978
 4106SOL     OW13216   0.036   2.074   3.803
 4106SOL    HW113217   0.044   2.095   3.706
 4106SOL    HW213218   6.967   2.061   3.826
 4107SOL     OW13219   0.257   6.458   6.477
 4107SOL    HW113220   0.333   6.482   6.416
 4107SOL    HW213221   0.212   6.375   6.444
 4108SOL     OW13222   6.929   5.371   3.979
 4108SOL    HW113223   6.898   5.280   4.007
 4108SOL    HW213224   6.963   5.420   4.059
 4109SOL     OW13225   6.263   5.936   3.410
 4109SOL    HW113226   6.338   5.909   3.350
 4109SOL    HW213227   6.213   6.013   3.370
 4110SOL     OW13228   4.787   3.598   0.146
 4110SOL    HW113229   4.814   3.505   0.124
 4110SOL    HW213230   4.687   3.606   0.144
 4111SOL     OW13231   6.879   4.295   5.065
 4111SOL    HW113232   6.813   4.283   5.139
 4111SOL    HW213233   6.970   4.313   5.104
 4112SOL     OW13234   4.378   0.495   5.151
 4112SOL    HW113235   4.279   0.498   5.136
 4112SOL    HW213236   4.421   0.571   5.103
 4113SOL     OW13237   5.026   4.336   4.802
 4113SOL    HW113238   5.088   4.308   4.875
 4113SOL    HW213239   5.074   4.335   4.714
 4114SOL     OW13240   6.672   1.404   2.949
 4114SOL    HW113241   6.625   1.492   2.951
 4114SOL    HW213242   6.605   1.331   2.935
 4115SOL     OW13243   3.261   4.893   3.643
 4115SOL    HW113244   3.186   4.835   3.674
 4115SOL    HW213245   3.327   4.904   3.717
 4116SOL     OW13246   5.240   2.788   3.285
 4116SOL    HW113247   5.316   2.742   3.239
 4116SOL    HW213248   5.192   2.723   3.343
 4117SOL     OW13249   1.293   2.708   2.543
 4117SOL    HW113250   1.263   2.615   2.520
 4117SOL    HW213251   1.377   2.729   2.493
 4118SOL     OW13252   6.978   6.321   6.367
 4118SOL    HW113253   6.922   6.376   6.306
 4118SOL    HW213254   6.927   6.302   6.451
 4119SOL     OW13255   1.987   0.933   3.274
 4119SOL    HW113256   1.973   1.023   3.314
 4119SOL    HW213257   1.960   0.935   3.177
 4120SOL     OW13258   2.075   1.124   6.469
 4120SOL    HW113259   2.008   1.052   6.453
 4120SOL    HW213260   2.033   1.196   6.525
 4121SOL     OW13261   6.717   7.013   1.963
 4121SOL    HW113262   6.628   6.989   1.922
 4121SOL    HW213263   6.721   6.978   2.056
 4122SOL     OW13264   0.407   4.817   4.213
 4122SOL    HW113265   0.469   4.766   4.273
 4122SOL    HW213266   0.416   4.783   4.119
 4123SOL     OW13267   3.666   4.877   2.731
 4123SOL    HW113268   3.576   4.910   2.760
 4123SOL    HW213269   3.669   4.873   2.631
 4124SOL     OW13270   6.560   5.731   0.912
 4124SOL    HW113271   6.573   5.797   0.986
 4124SOL    HW213272   6.616   5.757   0.834
 4125SOL     OW13273   5.560   2.142   1.859
 4125SOL    HW113274   5.605   2.097   1.936
 4125SOL    HW213275   5.537   2.236   1.884
 4126SOL     OW13276   1.181   2.658   2.120
 4126SOL    HW113277   1.277   2.639   2.140
 4126SOL    HW213278   1.157   2.621   2.031
 4127SOL     OW13279   3.797   1.991   4.041
 4127SOL    HW113280   3.795   1.899   4.081
 4127SOL    HW213281   3.856   2.050   4.095
 4128SOL     OW13282   0.879   3.473   1.196
 4128SOL    HW113283   0.891   3.543   1.266
 4128SOL    HW213284   0.966   3.424   1.182
 4129SOL     OW13285   2.787   2.839   0.832
 4129SOL    HW113286   2.738   2.759   0.800
 4129SOL    HW213287   2.855   2.866   0.763
 4130SOL     OW13288   6.239   3.135   1.122
 4130SOL    HW113289   6.276   3.225   1.146
 4130SOL    HW213290   6.146   3.126   1.157
 4131SOL     OW13291   4.728   0.847   2.015
 4131SOL    HW113292   4.814   0.805   2.045
 4131SOL    HW213293   4.748   0.929   1.961
 4132SOL     OW13294   6.746   3.995   4.828
 4132SOL    HW113295   6.695   4.076   4.799
 4132SOL    HW213296   6.843   4.018   4.837
 4133SOL     OW13297   5.811   6.707   1.732
 4133SOL    HW113298   5.775   6.735   1.821
 4133SOL    HW213299   5.866   6.781   1.694
 4134SOL     OW13300   2.468   2.904   1.411
 4134SOL    HW113301   2.419   2.841   1.352
 4134SOL    HW213302   2.548   2.858   1.449
 4135SOL     OW13303   6.887   1.264   2.221
 4135SOL    HW113304   6.922   1.347   2.264
 4135SOL    HW213305   6.849   1.286   2.131
 4136SOL     OW13306   1.137   4.372   1.975
 4136SOL    HW113307   1.224   4.359   1.927
 4136SOL    HW213308   1.128   4.467   2.003
 4137SOL     OW13309   1.620   3.066   0.591
 4137SOL    HW113310   1.694   3.001   0.608
 4137SOL    HW213311   1.560   3.029   0.520
 4138SOL     OW13312   4.160   6.288   1.023
 4138SOL    HW113313   4.112   6.375   1.032
 4138SOL    HW213314   4.113   6.217   1.076
 4139SOL     OW13315   1.791   1.876   3.010
 4139SOL    HW113316   1.885   1.887   2.976
 4139SOL    HW213317   1.793   1.843   3.104
 4140SOL     OW13318   2.450   2.557   4.391
 4140SOL    HW113319   2.459   2.651   4.359
 4140SOL    HW213320   2.526   2.535   4.451
 4141SOL     OW13321   4.427   0.232   7.019
 4141SOL    HW113322   4.390   0.169   0.059
 4141SOL    HW213323   4.466   0.311   0.037
 4142SOL     OW13324   6.673   4.342   3.036
 4142SOL    HW113325   6.714   4.377   2.952
 4142SOL    HW213326   6.604   4.406   3.070
 4143SOL     OW13327   5.831   3.219   0.738
 4143SOL    HW113328   5.891   3.140   0.748
 4143SOL    HW213329   5.776   3.230   0.821
 4144SOL     OW13330   5.764   2.124   0.407
 4144SOL    HW113331   5.767   2.192   0.334
 4144SOL    HW213332   5.679   2.133   0.458
 4145SOL     OW13333   0.229   6.613   1.017
 4145SOL    HW113334   0.204   6.518   1.037
 4145SOL    HW213335   0.153   6.673   1.040
 4146SOL     OW13336   5.798   6.509   3.604
 4146SOL    HW113337   5.857   6.440   3.561
 4146SOL    HW213338   5.855   6.579   3.647
 4147SOL     OW13339   4.788   4.326   5.435
 4147SOL    HW113340   4.829   4.323   5.526
 4147SOL    HW213341   4.752   4.235   5.411
 4148SOL     OW13342   3.146   0.743   5.493
 4148SOL    HW113343   3.237   0.709   5.468
 4148SOL    HW213344   3.147   0.843   5.491
 4149SOL     OW13345   2.217   3.173   0.942
 4149SOL    HW113346   2.150   3.103   0.916
 4149SOL    HW213347   2.187   3.218   1.026
 4150SOL     OW13348   6.068   2.578   6.304
 4150SOL    HW113349   6.006   2.512   6.263
 4150SOL    HW213350   6.018   2.635   6.370
 4151SOL     OW13351   2.366   6.824   4.723
 4151SOL    HW113352   2.461   6.852   4.734
 4151SOL    HW213353   2.357   6.765   4.643
 4152SOL     OW13354   2.976   5.753   1.968
 4152SOL    HW113355   3.026   5.731   1.884
 4152SOL    HW213356   2.938   5.845   1.961
 4153SOL     OW13357   6.713   5.005   1.545
 4153SOL    HW113358   6.717   4.987   1.643
 4153SOL    HW213359   6.617   5.009   1.516
 4154SOL     OW13360   0.494   5.530   5.016
 4154SOL    HW113361   0.517   5.459   5.083
 4154SOL    HW213362   0.499   5.620   5.060
 4155SOL     OW13363   0.926   1.973   1.398
 4155SOL    HW113364   0.998   1.931   1.344
 4155SOL    HW213365   0.966   2.027   1.472
 4156SOL     OW13366   6.997   4.672   5.061
 4156SOL    HW113367   6.985   4.694   5.158
 4156SOL    HW213368   6.932   4.601   5.035
 4157SOL     OW13369   6.607   6.395   1.935
 4157SOL    HW113370   6.634   6.490   1.919
 4157SOL    HW213371   6.682   6.346   1.980
 4158SOL     OW13372   2.104   2.630   1.920
 4158SOL    HW113373   2.136   2.685   1.997
 4158SOL    HW213374   2.009   2.654   1.899
 4159SOL     OW13375   2.813   1.456   3.158
 4159SOL    HW113376   2.750   1.527   3.188
 4159SOL    HW213377   2.774   1.366   3.179
 4160SOL     OW13378   6.513   0.104   6.943
 4160SOL    HW113379   6.548   0.011   6.948
 4160SOL    HW213380   6.462   0.117   6.858
 4161SOL     OW13381   2.261   1.988   1.397
 4161SOL    HW113382   2.355   1.985   1.364
 4161SOL    HW213383   2.198   1.967   1.322
 4162SOL     OW13384   6.317   5.825   1.164
 4162SOL    HW113385   6.293   5.728   1.159
 4162SOL    HW213386   6.336   5.850   1.259
 4163SOL     OW13387   4.081   6.430   1.344
 4163SOL    HW113388   4.044   6.510   1.392
 4163SOL    HW213389   4.098   6.454   1.248
 4164SOL     OW13390   7.021   6.469   5.114
 4164SOL    HW113391   6.935   6.446   5.068
 4164SOL    HW213392   7.001   6.519   5.199
 4165SOL     OW13393   3.838   1.104   5.411
 4165SOL    HW113394   3.879   1.067   5.493
 4165SOL    HW213395   3.802   1.196   5.430
 4166SOL     OW13396   5.972   0.563   2.561
 4166SOL    HW113397   5.903   0.560   2.488
 4166SOL    HW213398   5.972   0.476   2.610
 4167SOL     OW13399   3.351   5.152   5.869
 4167SOL    HW113400   3.440   5.133   5.828
 4167SOL    HW213401   3.325   5.076   5.929
 4168SOL     OW13402   6.575   4.533   0.300
 4168SOL    HW113403   6.645   4.591   0.260
 4168SOL    HW213404   6.575   4.444   0.254
 4169SOL     OW13405   5.205   4.216   4.968
 4169SOL    HW113406   5.276   4.214   4.898
 4169SOL    HW213407   5.245   4.193   5.057
 4170SOL     OW13408   5.069   2.986   4.787
 4170SOL    HW113409   5.023   3.063   4.830
 4170SOL    HW213410   5.035   2.900   4.827
 4171SOL     OW13411   1.632   3.973   1.319
 4171SOL    HW113412   1.695   3.975   1.396
 4171SOL    HW213413   1.542   3.941   1.351
 4172SOL     OW13414   3.460   3.642   0.948
 4172SOL    HW113415   3.406   3.605   1.023
 4172SOL    HW213416   3.556   3.648   0.975
 4173SOL     OW13417   4.563   2.937   5.300
 4173SOL    HW113418   4.630   2.982   5.240
 4173SOL    HW213419   4.540   2.847   5.263
 4174SOL     OW13420   4.815   0.212   4.429
 4174SOL    HW113421   4.875   0.203   4.509
 4174SOL    HW213422   4.796   0.122   4.392
 4175SOL     OW13423   1.662   4.498   6.265
 4175SOL    HW113424   1.706   4.483   6.353
 4175SOL    HW213425   1.729   4.489   6.191
 4176SOL     OW13426   5.067   6.736   0.159
 4176SOL    HW113427   5.135   6.762   0.092
 4176SOL    HW213428   5.067   6.637   0.171
 4177SOL     OW13429   4.622   4.884   4.799
 4177SOL    HW113430   4.649   4.842   4.713
 4177SOL    HW213431   4.569   4.967   4.781
 4178SOL     OW13432   3.135   5.725   2.273
 4178SOL    HW113433   3.129   5.799   2.340
 4178SOL    HW213434   3.048   5.718   2.223
 4179SOL     OW13435   5.134   3.221   4.424
 4179SOL    HW113436   5.109   3.160   4.349
 4179SOL    HW213437   5.053   3.271   4.455
 4180SOL     OW13438   5.511   3.338   0.749
 4180SOL    HW113439   5.579   3.381   0.809
 4180SOL    HW213440   5.420   3.376   0.769
 4181SOL     OW13441   5.155   0.433   5.627
 4181SOL    HW113442   5.230   0.382   5.671
 4181SOL    HW213443   5.137   0.517   5.679
 4182SOL     OW13444   0.538   5.828   4.038
 4182SOL    HW113445   0.488   5.785   4.113
 4182SOL    HW213446   0.566   5.920   4.066
 4183SOL     OW13447   2.380   1.081   1.961
 4183SOL    HW113448   2.345   1.034   1.879
 4183SOL    HW213449   2.441   1.020   2.011
 4184SOL     OW13450   3.156   6.553   2.772
 4184SOL    HW113451   3.159   6.629   2.836
 4184SOL    HW213452   3.192   6.583   2.683
 4185SOL     OW13453   0.167   3.655   3.339
 4185SOL    HW113454   0.207   3.667   3.249
 4185SOL    HW213455   0.076   3.697   3.342
 4186SOL     OW13456   1.987   5.692   6.548
 4186SOL    HW113457   2.013   5.662   6.640
 4186SOL    HW213458   2.048   5.649   6.481
 4187SOL     OW13459   2.356   3.427   0.043
 4187SOL    HW113460   2.410   3.349   0.073
 4187SOL    HW213461   2.291   3.398   7.001
 4188SOL     OW13462   5.323   0.411   5.964
 4188SOL    HW113463   5.376   0.336   6.005
 4188SOL    HW213464   5.384   0.487   5.942
 4189SOL     OW13465   4.797   5.569   3.331
 4189SOL    HW113466   4.896   5.569   3.321
 4189SOL    HW213467   4.760   5.478   3.311
 4190SOL     OW13468   6.911   6.459   0.957
 4190SOL    HW113469   6.890   6.418   0.868
 4190SOL    HW213470   7.006   6.439   0.981
 4191SOL     OW13471   5.092   3.950   5.881
 4191SOL    HW113472   5.099   3.884   5.955
 4191SOL    HW213473   5.183   3.969   5.845
 4192SOL     OW13474   1.321   1.427   2.095
 4192SOL    HW113475   1.410   1.453   2.059
 4192SOL    HW213476   1.332   1.354   2.162
 4193SOL     OW13477   5.680   0.673   0.575
 4193SOL    HW113478   5.691   0.751   0.636
 4193SOL    HW213479   5.710   0.698   0.483
 4194SOL     OW13480   3.866   0.590   5.538
 4194SOL    HW113481   3.848   0.687   5.548
 4194SOL    HW213482   3.866   0.546   5.628
 4195SOL     OW13483   4.629   6.572   1.834
 4195SOL    HW113484   4.691   6.547   1.760
 4195SOL    HW213485   4.669   6.544   1.922
 4196SOL     OW13486   6.781   2.911   3.703
 4196SOL    HW113487   6.749   2.818   3.685
 4196SOL    HW213488   6.743   2.973   3.634
 4197SOL     OW13489   3.888   6.172   6.021
 4197SOL    HW113490   3.915   6.251   6.077
 4197SOL    HW213491   3.793   6.183   5.992
 4198SOL     OW13492   6.434   0.556   1.920
 4198SOL    HW113493   6.434   0.625   1.847
 4198SOL    HW213494   6.344   0.552   1.962
 4199SOL     OW13495   1.667   4.004   6.609
 4199SOL    HW113496   1.575   3.992   6.571
 4199SOL    HW213497   1.682   4.100   6.631
 4200SOL     OW13498   3.731   0.900   4.945
 4200SOL    HW113499   3.704   0.993   4.918
 4200SOL    HW213500   3.720   0.838   4.868
 4201SOL     OW13501   6.552   7.026   3.454
 4201SOL    HW113502   6.460   0.038   3.451
 4201SOL    HW213503   6.618   0.069   3.478
 4202SOL     OW13504   3.667   5.679   6.920
 4202SOL    HW113505   3.684   5.766   6.965
 4202SOL    HW213506   3.754   5.632   6.904
 4203SOL     OW13507   5.251   5.006   0.349
 4203SOL    HW113508   5.231   5.021   0.446
 4203SOL    HW213509   5.188   4.937   0.312
 4204SOL     OW13510   3.611   3.277   5.713
 4204SOL    HW113511   3.536   3.255   5.776
 4204SOL    HW213512   3.593   3.235   5.624
 4205SOL     OW13513   3.580   5.861   4.832
 4205SOL    HW113514   3.550   5.879   4.926
 4205SOL    HW213515   3.582   5.763   4.815
 4206SOL     OW13516   0.941   1.228   5.135
 4206SOL    HW113517   0.938   1.138   5.179
 4206SOL    HW213518   1.035   1.250   5.109
 4207SOL     OW13519   2.002   2.139   1.223
 4207SOL    HW113520   1.945   2.067   1.185
 4207SOL    HW213521   1.985   2.146   1.321
 4208SOL     OW13522   1.676   4.582   5.112
 4208SOL    HW113523   1.616   4.546   5.041
 4208SOL    HW213524   1.639   4.560   5.202
 4209SOL     OW13525   6.938   5.792   2.999
 4209SOL    HW113526   6.930   5.707   3.050
 4209SOL    HW213527   6.891   5.865   3.048
 4210SOL     OW13528   3.999   3.250   4.720
 4210SOL    HW113529   3.926   3.188   4.693
 4210SOL    HW213530   4.048   3.282   4.639
 4211SOL     OW13531   3.572   1.785   5.054
 4211SOL    HW113532   3.645   1.777   4.986
 4211SOL    HW213533   3.557   1.695   5.097
 4212SOL     OW13534   0.240   1.106   3.499
 4212SOL    HW113535   0.303   1.037   3.463
 4212SOL    HW213536   0.158   1.109   3.442
 4213SOL     OW13537   2.934   1.110   3.316
 4213SOL    HW113538   2.907   1.176   3.386
 4213SOL    HW213539   2.943   1.019   3.357
 4214SOL     OW13540   0.568   5.418   4.546
 4214SOL    HW113541   0.536   5.455   4.633
 4214SOL    HW213542   0.594   5.322   4.558
 4215SOL     OW13543   5.093   6.648   5.393
 4215SOL    HW113544   5.013   6.706   5.381
 4215SOL    HW213545   5.175   6.698   5.364
 4216SOL     OW13546   1.587   0.703   2.660
 4216SOL    HW113547   1.681   0.687   2.631
 4216SOL    HW213548   1.584   0.780   2.724
 4217SOL     OW13549   0.916   0.185   1.582
 4217SOL    HW113550   0.997   0.148   1.627
 4217SOL    HW213551   0.942   0.262   1.524
 4218SOL     OW13552   3.346   1.255   1.218
 4218SOL    HW113553   3.251   1.250   1.248
 4218SOL    HW213554   3.392   1.168   1.237
 4219SOL     OW13555   4.398   6.257   4.695
 4219SOL    HW113556   4.373   6.353   4.706
 4219SOL    HW213557   4.493   6.251   4.663
 4220SOL     OW13558   5.279   2.004   1.658
 4220SOL    HW113559   5.326   1.982   1.744
 4220SOL    HW213560   5.183   2.023   1.677
 4221SOL     OW13561   6.272   5.115   6.880
 4221SOL    HW113562   6.181   5.106   6.920
 4221SOL    HW213563   6.341   5.113   6.952
 4222SOL     OW13564   5.531   1.694   3.203
 4222SOL    HW113565   5.552   1.783   3.161
 4222SOL    HW213566   5.434   1.690   3.225
 4223SOL     OW13567   4.341   4.086   0.987
 4223SOL    HW113568   4.416   4.151   0.990
 4223SOL    HW213569   4.354   4.024   0.909
 4224SOL     OW13570   5.766   4.305   5.065
 4224SOL    HW113571   5.708   4.322   4.985
 4224SOL    HW213572   5.717   4.332   5.148
 4225SOL     OW13573   1.479   2.207   5.666
 4225SOL    HW113574   1.499   2.304   5.681
 4225SOL    HW213575   1.479   2.187   5.568
 4226SOL     OW13576   0.981   5.971   4.624
 4226SOL    HW113577   0.924   6.019   4.690
 4226SOL    HW213578   0.979   6.020   4.537
 4227SOL     OW13579   5.130   5.807   1.670
 4227SOL    HW113580   5.071   5.778   1.594
 4227SOL    HW213581   5.224   5.813   1.639
 4228SOL     OW13582   0.554   5.808   4.997
 4228SOL    HW113583   0.558   5.811   4.897
 4228SOL    HW213584   0.646   5.793   5.034
 4229SOL     OW13585   5.377   5.893   5.530
 4229SOL    HW113586   5.291   5.851   5.558
 4229SOL    HW213587   5.395   5.973   5.586
 4230SOL     OW13588   1.312   0.077   2.811
 4230SOL    HW113589   1.324   0.139   2.733
 4230SOL    HW213590   1.247   0.006   2.786
 4231SOL     OW13591   4.958   0.821   5.588
 4231SOL    HW113592   4.966   0.869   5.675
 4231SOL    HW213593   4.898   0.742   5.599
 4232SOL     OW13594   2.349   5.615   3.609
 4232SOL    HW113595   2.407   5.626   3.690
 4232SOL    HW213596   2.365   5.525   3.568
 4233SOL     OW13597   0.121   0.012   4.157
 4233SOL    HW113598   0.073   6.961   4.195
 4233SOL    HW213599   0.220   7.028   4.169
 4234SOL     OW13600   1.772   5.593   5.412
 4234SOL    HW113601   1.859   5.611   5.458
 4234SOL    HW213602   1.700   5.583   5.480
 4235SOL     OW13603   6.586   5.217   5.596
 4235SOL    HW113604   6.680   5.187   5.613
 4235SOL    HW213605   6.540   5.232   5.683
 4236SOL     OW13606   0.464   5.251   2.507
 4236SOL    HW113607   0.547   5.202   2.533
 4236SOL    HW213608   0.484   5.314   2.432
 4237SOL     OW13609   6.458   4.213   4.441
 4237SOL    HW113610   6.500   4.299   4.413
 4237SOL    HW213611   6.360   4.226   4.454
 4238SOL     OW13612   1.005   0.964   3.273
 4238SOL    HW113613   0.972   0.970   3.179
 4238SOL    HW213614   1.024   0.869   3.296
 4239SOL     OW13615   4.068   1.044   2.895
 4239SOL    HW113616   3.992   1.061   2.958
 4239SOL    HW213617   4.124   1.127   2.888
 4240SOL     OW13618   2.044   5.214   0.010
 4240SOL    HW113619   1.987   5.132   0.016
 4240SOL    HW213620   2.049   5.258   0.100
 4241SOL     OW13621   6.048   1.677   0.442
 4241SOL    HW113622   6.065   1.672   0.344
 4241SOL    HW213623   5.955   1.710   0.458
 4242SOL     OW13624   2.280   2.316   3.822
 4242SOL    HW113625   2.200   2.268   3.859
 4242SOL    HW213626   2.271   2.414   3.838
 4243SOL     OW13627   4.989   1.777   2.868
 4243SOL    HW113628   4.908   1.721   2.883
 4243SOL    HW213629   4.961   1.866   2.832
 4244SOL     OW13630   3.774   3.521   1.880
 4244SOL    HW113631   3.740   3.434   1.915
 4244SOL    HW213632   3.707   3.593   1.899
 4245SOL     OW13633   6.576   1.786   6.734
 4245SOL    HW113634   6.582   1.694   6.773
 4245SOL    HW213635   6.612   1.852   6.799
 4246SOL     OW13636   6.274   4.307   3.259
 4246SOL    HW113637   6.195   4.280   3.313
 4246SOL    HW213638   6.261   4.278   3.164
 4247SOL     OW13639   0.260   6.225   4.195
 4247SOL    HW113640   0.270   6.174   4.110
 4247SOL    HW213641   0.333   6.293   4.202
 4248SOL     OW13642   2.229   1.929   4.939
 4248SOL    HW113643   2.174   1.870   4.998
 4248SOL    HW213644   2.275   1.998   4.995
 4249SOL     OW13645   6.574   2.776   5.449
 4249SOL    HW113646   6.531   2.709   5.510
 4249SOL    HW213647   6.568   2.744   5.355
 4250SOL     OW13648   6.471   4.502   3.163
 4250SOL    HW113649   6.488   4.579   3.224
 4250SOL    HW213650   6.398   4.445   3.201
 4251SOL     OW13651   6.033   4.796   0.323
 4251SOL    HW113652   6.029   4.712   0.378
 4251SOL    HW213653   5.941   4.820   0.291
 4252SOL     OW13654   6.551   5.990   4.982
 4252SOL    HW113655   6.625   5.923   4.997
 4252SOL    HW213656   6.589   6.072   4.939
 4253SOL     OW13657   3.136   0.280   2.780
 4253SOL    HW113658   3.103   0.325   2.697
 4253SOL    HW213659   3.235   0.264   2.771
 4254SOL     OW13660   1.210   3.012   1.557
 4254SOL    HW113661   1.113   3.004   1.578
 4254SOL    HW213662   1.226   2.983   1.462
 4255SOL     OW13663   6.062   2.461   3.538
 4255SOL    HW113664   6.159   2.436   3.535
 4255SOL    HW213665   6.008   2.381   3.566
 4256SOL     OW13666   1.194   6.463   1.007
 4256SOL    HW113667   1.194   6.364   1.021
 4256SOL    HW213668   1.123   6.504   1.064
 4257SOL     OW13669   3.428   0.642   5.441
 4257SOL    HW113670   3.375   0.638   5.356
 4257SOL    HW213671   3.513   0.691   5.424
 4258SOL     OW13672   6.056   6.897   1.900
 4258SOL    HW113673   6.118   6.957   1.949
 4258SOL    HW213674   6.108   6.841   1.835
 4259SOL     OW13675   2.373   0.956   6.688
 4259SOL    HW113676   2.298   0.946   6.753
 4259SOL    HW213677   2.375   1.049   6.653
 4260SOL     OW13678   4.638   5.967   3.994
 4260SOL    HW113679   4.624   5.918   4.080
 4260SOL    HW213680   4.684   5.907   3.929
 4261SOL     OW13681   2.598   0.226   1.935
 4261SOL    HW113682   2.607   0.154   2.003
 4261SOL    HW213683   2.616   0.315   1.977
 4262SOL     OW13684   1.520   4.740   5.528
 4262SOL    HW113685   1.540   4.827   5.483
 4262SOL    HW213686   1.523   4.753   5.627
 4263SOL     OW13687   2.418   6.673   4.290
 4263SOL    HW113688   2.478   6.621   4.229
 4263SOL    HW213689   2.412   6.627   4.379
 4264SOL     OW13690   0.057   1.632   1.478
 4264SOL    HW113691   0.051   1.555   1.414
 4264SOL    HW213692   6.995   1.673   1.489
 4265SOL     OW13693   6.175   1.903   6.816
 4265SOL    HW113694   6.107   1.831   6.818
 4265SOL    HW213695   6.144   1.980   6.873
 4266SOL     OW13696   2.628   5.264   0.355
 4266SOL    HW113697   2.571   5.243   0.434
 4266SOL    HW213698   2.629   5.362   0.339
 4267SOL     OW13699   2.132   3.752   4.947
 4267SOL    HW113700   2.207   3.782   5.006
 4267SOL    HW213701   2.067   3.827   4.935
 4268SOL     OW13702   1.575   6.638   0.207
 4268SOL    HW113703   1.635   6.593   0.273
 4268SOL    HW213704   1.624   6.648   0.120
 4269SOL     OW13705   2.044   1.528   0.639
 4269SOL    HW113706   2.009   1.479   0.559
 4269SOL    HW213707   1.980   1.517   0.715
 4270SOL     OW13708   3.324   2.929   3.953
 4270SOL    HW113709   3.299   2.858   4.019
 4270SOL    HW213710   3.268   3.010   3.969
 4271SOL     OW13711   0.329   0.542   5.588
 4271SOL    HW113712   0.407   0.480   5.601
 4271SOL    HW213713   0.252   0.508   5.641
 4272SOL     OW13714   0.077   4.951   4.806
 4272SOL    HW113715   0.086   4.902   4.720
 4272SOL    HW213716   0.021   4.897   4.869
 4273SOL     OW13717   4.808   6.430   4.069
 4273SOL    HW113718   4.885   6.392   4.120
 4273SOL    HW213719   4.806   6.529   4.080
 4274SOL     OW13720   1.012   6.676   3.273
 4274SOL    HW113721   1.110   6.681   3.293
 4274SOL    HW213722   1.000   6.658   3.175
 4275SOL     OW13723   6.853   1.421   5.962
 4275SOL    HW113724   6.765   1.375   5.969
 4275SOL    HW213725   6.895   1.427   6.053
 4276SOL     OW13726   1.296   5.196   2.832
 4276SOL    HW113727   1.359   5.269   2.803
 4276SOL    HW213728   1.249   5.224   2.916
 4277SOL     OW13729   6.891   4.640   3.887
 4277SOL    HW113730   6.936   4.551   3.889
 4277SOL    HW213731   6.957   4.710   3.858
 4278SOL     OW13732   6.675   0.681   4.851
 4278SOL    HW113733   6.578   0.676   4.828
 4278SOL    HW213734   6.701   0.601   4.904
 4279SOL     OW13735   3.827   6.604   5.355
 4279SOL    HW113736   3.830   6.539   5.278
 4279SOL    HW213737   3.757   6.575   5.420
 4280SOL     OW13738   5.296   1.634   5.542
 4280SOL    HW113739   5.335   1.628   5.634
 4280SOL    HW213740   5.367   1.616   5.474
 4281SOL     OW13741   1.910   4.460   4.635
 4281SOL    HW113742   1.991   4.403   4.627
 4281SOL    HW213743   1.830   4.402   4.649
 4282SOL     OW13744   2.326   2.092   0.046
 4282SOL    HW113745   2.244   2.104   0.102
 4282SOL    HW213746   2.363   2.000   0.061
 4283SOL     OW13747   1.755   0.105   4.081
 4283SOL    HW113748   1.672   0.077   4.130
 4283SOL    HW213749   1.812   0.160   4.142
 4284SOL     OW13750   5.310   0.001   2.315
 4284SOL    HW113751   5.298   6.935   2.347
 4284SOL    HW213752   5.278   0.065   2.385
 4285SOL     OW13753   0.652   0.005   6.201
 4285SOL    HW113754   0.561   0.038   6.226
 4285SOL    HW213755   0.655   7.011   6.104
 4286SOL     OW13756   5.269   5.883   6.560
 4286SOL    HW113757   5.218   5.968   6.573
 4286SOL    HW213758   5.366   5.903   6.555
 4287SOL     OW13759   5.807   0.598   5.549
 4287SOL    HW113760   5.779   0.506   5.575
 4287SOL    HW213761   5.881   0.629   5.610
 4288SOL     OW13762   0.661   6.146   3.473
 4288SOL    HW113763   0.697   6.071   3.418
 4288SOL    HW213764   0.733   6.214   3.487
 4289SOL     OW13765   5.574   2.434   1.828
 4289SOL    HW113766   5.648   2.461   1.766
 4289SOL    HW213767   5.567   2.500   1.903
 4290SOL     OW13768   2.300   6.251   0.953
 4290SOL    HW113769   2.219   6.211   0.996
 4290SOL    HW213770   2.358   6.178   0.917
 4291SOL     OW13771   4.837   3.141   1.778
 4291SOL    HW113772   4.915   3.143   1.840
 4291SOL    HW213773   4.754   3.120   1.829
 4292SOL     OW13774   6.243   4.630   5.498
 4292SOL    HW113775   6.213   4.673   5.583
 4292SOL    HW213776   6.245   4.530   5.510
 4293SOL     OW13777   6.608   4.149   6.397
 4293SOL    HW113778   6.613   4.070   6.458
 4293SOL    HW213779   6.661   4.132   6.314
 4294SOL     OW13780   4.625   3.325   0.033
 4294SOL    HW113781   4.610   3.348   0.129
 4294SOL    HW213782   4.574   3.242   0.011
 4295SOL     OW13783   3.802   0.012   4.949
 4295SOL    HW113784   3.867   6.971   4.917
 4295SOL    HW213785   3.850   0.099   4.964
 4296SOL     OW13786   2.769   1.657   0.402
 4296SOL    HW113787   2.710   1.690   0.476
 4296SOL    HW213788   2.855   1.624   0.440
 4297SOL     OW13789   5.045   0.078   5.254
 4297SOL    HW113790   5.139   0.072   5.220
 4297SOL    HW213791   5.024   0.174   5.275
 4298SOL     OW13792   1.628   5.310   6.644
 4298SOL    HW113793   1.656   5.216   6.626
 4298SOL    HW213794   1.552   5.310   6.709
 4299SOL     OW13795   1.433   2.810   6.783
 4299SOL    HW113796   1.356   2.754   6.750
 4299SOL    HW213797   1.495   2.752   6.835
 4300SOL     OW13798   2.534   1.883   6.039
 4300SOL    HW113799   2.617   1.939   6.045
 4300SOL    HW213800   2.461   1.926   6.092
 4301SOL     OW13801   2.752   1.307   0.582
 4301SOL    HW113802   2.774   1.388   0.636
 4301SOL    HW213803   2.832   1.280   0.528
 4302SOL     OW13804   1.086   6.448   5.541
 4302SOL    HW113805   1.167   6.475   5.594
 4302SOL    HW213806   1.091   6.350   5.522
 4303SOL     OW13807   5.813   4.428   3.335
 4303SOL    HW113808   5.873   4.408   3.257
 4303SOL    HW213809   5.867   4.427   3.419
 4304SOL     OW13810   3.312   3.845   4.263
 4304SOL    HW113811   3.275   3.882   4.348
 4304SOL    HW213812   3.412   3.847   4.268
 4305SOL     OW13813   6.130   1.806   4.077
 4305SOL    HW113814   6.199   1.734   4.061
 4305SOL    HW213815   6.045   1.764   4.108
 4306SOL     OW13816   0.115   3.933   6.744
 4306SOL    HW113817   0.128   3.853   6.803
 4306SOL    HW213818   0.151   3.913   6.653
 4307SOL     OW13819   4.741   4.968   5.816
 4307SOL    HW113820   4.723   5.066   5.823
 4307SOL    HW213821   4.836   4.955   5.788
 4308SOL     OW13822   5.485   5.782   6.297
 4308SOL    HW113823   5.389   5.753   6.298
 4308SOL    HW213824   5.493   5.866   6.243
 4309SOL     OW13825   0.569   6.646   0.339
 4309SOL    HW113826   0.580   6.592   0.256
 4309SOL    HW213827   0.472   6.654   0.360
 4310SOL     OW13828   1.960   2.327   3.658
 4310SOL    HW113829   1.905   2.350   3.738
 4310SOL    HW213830   1.941   2.391   3.584
 4311SOL     OW13831   1.389   5.700   3.127
 4311SOL    HW113832   1.465   5.764   3.117
 4311SOL    HW213833   1.415   5.610   3.093
 4312SOL     OW13834   1.264   5.557   1.466
 4312SOL    HW113835   1.245   5.548   1.368
 4312SOL    HW213836   1.256   5.467   1.509
 4313SOL     OW13837   5.871   1.350   1.702
 4313SOL    HW113838   5.950   1.398   1.741
 4313SOL    HW213839   5.796   1.415   1.689
 4314SOL     OW13840   5.462   2.796   3.670
 4314SOL    HW113841   5.468   2.862   3.745
 4314SOL    HW213842   5.436   2.843   3.586
 4315SOL     OW13843   1.827   0.796   2.568
 4315SOL    HW113844   1.923   0.785   2.593
 4315SOL    HW213845   1.810   0.748   2.482
 4316SOL     OW13846   4.878   0.008   1.267
 4316SOL    HW113847   4.963   0.046   1.303
 4316SOL    HW213848   4.866   0.038   1.172
 4317SOL     OW13849   3.049   1.253   4.667
 4317SOL    HW113850   2.950   1.246   4.662
 4317SOL    HW213851   3.083   1.197   4.743
 4318SOL     OW13852   0.748   3.851   3.193
 4318SOL    HW113853   0.711   3.905   3.117
 4318SOL    HW213854   0.816   3.906   3.242
 4319SOL     OW13855   2.840   3.040   0.382
 4319SOL    HW113856   2.936   3.055   0.358
 4319SOL    HW213857   2.799   3.127   0.410
 4320SOL     OW13858   1.505   6.155   1.886
 4320SOL    HW113859   1.477   6.223   1.954
 4320SOL    HW213860   1.579   6.193   1.830
 4321SOL     OW13861   6.616   0.612   4.181
 4321SOL    HW113862   6.661   0.524   4.199
 4321SOL    HW213863   6.667   0.685   4.227
 4322SOL     OW13864   6.104   1.291   6.733
 4322SOL    HW113865   6.090   1.386   6.705
 4322SOL    HW213866   6.192   1.259   6.698
 4323SOL     OW13867   5.625   3.284   1.915
 4323SOL    HW113868   5.539   3.260   1.870
 4323SOL    HW213869   5.606   3.329   2.002
 4324SOL     OW13870   5.709   4.869   6.990
 4324SOL    HW113871   5.722   4.967   6.978
 4324SOL    HW213872   5.790   4.820   6.958
 4325SOL     OW13873   0.911   1.116   6.894
 4325SOL    HW113874   0.961   1.113   6.981
 4325SOL    HW213875   0.922   1.028   6.847
 4326SOL     OW13876   0.126   2.851   5.298
 4326SOL    HW113877   0.047   2.811   5.343
 4326SOL    HW213878   0.205   2.845   5.358
 4327SOL     OW13879   6.113   5.921   2.515
 4327SOL    HW113880   6.191   5.906   2.575
 4327SOL    HW213881   6.119   5.859   2.436
 4328SOL     OW13882   4.532   4.762   5.874
 4328SOL    HW113883   4.588   4.839   5.905
 4328SOL    HW213884   4.447   4.760   5.927
 4329SOL     OW13885   3.211   1.956   6.104
 4329SOL    HW113886   3.302   1.927   6.134
 4329SOL    HW213887   3.190   1.911   6.017
 4330SOL     OW13888   3.039   0.686   5.171
 4330SOL    HW113889   2.986   0.609   5.206
 4330SOL    HW213890   2.994   0.771   5.195
 4331SOL     OW13891   5.094   3.278   1.541
 4331SOL    HW113892   5.031   3.340   1.588
 4331SOL    HW213893   5.137   3.326   1.465
 4332SOL     OW13894   5.511   3.940   2.236
 4332SOL    HW113895   5.486   3.864   2.176
 4332SOL    HW213896   5.473   4.025   2.200
 4333SOL     OW13897   4.534   1.630   5.052
 4333SOL    HW113898   4.556   1.635   4.955
 4333SOL    HW213899   4.532   1.534   5.081
 4334SOL     OW13900   2.636   1.876   2.167
 4334SOL    HW113901   2.718   1.933   2.168
 4334SOL    HW213902   2.660   1.783   2.139
 4335SOL     OW13903   3.047   3.650   3.336
 4335SOL    HW113904   3.048   3.580   3.265
 4335SOL    HW213905   2.993   3.618   3.414
 4336SOL     OW13906   1.103   6.973   5.326
 4336SOL    HW113907   1.048   0.026   5.350
 4336SOL    HW213908   1.198   7.001   5.311
 4337SOL     OW13909   1.186   4.683   0.087
 4337SOL    HW113910   1.248   4.751   0.125
 4337SOL    HW213911   1.130   4.644   0.160
 4338SOL     OW13912   4.743   6.000   4.735
 4338SOL    HW113913   4.682   6.001   4.815
 4338SOL    HW213914   4.835   6.027   4.762
 4339SOL     OW13915   5.614   2.995   5.625
 4339SOL    HW113916   5.620   2.900   5.656
 4339SOL    HW213917   5.520   3.028   5.638
 4340SOL     OW13918   6.123   3.924   3.089
 4340SOL    HW113919   6.077   3.895   3.172
 4340SOL    HW213920   6.220   3.900   3.095
 4341SOL     OW13921   0.890   4.353   1.795
 4341SOL    HW113922   0.853   4.266   1.828
 4341SOL    HW213923   0.957   4.388   1.860
 4342SOL     OW13924   6.703   3.091   4.092
 4342SOL    HW113925   6.619   3.054   4.131
 4342SOL    HW213926   6.764   3.120   4.166
 4343SOL     OW13927   2.797   6.773   0.131
 4343SOL    HW113928   2.838   6.728   0.051
 4343SOL    HW213929   2.810   6.872   0.123
 4344SOL     OW13930   1.822   5.343   3.471
 4344SOL    HW113931   1.814   5.291   3.555
 4344SOL    HW213932   1.866   5.431   3.490
 4345SOL     OW13933   1.798   3.309   5.495
 4345SOL    HW113934   1.832   3.333   5.586
 4345SOL    HW213935   1.839   3.222   5.466
 4346SOL     OW13936   2.362   3.028   1.620
 4346SOL    HW113937   2.409   2.991   1.539
 4346SOL    HW213938   2.281   2.973   1.640
 4347SOL     OW13939   6.860   1.093   1.291
 4347SOL    HW113940   6.866   1.029   1.215
 4347SOL    HW213941   6.943   1.087   1.347
 4348SOL     OW13942   6.966   2.766   2.753
 4348SOL    HW113943   6.890   2.748   2.690
 4348SOL    HW213944   0.017   2.711   2.727
 4349SOL     OW13945   0.097   1.696   2.965
 4349SOL    HW113946   0.043   1.730   2.888
 4349SOL    HW213947   0.195   1.712   2.947
 4350SOL     OW13948   4.862   2.205   4.123
 4350SOL    HW113949   4.808   2.133   4.166
 4350SOL    HW213950   4.861   2.286   4.181
 4351SOL     OW13951   2.072   6.197   1.098
 4351SOL    HW113952   2.097   6.281   1.147
 4351SOL    HW213953   2.073   6.120   1.160
 4352SOL     OW13954   0.832   2.050   1.723
 4352SOL    HW113955   0.746   2.002   1.706
 4352SOL    HW213956   0.892   1.994   1.780
 4353SOL     OW13957   3.014   4.903   1.080
 4353SOL    HW113958   2.974   4.835   1.019
 4353SOL    HW213959   3.113   4.897   1.077
 4354SOL     OW13960   2.004   6.518   5.728
 4354SOL    HW113961   2.009   6.521   5.828
 4354SOL    HW213962   1.981   6.609   5.693
 4355SOL     OW13963   3.568   0.164   1.877
 4355SOL    HW113964   3.653   0.146   1.829
 4355SOL    HW213965   3.511   0.082   1.876
 4356SOL     OW13966   4.734   4.050   1.784
 4356SOL    HW113967   4.747   4.085   1.878
 4356SOL    HW213968   4.639   4.062   1.757
 4357SOL     OW13969   6.350   0.095   6.700
 4357SOL    HW113970   6.252   0.079   6.715
 4357SOL    HW213971   6.396   0.007   6.685
 4358SOL     OW13972   6.509   6.254   0.389
 4358SOL    HW113973   6.437   6.189   0.412
 4358SOL    HW213974   6.473   6.347   0.395
 4359SOL     OW13975   1.368   2.134   4.785
 4359SOL    HW113976   1.292   2.070   4.794
 4359SOL    HW213977   1.447   2.099   4.836
 4360SOL     OW13978   1.766   3.483   2.662
 4360SOL    HW113979   1.762   3.390   2.626
 4360SOL    HW213980   1.801   3.545   2.592
 4361SOL     OW13981   3.130   2.621   1.749
 4361SOL    HW113982   3.089   2.558   1.816
 4361SOL    HW213983   3.190   2.569   1.688
 4362SOL     OW13984   6.094   3.810   5.374
 4362SOL    HW113985   6.018   3.873   5.386
 4362SOL    HW213986   6.080   3.729   5.430
 4363SOL     OW13987   5.143   2.123   5.682
 4363SOL    HW113988   5.168   2.043   5.626
 4363SOL    HW213989   5.143   2.097   5.778
 4364SOL     OW13990   2.994   3.848   5.492
 4364SOL    HW113991   3.080   3.809   5.459
 4364SOL    HW213992   2.950   3.900   5.418
 4365SOL     OW13993   2.880   1.299   2.016
 4365SOL    HW113994   2.790   1.272   2.052
 4365SOL    HW213995   2.934   1.217   1.997
 4366SOL     OW13996   5.580   6.590   0.937
 4366SOL    HW113997   5.524   6.669   0.911
 4366SOL    HW213998   5.542   6.549   1.020
 4367SOL     OW13999   1.007   4.965   5.596
 4367SOL    HW114000   1.044   4.879   5.631
 4367SOL    HW214001   0.962   4.948   5.509
 4368SOL     OW14002   3.795   5.429   1.062
 4368SOL    HW114003   3.702   5.446   1.095
 4368SOL    HW214004   3.797   5.345   1.009
 4369SOL     OW14005   4.437   5.733   2.806
 4369SOL    HW114006   4.424   5.793   2.727
 4369SOL    HW214007   4.500   5.776   2.870
 4370SOL     OW14008   5.118   4.313   3.128
 4370SOL    HW114009   5.187   4.244   3.104
 4370SOL    HW214010   5.163   4.393   3.167
 4371SOL     OW14011   6.177   0.135   1.339
 4371SOL    HW114012   6.237   0.149   1.260
 4371SOL    HW214013   6.172   0.037   1.359
 4372SOL     OW14014   4.473   1.502   2.559
 4372SOL    HW114015   4.400   1.553   2.605
 4372SOL    HW214016   4.554   1.501   2.617
 4373SOL     OW14017   0.245   3.305   6.735
 4373SOL    HW114018   0.167   3.292   6.674
 4373SOL    HW214019   0.213   3.325   6.827
 4374SOL     OW14020   1.175   1.901   1.620
 4374SOL    HW114021   1.185   1.991   1.577
 4374SOL    HW214022   1.257   1.846   1.603
 4375SOL     OW14023   2.545   0.261   4.088
 4375SOL    HW114024   2.555   0.292   4.183
 4375SOL    HW214025   2.552   0.340   4.027
 4376SOL     OW14026   6.982   0.269   2.203
 4376SOL    HW114027   6.899   0.222   2.233
 4376SOL    HW214028   6.987   0.360   2.245
 4377SOL     OW14029   5.561   3.690   0.677
 4377SOL    HW114030   5.512   3.754   0.617
 4377SOL    HW214031   5.617   3.742   0.742
 4378SOL     OW14032   1.654   0.990   2.838
 4378SOL    HW114033   1.564   0.991   2.795
 4378SOL    HW214034   1.722   1.022   2.773
 4379SOL     OW14035   2.834   1.592   4.554
 4379SOL    HW114036   2.821   1.679   4.505
 4379SOL    HW214037   2.746   1.557   4.584
 4380SOL     OW14038   1.398   0.637   1.767
 4380SOL    HW114039   1.319   0.690   1.797
 4380SOL    HW214040   1.449   0.605   1.847
 4381SOL     OW14041   1.609   5.633   4.924
 4381SOL    HW114042   1.578   5.539   4.938
 4381SOL    HW214043   1.537   5.684   4.876
 4382SOL     OW14044   6.672   3.190   5.843
 4382SOL    HW114045   6.719   3.270   5.882
 4382SOL    HW214046   6.706   3.107   5.887
 4383SOL     OW14047   6.280   3.888   6.393
 4383SOL    HW114048   6.352   3.912   6.329
 4383SOL    HW214049   6.193   3.926   6.362
 4384SOL     OW14050   6.526   0.886   3.546
 4384SOL    HW114051   6.545   0.812   3.482
 4384SOL    HW214052   6.434   0.875   3.583
 4385SOL     OW14053   4.270   2.248   4.827
 4385SOL    HW114054   4.278   2.323   4.892
 4385SOL    HW214055   4.350   2.188   4.835
 4386SOL     OW14056   1.213   3.842   5.212
 4386SOL    HW114057   1.201   3.779   5.288
 4386SOL    HW214058   1.212   3.792   5.126
 4387SOL     OW14059   6.675   2.580   1.605
 4387SOL    HW114060   6.720   2.588   1.516
 4387SOL    HW214061   6.639   2.487   1.616
 4388SOL     OW14062   5.140   2.036   5.977
 4388SOL    HW114063   5.101   2.122   6.008
 4388SOL    HW214064   5.071   1.964   5.983
 4389SOL     OW14065   6.984   3.656   1.372
 4389SOL    HW114066   0.045   3.615   1.352
 4389SOL    HW214067   6.911   3.597   1.338
 4390SOL     OW14068   4.674   6.924   0.884
 4390SOL    HW114069   4.694   7.022   0.882
 4390SOL    HW214070   4.630   6.900   0.971
 4391SOL     OW14071   2.225   4.911   6.256
 4391SOL    HW114072   2.271   4.994   6.288
 4391SOL    HW214073   2.268   4.880   6.171
 4392SOL     OW14074   0.540   1.800   4.270
 4392SOL    HW114075   0.526   1.736   4.345
 4392SOL    HW214076   0.456   1.852   4.254
 4393SOL     OW14077   6.104   0.574   1.994
 4393SOL    HW114078   6.100   0.597   2.092
 4393SOL    HW214079   6.085   0.476   1.983
 4394SOL     OW14080   1.152   6.839   1.802
 4394SOL    HW114081   1.201   6.810   1.720
 4394SOL    HW214082   1.149   6.939   1.805
 4395SOL     OW14083   1.818   0.117   1.534
 4395SOL    HW114084   1.804   0.200   1.588
 4395SOL    HW214085   1.849   0.043   1.594
 4396SOL     OW14086   1.607   1.646   3.654
 4396SOL    HW114087   1.668   1.573   3.626
 4396SOL    HW214088   1.515   1.609   3.669
 4397SOL     OW14089   1.943   2.972   4.011
 4397SOL    HW114090   1.868   2.923   3.968
 4397SOL    HW214091   2.030   2.932   3.983
 4398SOL     OW14092   2.074   3.796   6.133
 4398SOL    HW114093   2.089   3.715   6.191
 4398SOL    HW214094   2.154   3.856   6.138
 4399SOL     OW14095   2.020   5.797   1.884
 4399SOL    HW114096   1.946   5.730   1.893
 4399SOL    HW214097   1.985   5.879   1.838
 4400SOL     OW14098   2.286   6.807   3.866
 4400SOL    HW114099   2.312   6.874   3.936
 4400SOL    HW214100   2.202   6.761   3.894
 4401SOL     OW14101   3.986   6.415   4.855
 4401SOL    HW114102   3.887   6.426   4.854
 4401SOL    HW214103   4.013   6.342   4.792
 4402SOL     OW14104   0.773   0.464   2.194
 4402SOL    HW114105   0.769   0.557   2.157
 4402SOL    HW214106   0.685   0.442   2.237
 4403SOL     OW14107   0.934   5.992   1.224
 4403SOL    HW114108   1.003   6.030   1.163
 4403SOL    HW214109   0.977   5.934   1.292
 4404SOL     OW14110   1.260   5.835   5.556
 4404SOL    HW114111   1.299   5.803   5.470
 4404SOL    HW214112   1.196   5.910   5.538
 4405SOL     OW14113   2.750   5.324   3.651
 4405SOL    HW114114   2.800   5.384   3.713
 4405SOL    HW214115   2.732   5.237   3.697
 4406SOL     OW14116   6.797   3.508   1.280
 4406SOL    HW114117   6.783   3.426   1.225
 4406SOL    HW214118   6.713   3.529   1.330
 4407SOL     OW14119   0.099   5.461   1.375
 4407SOL    HW114120   0.128   5.479   1.280
 4407SOL    HW214121   0.156   5.390   1.414
 4408SOL     OW14122   3.265   5.933   6.931
 4408SOL    HW114123   3.192   6.001   6.936
 4408SOL    HW214124   3.226   5.844   6.908
 4409SOL     OW14125   4.098   0.906   1.420
 4409SOL    HW114126   4.127   0.862   1.505
 4409SOL    HW214127   4.035   0.981   1.441
 4410SOL     OW14128   0.012   5.941   0.692
 4410SOL    HW114129   6.997   5.900   0.773
 4410SOL    HW214130   0.110   5.925   0.694
 4411SOL     OW14131   3.777   5.015   5.656
 4411SOL    HW114132   3.723   5.045   5.735
 4411SOL    HW214133   3.727   5.036   5.572
 4412SOL     OW14134   5.059   6.509   4.338
 4412SOL    HW114135   5.096   6.595   4.374
 4412SOL    HW214136   4.962   6.502   4.361
 4413SOL     OW14137   4.369   6.489   4.286
 4413SOL    HW114138   4.448   6.450   4.239
 4413SOL    HW214139   4.326   6.418   4.342
 4414SOL     OW14140   4.470   5.533   1.744
 4414SOL    HW114141   4.517   5.477   1.675
 4414SOL    HW214142   4.396   5.480   1.785
 4415SOL     OW14143   3.592   4.053   0.932
 4415SOL    HW114144   3.573   4.146   0.965
 4415SOL    HW214145   3.568   3.987   1.003
 4416SOL     OW14146   3.998   1.398   4.395
 4416SOL    HW114147   3.952   1.323   4.443
 4416SOL    HW214148   3.954   1.413   4.306
 4417SOL     OW14149   6.391   2.921   4.053
 4417SOL    HW114150   6.301   2.885   4.029
 4417SOL    HW214151   6.386   2.966   4.142
 4418SOL     OW14152   6.035   1.996   2.003
 4418SOL    HW114153   6.064   1.976   1.910
 4418SOL    HW214154   6.079   1.932   2.066
 4419SOL     OW14155   6.193   6.405   5.903
 4419SOL    HW114156   6.193   6.468   5.825
 4419SOL    HW214157   6.203   6.312   5.870
 4420SOL     OW14158   3.604   1.837   1.332
 4420SOL    HW114159   3.555   1.754   1.358
 4420SOL    HW214160   3.700   1.828   1.360
 4421SOL     OW14161   1.527   3.189   5.470
 4421SOL    HW114162   1.508   3.104   5.520
 4421SOL    HW214163   1.622   3.216   5.486
 4422SOL     OW14164   0.886   5.186   6.854
 4422SOL    HW114165   0.892   5.093   6.892
 4422SOL    HW214166   0.850   5.248   6.924
 4423SOL     OW14167   6.373   4.635   5.758
 4423SOL    HW114168   6.468   4.664   5.743
 4423SOL    HW214169   6.371   4.537   5.778
 4424SOL     OW14170   5.228   5.781   4.074
 4424SOL    HW114171   5.314   5.731   4.076
 4424SOL    HW214172   5.237   5.862   4.017
 4425SOL     OW14173   1.657   5.435   0.575
 4425SOL    HW114174   1.662   5.336   0.586
 4425SOL    HW214175   1.727   5.478   0.633
 4426SOL     OW14176   1.071   0.377   4.038
 4426SOL    HW114177   1.012   0.458   4.039
 4426SOL    HW214178   1.093   0.350   4.132
 4427SOL     OW14179   3.680   6.255   2.854
 4427SOL    HW114180   3.774   6.288   2.843
 4427SOL    HW214181   3.621   6.332   2.876
 4428SOL     OW14182   5.215   0.937   4.701
 4428SOL    HW114183   5.192   1.034   4.700
 4428SOL    HW214184   5.151   0.887   4.642
 4429SOL     OW14185   2.848   6.533   2.825
 4429SOL    HW114186   2.882   6.622   2.856
 4429SOL    HW214187   2.894   6.460   2.875
 4430SOL     OW14188   5.501   4.859   4.427
 4430SOL    HW114189   5.498   4.958   4.437
 4430SOL    HW214190   5.458   4.816   4.507
 4431SOL     OW14191   3.263   0.531   3.657
 4431SOL    HW114192   3.243   0.598   3.728
 4431SOL    HW214193   3.317   0.574   3.584
 4432SOL     OW14194   2.329   3.330   6.336
 4432SOL    HW114195   2.325   3.382   6.251
 4432SOL    HW214196   2.395   3.255   6.326
 4433SOL     OW14197   0.608   2.294   4.455
 4433SOL    HW114198   0.586   2.301   4.552
 4433SOL    HW214199   0.523   2.300   4.402
 4434SOL     OW14200   6.213   1.243   1.645
 4434SOL    HW114201   6.145   1.269   1.577
 4434SOL    HW214202   6.305   1.246   1.604
 4435SOL     OW14203   3.883   4.088   0.909
 4435SOL    HW114204   3.819   4.012   0.910
 4435SOL    HW214205   3.903   4.113   0.814
 4436SOL     OW14206   4.173   1.756   1.519
 4436SOL    HW114207   4.087   1.727   1.476
 4436SOL    HW214208   4.154   1.832   1.581
 4437SOL     OW14209   0.501   3.199   2.671
 4437SOL    HW114210   0.498   3.297   2.649
 4437SOL    HW214211   0.570   3.184   2.742
 4438SOL     OW14212   4.568   0.075   5.661
 4438SOL    HW114213   4.599   0.134   5.735
 4438SOL    HW214214   4.490   0.117   5.615
 4439SOL     OW14215   0.941   5.564   3.017
 4439SOL    HW114216   0.864   5.617   2.982
 4439SOL    HW214217   1.026   5.612   2.998
 4440SOL     OW14218   2.856   4.471   0.964
 4440SOL    HW114219   2.846   4.425   1.052
 4440SOL    HW214220   2.778   4.450   0.906
 4441SOL     OW14221   0.650   1.539   0.727
 4441SOL    HW114222   0.695   1.503   0.645
 4441SOL    HW214223   0.555   1.510   0.728
 4442SOL     OW14224   1.109   5.299   6.218
 4442SOL    HW114225   1.086   5.351   6.300
 4442SOL    HW214226   1.127   5.362   6.143
 4443SOL     OW14227   0.933   4.648   6.395
 4443SOL    HW114228   0.949   4.676   6.490
 4443SOL    HW214229   0.835   4.638   6.379
 4444SOL     OW14230   4.577   4.042   0.674
 4444SOL    HW114231   4.601   4.111   0.743
 4444SOL    HW214232   4.509   3.979   0.713
 4445SOL     OW14233   1.209   5.305   7.015
 4445SOL    HW114234   1.260   5.243   0.046
 4445SOL    HW214235   1.270   5.376   6.980
 4446SOL     OW14236   5.505   1.859   0.082
 4446SOL    HW114237   5.592   1.811   0.071
 4446SOL    HW214238   5.447   1.809   0.148
 4447SOL     OW14239   5.773   4.605   5.201
 4447SOL    HW114240   5.866   4.571   5.208
 4447SOL    HW214241   5.758   4.645   5.111
 4448SOL     OW14242   2.889   0.062   0.963
 4448SOL    HW114243   2.880   0.053   0.864
 4448SOL    HW214244   2.858   0.153   0.991
 4449SOL     OW14245   4.540   1.105   6.505
 4449SOL    HW114246   4.545   1.058   6.593
 4449SOL    HW214247   4.464   1.170   6.506
 4450SOL     OW14248   3.457   1.679   0.447
 4450SOL    HW114249   3.548   1.686   0.488
 4450SOL    HW214250   3.393   1.638   0.512
 4451SOL     OW14251   4.704   4.893   3.964
 4451SOL    HW114252   4.755   4.865   4.045
 4451SOL    HW214253   4.757   4.872   3.882
 4452SOL     OW14254   5.789   6.194   4.724
 4452SOL    HW114255   5.824   6.113   4.676
 4452SOL    HW214256   5.778   6.172   4.821
 4453SOL     OW14257   1.128   2.911   2.024
 4453SOL    HW114258   1.063   2.967   2.076
 4453SOL    HW214259   1.161   2.836   2.082
 4454SOL     OW14260   0.066   1.277   6.633
 4454SOL    HW114261   7.001   1.290   6.666
 4454SOL    HW214262   0.118   1.362   6.645
 4455SOL     OW14263   6.150   5.580   5.198
 4455SOL    HW114264   6.184   5.627   5.117
 4455SOL    HW214265   6.206   5.499   5.216
 4456SOL     OW14266   2.289   5.988   3.697
 4456SOL    HW114267   2.256   5.930   3.622
 4456SOL    HW214268   2.331   6.071   3.660
 4457SOL     OW14269   2.073   2.147   4.798
 4457SOL    HW114270   2.014   2.168   4.721
 4457SOL    HW214271   2.166   2.127   4.765
 4458SOL     OW14272   2.023   3.672   1.764
 4458SOL    HW114273   2.121   3.685   1.747
 4458SOL    HW214274   2.009   3.650   1.861
 4459SOL     OW14275   2.082   1.821   4.690
 4459SOL    HW114276   2.110   1.882   4.764
 4459SOL    HW214277   2.149   1.748   4.679
 4460SOL     OW14278   0.309   3.286   4.131
 4460SOL    HW114279   0.239   3.255   4.066
 4460SOL    HW214280   0.299   3.384   4.146
 4461SOL     OW14281   1.686   0.640   1.205
 4461SOL    HW114282   1.698   0.546   1.173
 4461SOL    HW214283   1.705   0.704   1.131
 4462SOL     OW14284   6.013   3.764   2.220
 4462SOL    HW114285   5.978   3.674   2.246
 4462SOL    HW214286   5.940   3.831   2.228
 4463SOL     OW14287   5.259   1.161   0.991
 4463SOL    HW114288   5.345   1.189   0.948
 4463SOL    HW214289   5.199   1.240   1.002
 4464SOL     OW14290   0.559   5.346   0.455
 4464SOL    HW114291   0.479   5.369   0.511
 4464SOL    HW214292   0.601   5.261   0.488
 4465SOL     OW14293   2.601   5.594   0.298
 4465SOL    HW114294   2.699   5.606   0.315
 4465SOL    HW214295   2.553   5.583   0.385
 4466SOL     OW14296   2.293   2.079   3.270
 4466SOL    HW114297   2.217   2.102   3.210
 4466SOL    HW214298   2.271   1.998   3.324
 4467SOL     OW14299   2.594   5.523   4.203
 4467SOL    HW114300   2.507   5.476   4.186
 4467SOL    HW214301   2.653   5.464   4.258
 4468SOL     OW14302   0.967   3.329   0.435
 4468SOL    HW114303   0.929   3.417   0.407
 4468SOL    HW214304   0.931   3.306   0.526
 4469SOL     OW14305   2.472   0.606   1.325
 4469SOL    HW114306   2.485   0.683   1.388
 4469SOL    HW214307   2.538   0.615   1.249
 4470SOL     OW14308   0.601   0.736   2.402
 4470SOL    HW114309   0.540   0.698   2.332
 4470SOL    HW214310   0.644   0.819   2.366
 4471SOL     OW14311   2.166   2.995   6.603
 4471SOL    HW114312   2.193   2.898   6.610
 4471SOL    HW214313   2.223   3.049   6.665
 4472SOL     OW14314   1.607   2.585   1.316
 4472SOL    HW114315   1.562   2.674   1.307
 4472SOL    HW214316   1.663   2.567   1.236
 4473SOL     OW14317   6.495   3.091   3.849
 4473SOL    HW114318   6.594   3.097   3.852
 4473SOL    HW214319   6.462   3.037   3.926
 4474SOL     OW14320   3.025   0.835   1.965
 4474SOL    HW114321   2.948   0.774   1.983
 4474SOL    HW214322   3.110   0.792   1.996
 4475SOL     OW14323   0.762   3.687   2.083
 4475SOL    HW114324   0.707   3.637   2.016
 4475SOL    HW214325   0.705   3.754   2.130
 4476SOL     OW14326   5.498   1.210   4.273
 4476SOL    HW114327   5.538   1.186   4.362
 4476SOL    HW214328   5.533   1.299   4.244
 4477SOL     OW14329   1.720   0.470   5.221
 4477SOL    HW114330   1.781   0.439   5.294
 4477SOL    HW214331   1.664   0.546   5.254
 4478SOL     OW14332   1.001   0.406   1.436
 4478SOL    HW114333   0.936   0.417   1.361
 4478SOL    HW214334   1.094   0.417   1.401
 4479SOL     OW14335   1.186   1.797   0.189
 4479SOL    HW114336   1.240   1.828   0.110
 4479SOL    HW214337   1.229   1.716   0.229
 4480SOL     OW14338   0.397   4.621   4.589
 4480SOL    HW114339   0.372   4.654   4.680
 4480SOL    HW214340   0.458   4.543   4.598
 4481SOL     OW14341   2.525   5.469   5.329
 4481SOL    HW114342   2.450   5.534   5.340
 4481SOL    HW214343   2.555   5.437   5.419
 4482SOL     OW14344   2.815   4.008   6.209
 4482SOL    HW114345   2.771   3.923   6.239
 4482SOL    HW214346   2.914   4.002   6.224
 4483SOL     OW14347   0.768   2.524   1.652
 4483SOL    HW114348   0.716   2.443   1.682
 4483SOL    HW214349   0.767   2.528   1.552
 4484SOL     OW14350   2.673   3.260   0.423
 4484SOL    HW114351   2.628   3.176   0.453
 4484SOL    HW214352   2.644   3.336   0.481
 4485SOL     OW14353   4.825   2.452   5.204
 4485SOL    HW114354   4.737   2.410   5.226
 4485SOL    HW214355   4.881   2.459   5.287
 4486SOL     OW14356   5.767   4.930   5.397
 4486SOL    HW114357   5.766   4.841   5.441
 4486SOL    HW214358   5.675   4.951   5.363
 4487SOL     OW14359   1.869   2.823   6.712
 4487SOL    HW114360   1.919   2.756   6.658
 4487SOL    HW214361   1.853   2.905   6.657
 4488SOL     OW14362   1.103   3.697   3.734
 4488SOL    HW114363   1.110   3.789   3.772
 4488SOL    HW214364   1.156   3.691   3.650
 4489SOL     OW14365   4.883   5.233   4.960
 4489SOL    HW114366   4.867   5.154   4.902
 4489SOL    HW214367   4.825   5.309   4.931
 4490SOL     OW14368   5.579   2.063   1.031
 4490SOL    HW114369   5.585   1.969   1.067
 4490SOL    HW214370   5.525   2.119   1.093
 4491SOL     OW14371   0.616   3.511   3.110
 4491SOL    HW114372   0.573   3.531   3.198
 4491SOL    HW214373   0.597   3.416   3.085
 4492SOL     OW14374   5.995   0.811   1.351
 4492SOL    HW114375   6.017   0.780   1.444
 4492SOL    HW214376   6.066   0.780   1.288
 4493SOL     OW14377   5.411   6.745   4.678
 4493SOL    HW114378   5.384   6.841   4.690
 4493SOL    HW214379   5.500   6.731   4.720
 4494SOL     OW14380   0.619   0.540   5.870
 4494SOL    HW114381   0.547   0.595   5.912
 4494SOL    HW214382   0.593   0.518   5.776
 4495SOL     OW14383   3.201   5.950   2.465
 4495SOL    HW114384   3.162   5.903   2.544
 4495SOL    HW214385   3.134   6.013   2.426
 4496SOL     OW14386   4.698   6.137   6.523
 4496SOL    HW114387   4.773   6.111   6.462
 4496SOL    HW214388   4.611   6.110   6.483
 4497SOL     OW14389   3.601   2.400   6.980
 4497SOL    HW114390   3.630   2.340   0.026
 4497SOL    HW214391   3.561   2.346   6.906
 4498SOL     OW14392   6.922   5.316   6.465
 4498SOL    HW114393   7.015   5.281   6.458
 4498SOL    HW214394   6.880   5.316   6.374
 4499SOL     OW14395   6.495   1.618   2.937
 4499SOL    HW114396   6.531   1.710   2.954
 4499SOL    HW214397   6.430   1.621   2.862
 4500SOL     OW14398   4.265   4.763   6.689
 4500SOL    HW114399   4.167   4.774   6.705
 4500SOL    HW214400   4.310   4.742   6.776
 4501SOL     OW14401   5.747   2.028   2.170
 4501SOL    HW114402   5.794   1.942   2.189
 4501SOL    HW214403   5.791   2.074   2.093
 4502SOL     OW14404   0.792   3.551   6.996
 4502SOL    HW114405   0.711   3.514   0.014
 4502SOL    HW214406   0.765   3.591   6.908
 4503SOL     OW14407   3.062   0.226   2.109
 4503SOL    HW114408   3.160   0.218   2.126
 4503SOL    HW214409   3.027   0.141   2.070
 4504SOL     OW14410   6.798   1.972   3.918
 4504SOL    HW114411   6.853   1.893   3.890
 4504SOL    HW214412   6.757   2.014   3.838
 4505SOL     OW14413   6.501   4.661   2.543
 4505SOL    HW114414   6.478   4.654   2.446
 4505SOL    HW214415   6.515   4.569   2.580
 4506SOL     OW14416   4.842   3.129   4.172
 4506SOL    HW114417   4.935   3.118   4.208
 4506SOL    HW214418   4.820   3.226   4.163
 4507SOL     OW14419   6.885   3.323   3.345
 4507SOL    HW114420   6.798   3.297   3.302
 4507SOL    HW214421   6.868   3.391   3.416
 4508SOL     OW14422   0.588   4.470   0.438
 4508SOL    HW114423   0.500   4.428   0.458
 4508SOL    HW214424   0.657   4.437   0.502
 4509SOL     OW14425   5.010   2.240   2.839
 4509SOL    HW114426   4.915   2.211   2.843
 4509SOL    HW214427   5.025   2.312   2.907
 4510SOL     OW14428   4.483   1.374   4.035
 4510SOL    HW114429   4.493   1.281   4.070
 4510SOL    HW214430   4.509   1.439   4.106
 4511SOL     OW14431   6.951   3.885   0.994
 4511SOL    HW114432   6.889   3.820   1.038
 4511SOL    HW214433   6.968   3.856   0.900
 4512SOL     OW14434   3.227   2.237   6.071
 4512SOL    HW114435   3.222   2.137   6.073
 4512SOL    HW214436   3.285   2.269   6.146
 4513SOL     OW14437   0.787   5.820   6.529
 4513SOL    HW114438   0.819   5.874   6.607
 4513SOL    HW214439   0.693   5.847   6.506
 4514SOL     OW14440   3.631   3.389   6.655
 4514SOL    HW114441   3.542   3.366   6.696
 4514SOL    HW214442   3.700   3.324   6.688
 4515SOL     OW14443   5.592   1.049   4.789
 4515SOL    HW114444   5.501   1.090   4.789
 4515SOL    HW214445   5.597   0.978   4.859
 4516SOL     OW14446   3.151   1.125   5.810
 4516SOL    HW114447   3.101   1.089   5.731
 4516SOL    HW214448   3.099   1.105   5.893
 4517SOL     OW14449   4.440   0.041   6.709
 4517SOL    HW114450   4.513   0.106   6.729
 4517SOL    HW214451   4.468   6.977   6.738
 4518SOL     OW14452   1.163   6.660   0.844
 4518SOL    HW114453   1.179   6.567   0.876
 4518SOL    HW214454   1.086   6.699   0.895
 4519SOL     OW14455   4.965   6.989   0.270
 4519SOL    HW114456   4.867   7.004   0.275
 4519SOL    HW214457   4.984   6.891   0.257
 4520SOL     OW14458   4.046   5.958   5.370
 4520SOL    HW114459   4.057   5.989   5.275
 4520SOL    HW214460   4.122   5.992   5.425
 4521SOL     OW14461   5.070   2.089   4.865
 4521SOL    HW114462   5.145   2.150   4.889
 4521SOL    HW214463   5.078   2.062   4.769
 4522SOL     OW14464   5.515   3.729   3.806
 4522SOL    HW114465   5.581   3.659   3.834
 4522SOL    HW214466   5.520   3.807   3.869
 4523SOL     OW14467   0.745   3.646   6.753
 4523SOL    HW114468   0.706   3.578   6.691
 4523SOL    HW214469   0.764   3.730   6.702
 4524SOL     OW14470   0.406   3.813   2.799
 4524SOL    HW114471   0.482   3.749   2.790
 4524SOL    HW214472   0.320   3.767   2.776
 4525SOL     OW14473   2.128   2.692   5.754
 4525SOL    HW114474   2.175   2.713   5.667
 4525SOL    HW214475   2.181   2.729   5.830
 4526SOL     OW14476   0.697   0.624   6.705
 4526SOL    HW114477   0.722   0.714   6.670
 4526SOL    HW214478   0.687   0.629   6.805
 4527SOL     OW14479   6.851   0.050   2.530
 4527SOL    HW114480   6.887   0.087   2.616
 4527SOL    HW214481   6.769   7.023   2.549
 4528SOL     OW14482   4.208   0.664   5.932
 4528SOL    HW114483   4.164   0.701   6.014
 4528SOL    HW214484   4.279   0.600   5.959
 4529SOL     OW14485   2.767   1.151   6.363
 4529SOL    HW114486   2.826   1.196   6.430
 4529SOL    HW214487   2.792   1.182   6.271
 4530SOL     OW14488   2.271   6.385   4.859
 4530SOL    HW114489   2.215   6.304   4.844
 4530SOL    HW214490   2.216   6.468   4.848
 4531SOL     OW14491   1.478   4.166   6.421
 4531SOL    HW114492   1.465   4.255   6.464
 4531SOL    HW214493   1.412   4.101   6.459
 4532SOL     OW14494   4.797   0.834   2.562
 4532SOL    HW114495   4.788   0.837   2.463
 4532SOL    HW214496   4.723   0.779   2.601
 4533SOL     OW14497   1.406   0.997   2.725
 4533SOL    HW114498   1.364   0.907   2.711
 4533SOL    HW214499   1.358   1.066   2.672
 4534SOL     OW14500   4.261   1.737   5.008
 4534SOL    HW114501   4.352   1.719   5.044
 4534SOL    HW214502   4.261   1.824   4.959
 4535SOL     OW14503   3.646   1.703   0.985
 4535SOL    HW114504   3.674   1.799   0.997
 4535SOL    HW214505   3.668   1.652   1.068
 4536SOL     OW14506   2.366   2.111   5.463
 4536SOL    HW114507   2.422   2.068   5.391
 4536SOL    HW214508   2.305   2.179   5.421
 4537SOL     OW14509   3.447   3.815   3.244
 4537SOL    HW114510   3.391   3.880   3.296
 4537SOL    HW214511   3.462   3.733   3.300
 4538SOL     OW14512   0.996   2.554   1.891
 4538SOL    HW114513   0.990   2.484   1.820
 4538SOL    HW214514   0.923   2.621   1.877
 4539SOL     OW14515   2.845   5.125   4.743
 4539SOL    HW114516   2.798   5.177   4.672
 4539SOL    HW214517   2.806   5.033   4.748
 4540SOL     OW14518   0.601   0.910   0.686
 4540SOL    HW114519   0.677   0.848   0.706
 4540SOL    HW214520   0.535   0.863   0.627
 4541SOL     OW14521   4.399   1.593   6.687
 4541SOL    HW114522   4.477   1.618   6.744
 4541SOL    HW214523   4.350   1.517   6.729
 4542SOL     OW14524   6.620   3.072   1.138
 4542SOL    HW114525   6.586   3.059   1.045
 4542SOL    HW214526   6.686   3.000   1.159
 4543SOL     OW14527   4.238   2.224   0.813
 4543SOL    HW114528   4.313   2.286   0.838
 4543SOL    HW214529   4.175   2.217   0.890
 4544SOL     OW14530   4.813   4.329   0.918
 4544SOL    HW114531   4.827   4.406   0.981
 4544SOL    HW214532   4.891   4.266   0.925
 4545SOL     OW14533   0.900   4.550   5.121
 4545SOL    HW114534   0.891   4.465   5.172
 4545SOL    HW214535   0.882   4.533   5.024
 4546SOL     OW14536   3.015   1.017   6.007
 4546SOL    HW114537   3.019   1.051   6.101
 4546SOL    HW214538   3.022   0.917   6.006
 4547SOL     OW14539   6.708   0.671   0.029
 4547SOL    HW114540   6.721   0.700   6.962
 4547SOL    HW214541   6.770   0.595   0.050
 4548SOL     OW14542   2.536   2.573   3.220
 4548SOL    HW114543   2.571   2.587   3.127
 4548SOL    HW214544   2.498   2.658   3.255
 4549SOL     OW14545   5.083   4.044   2.837
 4549SOL    HW114546   5.007   4.000   2.790
 4549SOL    HW214547   5.074   4.144   2.829
 4550SOL     OW14548   0.428   4.608   3.407
 4550SOL    HW114549   0.457   4.678   3.341
 4550SOL    HW214550   0.465   4.630   3.497
 4551SOL     OW14551   1.001   3.932   4.894
 4551SOL    HW114552   0.965   3.893   4.810
 4551SOL    HW214553   1.075   3.997   4.872
 4552SOL     OW14554   6.072   1.634   1.563
 4552SOL    HW114555   6.028   1.641   1.653
 4552SOL    HW214556   6.061   1.541   1.527
 4553SOL     OW14557   5.091   4.615   6.693
 4553SOL    HW114558   5.021   4.684   6.713
 4553SOL    HW214559   5.175   4.661   6.662
 4554SOL     OW14560   0.122   6.350   1.088
 4554SOL    HW114561   0.046   6.293   1.119
 4554SOL    HW214562   0.176   6.381   1.167
 4555SOL     OW14563   1.153   1.148   6.430
 4555SOL    HW114564   1.187   1.235   6.395
 4555SOL    HW214565   1.125   1.159   6.526
 4556SOL     OW14566   6.120   3.172   5.803
 4556SOL    HW114567   6.033   3.222   5.800
 4556SOL    HW214568   6.196   3.237   5.803
 4557SOL     OW14569   6.140   5.128   4.603
 4557SOL    HW114570   6.078   5.111   4.679
 4557SOL    HW214571   6.106   5.206   4.550
 4558SOL     OW14572   6.751   2.843   4.999
 4558SOL    HW114573   6.720   2.938   5.001
 4558SOL    HW214574   6.712   2.794   5.077
 4559SOL     OW14575   0.438   2.581   2.811
 4559SOL    HW114576   0.464   2.653   2.747
 4559SOL    HW214577   0.367   2.616   2.872
 4560SOL     OW14578   6.438   4.190   2.183
 4560SOL    HW114579   6.425   4.107   2.238
 4560SOL    HW214580   6.478   4.166   2.095
 4561SOL     OW14581   3.121   2.216   4.206
 4561SOL    HW114582   3.190   2.191   4.274
 4561SOL    HW214583   3.165   2.227   4.117
 4562SOL     OW14584   2.265   6.356   0.419
 4562SOL    HW114585   2.283   6.354   0.517
 4562SOL    HW214586   2.210   6.436   0.396
 4563SOL     OW14587   0.015   2.991   1.788
 4563SOL    HW114588   0.015   2.924   1.713
 4563SOL    HW214589   6.957   2.984   1.839
 4564SOL     OW14590   6.823   4.339   2.001
 4564SOL    HW114591   6.828   4.418   1.939
 4564SOL    HW214592   6.734   4.338   2.046
 4565SOL     OW14593   2.093   0.469   4.798
 4565SOL    HW114594   2.054   0.411   4.869
 4565SOL    HW214595   2.040   0.458   4.714
 4566SOL     OW14596   0.460   4.130   0.858
 4566SOL    HW114597   0.467   4.069   0.937
 4566SOL    HW214598   0.526   4.205   0.868
 4567SOL     OW14599   6.742   0.210   6.405
 4567SOL    HW114600   6.678   0.189   6.330
 4567SOL    HW214601   6.767   0.307   6.400
 4568SOL     OW14602   0.579   3.903   4.092
 4568SOL    HW114603   0.617   3.987   4.131
 4568SOL    HW214604   0.644   3.828   4.104
 4569SOL     OW14605   3.359   0.967   3.315
 4569SOL    HW114606   3.452   0.965   3.277
 4569SOL    HW214607   3.322   1.059   3.306
 4570SOL     OW14608   6.337   5.410   1.650
 4570SOL    HW114609   6.289   5.425   1.563
 4570SOL    HW214610   6.432   5.385   1.632
 4571SOL     OW14611   4.709   3.009   6.369
 4571SOL    HW114612   4.629   3.063   6.398
 4571SOL    HW214613   4.722   2.933   6.433
 4572SOL     OW14614   2.459   2.508   6.562
 4572SOL    HW114615   2.517   2.584   6.592
 4572SOL    HW214616   2.517   2.430   6.538
 4573SOL     OW14617   0.937   6.168   0.832
 4573SOL    HW114618   0.938   6.188   0.734
 4573SOL    HW214619   0.859   6.213   0.875
 4574SOL     OW14620   5.938   4.016   6.894
 4574SOL    HW114621   5.864   4.076   6.922
 4574SOL    HW214622   5.949   4.021   6.794
 4575SOL     OW14623   5.991   1.138   4.500
 4575SOL    HW114624   6.079   1.130   4.546
 4575SOL    HW214625   5.963   1.048   4.466
 4576SOL     OW14626   2.988   4.883   5.041
 4576SOL    HW114627   2.972   4.791   5.003
 4576SOL    HW214628   2.967   4.882   5.138
 4577SOL     OW14629   1.387   2.074   3.029
 4577SOL    HW114630   1.351   2.163   3.054
 4577SOL    HW214631   1.473   2.085   2.980
 4578SOL     OW14632   0.785   0.823   2.921
 4578SOL    HW114633   0.704   0.853   2.871
 4578SOL    HW214634   0.771   0.838   3.019
 4579SOL     OW14635   4.664   0.315   2.017
 4579SOL    HW114636   4.754   0.321   2.060
 4579SOL    HW214637   4.668   0.354   1.925
 4580SOL     OW14638   5.504   3.908   0.005
 4580SOL    HW114639   5.414   3.869   0.029
 4580SOL    HW214640   5.556   3.923   0.089
 4581SOL     OW14641   2.815   6.713   2.228
 4581SOL    HW114642   2.782   6.688   2.319
 4581SOL    HW214643   2.754   6.673   2.159
 4582SOL     OW14644   4.908   0.484   3.095
 4582SOL    HW114645   4.995   0.458   3.138
 4582SOL    HW214646   4.843   0.408   3.102
 4583SOL     OW14647   2.274   0.865   6.070
 4583SOL    HW114648   2.343   0.827   6.131
 4583SOL    HW214649   2.246   0.796   6.004
 4584SOL     OW14650   1.755   0.079   5.938
 4584SOL    HW114651   1.854   0.063   5.945
 4584SOL    HW214652   1.716   0.085   6.030
 4585SOL     OW14653   1.681   3.610   3.330
 4585SOL    HW114654   1.724   3.661   3.256
 4585SOL    HW214655   1.729   3.629   3.416
 4586SOL     OW14656   4.866   4.269   0.325
 4586SOL    HW114657   4.828   4.348   0.276
 4586SOL    HW214658   4.858   4.284   0.423
 4587SOL     OW14659   3.082   3.703   5.026
 4587SOL    HW114660   3.071   3.646   5.108
 4587SOL    HW214661   3.023   3.784   5.034
 4588SOL     OW14662   3.221   3.485   5.685
 4588SOL    HW114663   3.260   3.562   5.736
 4588SOL    HW214664   3.282   3.406   5.693
 4589SOL     OW14665   5.240   5.677   2.045
 4589SOL    HW114666   5.269   5.760   1.997
 4589SOL    HW214667   5.318   5.616   2.057
 4590SOL     OW14668   3.333   5.793   2.100
 4590SOL    HW114669   3.343   5.723   2.029
 4590SOL    HW214670   3.255   5.770   2.158
 4591SOL     OW14671   2.454   0.607   5.824
 4591SOL    HW114672   2.546   0.571   5.808
 4591SOL    HW214673   2.457   0.707   5.825
 4592SOL     OW14674   2.559   1.807   4.217
 4592SOL    HW114675   2.558   1.767   4.126
 4592SOL    HW214676   2.528   1.903   4.212
 4593SOL     OW14677   0.177   5.867   3.039
 4593SOL    HW114678   0.245   5.805   3.000
 4593SOL    HW214679   0.087   5.845   3.001
 4594SOL     OW14680   2.583   6.916   2.930
 4594SOL    HW114681   2.597   6.999   2.984
 4594SOL    HW214682   2.571   6.940   2.834
 4595SOL     OW14683   4.898   2.207   5.610
 4595SOL    HW114684   4.989   2.172   5.631
 4595SOL    HW214685   4.831   2.166   5.672
 4596SOL     OW14686   0.549   0.781   1.889
 4596SOL    HW114687   0.572   0.684   1.887
 4596SOL    HW214688   0.598   0.828   1.815
 4597SOL     OW14689   2.421   5.054   6.899
 4597SOL    HW114690   2.368   5.129   6.938
 4597SOL    HW214691   2.517   5.079   6.895
 4598SOL     OW14692   2.311   5.281   6.967
 4598SOL    HW114693   2.354   5.351   7.024
 4598SOL    HW214694   2.213   5.279   6.985
 4599SOL     OW14695   2.114   3.319   2.547
 4599SOL    HW114696   2.014   3.315   2.544
 4599SOL    HW214697   2.152   3.232   2.514
 4600SOL     OW14698   0.287   6.779   6.039
 4600SOL    HW114699   0.260   6.790   6.135
 4600SOL    HW214700   0.331   6.863   6.007
 4601SOL     OW14701   1.000   0.985   4.515
 4601SOL    HW114702   1.095   1.006   4.492
 4601SOL    HW214703   0.996   0.896   4.560
 4602SOL     OW14704   2.721   0.320   6.480
 4602SOL    HW114705   2.809   0.276   6.461
 4602SOL    HW214706   2.736   0.408   6.526
 4603SOL     OW14707   4.048   6.142   1.235
 4603SOL    HW114708   4.020   6.230   1.273
 4603SOL    HW214709   4.055   6.075   1.308
 4604SOL     OW14710   4.860   6.873   6.104
 4604SOL    HW114711   4.859   6.958   6.050
 4604SOL    HW214712   4.869   6.795   6.042
 4605SOL     OW14713   2.402   0.095   1.567
 4605SOL    HW114714   2.386   0.077   1.665
 4605SOL    HW214715   2.365   0.019   1.513
 4606SOL     OW14716   0.597   6.812   2.532
 4606SOL    HW114717   0.529   6.849   2.595
 4606SOL    HW214718   0.575   6.717   2.511
 4607SOL     OW14719   1.794   3.774   3.144
 4607SOL    HW114720   1.891   3.779   3.118
 4607SOL    HW214721   1.743   3.847   3.099
 4608SOL     OW14722   0.377   3.398   4.717
 4608SOL    HW114723   0.308   3.359   4.656
 4608SOL    HW214724   0.347   3.489   4.746
 4609SOL     OW14725   4.245   5.908   6.433
 4609SOL    HW114726   4.293   5.821   6.422
 4609SOL    HW214727   4.174   5.916   6.363
 4610SOL     OW14728   5.101   2.444   0.102
 4610SOL    HW114729   5.148   2.506   0.040
 4610SOL    HW214730   5.049   2.377   0.050
 4611SOL     OW14731   0.236   0.901   6.141
 4611SOL    HW114732   0.190   0.990   6.143
 4611SOL    HW214733   0.215   0.856   6.054
 4612SOL     OW14734   2.475   6.119   2.460
 4612SOL    HW114735   2.412   6.088   2.389
 4612SOL    HW214736   2.431   6.188   2.517
 4613SOL     OW14737   1.889   4.743   2.962
 4613SOL    HW114738   1.828   4.699   2.896
 4613SOL    HW214739   1.899   4.839   2.939
 4614SOL     OW14740   6.320   3.705   4.020
 4614SOL    HW114741   6.375   3.623   4.032
 4614SOL    HW214742   6.292   3.740   4.110
 4615SOL     OW14743   0.993   0.970   1.275
 4615SOL    HW114744   1.013   0.919   1.358
 4615SOL    HW214745   1.077   0.977   1.220
 4616SOL     OW14746   6.406   2.444   5.347
 4616SOL    HW114747   6.349   2.397   5.415
 4616SOL    HW214748   6.352   2.515   5.301
 4617SOL     OW14749   0.768   2.669   2.252
 4617SOL    HW114750   0.751   2.655   2.154
 4617SOL    HW214751   0.756   2.766   2.274
 4618SOL     OW14752   2.806   3.650   5.537
 4618SOL    HW114753   2.859   3.728   5.504
 4618SOL    HW214754   2.850   3.612   5.619
 4619SOL     OW14755   3.481   6.209   3.924
 4619SOL    HW114756   3.485   6.165   3.834
 4619SOL    HW214757   3.506   6.144   3.995
 4620SOL     OW14758   0.858   5.542   1.246
 4620SOL    HW114759   0.901   5.620   1.201
 4620SOL    HW214760   0.899   5.457   1.213
 4621SOL     OW14761   4.929   0.338   2.112
 4621SOL    HW114762   4.964   0.406   2.177
 4621SOL    HW214763   4.958   0.247   2.140
 4622SOL     OW14764   4.533   5.126   0.938
 4622SOL    HW114765   4.579   5.214   0.945
 4622SOL    HW214766   4.503   5.111   0.844
 4623SOL     OW14767   3.780   5.242   1.512
 4623SOL    HW114768   3.813   5.196   1.430
 4623SOL    HW214769   3.686   5.214   1.530
 4624SOL     OW14770   3.731   1.399   3.535
 4624SOL    HW114771   3.694   1.489   3.555
 4624SOL    HW214772   3.831   1.402   3.538
 4625SOL     OW14773   1.829   5.558   1.873
 4625SOL    HW114774   1.795   5.517   1.958
 4625SOL    HW214775   1.832   5.488   1.801
 4626SOL     OW14776   3.992   3.867   1.813
 4626SOL    HW114777   4.041   3.813   1.745
 4626SOL    HW214778   3.898   3.882   1.783
 4627SOL     OW14779   0.236   5.968   4.660
 4627SOL    HW114780   0.253   5.871   4.640
 4627SOL    HW214781   0.323   6.014   4.677
 4628SOL     OW14782   4.455   4.920   3.148
 4628SOL    HW114783   4.405   4.997   3.108
 4628SOL    HW214784   4.448   4.840   3.088
 4629SOL     OW14785   2.238   6.083   6.283
 4629SOL    HW114786   2.232   5.992   6.242
 4629SOL    HW214787   2.330   6.097   6.320
 4630SOL     OW14788   0.944   5.529   2.140
 4630SOL    HW114789   0.879   5.579   2.197
 4630SOL    HW214790   0.983   5.592   2.072
 4631SOL     OW14791   0.828   0.538   3.971
 4631SOL    HW114792   0.761   0.589   4.026
 4631SOL    HW214793   0.799   0.443   3.964
 4632SOL     OW14794   3.043   5.501   2.891
 4632SOL    HW114795   3.025   5.558   2.811
 4632SOL    HW214796   3.011   5.408   2.873
 4633SOL     OW14797   4.908   1.503   4.416
 4633SOL    HW114798   4.979   1.464   4.474
 4633SOL    HW214799   4.949   1.569   4.353
 4634SOL     OW14800   2.886   3.911   4.995
 4634SOL    HW114801   2.890   3.936   5.092
 4634SOL    HW214802   2.800   3.942   4.956
 4635SOL     OW14803   4.430   5.255   1.214
 4635SOL    HW114804   4.459   5.189   1.283
 4635SOL    HW214805   4.335   5.280   1.230
 4636SOL     OW14806   1.497   5.267   0.760
 4636SOL    HW114807   1.485   5.339   0.692
 4636SOL    HW214808   1.517   5.180   0.714
 4637SOL     OW14809   1.524   6.761   0.889
 4637SOL    HW114810   1.525   6.700   0.810
 4637SOL    HW214811   1.595   6.732   0.954
 4638SOL     OW14812   3.764   5.323   0.060
 4638SOL    HW114813   3.673   5.339   0.098
 4638SOL    HW214814   3.776   5.225   0.044
 4639SOL     OW14815   2.582   2.360   0.365
 4639SOL    HW114816   2.498   2.408   0.339
 4639SOL    HW214817   2.607   2.295   0.293
 4640SOL     OW14818   6.014   2.822   5.398
 4640SOL    HW114819   5.943   2.888   5.425
 4640SOL    HW214820   5.988   2.779   5.312
 4641SOL     OW14821   1.718   6.369   3.659
 4641SOL    HW114822   1.727   6.440   3.589
 4641SOL    HW214823   1.623   6.366   3.691
 4642SOL     OW14824   1.868   1.824   3.731
 4642SOL    HW114825   1.837   1.916   3.706
 4642SOL    HW214826   1.830   1.798   3.819
 4643SOL     OW14827   6.622   2.150   0.146
 4643SOL    HW114828   6.574   2.232   0.115
 4643SOL    HW214829   6.558   2.073   0.150
 4644SOL     OW14830   0.523   0.881   6.162
 4644SOL    HW114831   0.529   0.850   6.067
 4644SOL    HW214832   0.427   0.889   6.188
 4645SOL     OW14833   1.811   0.844   4.106
 4645SOL    HW114834   1.740   0.906   4.137
 4645SOL    HW214835   1.773   0.751   4.098
 4646SOL     OW14836   2.524   5.134   4.408
 4646SOL    HW114837   2.458   5.182   4.467
 4646SOL    HW214838   2.495   5.143   4.313
 4647SOL     OW14839   1.678   6.107   3.472
 4647SOL    HW114840   1.718   6.139   3.386
 4647SOL    HW214841   1.628   6.182   3.515
 4648SOL     OW14842   2.864   1.124   4.108
 4648SOL    HW114843   2.827   1.068   4.182
 4648SOL    HW214844   2.961   1.141   4.125
 4649SOL     OW14845   5.713   1.097   0.930
 4649SOL    HW114846   5.764   1.149   0.862
 4649SOL    HW214847   5.766   1.091   1.014
 4650SOL     OW14848   4.873   5.726   1.187
 4650SOL    HW114849   4.805   5.768   1.247
 4650SOL    HW214850   4.831   5.706   1.098
 4651SOL     OW14851   6.140   3.880   6.092
 4651SOL    HW114852   6.207   3.807   6.106
 4651SOL    HW214853   6.162   3.930   6.008
 4652SOL     OW14854   6.958   5.348   4.296
 4652SOL    HW114855   6.975   5.265   4.350
 4652SOL    HW214856   0.010   5.367   4.239
 4653SOL     OW14857   4.989   5.731   0.244
 4653SOL    HW114858   5.085   5.757   0.259
 4653SOL    HW214859   4.970   5.647   0.295
 4654SOL     OW14860   6.820   6.947   4.994
 4654SOL    HW114861   6.851   6.854   4.977
 4654SOL    HW214862   6.899   7.007   5.011
 4655SOL     OW14863   5.393   3.231   1.771
 4655SOL    HW114864   5.339   3.157   1.732
 4655SOL    HW214865   5.336   3.312   1.783
 4656SOL     OW14866   0.514   0.616   1.374
 4656SOL    HW114867   0.517   0.541   1.307
 4656SOL    HW214868   0.597   0.670   1.368
 4657SOL     OW14869   5.466   6.655   1.720
 4657SOL    HW114870   5.374   6.684   1.747
 4657SOL    HW214871   5.531   6.730   1.738
 4658SOL     OW14872   2.673   2.995   5.652
 4658SOL    HW114873   2.591   3.018   5.704
 4658SOL    HW214874   2.710   2.909   5.685
 4659SOL     OW14875   3.650   4.140   1.405
 4659SOL    HW114876   3.554   4.113   1.394
 4659SOL    HW214877   3.666   4.226   1.357
 4660SOL     OW14878   1.768   6.921   3.869
 4660SOL    HW114879   1.723   6.984   3.932
 4660SOL    HW214880   1.710   6.840   3.856
 4661SOL     OW14881   2.675   4.098   5.592
 4661SOL    HW114882   2.622   4.121   5.674
 4661SOL    HW214883   2.668   4.172   5.526
 4662SOL     OW14884   2.922   0.143   5.191
 4662SOL    HW114885   2.896   0.234   5.160
 4662SOL    HW214886   3.006   0.149   5.245
 4663SOL     OW14887   0.908   6.819   0.113
 4663SOL    HW114888   0.913   6.731   0.066
 4663SOL    HW214889   0.936   6.808   0.209
 4664SOL     OW14890   6.484   6.602   0.930
 4664SOL    HW114891   6.538   6.641   0.857
 4664SOL    HW214892   6.388   6.599   0.903
 4665SOL     OW14893   2.185   0.862   5.732
 4665SOL    HW114894   2.096   0.902   5.752
 4665SOL    HW214895   2.249   0.933   5.702
 4666SOL     OW14896   1.903   2.569   0.135
 4666SOL    HW114897   1.967   2.534   0.066
 4666SOL    HW214898   1.824   2.508   0.141
 4667SOL     OW14899   6.688   3.978   1.598
 4667SOL    HW114900   6.745   3.897   1.613
 4667SOL    HW214901   6.697   4.039   1.677
 4668SOL     OW14902   4.155   2.113   5.107
 4668SOL    HW114903   4.087   2.064   5.160
 4668SOL    HW214904   4.115   2.143   5.020
 4669SOL     OW14905   5.080   0.418   0.165
 4669SOL    HW114906   4.991   0.457   0.189
 4669SOL    HW214907   5.147   0.492   0.157
 4670SOL     OW14908   1.458   3.325   0.008
 4670SOL    HW114909   1.464   3.267   0.089
 4670SOL    HW214910   1.501   3.278   6.958
 4671SOL     OW14911   1.039   3.422   0.029
 4671SOL    HW114912   0.949   3.466   0.029
 4671SOL    HW214913   1.109   3.489   0.002
 4672SOL     OW14914   3.834   4.741   5.548
 4672SOL    HW114915   3.934   4.745   5.548
 4672SOL    HW214916   3.797   4.825   5.587
 4673SOL     OW14917   5.372   0.704   6.712
 4673SOL    HW114918   5.284   0.661   6.730
 4673SOL    HW214919   5.358   0.793   6.670
 4674SOL     OW14920   6.777   1.583   0.676
 4674SOL    HW114921   6.836   1.517   0.629
 4674SOL    HW214922   6.687   1.585   0.633
 4675SOL     OW14923   3.431   6.496   6.703
 4675SOL    HW114924   3.458   6.520   6.610
 4675SOL    HW214925   3.390   6.405   6.703
 4676SOL     OW14926   0.860   6.641   4.987
 4676SOL    HW114927   0.765   6.635   5.017
 4676SOL    HW214928   0.865   6.695   4.903
 4677SOL     OW14929   3.073   0.348   7.018
 4677SOL    HW114930   3.008   0.410   6.972
 4677SOL    HW214931   3.155   0.339   6.961
 4678SOL     OW14932   2.068   5.240   1.458
 4678SOL    HW114933   2.012   5.250   1.541
 4678SOL    HW214934   2.042   5.311   1.392
 4679SOL     OW14935   2.574   1.488   6.342
 4679SOL    HW114936   2.625   1.486   6.428
 4679SOL    HW214937   2.565   1.395   6.306
 4680SOL     OW14938   1.925   5.391   1.061
 4680SOL    HW114939   1.900   5.450   1.137
 4680SOL    HW214940   1.885   5.300   1.074
 4681SOL     OW14941   6.819   5.866   4.980
 4681SOL    HW114942   6.898   5.924   4.961
 4681SOL    HW214943   6.780   5.835   4.893
 4682SOL     OW14944   4.066   5.911   6.861
 4682SOL    HW114945   4.063   5.862   6.774
 4682SOL    HW214946   4.027   5.853   6.933
 4683SOL     OW14947   5.921   3.687   2.553
 4683SOL    HW114948   5.973   3.738   2.622
 4683SOL    HW214949   5.836   3.736   2.534
 4684SOL     OW14950   1.573   2.246   4.137
 4684SOL    HW114951   1.476   2.270   4.144
 4684SOL    HW214952   1.615   2.251   4.228
 4685SOL     OW14953   6.437   5.509   4.631
 4685SOL    HW114954   6.443   5.438   4.561
 4685SOL    HW214955   6.448   5.468   4.722
 4686SOL     OW14956   5.075   5.500   0.350
 4686SOL    HW114957   5.043   5.445   0.273
 4686SOL    HW214958   5.148   5.562   0.319
 4687SOL     OW14959   6.485   3.953   4.515
 4687SOL    HW114960   6.501   4.032   4.455
 4687SOL    HW214961   6.559   3.887   4.504
 4688SOL     OW14962   0.586   3.507   6.275
 4688SOL    HW114963   0.675   3.462   6.269
 4688SOL    HW214964   0.519   3.445   6.316
 4689SOL     OW14965   6.529   0.253   5.584
 4689SOL    HW114966   6.591   0.211   5.519
 4689SOL    HW214967   6.560   0.346   5.605
 4690SOL     OW14968   1.390   0.987   0.025
 4690SOL    HW114969   1.417   0.995   6.957
 4690SOL    HW214970   1.365   0.893   0.045
 4691SOL     OW14971   2.532   4.109   1.028
 4691SOL    HW114972   2.508   4.089   1.123
 4691SOL    HW214973   2.504   4.033   0.970
 4692SOL     OW14974   6.874   4.918   2.815
 4692SOL    HW114975   6.971   4.938   2.822
 4692SOL    HW214976   6.822   5.003   2.812
 4693SOL     OW14977   0.197   1.107   4.416
 4693SOL    HW114978   0.154   1.166   4.484
 4693SOL    HW214979   0.262   1.160   4.362
 4694SOL     OW14980   2.958   0.616   0.291
 4694SOL    HW114981   2.938   0.688   0.358
 4694SOL    HW214982   2.916   0.640   0.204
 4695SOL     OW14983   4.194   3.072   1.653
 4695SOL    HW114984   4.293   3.076   1.638
 4695SOL    HW214985   4.174   3.106   1.745
 4696SOL     OW14986   1.048   3.719   6.348
 4696SOL    HW114987   1.090   3.643   6.298
 4696SOL    HW214988   1.040   3.695   6.445
 4697SOL     OW14989   1.770   3.519   0.775
 4697SOL    HW114990   1.695   3.467   0.734
 4697SOL    HW214991   1.857   3.476   0.753
 4698SOL     OW14992   5.416   4.552   1.770
 4698SOL    HW114993   5.355   4.587   1.699
 4698SOL    HW214994   5.429   4.622   1.841
 4699SOL     OW14995   7.010   6.752   1.989
 4699SOL    HW114996   0.027   6.741   2.079
 4699SOL    HW214997   6.933   6.816   1.998
 4700SOL     OW14998   5.118   2.008   1.256
 4700SOL    HW114999   5.163   1.919   1.252
 4700SOL    HW215000   5.041   2.003   1.320
 4701SOL     OW15001   0.686   1.236   6.555
 4701SOL    HW115002   0.606   1.215   6.498
 4701SOL    HW215003   0.769   1.201   6.511
 4702SOL     OW15004   4.493   3.988   6.754
 4702SOL    HW115005   4.505   3.889   6.740
 4702SOL    HW215006   4.492   4.008   6.852
 4703SOL     OW15007   1.187   1.600   3.236
 4703SOL    HW115008   1.130   1.639   3.308
 4703SOL    HW215009   1.266   1.659   3.221
 4704SOL     OW15010   6.895   5.887   1.213
 4704SOL    HW115011   6.917   5.983   1.200
 4704SOL    HW215012   6.974   5.840   1.252
 4705SOL     OW15013   3.589   2.917   4.389
 4705SOL    HW115014   3.640   3.002   4.402
 4705SOL    HW215015   3.491   2.938   4.384
 4706SOL     OW15016   3.779   5.766   6.510
 4706SOL    HW115017   3.799   5.841   6.447
 4706SOL    HW215018   3.718   5.797   6.582
 4707SOL     OW15019   1.864   5.480   0.766
 4707SOL    HW115020   1.958   5.512   0.782
 4707SOL    HW215021   1.807   5.505   0.845
 4708SOL     OW15022   3.393   2.492   0.416
 4708SOL    HW115023   3.379   2.588   0.392
 4708SOL    HW215024   3.484   2.464   0.385
 4709SOL     OW15025   3.931   4.929   5.182
 4709SOL    HW115026   3.930   4.943   5.083
 4709SOL    HW215027   4.020   4.892   5.209
 4710SOL     OW15028   4.931   1.809   6.458
 4710SOL    HW115029   4.981   1.776   6.538
 4710SOL    HW215030   4.949   1.749   6.380
 4711SOL     OW15031   3.381   0.032   2.986
 4711SOL    HW115032   3.303   0.077   3.030
 4711SOL    HW215033   3.382   0.056   2.888
 4712SOL     OW15034   1.856   4.577   1.280
 4712SOL    HW115035   1.766   4.534   1.290
 4712SOL    HW215036   1.865   4.652   1.345
 4713SOL     OW15037   3.175   5.011   1.491
 4713SOL    HW115038   3.141   4.937   1.434
 4713SOL    HW215039   3.153   5.099   1.449
 4714SOL     OW15040   2.047   1.339   0.945
 4714SOL    HW115041   2.043   1.272   0.871
 4714SOL    HW215042   2.071   1.293   1.031
 4715SOL     OW15043   6.804   2.908   2.398
 4715SOL    HW115044   6.896   2.942   2.417
 4715SOL    HW215045   6.781   2.923   2.302
 4716SOL     OW15046   3.570   4.948   6.385
 4716SOL    HW115047   3.549   5.038   6.422
 4716SOL    HW215048   3.619   4.895   6.454
 4717SOL     OW15049   0.836   6.001   2.143
 4717SOL    HW115050   0.742   6.032   2.157
 4717SOL    HW215051   0.872   5.962   2.227
 4718SOL     OW15052   5.354   1.749   6.358
 4718SOL    HW115053   5.279   1.814   6.348
 4718SOL    HW215054   5.317   1.656   6.360
 4719SOL     OW15055   5.481   3.600   3.225
 4719SOL    HW115056   5.420   3.602   3.146
 4719SOL    HW215057   5.470   3.514   3.275
 4720SOL     OW15058   2.338   6.646   5.882
 4720SOL    HW115059   2.262   6.683   5.829
 4720SOL    HW215060   2.322   6.663   5.979
 4721SOL     OW15061   1.062   2.084   0.918
 4721SOL    HW115062   1.101   2.140   0.845
 4721SOL    HW215063   1.123   2.006   0.936
 4722SOL     OW15064   1.564   6.268   0.680
 4722SOL    HW115065   1.467   6.275   0.656
 4722SOL    HW215066   1.618   6.254   0.597
 4723SOL     OW15067   2.448   6.197   5.994
 4723SOL    HW115068   2.432   6.100   5.973
 4723SOL    HW215069   2.371   6.251   5.961
 4724SOL     OW15070   4.001   6.450   2.500
 4724SOL    HW115071   4.096   6.472   2.523
 4724SOL    HW215072   3.999   6.387   2.423
 4725SOL     OW15073   5.077   6.419   3.078
 4725SOL    HW115074   5.107   6.392   3.170
 4725SOL    HW215075   5.066   6.518   3.074
 4726SOL     OW15076   1.081   4.113   6.556
 4726SOL    HW115077   1.063   4.210   6.543
 4726SOL    HW215078   1.039   4.083   6.642
 4727SOL     OW15079   6.535   5.824   0.462
 4727SOL    HW115080   6.554   5.897   0.396
 4727SOL    HW215081   6.594   5.836   0.542
 4728SOL     OW15082   5.720   1.422   0.661
 4728SOL    HW115083   5.650   1.375   0.607
 4728SOL    HW215084   5.699   1.519   0.667
 4729SOL     OW15085   2.068   0.487   2.602
 4729SOL    HW115086   2.115   0.500   2.689
 4729SOL    HW215087   2.001   0.413   2.612
 4730SOL     OW15088   2.728   6.121   5.282
 4730SOL    HW115089   2.810   6.098   5.335
 4730SOL    HW215090   2.652   6.141   5.344
 4731SOL     OW15091   5.955   0.663   5.316
 4731SOL    HW115092   6.000   0.752   5.328
 4731SOL    HW215093   5.896   0.645   5.394
 4732SOL     OW15094   6.756   3.916   6.843
 4732SOL    HW115095   6.694   3.842   6.867
 4732SOL    HW215096   6.831   3.920   6.909
 4733SOL     OW15097   0.179   3.614   2.834
 4733SOL    HW115098   0.147   3.562   2.755
 4733SOL    HW215099   0.233   3.554   2.893
 4734SOL     OW15100   5.110   3.196   6.875
 4734SOL    HW115101   5.013   3.219   6.876
 4734SOL    HW215102   5.133   3.148   6.959
 4735SOL     OW15103   0.946   4.157   4.237
 4735SOL    HW115104   1.000   4.234   4.203
 4735SOL    HW215105   0.953   4.080   4.173
 4736SOL     OW15106   6.761   1.062   6.631
 4736SOL    HW115107   6.830   0.990   6.624
 4736SOL    HW215108   6.723   1.080   6.540
 4737SOL     OW15109   2.529   4.668   1.969
 4737SOL    HW115110   2.625   4.648   1.990
 4737SOL    HW215111   2.473   4.587   1.988
 4738SOL     OW15112   6.536   5.995   1.566
 4738SOL    HW115113   6.532   6.083   1.613
 4738SOL    HW215114   6.625   5.984   1.522
 4739SOL     OW15115   4.148   0.624   2.180
 4739SOL    HW115116   4.180   0.673   2.261
 4739SOL    HW215117   4.191   0.534   2.177
 4740SOL     OW15118   0.776   1.778   2.795
 4740SOL    HW115119   0.694   1.755   2.847
 4740SOL    HW215120   0.759   1.857   2.736
 4741SOL     OW15121   4.092   2.408   1.411
 4741SOL    HW115122   4.065   2.480   1.347
 4741SOL    HW215123   4.176   2.434   1.457
 4742SOL     OW15124   2.445   0.011   0.446
 4742SOL    HW115125   2.461   6.951   0.402
 4742SOL    HW215126   2.459   0.002   0.545
 4743SOL     OW15127   1.840   3.953   2.259
 4743SOL    HW115128   1.919   3.941   2.200
 4743SOL    HW215129   1.870   3.983   2.350
 4744SOL     OW15130   1.795   5.983   0.874
 4744SOL    HW115131   1.774   5.889   0.850
 4744SOL    HW215132   1.885   6.008   0.838
 4745SOL     OW15133   2.520   4.006   0.385
 4745SOL    HW115134   2.435   3.989   0.436
 4745SOL    HW215135   2.519   3.951   0.301
 4746SOL     OW15136   4.552   5.225   4.719
 4746SOL    HW115137   4.503   5.172   4.649
 4746SOL    HW215138   4.514   5.318   4.722
 4747SOL     OW15139   1.653   3.074   1.319
 4747SOL    HW115140   1.616   2.984   1.341
 4747SOL    HW215141   1.679   3.121   1.404
 4748SOL     OW15142   1.758   6.164   2.127
 4748SOL    HW115143   1.787   6.253   2.162
 4748SOL    HW215144   1.837   6.115   2.091
 4749SOL     OW15145   2.273   6.618   0.580
 4749SOL    HW115146   2.291   6.624   0.482
 4749SOL    HW215147   2.283   6.523   0.610
 4750SOL     OW15148   6.323   3.269   5.008
 4750SOL    HW115149   6.233   3.302   5.038
 4750SOL    HW215150   6.369   3.341   4.955
 4751SOL     OW15151   4.471   1.573   2.276
 4751SOL    HW115152   4.375   1.592   2.257
 4751SOL    HW215153   4.484   1.561   2.374
 4752SOL     OW15154   4.744   1.963   0.144
 4752SOL    HW115155   4.733   1.962   0.045
 4752SOL    HW215156   4.683   2.032   0.184
 4753SOL     OW15157   1.949   6.709   4.868
 4753SOL    HW115158   1.949   6.626   4.924
 4753SOL    HW215159   1.862   6.758   4.881
 4754SOL     OW15160   4.150   3.862   6.417
 4754SOL    HW115161   4.065   3.914   6.406
 4754SOL    HW215162   4.228   3.924   6.410
 4755SOL     OW15163   1.203   0.524   2.072
 4755SOL    HW115164   1.221   0.453   2.004
 4755SOL    HW215165   1.130   0.584   2.040
 4756SOL     OW15166   6.259   4.330   0.283
 4756SOL    HW115167   6.319   4.251   0.282
 4756SOL    HW215168   6.224   4.344   0.376
 4757SOL     OW15169   1.531   2.938   1.662
 4757SOL    HW115170   1.586   2.923   1.745
 4757SOL    HW215171   1.567   3.018   1.614
 4758SOL     OW15172   1.765   7.001   3.384
 4758SOL    HW115173   1.804   6.985   3.475
 4758SOL    HW215174   1.666   6.994   3.389
 4759SOL     OW15175   0.885   5.052   0.378
 4759SOL    HW115176   0.826   5.078   0.454
 4759SOL    HW215177   0.856   4.963   0.342
 4760SOL     OW15178   1.201   0.138   0.648
 4760SOL    HW115179   1.253   0.056   0.673
 4760SOL    HW215180   1.146   0.168   0.726
 4761SOL     OW15181   0.323   6.575   0.648
 4761SOL    HW115182   0.231   6.537   0.653
 4761SOL    HW215183   0.336   6.620   0.559
 4762SOL     OW15184   1.542   5.116   2.667
 4762SOL    HW115185   1.615   5.050   2.653
 4762SOL    HW215186   1.454   5.076   2.639
 4763SOL     OW15187   4.708   5.835   1.697
 4763SOL    HW115188   4.682   5.797   1.786
 4763SOL    HW215189   4.789   5.787   1.663
 4764SOL     OW15190   4.707   3.818   5.590
 4764SOL    HW115191   4.779   3.885   5.575
 4764SOL    HW215192   4.661   3.798   5.503
 4765SOL     OW15193   3.257   1.880   5.049
 4765SOL    HW115194   3.340   1.844   5.092
 4765SOL    HW215195   3.221   1.812   4.986
 4766SOL     OW15196   6.145   6.750   4.263
 4766SOL    HW115197   6.199   6.674   4.224
 4766SOL    HW215198   6.178   6.836   4.225
 4767SOL     OW15199   2.503   5.014   4.990
 4767SOL    HW115200   2.528   5.049   5.080
 4767SOL    HW215201   2.541   4.922   4.978
 4768SOL     OW15202   4.715   2.790   6.509
 4768SOL    HW115203   4.640   2.732   6.540
 4768SOL    HW215204   4.787   2.791   6.578
 4769SOL     OW15205   3.572   5.879   1.442
 4769SOL    HW115206   3.479   5.906   1.464
 4769SOL    HW215207   3.601   5.923   1.357
 4770SOL     OW15208   6.556   2.029   5.259
 4770SOL    HW115209   6.521   2.045   5.351
 4770SOL    HW215210   6.624   1.957   5.260
 4771SOL     OW15211   2.638   0.204   5.715
 4771SOL    HW115212   2.712   0.168   5.658
 4771SOL    HW215213   2.558   0.222   5.657
 4772SOL     OW15214   2.917   5.191   0.787
 4772SOL    HW115215   3.001   5.232   0.750
 4772SOL    HW215216   2.841   5.256   0.777
 4773SOL     OW15217   2.564   5.413   4.827
 4773SOL    HW115218   2.615   5.370   4.753
 4773SOL    HW215219   2.624   5.474   4.878
 4774SOL     OW15220   1.653   4.213   0.409
 4774SOL    HW115221   1.581   4.160   0.364
 4774SOL    HW215222   1.725   4.151   0.440
 4775SOL     OW15223   5.562   6.449   4.839
 4775SOL    HW115224   5.475   6.425   4.796
 4775SOL    HW215225   5.603   6.526   4.790
 4776SOL     OW15226   1.495   0.738   5.951
 4776SOL    HW115227   1.561   0.664   5.965
 4776SOL    HW215228   1.455   0.731   5.859
 4777SOL     OW15229   1.153   5.729   0.430
 4777SOL    HW115230   1.157   5.693   0.523
 4777SOL    HW215231   1.131   5.826   0.433
 4778SOL     OW15232   0.769   2.507   4.406
 4778SOL    HW115233   0.718   2.423   4.421
 4778SOL    HW215234   0.739   2.577   4.471
 4779SOL     OW15235   6.702   1.233   3.764
 4779SOL    HW115236   6.772   1.278   3.820
 4779SOL    HW215237   6.741   1.151   3.722
 4780SOL     OW15238   5.371   2.531   5.767
 4780SOL    HW115239   5.353   2.628   5.784
 4780SOL    HW215240   5.285   2.483   5.752
 4781SOL     OW15241   1.744   5.560   2.171
 4781SOL    HW115242   1.723   5.641   2.116
 4781SOL    HW215243   1.674   5.548   2.241
 4782SOL     OW15244   5.843   5.417   5.681
 4782SOL    HW115245   5.880   5.330   5.647
 4782SOL    HW215246   5.788   5.460   5.610
 4783SOL     OW15247   5.989   3.580   0.765
 4783SOL    HW115248   5.945   3.535   0.687
 4783SOL    HW215249   6.056   3.518   0.806
 4784SOL     OW15250   5.585   2.967   6.609
 4784SOL    HW115251   5.527   2.949   6.689
 4784SOL    HW215252   5.538   2.937   6.526
 4785SOL     OW15253   0.551   6.018   3.699
 4785SOL    HW115254   0.451   6.018   3.698
 4785SOL    HW215255   0.585   6.075   3.624
 4786SOL     OW15256   2.511   0.011   0.995
 4786SOL    HW115257   2.537   0.042   1.086
 4786SOL    HW215258   2.419   0.043   0.974
 4787SOL     OW15259   4.145   1.866   4.253
 4787SOL    HW115260   4.147   1.825   4.162
 4787SOL    HW215261   4.084   1.946   4.253
 4788SOL     OW15262   6.482   5.908   0.077
 4788SOL    HW115263   6.396   5.858   0.090
 4788SOL    HW215264   6.518   5.890   7.014
 4789SOL     OW15265   4.935   1.022   1.895
 4789SOL    HW115266   5.002   1.093   1.917
 4789SOL    HW215267   4.843   1.057   1.914
 4790SOL     OW15268   5.508   1.459   5.179
 4790SOL    HW115269   5.566   1.470   5.099
 4790SOL    HW215270   5.510   1.543   5.234
 4791SOL     OW15271   0.205   2.786   0.899
 4791SOL    HW115272   0.153   2.852   0.846
 4791SOL    HW215273   0.179   2.792   0.995
 4792SOL     OW15274   2.026   3.558   4.268
 4792SOL    HW115275   2.052   3.640   4.217
 4792SOL    HW215276   1.951   3.579   4.330
 4793SOL     OW15277   1.068   3.991   6.303
 4793SOL    HW115278   1.083   4.039   6.390
 4793SOL    HW215279   1.074   3.892   6.318
 4794SOL     OW15280   4.970   0.794   4.151
 4794SOL    HW115281   4.968   0.706   4.104
 4794SOL    HW215282   4.904   0.793   4.227
 4795SOL     OW15283   0.627   0.619   4.131
 4795SOL    HW115284   0.582   0.539   4.172
 4795SOL    HW215285   0.584   0.702   4.167
 4796SOL     OW15286   3.569   1.477   5.992
 4796SOL    HW115287   3.553   1.493   5.895
 4796SOL    HW215288   3.482   1.460   6.038
 4797SOL     OW15289   0.516   5.284   4.830
 4797SOL    HW115290   0.499   5.378   4.858
 4797SOL    HW215291   0.556   5.232   4.906
 4798SOL     OW15292   5.354   5.007   6.549
 4798SOL    HW115293   5.286   4.950   6.595
 4798SOL    HW215294   5.310   5.090   6.513
 4799SOL     OW15295   3.410   2.756   6.656
 4799SOL    HW115296   3.332   2.719   6.707
 4799SOL    HW215297   3.492   2.748   6.712
 4800SOL     OW15298   1.946   4.946   7.004
 4800SOL    HW115299   1.848   4.947   7.025
 4800SOL    HW215300   1.990   4.871   0.025
 4801SOL     OW15301   4.710   2.443   1.816
 4801SOL    HW115302   4.757   2.366   1.859
 4801SOL    HW215303   4.750   2.460   1.726
 4802SOL     OW15304   0.361   5.878   2.563
 4802SOL    HW115305   0.347   5.973   2.533
 4802SOL    HW215306   0.274   5.829   2.562
 4803SOL     OW15307   5.389   4.625   0.217
 4803SOL    HW115308   5.470   4.569   0.232
 4803SOL    HW215309   5.409   4.694   0.147
 4804SOL     OW15310   5.012   1.946   0.221
 4804SOL    HW115311   4.921   1.932   0.184
 4804SOL    HW215312   5.016   1.909   0.314
 4805SOL     OW15313   6.364   2.303   1.175
 4805SOL    HW115314   6.379   2.227   1.111
 4805SOL    HW215315   6.406   2.281   1.263
 4806SOL     OW15316   1.653   2.947   3.025
 4806SOL    HW115317   1.718   2.915   3.094
 4806SOL    HW215318   1.647   3.047   3.030
 4807SOL     OW15319   0.993   2.980   0.111
 4807SOL    HW115320   1.066   3.043   0.083
 4807SOL    HW215321   0.905   3.014   0.075
 4808SOL     OW15322   3.913   5.999   0.969
 4808SOL    HW115323   3.870   5.920   1.013
 4808SOL    HW215324   4.012   5.993   0.982
 4809SOL     OW15325   3.392   4.962   1.649
 4809SOL    HW115326   3.359   4.916   1.731
 4809SOL    HW215327   3.328   4.947   1.573
 4810SOL     OW15328   0.972   4.452   3.766
 4810SOL    HW115329   0.908   4.420   3.837
 4810SOL    HW215330   1.012   4.539   3.794
 4811SOL     OW15331   3.517   4.175   4.826
 4811SOL    HW115332   3.596   4.209   4.775
 4811SOL    HW215333   3.436   4.175   4.768
 4812SOL     OW15334   0.647   6.510   1.908
 4812SOL    HW115335   0.735   6.474   1.875
 4812SOL    HW215336   0.653   6.609   1.916
 4813SOL     OW15337   6.300   1.510   0.149
 4813SOL    HW115338   6.256   1.427   0.183
 4813SOL    HW215339   6.232   1.582   0.135
 4814SOL     OW15340   6.782   4.159   1.803
 4814SOL    HW115341   6.812   4.192   1.892
 4814SOL    HW215342   6.850   4.183   1.733
 4815SOL     OW15343   5.605   5.215   2.236
 4815SOL    HW115344   5.680   5.152   2.255
 4815SOL    HW215345   5.534   5.168   2.183
 4816SOL     OW15346   1.425   6.670   2.193
 4816SOL    HW115347   1.407   6.640   2.287
 4816SOL    HW215348   1.351   6.638   2.134
 4817SOL     OW15349   3.812   1.387   1.552
 4817SOL    HW115350   3.758   1.303   1.560
 4817SOL    HW215351   3.759   1.464   1.588
 4818SOL     OW15352   2.712   0.482   4.745
 4818SOL    HW115353   2.783   0.416   4.721
 4818SOL    HW215354   2.651   0.496   4.666
 4819SOL     OW15355   2.844   1.852   1.156
 4819SOL    HW115356   2.913   1.863   1.084
 4819SOL    HW215357   2.883   1.876   1.244
 4820SOL     OW15358   0.315   3.991   2.528
 4820SOL    HW115359   0.309   4.030   2.619
 4820SOL    HW215360   0.390   3.924   2.525
 4821SOL     OW15361   6.722   5.418   1.785
 4821SOL    HW115362   6.716   5.465   1.697
 4821SOL    HW215363   6.707   5.483   1.860
 4822SOL     OW15364   1.937   3.850   3.765
 4822SOL    HW115365   1.982   3.898   3.690
 4822SOL    HW215366   1.887   3.916   3.821
 4823SOL     OW15367   1.121   0.316   4.293
 4823SOL    HW115368   1.206   0.285   4.252
 4823SOL    HW215369   1.067   0.236   4.321
 4824SOL     OW15370   5.602   2.267   2.958
 4824SOL    HW115371   5.669   2.208   2.914
 4824SOL    HW215372   5.517   2.265   2.906
 4825SOL     OW15373   1.783   3.205   4.147
 4825SOL    HW115374   1.718   3.267   4.103
 4825SOL    HW215375   1.876   3.232   4.123
 4826SOL     OW15376   0.069   6.455   0.581
 4826SOL    HW115377   0.107   6.419   0.496
 4826SOL    HW215378   0.035   6.380   0.637
 4827SOL     OW15379   4.540   1.094   1.064
 4827SOL    HW115380   4.609   1.133   1.126
 4827SOL    HW215381   4.579   1.016   1.016
 4828SOL     OW15382   5.841   3.436   1.781
 4828SOL    HW115383   5.890   3.515   1.817
 4828SOL    HW215384   5.786   3.395   1.853
 4829SOL     OW15385   3.203   0.749   6.224
 4829SOL    HW115386   3.231   0.655   6.244
 4829SOL    HW215387   3.115   0.749   6.177
 4830SOL     OW15388   5.164   6.365   3.345
 4830SOL    HW115389   5.252   6.340   3.305
 4830SOL    HW215390   5.130   6.289   3.400
 4831SOL     OW15391   6.539   4.972   5.447
 4831SOL    HW115392   6.601   5.046   5.472
 4831SOL    HW215393   6.521   4.974   5.349
 4832SOL     OW15394   3.481   2.880   5.759
 4832SOL    HW115395   3.434   2.842   5.839
 4832SOL    HW215396   3.484   2.812   5.686
 4833SOL     OW15397   4.417   1.392   3.397
 4833SOL    HW115398   4.484   1.356   3.462
 4833SOL    HW215399   4.466   1.441   3.324
 4834SOL     OW15400   4.319   0.923   0.716
 4834SOL    HW115401   4.266   0.879   0.643
 4834SOL    HW215402   4.326   0.860   0.793
 4835SOL     OW15403   1.830   0.048   6.244
 4835SOL    HW115404   1.749   0.100   6.217
 4835SOL    HW215405   1.912   0.104   6.233
 4836SOL     OW15406   5.053   1.669   4.279
 4836SOL    HW115407   5.011   1.737   4.220
 4836SOL    HW215408   5.130   1.710   4.328
 4837SOL     OW15409   2.996   3.100   1.362
 4837SOL    HW115410   2.906   3.063   1.340
 4837SOL    HW215411   3.060   3.025   1.377
 4838SOL     OW15412   3.914   4.922   2.115
 4838SOL    HW115413   3.829   4.898   2.068
 4838SOL    HW215414   3.899   4.920   2.214
 4839SOL     OW15415   0.258   5.209   5.364
 4839SOL    HW115416   0.253   5.264   5.280
 4839SOL    HW215417   0.195   5.246   5.431
 4840SOL     OW15418   5.828   6.330   0.290
 4840SOL    HW115419   5.911   6.382   0.310
 4840SOL    HW215420   5.756   6.354   0.355
 4841SOL     OW15421   3.324   5.950   1.481
 4841SOL    HW115422   3.265   6.030   1.477
 4841SOL    HW215423   3.285   5.877   1.425
 4842SOL     OW15424   3.654   5.323   1.824
 4842SOL    HW115425   3.673   5.324   1.922
 4842SOL    HW215426   3.693   5.405   1.782
 4843SOL     OW15427   0.151   3.732   6.929
 4843SOL    HW115428   0.215   3.659   6.951
 4843SOL    HW215429   0.101   3.759   7.012
 4844SOL     OW15430   6.459   3.911   6.997
 4844SOL    HW115431   6.547   3.891   0.012
 4844SOL    HW215432   6.467   3.905   6.898
 4845SOL     OW15433   6.247   5.830   4.155
 4845SOL    HW115434   6.198   5.744   4.169
 4845SOL    HW215435   6.321   5.837   4.222
 4846SOL     OW15436   0.931   2.997   0.736
 4846SOL    HW115437   0.939   3.096   0.723
 4846SOL    HW215438   0.938   2.951   0.647
 4847SOL     OW15439   3.793   2.156   5.142
 4847SOL    HW115440   3.773   2.177   5.046
 4847SOL    HW215441   3.875   2.207   5.170
 4848SOL     OW15442   1.983   1.581   3.389
 4848SOL    HW115443   2.063   1.540   3.344
 4848SOL    HW215444   1.906   1.517   3.385
 4849SOL     OW15445   1.555   6.856   6.957
 4849SOL    HW115446   1.608   6.772   6.975
 4849SOL    HW215447   1.618   6.933   6.946
 4850SOL     OW15448   3.434   0.612   2.270
 4850SOL    HW115449   3.457   0.554   2.193
 4850SOL    HW215450   3.509   0.676   2.288
 4851SOL     OW15451   4.314   6.206   5.863
 4851SOL    HW115452   4.396   6.218   5.808
 4851SOL    HW215453   4.272   6.295   5.881
 4852SOL     OW15454   1.565   0.651   6.927
 4852SOL    HW115455   1.602   0.648   6.834
 4852SOL    HW215456   1.633   0.693   6.988
 4853SOL     OW15457   3.562   1.652   2.576
 4853SOL    HW115458   3.506   1.571   2.593
 4853SOL    HW215459   3.507   1.724   2.535
 4854SOL     OW15460   4.860   5.633   2.043
 4854SOL    HW115461   4.928   5.701   2.017
 4854SOL    HW215462   4.776   5.648   1.991
 4855SOL     OW15463   5.698   1.705   1.961
 4855SOL    HW115464   5.619   1.737   1.908
 4855SOL    HW215465   5.689   1.735   2.056
 4856SOL     OW15466   2.912   4.938   3.478
 4856SOL    HW115467   2.898   4.970   3.572
 4856SOL    HW215468   2.823   4.921   3.436
 4857SOL     OW15469   1.285   1.594   5.727
 4857SOL    HW115470   1.240   1.541   5.655
 4857SOL    HW215471   1.225   1.669   5.756
 4858SOL     OW15472   2.222   1.625   4.394
 4858SOL    HW115473   2.247   1.721   4.408
 4858SOL    HW215474   2.299   1.576   4.354
 4859SOL     OW15475   1.398   5.853   4.465
 4859SOL    HW115476   1.358   5.767   4.436
 4859SOL    HW215477   1.381   5.923   4.396
 4860SOL     OW15478   4.252   5.137   1.958
 4860SOL    HW115479   4.164   5.106   1.922
 4860SOL    HW215480   4.260   5.112   2.055
 4861SOL     OW15481   5.554   5.413   0.120
 4861SOL    HW115482   5.632   5.427   0.059
 4861SOL    HW215483   5.500   5.335   0.088
 4862SOL     OW15484   1.802   5.236   3.720
 4862SOL    HW115485   1.712   5.276   3.736
 4862SOL    HW215486   1.855   5.239   3.805
 4863SOL     OW15487   5.844   4.423   0.940
 4863SOL    HW115488   5.811   4.405   1.032
 4863SOL    HW215489   5.939   4.393   0.932
 4864SOL     OW15490   3.234   1.000   3.714
 4864SOL    HW115491   3.321   0.995   3.666
 4864SOL    HW215492   3.170   0.932   3.676
 4865SOL     OW15493   2.584   0.236   5.153
 4865SOL    HW115494   2.513   0.214   5.087
 4865SOL    HW215495   2.634   0.318   5.122
 4866SOL     OW15496   6.777   3.851   1.288
 4866SOL    HW115497   6.863   3.801   1.292
 4866SOL    HW215498   6.707   3.802   1.341
 4867SOL     OW15499   4.486   5.496   2.137
 4867SOL    HW115500   4.531   5.547   2.064
 4867SOL    HW215501   4.389   5.485   2.116
 4868SOL     OW15502   6.525   4.821   2.221
 4868SOL    HW115503   6.599   4.818   2.153
 4868SOL    HW215504   6.507   4.728   2.253
 4869SOL     OW15505   1.526   1.749   0.729
 4869SOL    HW115506   1.594   1.777   0.798
 4869SOL    HW215507   1.481   1.665   0.759
 4870SOL     OW15508   0.949   6.506   1.983
 4870SOL    HW115509   0.927   6.596   1.947
 4870SOL    HW215510   0.950   6.439   1.908
 4871SOL     OW15511   1.190   0.652   4.747
 4871SOL    HW115512   1.253   0.574   4.744
 4871SOL    HW215513   1.169   0.682   4.654
 4872SOL     OW15514   6.513   6.494   3.079
 4872SOL    HW115515   6.422   6.476   3.114
 4872SOL    HW215516   6.559   6.561   3.137
 4873SOL     OW15517   6.800   5.210   4.784
 4873SOL    HW115518   6.889   5.206   4.738
 4873SOL    HW215519   6.772   5.306   4.793
 4874SOL     OW15520   4.949   2.472   3.021
 4874SOL    HW115521   4.868   2.451   3.075
 4874SOL    HW215522   4.935   2.557   2.971
 4875SOL     OW15523   4.987   6.960   7.019
 4875SOL    HW115524   4.982   6.950   0.090
 4875SOL    HW215525   5.027   0.021   6.996
 4876SOL     OW15526   0.428   1.344   3.462
 4876SOL    HW115527   0.369   1.264   3.471
 4876SOL    HW215528   0.502   1.338   3.529
 4877SOL     OW15529   0.425   2.136   5.310
 4877SOL    HW115530   0.342   2.188   5.291
 4877SOL    HW215531   0.476   2.179   5.384
 4878SOL     OW15532   7.017   1.719   1.811
 4878SOL    HW115533   0.084   1.704   1.839
 4878SOL    HW215534   6.963   1.637   1.832
 4879SOL     OW15535   5.070   1.981   2.494
 4879SOL    HW115536   5.014   1.959   2.573
 4879SOL    HW215537   5.054   1.914   2.422
 4880SOL     OW15538   6.669   3.388   0.352
 4880SOL    HW115539   6.742   3.348   0.296
 4880SOL    HW215540   6.656   3.334   0.434
 4881SOL     OW15541   1.643   2.113   0.931
 4881SOL    HW115542   1.595   2.097   0.845
 4881SOL    HW215543   1.699   2.196   0.923
 4882SOL     OW15544   4.477   2.282   5.256
 4882SOL    HW115545   4.523   2.203   5.217
 4882SOL    HW215546   4.537   2.327   5.322
 4883SOL     OW15547   4.988   3.973   1.702
 4883SOL    HW115548   4.917   4.020   1.753
 4883SOL    HW215549   5.066   4.035   1.688
 4884SOL     OW15550   2.717   5.382   0.785
 4884SOL    HW115551   2.766   5.467   0.800
 4884SOL    HW215552   2.624   5.401   0.755
 4885SOL     OW15553   2.326   4.446   1.990
 4885SOL    HW115554   2.285   4.507   1.922
 4885SOL    HW215555   2.333   4.354   1.951
 4886SOL     OW15556   2.748   6.937   1.299
 4886SOL    HW115557   2.682   6.877   1.346
 4886SOL    HW215558   2.744   0.001   1.338
 4887SOL     OW15559   1.136   6.564   1.318
 4887SOL    HW115560   1.084   6.490   1.276
 4887SOL    HW215561   1.210   6.592   1.258
 4888SOL     OW15562   2.342   6.539   2.760
 4888SOL    HW115563   2.346   6.476   2.837
 4888SOL    HW215564   2.342   6.633   2.794
 4889SOL     OW15565   6.771   1.749   4.779
 4889SOL    HW115566   6.730   1.806   4.709
 4889SOL    HW215567   6.866   1.777   4.794
 4890SOL     OW15568   1.006   2.166   5.325
 4890SOL    HW115569   0.929   2.110   5.293
 4890SOL    HW215570   1.087   2.143   5.271
 4891SOL     OW15571   2.284   5.111   6.427
 4891SOL    HW115572   2.225   5.190   6.411
 4891SOL    HW215573   2.277   5.082   6.522
 4892SOL     OW15574   5.655   6.410   2.231
 4892SOL    HW115575   5.647   6.379   2.325
 4892SOL    HW215576   5.750   6.435   2.211
 4893SOL     OW15577   0.182   3.280   2.133
 4893SOL    HW115578   0.185   3.283   2.033
 4893SOL    HW215579   0.267   3.240   2.168
 4894SOL     OW15580   3.264   6.931   2.557
 4894SOL    HW115581   3.259   6.844   2.508
 4894SOL    HW215582   3.175   6.976   2.555
 4895SOL     OW15583   0.902   4.903   3.667
 4895SOL    HW115584   0.855   4.979   3.622
 4895SOL    HW215585   0.871   4.817   3.628
 4896SOL     OW15586   2.523   4.958   3.086
 4896SOL    HW115587   2.461   4.882   3.104
 4896SOL    HW215588   2.471   5.035   3.048
 4897SOL     OW15589   1.603   6.004   5.297
 4897SOL    HW115590   1.563   5.913   5.290
 4897SOL    HW215591   1.655   6.010   5.383
 4898SOL     OW15592   4.032   1.093   4.923
 4898SOL    HW115593   3.949   1.107   4.869
 4898SOL    HW215594   4.015   1.027   4.995
 4899SOL     OW15595   5.639   5.690   2.697
 4899SOL    HW115596   5.629   5.608   2.641
 4899SOL    HW215597   5.641   5.771   2.638
 4900SOL     OW15598   4.556   6.311   5.723
 4900SOL    HW115599   4.542   6.373   5.646
 4900SOL    HW215600   4.591   6.224   5.690
 4901SOL     OW15601   1.531   1.867   5.181
 4901SOL    HW115602   1.613   1.850   5.236
 4901SOL    HW215603   1.492   1.779   5.152
 4902SOL     OW15604   1.908   0.620   6.516
 4902SOL    HW115605   1.826   0.630   6.571
 4902SOL    HW215606   1.884   0.628   6.419
 4903SOL     OW15607   4.230   5.592   1.111
 4903SOL    HW115608   4.321   5.583   1.071
 4903SOL    HW215609   4.207   5.689   1.119
 4904SOL     OW15610   2.390   0.632   5.290
 4904SOL    HW115611   2.347   0.553   5.245
 4904SOL    HW215612   2.485   0.609   5.311
 4905SOL     OW15613   2.566   0.097   3.194
 4905SOL    HW115614   2.566   0.008   3.241
 4905SOL    HW215615   2.471   0.126   3.180
 4906SOL     OW15616   4.791   3.107   5.215
 4906SOL    HW115617   4.811   3.190   5.164
 4906SOL    HW215618   4.865   3.088   5.279
 4907SOL     OW15619   4.974   1.359   0.628
 4907SOL    HW115620   4.904   1.299   0.667
 4907SOL    HW215621   4.930   1.432   0.575
 4908SOL     OW15622   4.722   0.176   0.851
 4908SOL    HW115623   4.655   0.191   0.779
 4908SOL    HW215624   4.768   0.262   0.873
 4909SOL     OW15625   6.632   4.288   3.894
 4909SOL    HW115626   6.654   4.237   3.977
 4909SOL    HW215627   6.584   4.373   3.919
 4910SOL     OW15628   5.714   1.217   4.503
 4910SOL    HW115629   5.807   1.212   4.468
 4910SOL    HW215630   5.681   1.124   4.524
 4911SOL     OW15631   1.879   3.023   2.862
 4911SOL    HW115632   1.930   3.102   2.897
 4911SOL    HW215633   1.797   3.010   2.917
 4912SOL     OW15634   5.162   2.387   5.653
 4912SOL    HW115635   5.155   2.288   5.658
 4912SOL    HW215636   5.086   2.429   5.702
 4913SOL     OW15637   5.534   3.127   6.054
 4913SOL    HW115638   5.467   3.175   5.998
 4913SOL    HW215639   5.559   3.183   6.132
 4914SOL     OW15640   4.362   0.247   5.599
 4914SOL    HW115641   4.304   0.307   5.544
 4914SOL    HW215642   4.389   0.293   5.683
 4915SOL     OW15643   2.929   5.997   5.431
 4915SOL    HW115644   2.964   6.017   5.522
 4915SOL    HW215645   2.850   5.935   5.439
 4916SOL     OW15646   6.970   0.595   4.118
 4916SOL    HW115647   0.020   0.658   4.115
 4916SOL    HW215648   6.927   0.591   4.028
 4917SOL     OW15649   3.789   5.795   1.106
 4917SOL    HW115650   3.782   5.758   1.199
 4917SOL    HW215651   3.748   5.730   1.041
 4918SOL     OW15652   6.417   5.712   1.894
 4918SOL    HW115653   6.334   5.766   1.908
 4918SOL    HW215654   6.442   5.714   1.797
 4919SOL     OW15655   3.462   2.864   2.359
 4919SOL    HW115656   3.379   2.894   2.312
 4919SOL    HW215657   3.496   2.939   2.417
 4920SOL     OW15658   5.404   0.400   5.144
 4920SOL    HW115659   5.468   0.442   5.079
 4920SOL    HW215660   5.419   0.301   5.145
 4921SOL     OW15661   0.936   5.444   0.006
 4921SOL    HW115662   0.979   5.514   0.063
 4921SOL    HW215663   0.998   5.367   7.024
 4922SOL     OW15664   3.420   2.305   5.321
 4922SOL    HW115665   3.446   2.216   5.283
 4922SOL    HW215666   3.344   2.343   5.267
 4923SOL     OW15667   2.763   1.928   2.940
 4923SOL    HW115668   2.793   2.017   2.904
 4923SOL    HW215669   2.665   1.917   2.923
 4924SOL     OW15670   2.239   1.822   5.247
 4924SOL    HW115671   2.314   1.810   5.182
 4924SOL    HW215672   2.193   1.910   5.229
 4925SOL     OW15673   4.363   0.314   2.656
 4925SOL    HW115674   4.436   0.338   2.720
 4925SOL    HW215675   4.370   0.218   2.631
 4926SOL     OW15676   5.572   1.369   1.416
 4926SOL    HW115677   5.492   1.422   1.389
 4926SOL    HW215678   5.585   1.376   1.515
 4927SOL     OW15679   3.225   3.031   6.034
 4927SOL    HW115680   3.176   3.041   6.120
 4927SOL    HW215681   3.162   3.047   5.958
 4928SOL     OW15682   1.203   1.203   0.396
 4928SOL    HW115683   1.115   1.193   0.348
 4928SOL    HW215684   1.277   1.199   0.330
 4929SOL     OW15685   6.966   6.874   3.287
 4929SOL    HW115686   6.961   6.960   3.338
 4929SOL    HW215687   7.016   6.807   3.342
 4930SOL     OW15688   6.275   0.002   1.983
 4930SOL    HW115689   6.279   6.975   2.067
 4930SOL    HW215690   6.286   0.098   2.006
 4931SOL     OW15691   6.053   6.072   1.775
 4931SOL    HW115692   6.072   6.113   1.685
 4931SOL    HW215693   6.097   6.128   1.845
 4932SOL     OW15694   3.604   3.664   3.533
 4932SOL    HW115695   3.610   3.601   3.455
 4932SOL    HW215696   3.510   3.697   3.542
 4933SOL     OW15697   2.348   6.321   4.164
 4933SOL    HW115698   2.345   6.299   4.261
 4933SOL    HW215699   2.387   6.244   4.113
 4934SOL     OW15700   3.711   6.114   3.068
 4934SOL    HW115701   3.690   6.171   2.988
 4934SOL    HW215702   3.659   6.029   3.063
 4935SOL     OW15703   1.457   2.084   6.686
 4935SOL    HW115704   1.407   2.089   6.772
 4935SOL    HW215705   1.411   2.020   6.624
 4936SOL     OW15706   2.458   4.753   0.788
 4936SOL    HW115707   2.375   4.779   0.738
 4936SOL    HW215708   2.525   4.827   0.781
 4937SOL     OW15709   5.279   3.151   5.104
 4937SOL    HW115710   5.204   3.190   5.158
 4937SOL    HW215711   5.255   3.152   5.007
 4938SOL     OW15712   3.391   5.614   5.431
 4938SOL    HW115713   3.490   5.628   5.433
 4938SOL    HW215714   3.363   5.592   5.337
 4939SOL     OW15715   5.036   2.875   5.177
 4939SOL    HW115716   5.026   2.945   5.248
 4939SOL    HW215717   4.952   2.820   5.173
 4940SOL     OW15718   1.674   0.872   4.781
 4940SOL    HW115719   1.604   0.890   4.713
 4940SOL    HW215720   1.638   0.811   4.852
 4941SOL     OW15721   4.106   1.651   0.005
 4941SOL    HW115722   4.045   1.637   6.955
 4941SOL    HW215723   4.086   1.738   0.048
 4942SOL     OW15724   5.007   3.648   5.159
 4942SOL    HW115725   4.980   3.589   5.235
 4942SOL    HW215726   4.932   3.654   5.093
 4943SOL     OW15727   4.656   2.307   0.140
 4943SOL    HW115728   4.611   2.336   0.056
 4943SOL    HW215729   4.657   2.383   0.205
 4944SOL     OW15730   2.174   4.075   2.891
 4944SOL    HW115731   2.177   3.983   2.851
 4944SOL    HW215732   2.191   4.142   2.819
 4945SOL     OW15733   1.260   0.063   3.799
 4945SOL    HW115734   1.244   0.037   3.703
 4945SOL    HW215735   1.254   7.010   3.857
 4946SOL     OW15736   1.105   2.853   1.767
 4946SOL    HW115737   1.112   2.881   1.863
 4946SOL    HW215738   1.009   2.836   1.744
 4947SOL     OW15739   0.818   6.942   0.429
 4947SOL    HW115740   0.840   6.846   0.417
 4947SOL    HW215741   0.727   6.961   0.393
 4948SOL     OW15742   2.582   0.743   2.481
 4948SOL    HW115743   2.487   0.772   2.479
 4948SOL    HW215744   2.591   0.659   2.534
 4949SOL     OW15745   4.842   0.554   5.491
 4949SOL    HW115746   4.761   0.497   5.478
 4949SOL    HW215747   4.924   0.496   5.488
 4950SOL     OW15748   2.868   6.321   4.171
 4950SOL    HW115749   2.942   6.388   4.178
 4950SOL    HW215750   2.872   6.277   4.081
 4951SOL     OW15751   4.678   1.587   4.526
 4951SOL    HW115752   4.612   1.532   4.475
 4951SOL    HW215753   4.771   1.556   4.506
 4952SOL     OW15754   7.004   6.055   4.619
 4952SOL    HW115755   6.918   6.014   4.646
 4952SOL    HW215756   0.046   5.984   4.609
 4953SOL     OW15757   2.312   5.213   1.165
 4953SOL    HW115758   2.398   5.163   1.178
 4953SOL    HW215759   2.310   5.293   1.225
 4954SOL     OW15760   5.085   4.821   0.233
 4954SOL    HW115761   5.078   4.734   0.282
 4954SOL    HW215762   5.006   4.831   0.173
 4955SOL     OW15763   1.523   6.257   0.384
 4955SOL    HW115764   1.486   6.166   0.364
 4955SOL    HW215765   1.454   6.326   0.362
 4956SOL     OW15766   4.164   6.871   5.969
 4956SOL    HW115767   4.203   6.938   5.905
 4956SOL    HW215768   4.217   6.787   5.966
 4957SOL     OW15769   0.217   1.370   4.163
 4957SOL    HW115770   0.290   1.311   4.197
 4957SOL    HW215771   0.229   1.385   4.064
 4958SOL     OW15772   0.843   6.599   6.188
 4958SOL    HW115773   0.839   6.566   6.094
 4958SOL    HW215774   0.842   6.521   6.251
 4959SOL     OW15775   1.097   0.689   6.774
 4959SOL    HW115776   1.038   0.615   6.743
 4959SOL    HW215777   1.171   0.652   6.831
 4960SOL     OW15778   4.051   6.687   4.267
 4960SOL    HW115779   4.123   6.679   4.198
 4960SOL    HW215780   3.963   6.698   4.222
 4961SOL     OW15781   5.937   0.307   4.646
 4961SOL    HW115782   5.932   0.222   4.699
 4961SOL    HW215783   5.952   0.286   4.550
 4962SOL     OW15784   5.914   2.626   2.226
 4962SOL    HW115785   5.919   2.725   2.238
 4962SOL    HW215786   5.824   2.593   2.254
 4963SOL     OW15787   0.432   5.633   1.386
 4963SOL    HW115788   0.452   5.730   1.402
 4963SOL    HW215789   0.422   5.586   1.473
 4964SOL     OW15790   3.640   5.775   3.653
 4964SOL    HW115791   3.571   5.815   3.593
 4964SOL    HW215792   3.603   5.693   3.697
 4965SOL     OW15793   0.419   6.796   4.912
 4965SOL    HW115794   0.352   6.724   4.896
 4965SOL    HW215795   0.389   6.881   4.868
 4966SOL     OW15796   2.775   6.147   4.891
 4966SOL    HW115797   2.853   6.183   4.942
 4966SOL    HW215798   2.784   6.047   4.883
 4967SOL     OW15799   4.026   2.662   6.458
 4967SOL    HW115800   3.953   2.698   6.517
 4967SOL    HW215801   4.039   2.564   6.477
 4968SOL     OW15802   4.968   2.934   3.658
 4968SOL    HW115803   4.930   2.995   3.727
 4968SOL    HW215804   5.044   2.882   3.697
 4969SOL     OW15805   1.599   0.905   1.813
 4969SOL    HW115806   1.504   0.877   1.825
 4969SOL    HW215807   1.607   1.004   1.830
 4970SOL     OW15808   1.096   2.240   4.901
 4970SOL    HW115809   1.147   2.285   4.975
 4970SOL    HW215810   1.153   2.169   4.860
 4971SOL     OW15811   6.494   6.099   3.082
 4971SOL    HW115812   6.408   6.137   3.049
 4971SOL    HW215813   6.570   6.140   3.032
 4972SOL     OW15814   2.334   3.555   0.800
 4972SOL    HW115815   2.297   3.638   0.843
 4972SOL    HW215816   2.406   3.517   0.858
 4973SOL     OW15817   6.093   6.116   2.068
 4973SOL    HW115818   6.147   6.105   2.152
 4973SOL    HW215819   6.050   6.028   2.046
 4974SOL     OW15820   5.557   5.915   2.563
 4974SOL    HW115821   5.538   5.874   2.474
 4974SOL    HW215822   5.475   5.910   2.621
 4975SOL     OW15823   5.773   5.855   0.444
 4975SOL    HW115824   5.728   5.782   0.393
 4975SOL    HW215825   5.743   5.944   0.409
 4976SOL     OW15826   3.532   0.155   4.678
 4976SOL    HW115827   3.507   0.112   4.764
 4976SOL    HW215828   3.497   0.249   4.677
 4977SOL     OW15829   4.408   3.861   0.818
 4977SOL    HW115830   4.358   3.774   0.821
 4977SOL    HW215831   4.502   3.846   0.846
 4978SOL     OW15832   5.857   3.955   5.572
 4978SOL    HW115833   5.786   3.980   5.639
 4978SOL    HW215834   5.831   3.987   5.482
 4979SOL     OW15835   0.418   1.131   5.427
 4979SOL    HW115836   0.502   1.151   5.379
 4979SOL    HW215837   0.359   1.073   5.370
 4980SOL     OW15838   3.728   5.278   2.532
 4980SOL    HW115839   3.783   5.358   2.507
 4980SOL    HW215840   3.659   5.262   2.461
 4981SOL     OW15841   4.463   7.012   6.011
 4981SOL    HW115842   4.438   7.002   6.107
 4981SOL    HW215843   4.518   0.067   5.998
 4982SOL     OW15844   2.060   2.109   6.627
 4982SOL    HW115845   2.035   2.179   6.694
 4982SOL    HW215846   2.023   2.134   6.538
 4983SOL     OW15847   5.292   2.872   4.037
 4983SOL    HW115848   5.245   2.793   3.997
 4983SOL    HW215849   5.297   2.861   4.137
 4984SOL     OW15850   5.030   3.731   4.604
 4984SOL    HW115851   5.093   3.674   4.550
 4984SOL    HW215852   4.942   3.735   4.558
 4985SOL     OW15853   4.980   5.419   3.527
 4985SOL    HW115854   5.020   5.327   3.520
 4985SOL    HW215855   5.018   5.477   3.455
 4986SOL     OW15856   6.266   4.400   2.440
 4986SOL    HW115857   6.255   4.302   2.426
 4986SOL    HW215858   6.179   4.440   2.467
 4987SOL     OW15859   0.192   3.218   1.156
 4987SOL    HW115860   0.182   3.259   1.247
 4987SOL    HW215861   0.285   3.183   1.145
 4988SOL     OW15862   0.278   1.561   4.377
 4988SOL    HW115863   0.236   1.481   4.334
 4988SOL    HW215864   0.263   1.641   4.319
 4989SOL     OW15865   6.160   1.417   0.855
 4989SOL    HW115866   6.251   1.431   0.894
 4989SOL    HW215867   6.096   1.480   0.898
 4990SOL     OW15868   0.724   2.719   5.245
 4990SOL    HW115869   0.735   2.764   5.156
 4990SOL    HW215870   0.793   2.754   5.308
 4991SOL     OW15871   0.668   3.293   3.748
 4991SOL    HW115872   0.649   3.257   3.657
 4991SOL    HW215873   0.677   3.393   3.742
 4992SOL     OW15874   3.534   0.825   5.126
 4992SOL    HW115875   3.496   0.736   5.100
 4992SOL    HW215876   3.614   0.845   5.070
 4993SOL     OW15877   2.905   5.596   3.718
 4993SOL    HW115878   2.919   5.638   3.628
 4993SOL    HW215879   2.975   5.527   3.734
 4994SOL     OW15880   0.995   6.585   2.620
 4994SOL    HW115881   1.069   6.531   2.579
 4994SOL    HW215882   0.957   6.646   2.550
 4995SOL     OW15883   6.851   3.138   6.390
 4995SOL    HW115884   6.812   3.230   6.387
 4995SOL    HW215885   6.860   3.109   6.485
 4996SOL     OW15886   0.815   2.010   2.056
 4996SOL    HW115887   0.906   1.980   2.084
 4996SOL    HW215888   0.809   2.110   2.064
 4997SOL     OW15889   6.611   2.190   2.977
 4997SOL    HW115890   6.561   2.261   2.927
 4997SOL    HW215891   6.672   2.234   3.044
 4998SOL     OW15892   1.778   4.933   4.923
 4998SOL    HW115893   1.871   4.907   4.898
 4998SOL    HW215894   1.759   4.904   5.016
 4999SOL     OW15895   4.714   5.377   0.892
 4999SOL    HW115896   4.776   5.311   0.935
 4999SOL    HW215897   4.750   5.403   0.803
 5000SOL     OW15898   0.783   0.235   5.042
 5000SOL    HW115899   0.689   0.231   5.006
 5000SOL    HW215900   0.780   0.257   5.139
 5001SOL     OW15901   2.301   4.016   6.143
 5001SOL    HW115902   2.249   4.091   6.101
 5001SOL    HW215903   2.343   4.049   6.228
 5002SOL     OW15904   2.217   1.628   2.469
 5002SOL    HW115905   2.146   1.644   2.537
 5002SOL    HW215906   2.305   1.615   2.514
 5003SOL     OW15907   0.216   6.581   2.834
 5003SOL    HW115908   0.214   6.481   2.830
 5003SOL    HW215909   0.290   6.611   2.894
 5004SOL     OW15910   2.270   5.815   6.152
 5004SOL    HW115911   2.220   5.769   6.225
 5004SOL    HW215912   2.339   5.753   6.115
 5005SOL     OW15913   3.866   2.625   0.411
 5005SOL    HW115914   3.849   2.723   0.400
 5005SOL    HW215915   3.929   2.611   0.487
 5006SOL     OW15916   5.304   0.057   5.153
 5006SOL    HW115917   5.341   7.023   5.084
 5006SOL    HW215918   5.370   0.068   5.227
 5007SOL     OW15919   4.169   1.146   5.913
 5007SOL    HW115920   4.132   1.181   5.999
 5007SOL    HW215921   4.147   1.210   5.839
 5008SOL     OW15922   6.230   0.933   3.200
 5008SOL    HW115923   6.234   1.014   3.141
 5008SOL    HW215924   6.171   0.951   3.279
 5009SOL     OW15925   1.058   5.856   1.735
 5009SOL    HW115926   1.066   5.888   1.830
 5009SOL    HW215927   1.124   5.782   1.720
 5010SOL     OW15928   3.526   4.174   3.783
 5010SOL    HW115929   3.606   4.153   3.838
 5010SOL    HW215930   3.545   4.253   3.725
 5011SOL     OW15931   1.552   3.338   1.937
 5011SOL    HW115932   1.623   3.269   1.950
 5011SOL    HW215933   1.594   3.427   1.921
 5012SOL     OW15934   6.857   3.068   6.032
 5012SOL    HW115935   6.796   3.111   6.098
 5012SOL    HW215936   6.947   3.113   6.035
 5013SOL     OW15937   4.249   0.907   6.510
 5013SOL    HW115938   4.269   0.874   6.602
 5013SOL    HW215939   4.321   0.879   6.447
 5014SOL     OW15940   6.137   5.720   0.383
 5014SOL    HW115941   6.107   5.800   0.435
 5014SOL    HW215942   6.098   5.637   0.424
 5015SOL     OW15943   4.158   1.984   3.578
 5015SOL    HW115944   4.162   1.971   3.677
 5015SOL    HW215945   4.085   2.049   3.556
 5016SOL     OW15946   1.828   0.266   2.885
 5016SOL    HW115947   1.741   0.221   2.906
 5016SOL    HW215948   1.848   0.257   2.788
 5017SOL     OW15949   2.572   2.068   0.630
 5017SOL    HW115950   2.610   2.097   0.718
 5017SOL    HW215951   2.489   2.119   0.611
 5018SOL     OW15952   0.026   4.292   2.511
 5018SOL    HW115953   0.041   4.204   2.556
 5018SOL    HW215954   6.957   4.301   2.488
 5019SOL     OW15955   2.552   4.124   0.663
 5019SOL    HW115956   2.616   4.060   0.706
 5019SOL    HW215957   2.522   4.088   0.575
 5020SOL     OW15958   5.043   5.485   6.248
 5020SOL    HW115959   5.086   5.574   6.231
 5020SOL    HW215960   4.953   5.482   6.203
 5021SOL     OW15961   2.092   4.970   5.654
 5021SOL    HW115962   2.113   4.923   5.569
 5021SOL    HW215963   2.071   5.066   5.635
 5022SOL     OW15964   1.982   6.069   0.442
 5022SOL    HW115965   2.064   6.097   0.392
 5022SOL    HW215966   1.914   6.143   0.439
 5023SOL     OW15967   6.011   3.036   0.675
 5023SOL    HW115968   6.050   3.120   0.637
 5023SOL    HW215969   5.989   2.973   0.601
 5024SOL     OW15970   6.759   4.248   3.439
 5024SOL    HW115971   6.662   4.225   3.426
 5024SOL    HW215972   6.800   4.271   3.351
 5025SOL     OW15973   4.990   1.104   3.244
 5025SOL    HW115974   4.979   1.036   3.171
 5025SOL    HW215975   5.069   1.081   3.300
 5026SOL     OW15976   6.028   5.464   4.888
 5026SOL    HW115977   5.941   5.497   4.924
 5026SOL    HW215978   6.054   5.380   4.934
 5027SOL     OW15979   0.613   6.538   3.084
 5027SOL    HW115980   0.516   6.512   3.085
 5027SOL    HW215981   0.668   6.465   3.123
 5028SOL     OW15982   0.546   6.281   1.993
 5028SOL    HW115983   0.594   6.220   1.930
 5028SOL    HW215984   0.574   6.376   1.974
 5029SOL     OW15985   0.031   2.771   1.525
 5029SOL    HW115986   7.006   2.735   1.602
 5029SOL    HW215987   0.095   2.701   1.492
 5030SOL     OW15988   6.625   0.451   6.861
 5030SOL    HW115989   6.693   0.414   6.798
 5030SOL    HW215990   6.545   0.391   6.862
 5031SOL     OW15991   5.884   1.331   4.115
 5031SOL    HW115992   5.959   1.277   4.154
 5031SOL    HW215993   5.845   1.389   4.186
 5032SOL     OW15994   1.697   5.028   0.400
 5032SOL    HW115995   1.769   5.060   0.461
 5032SOL    HW215996   1.713   4.932   0.376
 5033SOL     OW15997   2.782   4.601   5.627
 5033SOL    HW115998   2.800   4.581   5.723
 5033SOL    HW215999   2.842   4.546   5.569
 5034SOL     OW16000   6.573   1.942   2.474
 5034SOL    HW116001   6.551   2.031   2.515
 5034SOL    HW216002   6.511   1.924   2.397
 5035SOL     OW16003   4.520   5.152   0.654
 5035SOL    HW116004   4.581   5.093   0.601
 5035SOL    HW216005   4.539   5.248   0.633
 5036SOL     OW16006   1.151   6.130   0.483
 5036SOL    HW116007   1.177   6.151   0.388
 5036SOL    HW216008   1.058   6.093   0.484
 5037SOL     OW16009   3.975   1.523   3.628
 5037SOL    HW116010   4.049   1.491   3.569
 5037SOL    HW216011   3.960   1.621   3.612
 5038SOL     OW16012   1.379   6.212   5.689
 5038SOL    HW116013   1.350   6.181   5.780
 5038SOL    HW216014   1.475   6.187   5.675
 5039SOL     OW16015   2.325   2.957   5.392
 5039SOL    HW116016   2.326   3.045   5.438
 5039SOL    HW216017   2.368   2.965   5.302
 5040SOL     OW16018   2.831   3.529   6.746
 5040SOL    HW116019   2.857   3.544   6.842
 5040SOL    HW216020   2.734   3.510   6.740
 5041SOL     OW16021   0.962   3.725   1.491
 5041SOL    HW116022   0.877   3.685   1.457
 5041SOL    HW216023   0.988   3.681   1.577
 5042SOL     OW16024   6.004   3.957   6.624
 5042SOL    HW116025   6.003   3.987   6.528
 5042SOL    HW216026   6.093   3.916   6.645
 5043SOL     OW16027   3.405   0.903   3.976
 5043SOL    HW116028   3.425   0.855   3.891
 5043SOL    HW216029   3.479   0.968   3.996
 5044SOL     OW16030   6.226   5.948   3.860
 5044SOL    HW116031   6.134   5.981   3.840
 5044SOL    HW216032   6.223   5.889   3.941
 5045SOL     OW16033   5.975   3.610   0.156
 5045SOL    HW116034   5.903   3.632   0.090
 5045SOL    HW216035   5.983   3.684   0.223
 5046SOL     OW16036   3.681   3.201   4.994
 5046SOL    HW116037   3.770   3.163   5.017
 5046SOL    HW216038   3.609   3.136   5.020
 5047SOL     OW16039   6.270   0.490   2.661
 5047SOL    HW116040   6.259   0.570   2.601
 5047SOL    HW216041   6.186   0.435   2.659
 5048SOL     OW16042   6.946   2.287   1.883
 5048SOL    HW116043   6.889   2.326   1.955
 5048SOL    HW216044   6.989   2.203   1.916
 5049SOL     OW16045   1.068   1.825   2.064
 5049SOL    HW116046   0.997   1.755   2.072
 5049SOL    HW216047   1.158   1.782   2.065
 5050SOL     OW16048   0.645   2.264   1.742
 5050SOL    HW116049   0.714   2.206   1.700
 5050SOL    HW216050   0.554   2.238   1.708
 5051SOL     OW16051   2.821   4.092   0.978
 5051SOL    HW116052   2.865   4.016   1.026
 5051SOL    HW216053   2.721   4.082   0.984
 5052SOL     OW16054   4.227   4.925   0.865
 5052SOL    HW116055   4.159   4.857   0.837
 5052SOL    HW216056   4.238   4.924   0.964
 5053SOL     OW16057   2.390   4.192   1.852
 5053SOL    HW116058   2.342   4.236   1.776
 5053SOL    HW216059   2.326   4.134   1.902
 5054SOL     OW16060   3.398   6.234   4.937
 5054SOL    HW116061   3.399   6.229   5.037
 5054SOL    HW216062   3.490   6.218   4.901
 5055SOL     OW16063   0.812   2.188   4.879
 5055SOL    HW116064   0.812   2.089   4.861
 5055SOL    HW216065   0.903   2.225   4.863
 5056SOL     OW16066   0.296   3.610   6.058
 5056SOL    HW116067   0.353   3.689   6.035
 5056SOL    HW216068   0.293   3.599   6.157
 5057SOL     OW16069   0.992   6.016   3.644
 5057SOL    HW116070   0.921   6.045   3.580
 5057SOL    HW216071   0.954   5.951   3.709
 5058SOL     OW16072   4.193   3.999   6.765
 5058SOL    HW116073   4.293   4.005   6.769
 5058SOL    HW216074   4.156   3.997   6.858
 5059SOL     OW16075   3.684   2.140   4.888
 5059SOL    HW116076   3.697   2.043   4.865
 5059SOL    HW216077   3.587   2.159   4.900
 5060SOL     OW16078   0.243   3.629   5.094
 5060SOL    HW116079   0.165   3.636   5.032
 5060SOL    HW216080   0.325   3.663   5.048
 5061SOL     OW16081   3.581   3.833   4.264
 5061SOL    HW116082   3.643   3.911   4.277
 5061SOL    HW216083   3.593   3.768   4.339
 5062SOL     OW16084   4.791   1.037   2.759
 5062SOL    HW116085   4.891   1.046   2.765
 5062SOL    HW216086   4.768   0.962   2.697
 5063SOL     OW16087   1.537   6.196   2.301
 5063SOL    HW116088   1.552   6.193   2.400
 5063SOL    HW216089   1.622   6.172   2.254
 5064SOL     OW16090   4.371   5.497   0.767
 5064SOL    HW116091   4.383   5.475   0.863
 5064SOL    HW216092   4.436   5.444   0.712
 5065SOL     OW16093   2.304   6.942   3.221
 5065SOL    HW116094   2.230   6.938   3.154
 5065SOL    HW216095   2.274   6.897   3.306
 5066SOL     OW16096   1.918   4.708   1.901
 5066SOL    HW116097   1.842   4.741   1.844
 5066SOL    HW216098   1.902   4.735   1.996
 5067SOL     OW16099   4.066   2.179   1.586
 5067SOL    HW116100   4.083   2.259   1.529
 5067SOL    HW216101   4.013   2.206   1.667
 5068SOL     OW16102   3.933   5.811   0.770
 5068SOL    HW116103   3.880   5.744   0.823
 5068SOL    HW216104   3.955   5.889   0.829
 5069SOL     OW16105   2.985   4.143   6.463
 5069SOL    HW116106   3.036   4.209   6.408
 5069SOL    HW216107   3.049   4.090   6.519
 5070SOL     OW16108   5.723   3.297   4.077
 5070SOL    HW116109   5.691   3.247   4.157
 5070SOL    HW216110   5.802   3.353   4.101
 5071SOL     OW16111   3.974   0.946   3.706
 5071SOL    HW116112   4.048   1.002   3.668
 5071SOL    HW216113   4.007   0.896   3.786
 5072SOL     OW16114   1.236   0.751   1.005
 5072SOL    HW116115   1.233   0.840   0.959
 5072SOL    HW216116   1.287   0.686   0.948
 5073SOL     OW16117   2.577   6.646   2.601
 5073SOL    HW116118   2.516   6.573   2.633
 5073SOL    HW216119   2.662   6.605   2.567
 5074SOL     OW16120   3.877   1.844   1.550
 5074SOL    HW116121   3.823   1.763   1.528
 5074SOL    HW216122   3.890   1.850   1.649
 5075SOL     OW16123   1.715   3.193   6.933
 5075SOL    HW116124   1.775   3.206   7.012
 5075SOL    HW216125   1.770   3.169   6.853
 5076SOL     OW16126   5.306   1.284   0.182
 5076SOL    HW116127   5.294   1.370   0.230
 5076SOL    HW216128   5.393   1.286   0.132
 5077SOL     OW16129   1.274   4.361   4.586
 5077SOL    HW116130   1.373   4.372   4.586
 5077SOL    HW216131   1.242   4.349   4.680
 5078SOL     OW16132   0.626   1.367   3.700
 5078SOL    HW116133   0.681   1.284   3.700
 5078SOL    HW216134   0.686   1.447   3.692
 5079SOL     OW16135   1.844   2.287   5.927
 5079SOL    HW116136   1.791   2.222   5.873
 5079SOL    HW216137   1.942   2.272   5.913
 5080SOL     OW16138   6.246   5.332   5.817
 5080SOL    HW116139   6.233   5.293   5.908
 5080SOL    HW216140   6.233   5.262   5.747
 5081SOL     OW16141   3.545   6.163   5.191
 5081SOL    HW116142   3.544   6.250   5.240
 5081SOL    HW216143   3.619   6.105   5.227
 5082SOL     OW16144   4.672   6.456   0.848
 5082SOL    HW116145   4.771   6.466   0.848
 5082SOL    HW216146   4.638   6.462   0.942
 5083SOL     OW16147   2.773   0.969   2.569
 5083SOL    HW116148   2.732   0.879   2.551
 5083SOL    HW216149   2.824   0.966   2.654
 5084SOL     OW16150   0.831   5.280   5.509
 5084SOL    HW116151   0.827   5.198   5.452
 5084SOL    HW216152   0.925   5.313   5.516
 5085SOL     OW16153   1.477   4.001   6.057
 5085SOL    HW116154   1.397   3.983   6.000
 5085SOL    HW216155   1.559   4.008   5.999
 5086SOL     OW16156   1.052   4.924   2.939
 5086SOL    HW116157   0.956   4.905   2.918
 5086SOL    HW216158   1.104   4.838   2.940
 5087SOL     OW16159   6.666   5.454   2.536
 5087SOL    HW116160   6.683   5.511   2.617
 5087SOL    HW216161   6.723   5.485   2.460
 5088SOL     OW16162   4.325   5.916   2.243
 5088SOL    HW116163   4.401   5.961   2.290
 5088SOL    HW216164   4.257   5.886   2.310
 5089SOL     OW16165   5.347   3.886   4.559
 5089SOL    HW116166   5.403   3.886   4.476
 5089SOL    HW216167   5.273   3.953   4.550
 5090SOL     OW16168   1.558   0.166   3.590
 5090SOL    HW116169   1.507   0.081   3.581
 5090SOL    HW216170   1.591   0.175   3.684
 5091SOL     OW16171   6.647   0.039   0.302
 5091SOL    HW116172   6.678   0.116   0.246
 5091SOL    HW216173   6.550   0.050   0.322
 5092SOL     OW16174   3.615   4.137   4.240
 5092SOL    HW116175   3.541   4.162   4.176
 5092SOL    HW216176   3.696   4.111   4.188
 5093SOL     OW16177   2.109   1.258   2.301
 5093SOL    HW116178   2.119   1.293   2.208
 5093SOL    HW216179   2.036   1.308   2.347
 5094SOL     OW16180   2.402   5.310   6.674
 5094SOL    HW116181   2.473   5.244   6.646
 5094SOL    HW216182   2.397   5.311   6.774
 5095SOL     OW16183   0.563   1.321   3.235
 5095SOL    HW116184   0.505   1.356   3.309
 5095SOL    HW216185   0.530   1.231   3.207
 5096SOL     OW16186   5.205   4.196   6.127
 5096SOL    HW116187   5.212   4.214   6.225
 5096SOL    HW216188   5.211   4.098   6.110
 5097SOL     OW16189   6.305   6.791   6.498
 5097SOL    HW116190   6.334   6.777   6.403
 5097SOL    HW216191   6.375   6.845   6.546
 5098SOL     OW16192   3.915   2.019   2.099
 5098SOL    HW116193   3.957   2.016   2.190
 5098SOL    HW216194   3.846   2.091   2.096
 5099SOL     OW16195   0.416   6.057   1.450
 5099SOL    HW116196   0.471   6.000   1.390
 5099SOL    HW216197   0.328   6.077   1.406
 5100SOL     OW16198   4.887   4.539   2.725
 5100SOL    HW116199   4.885   4.598   2.806
 5100SOL    HW216200   4.815   4.566   2.662
 5101SOL     OW16201   3.887   0.126   5.752
 5101SOL    HW116202   3.840   0.177   5.680
 5101SOL    HW216203   3.876   0.028   5.736
 5102SOL     OW16204   4.725   5.671   4.046
 5102SOL    HW116205   4.680   5.735   4.109
 5102SOL    HW216206   4.735   5.583   4.092
 5103SOL     OW16207   0.641   0.953   5.022
 5103SOL    HW116208   0.722   0.926   4.970
 5103SOL    HW216209   0.588   1.019   4.969
 5104SOL     OW16210   3.419   6.290   1.839
 5104SOL    HW116211   3.359   6.328   1.768
 5104SOL    HW216212   3.494   6.240   1.797
 5105SOL     OW16213   3.453   3.466   6.993
 5105SOL    HW116214   3.400   3.415   0.033
 5105SOL    HW216215   3.419   3.444   6.902
 5106SOL     OW16216   3.945   2.522   0.701
 5106SOL    HW116217   3.926   2.468   0.783
 5106SOL    HW216218   3.995   2.465   0.636
 5107SOL     OW16219   5.222   2.563   1.437
 5107SOL    HW116220   5.216   2.525   1.345
 5107SOL    HW216221   5.145   2.627   1.452
 5108SOL     OW16222   4.585   4.273   6.024
 5108SOL    HW116223   4.652   4.238   5.959
 5108SOL    HW216224   4.504   4.216   6.023
 5109SOL     OW16225   1.985   3.371   1.742
 5109SOL    HW116226   2.068   3.333   1.701
 5109SOL    HW216227   2.000   3.468   1.763
 5110SOL     OW16228   6.430   6.720   6.249
 5110SOL    HW116229   6.525   6.689   6.245
 5110SOL    HW216230   6.390   6.719   6.157
 5111SOL     OW16231   1.068   6.295   4.687
 5111SOL    HW116232   1.021   6.218   4.731
 5111SOL    HW216233   1.128   6.340   4.754
 5112SOL     OW16234   0.790   6.985   2.566
 5112SOL    HW116235   0.773   0.055   2.561
 5112SOL    HW216236   0.703   6.936   2.566
 5113SOL     OW16237   1.960   5.084   0.534
 5113SOL    HW116238   1.969   4.993   0.575
 5113SOL    HW216239   2.032   5.097   0.466
 5114SOL     OW16240   3.722   0.180   0.608
 5114SOL    HW116241   3.795   0.158   0.672
 5114SOL    HW216242   3.722   0.114   0.533
 5115SOL     OW16243   2.103   3.853   1.561
 5115SOL    HW116244   2.149   3.799   1.491
 5115SOL    HW216245   2.067   3.792   1.632
 5116SOL     OW16246   2.790   6.702   6.591
 5116SOL    HW116247   2.831   6.695   6.682
 5116SOL    HW216248   2.762   6.611   6.560
 5117SOL     OW16249   0.755   2.983   4.043
 5117SOL    HW116250   0.743   2.993   4.141
 5117SOL    HW216251   0.680   3.029   3.995
 5118SOL     OW16252   6.136   0.582   0.353
 5118SOL    HW116253   6.167   0.667   0.395
 5118SOL    HW216254   6.214   0.525   0.329
 5119SOL     OW16255   5.317   1.946   0.392
 5119SOL    HW116256   5.307   2.028   0.335
 5119SOL    HW216257   5.308   1.865   0.335
 5120SOL     OW16258   5.114   0.690   5.114
 5120SOL    HW116259   5.166   0.752   5.056
 5120SOL    HW216260   5.122   0.718   5.210
 5121SOL     OW16261   3.260   3.883   6.832
 5121SOL    HW116262   3.313   3.918   6.755
 5121SOL    HW216263   3.269   3.944   6.910
 5122SOL     OW16264   3.998   5.471   3.000
 5122SOL    HW116265   3.930   5.486   3.071
 5122SOL    HW216266   4.026   5.559   2.961
 5123SOL     OW16267   5.252   2.203   2.206
 5123SOL    HW116268   5.193   2.165   2.135
 5123SOL    HW216269   5.263   2.302   2.191
 5124SOL     OW16270   1.935   6.283   3.791
 5124SOL    HW116271   1.858   6.318   3.739
 5124SOL    HW216272   1.941   6.330   3.879
 5125SOL     OW16273   0.430   1.650   4.013
 5125SOL    HW116274   0.515   1.598   4.002
 5125SOL    HW216275   0.421   1.681   4.108
 5126SOL     OW16276   1.704   6.711   0.558
 5126SOL    HW116277   1.750   6.664   0.483
 5126SOL    HW216278   1.768   6.772   0.604
 5127SOL     OW16279   1.846   5.798   0.268
 5127SOL    HW116280   1.878   5.704   0.254
 5127SOL    HW216281   1.856   5.849   0.182
 5128SOL     OW16282   0.112   5.783   1.302
 5128SOL    HW116283   0.172   5.772   1.223
 5128SOL    HW216284   0.168   5.805   1.383
 5129SOL     OW16285   4.483   6.089   1.460
 5129SOL    HW116286   4.560   6.103   1.523
 5129SOL    HW216287   4.425   6.171   1.459
 5130SOL     OW16288   6.237   5.069   2.658
 5130SOL    HW116289   6.297   5.082   2.579
 5130SOL    HW216290   6.244   4.975   2.691
 5131SOL     OW16291   0.723   2.937   3.433
 5131SOL    HW116292   0.781   2.940   3.514
 5131SOL    HW216293   0.780   2.925   3.351
 5132SOL     OW16294   3.496   3.914   6.210
 5132SOL    HW116295   3.420   3.921   6.145
 5132SOL    HW216296   3.574   3.965   6.175
 5133SOL     OW16297   3.146   5.651   6.948
 5133SOL    HW116298   3.137   5.617   0.013
 5133SOL    HW216299   3.238   5.632   6.914
 5134SOL     OW16300   0.708   3.030   1.387
 5134SOL    HW116301   0.790   3.028   1.330
 5134SOL    HW216302   0.667   2.939   1.388
 5135SOL     OW16303   6.790   2.120   5.735
 5135SOL    HW116304   6.759   2.033   5.697
 5135SOL    HW216305   6.871   2.105   5.791
 5136SOL     OW16306   5.364   0.668   4.695
 5136SOL    HW116307   5.326   0.761   4.694
 5136SOL    HW216308   5.459   0.672   4.726
 5137SOL     OW16309   5.899   3.552   6.380
 5137SOL    HW116310   5.882   3.483   6.310
 5137SOL    HW216311   5.835   3.540   6.456
 5138SOL     OW16312   3.767   3.054   6.490
 5138SOL    HW116313   3.719   3.138   6.465
 5138SOL    HW216314   3.721   2.976   6.448
 5139SOL     OW16315   1.639   6.478   4.224
 5139SOL    HW116316   1.655   6.507   4.319
 5139SOL    HW216317   1.719   6.502   4.169
 5140SOL     OW16318   2.625   1.795   0.593
 5140SOL    HW116319   2.578   1.741   0.664
 5140SOL    HW216320   2.608   1.892   0.608
 5141SOL     OW16321   5.672   3.969   1.216
 5141SOL    HW116322   5.737   4.017   1.275
 5141SOL    HW216323   5.679   3.871   1.232
 5142SOL     OW16324   6.162   2.864   4.432
 5142SOL    HW116325   6.235   2.916   4.386
 5142SOL    HW216326   6.110   2.813   4.364
 5143SOL     OW16327   1.292   4.756   4.467
 5143SOL    HW116328   1.248   4.778   4.554
 5143SOL    HW216329   1.382   4.799   4.462
 5144SOL     OW16330   1.709   6.711   6.004
 5144SOL    HW116331   1.619   6.727   6.044
 5144SOL    HW216332   1.710   6.740   5.909
 5145SOL     OW16333   2.012   5.498   6.227
 5145SOL    HW116334   2.017   5.408   6.269
 5145SOL    HW216335   1.924   5.541   6.252
 5146SOL     OW16336   3.964   3.933   6.642
 5146SOL    HW116337   3.957   3.836   6.618
 5146SOL    HW216338   4.057   3.954   6.673
 5147SOL     OW16339   0.129   4.347   1.339
 5147SOL    HW116340   0.036   4.336   1.303
 5147SOL    HW216341   0.173   4.425   1.295
 5148SOL     OW16342   0.472   6.099   1.087
 5148SOL    HW116343   0.551   6.038   1.093
 5148SOL    HW216344   0.500   6.183   1.040
 5149SOL     OW16345   6.400   0.502   3.473
 5149SOL    HW116346   6.351   0.511   3.560
 5149SOL    HW216347   6.365   0.570   3.408
 5150SOL     OW16348   2.152   5.875   4.095
 5150SOL    HW116349   2.171   5.814   4.172
 5150SOL    HW216350   2.208   5.848   4.017
 5151SOL     OW16351   5.563   1.371   6.572
 5151SOL    HW116352   5.626   1.309   6.525
 5151SOL    HW216353   5.615   1.432   6.631
 5152SOL     OW16354   2.094   4.755   0.189
 5152SOL    HW116355   2.180   4.795   0.221
 5152SOL    HW216356   2.051   4.706   0.265
 5153SOL     OW16357   1.972   2.253   0.508
 5153SOL    HW116358   2.047   2.285   0.450
 5153SOL    HW216359   1.973   2.153   0.512
 5154SOL     OW16360   2.013   3.422   6.079
 5154SOL    HW116361   1.948   3.497   6.065
 5154SOL    HW216362   1.963   3.339   6.105
 5155SOL     OW16363   3.548   5.977   2.134
 5155SOL    HW116364   3.554   5.999   2.036
 5155SOL    HW216365   3.477   5.908   2.149
 5156SOL     OW16366   6.494   2.489   6.342
 5156SOL    HW116367   6.469   2.586   6.340
 5156SOL    HW216368   6.557   2.469   6.268
 5157SOL     OW16369   4.753   2.769   3.819
 5157SOL    HW116370   4.707   2.772   3.731
 5157SOL    HW216371   4.850   2.746   3.806
 5158SOL     OW16372   3.200   2.134   1.517
 5158SOL    HW116373   3.138   2.056   1.512
 5158SOL    HW216374   3.294   2.103   1.503
 5159SOL     OW16375   0.599   3.458   4.352
 5159SOL    HW116376   0.611   3.424   4.445
 5159SOL    HW216377   0.676   3.429   4.295
 5160SOL     OW16378   1.494   3.751   4.061
 5160SOL    HW116379   1.593   3.754   4.043
 5160SOL    HW216380   1.458   3.662   4.036
 5161SOL     OW16381   1.449   4.458   5.562
 5161SOL    HW116382   1.467   4.555   5.546
 5161SOL    HW216383   1.440   4.442   5.661
 5162SOL     OW16384   6.851   4.885   4.161
 5162SOL    HW116385   6.833   4.908   4.256
 5162SOL    HW216386   6.803   4.801   4.138
 5163SOL     OW16387   4.906   4.983   0.982
 5163SOL    HW116388   4.913   5.080   0.957
 5163SOL    HW216389   4.870   4.976   1.075
 5164SOL     OW16390   5.716   2.507   5.139
 5164SOL    HW116391   5.679   2.514   5.232
 5164SOL    HW216392   5.666   2.569   5.079
 5165SOL     OW16393   6.113   4.696   5.035
 5165SOL    HW116394   6.078   4.605   5.059
 5165SOL    HW216395   6.092   4.760   5.108
 5166SOL     OW16396   1.681   4.938   1.931
 5166SOL    HW116397   1.756   4.985   1.885
 5166SOL    HW216398   1.665   4.850   1.886
 5167SOL     OW16399   6.413   6.630   5.342
 5167SOL    HW116400   6.400   6.552   5.281
 5167SOL    HW216401   6.498   6.677   5.318
 5168SOL     OW16402   4.373   2.293   3.416
 5168SOL    HW116403   4.409   2.376   3.460
 5168SOL    HW216404   4.448   2.228   3.403
 5169SOL     OW16405   3.257   3.885   6.399
 5169SOL    HW116406   3.340   3.884   6.343
 5169SOL    HW216407   3.266   3.955   6.470
 5170SOL     OW16408   6.937   4.712   5.334
 5170SOL    HW116409   7.013   4.657   5.370
 5170SOL    HW216410   6.857   4.654   5.321
 5171SOL     OW16411   2.443   4.497   4.471
 5171SOL    HW116412   2.419   4.403   4.444
 5171SOL    HW216413   2.360   4.550   4.483
 5172SOL     OW16414   0.407   3.188   1.723
 5172SOL    HW116415   0.346   3.246   1.776
 5172SOL    HW216416   0.482   3.157   1.781
 5173SOL     OW16417   5.556   4.085   6.356
 5173SOL    HW116418   5.639   4.133   6.330
 5173SOL    HW216419   5.520   4.123   6.441
 5174SOL     OW16420   2.060   4.700   5.056
 5174SOL    HW116421   2.057   4.727   4.960
 5174SOL    HW216422   2.150   4.720   5.094
 5175SOL     OW16423   1.960   3.897   0.116
 5175SOL    HW116424   1.864   3.871   0.119
 5175SOL    HW216425   2.009   3.836   0.054
 5176SOL     OW16426   4.381   3.203   0.430
 5176SOL    HW116427   4.313   3.261   0.387
 5176SOL    HW216428   4.380   3.113   0.387
 5177SOL     OW16429   4.682   7.007   5.423
 5177SOL    HW116430   4.674   7.017   5.522
 5177SOL    HW216431   4.630   0.052   5.378
 5178SOL     OW16432   2.478   2.507   1.560
 5178SOL    HW116433   2.521   2.532   1.648
 5178SOL    HW216434   2.379   2.516   1.568
 5179SOL     OW16435   4.674   6.515   5.265
 5179SOL    HW116436   4.619   6.470   5.195
 5179SOL    HW216437   4.673   6.614   5.251
 5180SOL     OW16438   3.569   2.673   6.872
 5180SOL    HW116439   3.486   2.706   6.916
 5180SOL    HW216440   3.588   2.579   6.904
 5181SOL     OW16441   3.557   0.430   2.699
 5181SOL    HW116442   3.520   0.453   2.609
 5181SOL    HW216443   3.657   0.438   2.697
 5182SOL     OW16444   5.772   4.966   1.696
 5182SOL    HW116445   5.845   4.932   1.637
 5182SOL    HW216446   5.684   4.939   1.659
 5183SOL     OW16447   4.581   6.886   1.922
 5183SOL    HW116448   4.674   6.902   1.890
 5183SOL    HW216449   4.564   6.787   1.927
 5184SOL     OW16450   1.011   1.056   3.557
 5184SOL    HW116451   0.986   1.009   3.471
 5184SOL    HW216452   1.106   1.084   3.553
 5185SOL     OW16453   3.723   6.488   2.564
 5185SOL    HW116454   3.820   6.466   2.572
 5185SOL    HW216455   3.707   6.547   2.485
 5186SOL     OW16456   6.246   3.647   1.174
 5186SOL    HW116457   6.148   3.667   1.178
 5186SOL    HW216458   6.261   3.549   1.192
 5187SOL     OW16459   6.857   1.326   3.113
 5187SOL    HW116460   6.787   1.367   3.055
 5187SOL    HW216461   6.943   1.375   3.101
 5188SOL     OW16462   0.308   5.156   6.921
 5188SOL    HW116463   0.212   5.129   6.911
 5188SOL    HW216464   0.349   5.105   6.997
 5189SOL     OW16465   5.026   5.005   6.877
 5189SOL    HW116466   5.110   4.961   6.846
 5189SOL    HW216467   5.028   5.102   6.851
 5190SOL     OW16468   0.892   2.072   3.892
 5190SOL    HW116469   0.794   2.055   3.879
 5190SOL    HW216470   0.937   1.985   3.911
 5191SOL     OW16471   3.237   1.235   2.118
 5191SOL    HW116472   3.217   1.326   2.155
 5191SOL    HW216473   3.155   1.179   2.119
 5192SOL     OW16474   4.949   5.524   2.591
 5192SOL    HW116475   5.024   5.459   2.604
 5192SOL    HW216476   4.866   5.475   2.565
 5193SOL     OW16477   4.596   4.369   3.731
 5193SOL    HW116478   4.541   4.450   3.713
 5193SOL    HW216479   4.599   4.312   3.649
 5194SOL     OW16480   5.025   0.962   5.828
 5194SOL    HW116481   5.055   1.056   5.813
 5194SOL    HW216482   5.040   0.937   5.924
 5195SOL     OW16483   6.715   6.799   4.689
 5195SOL    HW116484   6.675   6.725   4.636
 5195SOL    HW216485   6.715   6.775   4.786
 5196SOL     OW16486   0.741   4.413   1.573
 5196SOL    HW116487   0.798   4.400   1.654
 5196SOL    HW216488   0.712   4.323   1.539
 5197SOL     OW16489   1.545   6.440   4.622
 5197SOL    HW116490   1.503   6.447   4.713
 5197SOL    HW216491   1.546   6.344   4.594
 5198SOL     OW16492   2.887   6.650   5.194
 5198SOL    HW116493   2.855   6.637   5.100
 5198SOL    HW216494   2.914   6.746   5.207
 5199SOL     OW16495   2.021   5.495   1.354
 5199SOL    HW116496   1.962   5.575   1.341
 5199SOL    HW216497   2.105   5.507   1.301
 5200SOL     OW16498   1.170   1.970   4.830
 5200SOL    HW116499   1.212   1.880   4.819
 5200SOL    HW216500   1.070   1.961   4.828
 5201SOL     OW16501   5.357   4.789   4.194
 5201SOL    HW116502   5.386   4.796   4.290
 5201SOL    HW216503   5.367   4.695   4.163
 5202SOL     OW16504   4.838   3.170   6.722
 5202SOL    HW116505   4.745   3.137   6.704
 5202SOL    HW216506   4.836   3.270   6.734
 5203SOL     OW16507   1.505   0.171   0.053
 5203SOL    HW116508   1.502   0.105   0.128
 5203SOL    HW216509   1.450   0.251   0.076
 5204SOL     OW16510   3.475   6.862   6.786
 5204SOL    HW116511   3.440   6.776   6.823
 5204SOL    HW216512   3.425   6.939   6.827
 5205SOL     OW16513   6.643   5.880   1.139
 5205SOL    HW116514   6.613   5.972   1.112
 5205SOL    HW216515   6.740   5.883   1.165
 5206SOL     OW16516   0.500   4.334   4.666
 5206SOL    HW116517   0.598   4.318   4.661
 5206SOL    HW216518   0.457   4.259   4.717
 5207SOL     OW16519   0.212   6.825   4.601
 5207SOL    HW116520   0.135   6.877   4.563
 5207SOL    HW216521   0.296   6.877   4.588
 5208SOL     OW16522   5.076   2.454   0.458
 5208SOL    HW116523   5.007   2.385   0.437
 5208SOL    HW216524   5.048   2.542   0.419
 5209SOL     OW16525   4.632   0.017   3.109
 5209SOL    HW116526   4.584   0.060   3.034
 5209SOL    HW216527   4.569   0.004   3.186
 5210SOL     OW16528   5.413   4.512   1.233
 5210SOL    HW116529   5.369   4.441   1.178
 5210SOL    HW216530   5.501   4.480   1.266
 5211SOL     OW16531   4.978   1.871   4.103
 5211SOL    HW116532   5.004   1.967   4.093
 5211SOL    HW216533   4.879   1.865   4.119
 5212SOL     OW16534   1.339   2.574   0.716
 5212SOL    HW116535   1.346   2.655   0.774
 5212SOL    HW216536   1.256   2.523   0.740
 5213SOL     OW16537   4.069   3.355   2.579
 5213SOL    HW116538   4.127   3.376   2.500
 5213SOL    HW216539   4.046   3.258   2.578
 5214SOL     OW16540   5.574   4.577   6.396
 5214SOL    HW116541   5.545   4.544   6.486
 5214SOL    HW216542   5.497   4.576   6.333
 5215SOL     OW16543   6.817   3.094   4.608
 5215SOL    HW116544   6.821   3.184   4.651
 5215SOL    HW216545   6.907   3.051   4.614
 5216SOL     OW16546   5.582   4.775   1.346
 5216SOL    HW116547   5.586   4.790   1.445
 5216SOL    HW216548   5.486   4.772   1.317
 5217SOL     OW16549   3.987   5.667   4.014
 5217SOL    HW116550   3.980   5.613   4.098
 5217SOL    HW216551   3.985   5.765   4.037
 5218SOL     OW16552   0.597   0.333   0.483
 5218SOL    HW116553   0.652   0.302   0.561
 5218SOL    HW216554   0.502   0.304   0.495
 5219SOL     OW16555   2.505   2.280   5.231
 5219SOL    HW116556   2.550   2.191   5.244
 5219SOL    HW216557   2.563   2.338   5.174
 5220SOL     OW16558   2.503   5.387   3.155
 5220SOL    HW116559   2.565   5.364   3.080
 5220SOL    HW216560   2.539   5.351   3.241
 5221SOL     OW16561   7.013   0.164   1.430
 5221SOL    HW116562   7.005   0.263   1.444
 5221SOL    HW216563   0.041   0.124   1.502
 5222SOL     OW16564   4.013   4.885   1.276
 5222SOL    HW116565   3.991   4.802   1.328
 5222SOL    HW216566   4.087   4.864   1.212
 5223SOL     OW16567   0.337   3.062   0.650
 5223SOL    HW116568   0.415   3.119   0.676
 5223SOL    HW216569   0.370   2.976   0.612
 5224SOL     OW16570   0.757   1.615   4.148
 5224SOL    HW116571   0.690   1.688   4.159
 5224SOL    HW216572   0.845   1.643   4.186
 5225SOL     OW16573   6.574   1.113   4.864
 5225SOL    HW116574   6.631   1.173   4.806
 5225SOL    HW216575   6.535   1.167   4.939
 5226SOL     OW16576   0.195   5.880   3.885
 5226SOL    HW116577   0.245   5.811   3.833
 5226SOL    HW216578   0.255   5.958   3.902
 5227SOL     OW16579   6.891   3.371   5.686
 5227SOL    HW116580   6.938   3.446   5.640
 5227SOL    HW216581   6.820   3.334   5.625
 5228SOL     OW16582   1.631   2.747   5.625
 5228SOL    HW116583   1.642   2.767   5.528
 5228SOL    HW216584   1.679   2.816   5.679
 5229SOL     OW16585   3.132   0.113   6.372
 5229SOL    HW116586   3.097   0.034   6.422
 5229SOL    HW216587   3.083   0.195   6.400
 5230SOL     OW16588   6.639   0.295   1.927
 5230SOL    HW116589   6.692   0.216   1.955
 5230SOL    HW216590   6.688   0.344   1.855
 5231SOL     OW16591   5.817   1.637   3.139
 5231SOL    HW116592   5.888   1.704   3.161
 5231SOL    HW216593   5.736   1.656   3.194
 5232SOL     OW16594   1.937   3.914   5.927
 5232SOL    HW116595   1.963   3.872   6.014
 5232SOL    HW216596   1.911   4.009   5.942
 5233SOL     OW16597   2.913   0.453   2.923
 5233SOL    HW116598   3.003   0.411   2.931
 5233SOL    HW216599   2.845   0.384   2.900
 5234SOL     OW16600   1.528   2.445   0.889
 5234SOL    HW116601   1.448   2.419   0.943
 5234SOL    HW216602   1.499   2.475   0.799
 5235SOL     OW16603   2.236   1.556   0.942
 5235SOL    HW116604   2.170   1.482   0.930
 5235SOL    HW216605   2.324   1.519   0.969
 5236SOL     OW16606   3.481   5.189   2.441
 5236SOL    HW116607   3.472   5.256   2.367
 5236SOL    HW216608   3.418   5.213   2.515
 5237SOL     OW16609   1.940   2.440   4.457
 5237SOL    HW116610   1.921   2.374   4.530
 5237SOL    HW216611   1.972   2.526   4.497
 5238SOL     OW16612   1.189   5.332   3.041
 5238SOL    HW116613   1.131   5.412   3.055
 5238SOL    HW216614   1.156   5.256   3.098
 5239SOL     OW16615   3.203   3.949   1.588
 5239SOL    HW116616   3.279   4.007   1.620
 5239SOL    HW216617   3.121   3.968   1.642
 5240SOL     OW16618   2.906   2.913   6.283
 5240SOL    HW116619   2.868   2.936   6.193
 5240SOL    HW216620   2.919   2.815   6.290
 5241SOL     OW16621   1.265   5.906   2.107
 5241SOL    HW116622   1.241   5.830   2.168
 5241SOL    HW216623   1.184   5.934   2.055
 5242SOL     OW16624   4.664   0.891   0.952
 5242SOL    HW116625   4.738   0.833   0.986
 5242SOL    HW216626   4.648   0.871   0.855
 5243SOL     OW16627   1.967   5.742   1.608
 5243SOL    HW116628   2.063   5.758   1.631
 5243SOL    HW216629   1.934   5.817   1.550
 5244SOL     OW16630   4.793   3.647   0.744
 5244SOL    HW116631   4.748   3.712   0.804
 5244SOL    HW216632   4.796   3.557   0.787
 5245SOL     OW16633   4.317   3.993   0.158
 5245SOL    HW116634   4.372   4.021   0.079
 5245SOL    HW216635   4.363   4.021   0.242
 5246SOL     OW16636   6.922   2.679   1.725
 5246SOL    HW116637   6.832   2.647   1.696
 5246SOL    HW216638   6.933   2.665   1.823
 5247SOL     OW16639   3.910   1.661   5.753
 5247SOL    HW116640   3.814   1.681   5.732
 5247SOL    HW216641   3.947   1.598   5.686
 5248SOL     OW16642   7.017   1.805   2.738
 5248SOL    HW116643   6.951   1.803   2.663
 5248SOL    HW216644   0.048   1.885   2.729
 5249SOL     OW16645   0.825   4.811   0.282
 5249SOL    HW116646   0.728   4.791   0.275
 5249SOL    HW216647   0.877   4.727   0.264
 5250SOL     OW16648   2.030   5.634   0.048
 5250SOL    HW116649   2.110   5.691   0.067
 5250SOL    HW216650   2.039   5.547   0.096
 5251SOL     OW16651   1.022   4.231   1.110
 5251SOL    HW116652   1.019   4.192   1.017
 5251SOL    HW216653   0.952   4.301   1.119
 5252SOL     OW16654   3.411   6.429   2.095
 5252SOL    HW116655   3.402   6.426   1.995
 5252SOL    HW216656   3.331   6.387   2.137
 5253SOL     OW16657   5.380   4.726   4.650
 5253SOL    HW116658   5.386   4.763   4.743
 5253SOL    HW216659   5.420   4.634   4.648
 5254SOL     OW16660   5.866   0.220   2.925
 5254SOL    HW116661   5.796   0.289   2.940
 5254SOL    HW216662   5.923   0.212   3.007
 5255SOL     OW16663   5.721   1.972   4.886
 5255SOL    HW116664   5.669   2.032   4.825
 5255SOL    HW216665   5.817   2.002   4.888
 5256SOL     OW16666   4.969   0.904   3.066
 5256SOL    HW116667   4.879   0.861   3.063
 5256SOL    HW216668   5.023   0.876   2.986
 5257SOL     OW16669   4.199   0.508   6.512
 5257SOL    HW116670   4.163   0.576   6.448
 5257SOL    HW216671   4.299   0.510   6.509
 5258SOL     OW16672   5.324   1.390   2.421
 5258SOL    HW116673   5.240   1.337   2.410
 5258SOL    HW216674   5.304   1.473   2.472
 5259SOL     OW16675   5.146   5.398   2.985
 5259SOL    HW116676   5.057   5.360   3.010
 5259SOL    HW216677   5.166   5.375   2.890
 5260SOL     OW16678   2.798   6.160   0.214
 5260SOL    HW116679   2.718   6.185   0.269
 5260SOL    HW216680   2.794   6.062   0.195
 5261SOL     OW16681   6.819   4.802   0.868
 5261SOL    HW116682   6.804   4.709   0.901
 5261SOL    HW216683   6.730   4.849   0.861
 5262SOL     OW16684   2.162   0.139   2.500
 5262SOL    HW116685   2.188   0.137   2.403
 5262SOL    HW216686   2.225   0.083   2.553
 5263SOL     OW16687   1.285   1.030   3.261
 5263SOL    HW116688   1.309   1.043   3.165
 5263SOL    HW216689   1.187   1.011   3.268
 5264SOL     OW16690   6.838   2.188   1.503
 5264SOL    HW116691   6.863   2.105   1.555
 5264SOL    HW216692   6.784   2.162   1.424
 5265SOL     OW16693   5.457   2.681   4.574
 5265SOL    HW116694   5.476   2.637   4.662
 5265SOL    HW216695   5.454   2.611   4.503
 5266SOL     OW16696   2.351   6.387   0.679
 5266SOL    HW116697   2.338   6.296   0.719
 5266SOL    HW216698   2.439   6.424   0.708
 5267SOL     OW16699   4.479   2.549   4.313
 5267SOL    HW116700   4.458   2.458   4.277
 5267SOL    HW216701   4.506   2.542   4.409
 5268SOL     OW16702   5.523   1.083   6.780
 5268SOL    HW116703   5.558   1.088   6.687
 5268SOL    HW216704   5.589   1.035   6.838
 5269SOL     OW16705   0.351   6.597   2.354
 5269SOL    HW116706   0.374   6.563   2.263
 5269SOL    HW216707   0.415   6.559   2.421
 5270SOL     OW16708   6.430   1.953   0.138
 5270SOL    HW116709   6.473   1.863   0.145
 5270SOL    HW216710   6.347   1.954   0.194
 5271SOL     OW16711   6.173   5.557   4.629
 5271SOL    HW116712   6.271   5.538   4.637
 5271SOL    HW216713   6.121   5.488   4.679
 5272SOL     OW16714   3.740   6.689   0.449
 5272SOL    HW116715   3.744   6.760   0.520
 5272SOL    HW216716   3.806   6.711   0.377
 5273SOL     OW16717   1.060   3.209   2.929
 5273SOL    HW116718   1.061   3.168   2.838
 5273SOL    HW216719   0.973   3.257   2.943
 5274SOL     OW16720   4.500   6.311   2.450
 5274SOL    HW116721   4.580   6.262   2.485
 5274SOL    HW216722   4.418   6.254   2.462
 5275SOL     OW16723   2.890   0.506   0.662
 5275SOL    HW116724   2.872   0.595   0.705
 5275SOL    HW216725   2.811   0.479   0.608
 5276SOL     OW16726   2.417   6.635   1.586
 5276SOL    HW116727   2.461   6.691   1.655
 5276SOL    HW216728   2.329   6.602   1.621
 5277SOL     OW16729   2.333   1.082   2.353
 5277SOL    HW116730   2.290   1.170   2.335
 5277SOL    HW216731   2.384   1.086   2.439
 5278SOL     OW16732   4.032   4.821   2.698
 5278SOL    HW116733   3.956   4.886   2.693
 5278SOL    HW216734   4.039   4.786   2.792
 5279SOL     OW16735   2.497   5.631   1.536
 5279SOL    HW116736   2.576   5.636   1.597
 5279SOL    HW216737   2.466   5.536   1.529
 5280SOL     OW16738   3.412   6.423   5.248
 5280SOL    HW116739   3.353   6.349   5.218
 5280SOL    HW216740   3.368   6.471   5.324
 5281SOL     OW16741   0.348   1.546   2.515
 5281SOL    HW116742   0.440   1.573   2.545
 5281SOL    HW216743   0.318   1.606   2.441
 5282SOL     OW16744   2.792   2.094   3.346
 5282SOL    HW116745   2.766   2.166   3.282
 5282SOL    HW216746   2.832   2.135   3.428
 5283SOL     OW16747   5.273   5.569   0.715
 5283SOL    HW116748   5.364   5.584   0.677
 5283SOL    HW216749   5.239   5.654   0.755
 5284SOL     OW16750   5.256   3.807   3.314
 5284SOL    HW116751   5.267   3.881   3.380
 5284SOL    HW216752   5.328   3.739   3.326
 5285SOL     OW16753   3.092   4.994   3.893
 5285SOL    HW116754   3.027   5.016   3.820
 5285SOL    HW216755   3.170   5.057   3.889
 5286SOL     OW16756   1.625   4.407   1.274
 5286SOL    HW116757   1.536   4.447   1.250
 5286SOL    HW216758   1.648   4.337   1.206
 5287SOL     OW16759   2.493   1.414   0.467
 5287SOL    HW116760   2.471   1.489   0.530
 5287SOL    HW216761   2.581   1.374   0.493
 5288SOL     OW16762   2.962   0.395   1.080
 5288SOL    HW116763   2.870   0.356   1.079
 5288SOL    HW216764   3.001   0.389   0.989
 5289SOL     OW16765   0.989   5.337   1.118
 5289SOL    HW116766   1.005   5.328   1.019
 5289SOL    HW216767   0.945   5.255   1.152
 5290SOL     OW16768   3.617   5.762   0.226
 5290SOL    HW116769   3.520   5.751   0.205
 5290SOL    HW216770   3.669   5.769   0.141
 5291SOL     OW16771   2.403   4.864   5.519
 5291SOL    HW116772   2.329   4.843   5.455
 5291SOL    HW216773   2.375   4.840   5.612
 5292SOL     OW16774   5.353   3.181   6.373
 5292SOL    HW116775   5.423   3.248   6.349
 5292SOL    HW216776   5.311   3.206   6.460
 5293SOL     OW16777   0.427   0.235   4.110
 5293SOL    HW116778   0.401   0.143   4.137
 5293SOL    HW216779   0.383   0.301   4.171
 5294SOL     OW16780   5.960   3.293   6.072
 5294SOL    HW116781   6.035   3.243   6.116
 5294SOL    HW216782   5.898   3.227   6.029
 5295SOL     OW16783   5.779   0.699   2.985
 5295SOL    HW116784   5.684   0.714   2.958
 5295SOL    HW216785   5.832   0.783   2.972
 5296SOL     OW16786   1.400   4.598   0.690
 5296SOL    HW116787   1.303   4.614   0.670
 5296SOL    HW216788   1.409   4.550   0.777
 5297SOL     OW16789   1.979   1.059   1.140
 5297SOL    HW116790   2.033   1.115   1.202
 5297SOL    HW216791   1.884   1.090   1.140
 5298SOL     OW16792   6.898   4.883   1.127
 5298SOL    HW116793   6.921   4.879   1.030
 5298SOL    HW216794   6.800   4.898   1.138
 5299SOL     OW16795   3.045   0.961   1.722
 5299SOL    HW116796   3.037   0.927   1.816
 5299SOL    HW216797   2.957   0.948   1.675
 5300SOL     OW16798   0.039   6.334   3.793
 5300SOL    HW116799   6.982   6.386   3.777
 5300SOL    HW216800   0.021   6.262   3.860
 5301SOL     OW16801   4.307   1.319   6.813
 5301SOL    HW116802   4.208   1.320   6.826
 5301SOL    HW216803   4.328   1.297   6.718
 5302SOL     OW16804   6.080   4.306   2.660
 5302SOL    HW116805   6.126   4.268   2.740
 5302SOL    HW216806   6.038   4.394   2.683
 5303SOL     OW16807   6.228   4.216   3.915
 5303SOL    HW116808   6.253   4.175   3.827
 5303SOL    HW216809   6.253   4.154   3.989
 5304SOL     OW16810   4.799   1.838   5.553
 5304SOL    HW116811   4.876   1.784   5.520
 5304SOL    HW216812   4.740   1.780   5.610
 5305SOL     OW16813   2.580   1.218   3.499
 5305SOL    HW116814   2.660   1.171   3.537
 5305SOL    HW216815   2.506   1.153   3.485
 5306SOL     OW16816   3.112   6.369   6.373
 5306SOL    HW116817   3.148   6.463   6.375
 5306SOL    HW216818   3.016   6.371   6.347
 5307SOL     OW16819   4.615   6.826   6.727
 5307SOL    HW116820   4.611   6.730   6.699
 5307SOL    HW216821   4.667   6.878   6.659
 5308SOL     OW16822   6.960   1.311   3.356
 5308SOL    HW116823   6.892   1.318   3.283
 5308SOL    HW216824   6.990   1.216   3.364
 5309SOL     OW16825   3.735   4.130   3.457
 5309SOL    HW116826   3.642   4.160   3.478
 5309SOL    HW216827   3.764   4.062   3.524
 5310SOL     OW16828   5.276   1.795   1.463
 5310SOL    HW116829   5.198   1.748   1.504
 5310SOL    HW216830   5.297   1.878   1.515
 5311SOL     OW16831   2.008   5.296   6.789
 5311SOL    HW116832   2.001   5.234   6.710
 5311SOL    HW216833   2.020   5.242   6.872
 5312SOL     OW16834   0.789   4.196   3.213
 5312SOL    HW116835   0.867   4.175   3.154
 5312SOL    HW216836   0.817   4.185   3.309
 5313SOL     OW16837   1.130   5.836   6.610
 5313SOL    HW116838   1.126   5.858   6.512
 5313SOL    HW216839   1.051   5.877   6.656
 5314SOL     OW16840   4.052   5.092   0.230
 5314SOL    HW116841   4.097   5.170   0.188
 5314SOL    HW216842   4.106   5.059   0.307
 5315SOL     OW16843   5.645   2.982   1.944
 5315SOL    HW116844   5.579   2.961   1.872
 5315SOL    HW216845   5.663   3.081   1.944
 5316SOL     OW16846   0.012   4.414   3.951
 5316SOL    HW116847   6.981   4.338   3.978
 5316SOL    HW216848   0.062   4.448   4.031
 5317SOL     OW16849   5.072   6.909   2.615
 5317SOL    HW116850   5.004   6.859   2.561
 5317SOL    HW216851   5.087   6.999   2.574
 5318SOL     OW16852   0.788   3.021   4.328
 5318SOL    HW116853   0.840   2.938   4.346
 5318SOL    HW216854   0.716   3.032   4.397
 5319SOL     OW16855   4.681   0.649   0.454
 5319SOL    HW116856   4.678   0.572   0.391
 5319SOL    HW216857   4.666   0.617   0.547
 5320SOL     OW16858   6.009   3.973   6.293
 5320SOL    HW116859   6.056   3.922   6.222
 5320SOL    HW216860   6.035   4.070   6.288
 5321SOL     OW16861   1.583   5.589   5.585
 5321SOL    HW116862   1.606   5.633   5.672
 5321SOL    HW216863   1.533   5.504   5.602
 5322SOL     OW16864   3.239   5.453   6.634
 5322SOL    HW116865   3.268   5.402   6.553
 5322SOL    HW216866   3.317   5.466   6.695
 5323SOL     OW16867   4.535   2.173   0.556
 5323SOL    HW116868   4.436   2.182   0.546
 5323SOL    HW216869   4.562   2.201   0.648
 5324SOL     OW16870   4.131   2.809   1.655
 5324SOL    HW116871   4.187   2.891   1.662
 5324SOL    HW216872   4.035   2.833   1.671
 5325SOL     OW16873   5.587   6.430   2.498
 5325SOL    HW116874   5.512   6.402   2.559
 5325SOL    HW216875   5.674   6.396   2.535
 5326SOL     OW16876   6.796   5.979   1.468
 5326SOL    HW116877   6.823   6.075   1.465
 5326SOL    HW216878   6.846   5.927   1.399
 5327SOL     OW16879   6.417   6.950   4.115
 5327SOL    HW116880   6.482   6.949   4.191
 5327SOL    HW216881   6.405   0.016   4.082
 5328SOL     OW16882   3.721   4.315   0.394
 5328SOL    HW116883   3.723   4.288   0.298
 5328SOL    HW216884   3.629   4.299   0.431
 5329SOL     OW16885   0.063   4.643   0.451
 5329SOL    HW116886   0.036   4.735   0.479
 5329SOL    HW216887   0.078   4.586   0.532
 5330SOL     OW16888   4.135   3.974   1.134
 5330SOL    HW116889   4.059   4.024   1.177
 5330SOL    HW216890   4.195   4.040   1.088
 5331SOL     OW16891   4.506   2.658   0.198
 5331SOL    HW116892   4.418   2.682   0.158
 5331SOL    HW216893   4.568   2.736   0.193
 5332SOL     OW16894   6.020   4.139   0.618
 5332SOL    HW116895   6.066   4.152   0.705
 5332SOL    HW216896   6.081   4.092   0.554
 5333SOL     OW16897   1.955   1.201   3.380
 5333SOL    HW116898   1.983   1.285   3.334
 5333SOL    HW216899   1.857   1.203   3.399
 5334SOL     OW16900   4.467   4.471   2.849
 5334SOL    HW116901   4.553   4.504   2.812
 5334SOL    HW216902   4.476   4.375   2.873
 5335SOL     OW16903   0.250   4.772   1.774
 5335SOL    HW116904   0.203   4.765   1.861
 5335SOL    HW216905   0.341   4.811   1.788
 5336SOL     OW16906   1.856   1.937   4.125
 5336SOL    HW116907   1.796   1.985   4.061
 5336SOL    HW216908   1.817   1.940   4.217
 5337SOL     OW16909   6.901   4.354   1.255
 5337SOL    HW116910   6.873   4.262   1.227
 5337SOL    HW216911   6.820   4.404   1.287
 5338SOL     OW16912   0.082   3.529   0.799
 5338SOL    HW116913   0.061   3.531   0.701
 5338SOL    HW216914   0.039   3.449   0.841
 5339SOL     OW16915   5.983   2.742   2.548
 5339SOL    HW116916   5.937   2.653   2.542
 5339SOL    HW216917   6.079   2.728   2.572
 5340SOL     OW16918   5.558   2.448   2.601
 5340SOL    HW116919   5.577   2.546   2.605
 5340SOL    HW216920   5.459   2.434   2.607
 5341SOL     OW16921   4.704   5.306   3.272
 5341SOL    HW116922   4.620   5.347   3.311
 5341SOL    HW216923   4.687   5.211   3.249
 5342SOL     OW16924   6.041   6.796   4.513
 5342SOL    HW116925   6.080   6.792   4.422
 5342SOL    HW216926   5.945   6.822   4.507
 5343SOL     OW16927   4.083   3.674   5.608
 5343SOL    HW116928   4.145   3.737   5.654
 5343SOL    HW216929   4.110   3.665   5.512
 5344SOL     OW16930   0.918   1.605   6.136
 5344SOL    HW116931   0.948   1.510   6.145
 5344SOL    HW216932   0.978   1.652   6.071
 5345SOL     OW16933   5.758   2.384   6.713
 5345SOL    HW116934   5.670   2.354   6.749
 5345SOL    HW216935   5.747   2.413   6.617
 5346SOL     OW16936   3.129   5.426   3.753
 5346SOL    HW116937   3.216   5.474   3.751
 5346SOL    HW216938   3.140   5.334   3.715
 5347SOL     OW16939   6.283   1.947   4.266
 5347SOL    HW116940   6.334   2.016   4.215
 5347SOL    HW216941   6.226   1.894   4.202
 5348SOL     OW16942   5.507   1.754   3.675
 5348SOL    HW116943   5.580   1.822   3.686
 5348SOL    HW216944   5.545   1.662   3.690
 5349SOL     OW16945   7.010   3.118   2.431
 5349SOL    HW116946   0.070   3.166   2.417
 5349SOL    HW216947   6.943   3.182   2.467
 5350SOL     OW16948   2.004   6.503   6.467
 5350SOL    HW116949   2.040   6.572   6.404
 5350SOL    HW216950   2.049   6.416   6.450
 5351SOL     OW16951   0.220   5.064   1.931
 5351SOL    HW116952   0.296   5.130   1.931
 5351SOL    HW216953   0.218   5.016   2.019
 5352SOL     OW16954   2.042   3.252   4.418
 5352SOL    HW116955   2.008   3.346   4.422
 5352SOL    HW216956   2.052   3.216   4.510
 5353SOL     OW16957   4.367   5.857   3.326
 5353SOL    HW116958   4.316   5.919   3.266
 5353SOL    HW216959   4.313   5.774   3.340
 5354SOL     OW16960   3.716   5.592   0.439
 5354SOL    HW116961   3.677   5.662   0.379
 5354SOL    HW216962   3.809   5.618   0.465
 5355SOL     OW16963   5.053   4.957   5.284
 5355SOL    HW116964   4.964   4.984   5.248
 5355SOL    HW216965   5.046   4.867   5.327
 5356SOL     OW16966   0.106   5.075   1.689
 5356SOL    HW116967   0.029   5.136   1.703
 5356SOL    HW216968   0.148   5.053   1.778
 5357SOL     OW16969   5.019   4.262   2.476
 5357SOL    HW116970   5.027   4.362   2.479
 5357SOL    HW216971   4.937   4.234   2.526
 5358SOL     OW16972   4.582   2.103   0.312
 5358SOL    HW116973   4.609   2.185   0.260
 5358SOL    HW216974   4.558   2.130   0.405
 5359SOL     OW16975   2.012   2.174   6.363
 5359SOL    HW116976   2.070   2.142   6.288
 5359SOL    HW216977   1.944   2.239   6.328
 5360SOL     OW16978   4.923   4.729   3.022
 5360SOL    HW116979   4.958   4.699   3.111
 5360SOL    HW216980   4.934   4.828   3.014
 5361SOL     OW16981   2.587   5.874   2.522
 5361SOL    HW116982   2.682   5.885   2.494
 5361SOL    HW216983   2.532   5.948   2.482
 5362SOL     OW16984   6.050   0.678   1.573
 5362SOL    HW116985   6.126   0.625   1.611
 5362SOL    HW216986   5.993   0.713   1.647
 5363SOL     OW16987   5.675   5.283   4.888
 5363SOL    HW116988   5.691   5.187   4.866
 5363SOL    HW216989   5.662   5.293   4.987
 5364SOL     OW16990   4.646   1.149   2.285
 5364SOL    HW116991   4.658   1.054   2.314
 5364SOL    HW216992   4.554   1.180   2.310
 5365SOL     OW16993   3.306   2.979   4.406
 5365SOL    HW116994   3.233   2.982   4.337
 5365SOL    HW216995   3.321   3.071   4.442
 5366SOL     OW16996   6.116   6.433   1.968
 5366SOL    HW116997   6.169   6.417   2.051
 5366SOL    HW216998   6.177   6.429   1.889
 5367SOL     OW16999   6.063   5.970   1.330
 5367SOL    HW117000   6.156   5.954   1.361
 5367SOL    HW217001   6.002   5.904   1.373
 5368SOL     OW17002   6.689   5.971   3.950
 5368SOL    HW117003   6.788   5.963   3.966
 5368SOL    HW217004   6.655   6.053   3.994
 5369SOL     OW17005   2.671   6.016   2.149
 5369SOL    HW117006   2.601   6.068   2.100
 5369SOL    HW217007   2.627   5.940   2.197
 5370SOL     OW17008   2.778   3.710   1.731
 5370SOL    HW117009   2.764   3.614   1.757
 5370SOL    HW217010   2.876   3.730   1.730
 5371SOL     OW17011   6.304   5.416   4.931
 5371SOL    HW117012   6.255   5.503   4.928
 5371SOL    HW217013   6.246   5.347   4.974
 5372SOL     OW17014   0.802   0.232   2.623
 5372SOL    HW117015   0.709   0.255   2.651
 5372SOL    HW217016   0.813   0.250   2.525
 5373SOL     OW17017   3.138   0.605   6.855
 5373SOL    HW117018   3.158   0.662   6.934
 5373SOL    HW217019   3.040   0.583   6.854
 5374SOL     OW17020   3.045   5.038   1.761
 5374SOL    HW117021   2.963   4.996   1.800
 5374SOL    HW217022   3.078   4.982   1.685
 5375SOL     OW17023   1.123   5.251   4.988
 5375SOL    HW117024   1.166   5.339   5.011
 5375SOL    HW217025   1.032   5.268   4.949
 5376SOL     OW17026   0.148   1.237   6.352
 5376SOL    HW117027   0.112   1.234   6.446
 5376SOL    HW217028   0.225   1.300   6.348
 5377SOL     OW17029   2.355   0.627   3.161
 5377SOL    HW117030   2.259   0.653   3.159
 5377SOL    HW217031   2.410   0.706   3.188
 5378SOL     OW17032   6.011   1.001   2.514
 5378SOL    HW117033   6.105   0.974   2.491
 5378SOL    HW217034   5.970   0.932   2.573
 5379SOL     OW17035   1.644   2.774   6.119
 5379SOL    HW117036   1.684   2.685   6.096
 5379SOL    HW217037   1.710   2.828   6.170
 5380SOL     OW17038   4.510   6.616   1.155
 5380SOL    HW117039   4.445   6.567   1.096
 5380SOL    HW217040   4.502   6.714   1.139
 5381SOL     OW17041   4.603   6.510   3.572
 5381SOL    HW117042   4.677   6.507   3.506
 5381SOL    HW217043   4.641   6.525   3.664
 5382SOL     OW17044   4.137   1.944   1.738
 5382SOL    HW117045   4.051   1.936   1.789
 5382SOL    HW217046   4.134   2.026   1.681
 5383SOL     OW17047   2.385   2.811   4.317
 5383SOL    HW117048   2.289   2.822   4.341
 5383SOL    HW217049   2.431   2.899   4.323
 5384SOL     OW17050   5.473   5.544   5.195
 5384SOL    HW117051   5.475   5.459   5.142
 5384SOL    HW217052   5.378   5.570   5.212
 5385SOL     OW17053   4.818   2.679   5.937
 5385SOL    HW117054   4.813   2.764   5.884
 5385SOL    HW217055   4.816   2.700   6.035
 5386SOL     OW17056   6.247   4.037   4.134
 5386SOL    HW117057   6.340   4.003   4.149
 5386SOL    HW217058   6.207   4.064   4.221
 5387SOL     OW17059   1.639   1.532   2.487
 5387SOL    HW117060   1.583   1.589   2.547
 5387SOL    HW217061   1.590   1.448   2.465
 5388SOL     OW17062   0.804   7.012   1.973
 5388SOL    HW117063   0.788   0.045   1.895
 5388SOL    HW217064   0.755   0.019   2.052
 5389SOL     OW17065   4.080   1.671   4.042
 5389SOL    HW117066   4.161   1.618   4.017
 5389SOL    HW217067   4.005   1.648   3.979
 5390SOL     OW17068   6.907   2.985   3.921
 5390SOL    HW117069   6.843   2.955   3.850
 5390SOL    HW217070   6.856   3.025   3.997
 5391SOL     OW17071   2.130   2.824   0.714
 5391SOL    HW117072   2.131   2.916   0.752
 5391SOL    HW217073   2.218   2.804   0.672
 5392SOL     OW17074   5.897   2.252   3.570
 5392SOL    HW117075   5.917   2.190   3.646
 5392SOL    HW217076   5.814   2.222   3.523
 5393SOL     OW17077   3.777   2.024   5.668
 5393SOL    HW117078   3.699   2.061   5.617
 5393SOL    HW217079   3.751   1.936   5.708
 5394SOL     OW17080   1.282   0.997   1.166
 5394SOL    HW117081   1.320   0.949   1.086
 5394SOL    HW217082   1.289   1.096   1.151
 5395SOL     OW17083   6.003   1.615   1.044
 5395SOL    HW117084   5.973   1.695   1.097
 5395SOL    HW217085   6.073   1.565   1.095
 5396SOL     OW17086   5.403   5.515   3.053
 5396SOL    HW117087   5.323   5.485   3.000
 5396SOL    HW217088   5.463   5.569   2.994
 5397SOL     OW17089   0.002   1.223   2.640
 5397SOL    HW117090   6.953   1.182   2.591
 5397SOL    HW217091   0.008   1.320   2.617
 5398SOL     OW17092   5.266   1.738   3.573
 5398SOL    HW117093   5.254   1.830   3.536
 5398SOL    HW217094   5.352   1.733   3.623
 5399SOL     OW17095   2.762   0.675   5.995
 5399SOL    HW117096   2.700   0.748   5.966
 5399SOL    HW217097   2.709   0.599   6.033
 5400SOL     OW17098   4.040   3.273   1.558
 5400SOL    HW117099   3.959   3.276   1.617
 5400SOL    HW217100   4.098   3.197   1.586
 5401SOL     OW17101   5.871   4.078   1.659
 5401SOL    HW117102   5.926   4.047   1.736
 5401SOL    HW217103   5.779   4.102   1.691
 5402SOL     OW17104   1.486   6.898   1.252
 5402SOL    HW117105   1.539   6.815   1.271
 5402SOL    HW217106   1.392   6.874   1.231
 5403SOL     OW17107   5.084   3.088   0.116
 5403SOL    HW117108   5.165   3.029   0.111
 5403SOL    HW217109   5.016   3.047   0.176
 5404SOL     OW17110   6.889   1.118   0.753
 5404SOL    HW117111   6.905   1.167   0.839
 5404SOL    HW217112   6.791   1.116   0.732
 5405SOL     OW17113   5.408   6.090   6.715
 5405SOL    HW117114   5.481   6.115   6.652
 5405SOL    HW217115   5.442   6.092   6.809
 5406SOL     OW17116   2.999   7.015   3.682
 5406SOL    HW117117   2.977   0.067   3.625
 5406SOL    HW217118   3.090   6.981   3.657
 5407SOL     OW17119   1.705   6.893   2.359
 5407SOL    HW117120   1.613   6.931   2.373
 5407SOL    HW217121   1.698   6.797   2.333
 5408SOL     OW17122   3.370   1.850   4.365
 5408SOL    HW117123   3.447   1.787   4.363
 5408SOL    HW217124   3.293   1.808   4.413
 5409SOL     OW17125   1.298   2.777   0.932
 5409SOL    HW117126   1.259   2.841   0.865
 5409SOL    HW217127   1.225   2.742   0.990
 5410SOL     OW17128   0.961   2.321   0.149
 5410SOL    HW117129   0.869   2.322   0.189
 5410SOL    HW217130   1.028   2.339   0.221
 5411SOL     OW17131   3.512   4.926   6.796
 5411SOL    HW117132   3.413   4.929   6.808
 5411SOL    HW217133   3.543   4.831   6.799
 5412SOL     OW17134   6.965   2.559   5.697
 5412SOL    HW117135   6.964   2.659   5.685
 5412SOL    HW217136   0.004   2.535   5.768
 5413SOL     OW17137   0.321   6.560   4.494
 5413SOL    HW117138   0.286   6.640   4.543
 5413SOL    HW217139   0.244   6.509   4.456
 5414SOL     OW17140   5.817   3.634   5.193
 5414SOL    HW117141   5.820   3.634   5.293
 5414SOL    HW217142   5.761   3.558   5.161
 5415SOL     OW17143   3.784   0.265   0.202
 5415SOL    HW117144   3.749   0.208   0.276
 5415SOL    HW217145   3.781   0.213   0.116
 5416SOL     OW17146   3.156   5.409   6.278
 5416SOL    HW117147   3.230   5.342   6.267
 5416SOL    HW217148   3.193   5.495   6.312
 5417SOL     OW17149   4.704   6.009   3.517
 5417SOL    HW117150   4.676   5.921   3.555
 5417SOL    HW217151   4.779   5.995   3.452
 5418SOL     OW17152   6.258   3.831   4.632
 5418SOL    HW117153   6.197   3.883   4.692
 5418SOL    HW217154   6.331   3.891   4.598
 5419SOL     OW17155   4.387   0.132   6.472
 5419SOL    HW117156   4.287   0.126   6.467
 5419SOL    HW217157   4.419   0.091   6.557
 5420SOL     OW17158   0.960   1.004   1.975
 5420SOL    HW117159   0.895   1.080   1.966
 5420SOL    HW217160   0.918   0.929   2.026
 5421SOL     OW17161   3.586   4.952   2.186
 5421SOL    HW117162   3.603   5.042   2.147
 5421SOL    HW217163   3.584   4.883   2.114
 5422SOL     OW17164   2.522   5.739   4.079
 5422SOL    HW117165   2.596   5.801   4.053
 5422SOL    HW217166   2.560   5.658   4.123
 5423SOL     OW17167   5.844   5.874   1.907
 5423SOL    HW117168   5.780   5.803   1.877
 5423SOL    HW217169   5.801   5.964   1.897
 5424SOL     OW17170   4.537   3.876   5.780
 5424SOL    HW117171   4.606   3.848   5.713
 5424SOL    HW217172   4.502   3.795   5.827
 5425SOL     OW17173   1.098   3.671   5.826
 5425SOL    HW117174   1.043   3.724   5.761
 5425SOL    HW217175   1.039   3.635   5.898
 5426SOL     OW17176   5.352   5.274   2.048
 5426SOL    HW117177   5.407   5.286   1.966
 5426SOL    HW217178   5.364   5.181   2.084
 5427SOL     OW17179   4.804   2.791   6.173
 5427SOL    HW117180   4.733   2.763   6.238
 5427SOL    HW217181   4.830   2.886   6.192
 5428SOL     OW17182   6.534   5.309   3.350
 5428SOL    HW117183   6.594   5.384   3.378
 5428SOL    HW217184   6.479   5.279   3.428
 5429SOL     OW17185   3.142   0.109   4.141
 5429SOL    HW117186   3.185   0.139   4.055
 5429SOL    HW217187   3.059   0.057   4.121
 5430SOL     OW17188   3.075   4.053   6.120
 5430SOL    HW117189   3.095   4.149   6.102
 5430SOL    HW217190   3.155   3.998   6.099
 5431SOL     OW17191   3.286   4.751   6.340
 5431SOL    HW117192   3.365   4.802   6.308
 5431SOL    HW217193   3.313   4.657   6.364
 5432SOL     OW17194   5.456   5.201   6.998
 5432SOL    HW117195   5.357   5.205   7.010
 5432SOL    HW217196   5.478   5.141   6.921
 5433SOL     OW17197   1.608   0.083   1.143
 5433SOL    HW117198   1.552   0.003   1.167
 5433SOL    HW217199   1.698   0.074   1.185
 5434SOL     OW17200   5.656   0.621   4.705
 5434SOL    HW117201   5.719   0.662   4.639
 5434SOL    HW217202   5.668   0.521   4.705
 5435SOL     OW17203   6.979   3.887   0.712
 5435SOL    HW117204   6.910   3.830   0.667
 5435SOL    HW217205   0.035   3.888   0.657
 5436SOL     OW17206   1.021   4.528   2.896
 5436SOL    HW117207   0.998   4.496   2.987
 5436SOL    HW217208   0.972   4.614   2.878
 5437SOL     OW17209   3.695   6.204   1.488
 5437SOL    HW117210   3.790   6.224   1.512
 5437SOL    HW217211   3.693   6.128   1.423
 5438SOL     OW17212   5.086   4.695   2.365
 5438SOL    HW117213   4.991   4.665   2.365
 5438SOL    HW217214   5.142   4.629   2.414
 5439SOL     OW17215   1.375   5.170   1.450
 5439SOL    HW117216   1.337   5.245   1.504
 5439SOL    HW217217   1.436   5.116   1.508
 5440SOL     OW17218   5.998   5.799   3.397
 5440SOL    HW117219   6.086   5.838   3.367
 5440SOL    HW217220   6.014   5.711   3.441
 5441SOL     OW17221   4.813   2.761   3.499
 5441SOL    HW117222   4.863   2.827   3.555
 5441SOL    HW217223   4.868   2.736   3.420
 5442SOL     OW17224   4.598   6.781   5.278
 5442SOL    HW117225   4.507   6.786   5.320
 5442SOL    HW217226   4.657   6.851   5.317
 5443SOL     OW17227   4.352   0.390   4.298
 5443SOL    HW117228   4.449   0.391   4.322
 5443SOL    HW217229   4.320   0.483   4.282
 5444SOL     OW17230   6.049   1.202   4.834
 5444SOL    HW117231   6.006   1.270   4.775
 5444SOL    HW217232   6.146   1.226   4.847
 5445SOL     OW17233   5.866   5.097   5.606
 5445SOL    HW117234   5.826   5.056   5.687
 5445SOL    HW217235   5.838   5.047   5.524
 5446SOL     OW17236   0.496   4.657   6.052
 5446SOL    HW117237   0.566   4.714   6.008
 5446SOL    HW217238   0.457   4.594   5.985
 5447SOL     OW17239   0.867   1.537   0.308
 5447SOL    HW117240   0.858   1.604   0.382
 5447SOL    HW217241   0.793   1.470   0.315
 5448SOL     OW17242   4.454   5.432   3.343
 5448SOL    HW117243   4.402   5.489   3.407
 5448SOL    HW217244   4.391   5.379   3.287
 5449SOL     OW17245   2.767   1.880   1.630
 5449SOL    HW117246   2.757   1.893   1.728
 5449SOL    HW217247   2.815   1.794   1.611
 5450SOL     OW17248   4.083   5.615   1.671
 5450SOL    HW117249   4.162   5.668   1.639
 5450SOL    HW217250   4.046   5.562   1.595
 5451SOL     OW17251   0.406   6.868   3.293
 5451SOL    HW117252   0.438   6.937   3.358
 5451SOL    HW217253   0.464   6.870   3.211
 5452SOL     OW17254   1.937   4.818   2.166
 5452SOL    HW117255   1.989   4.764   2.232
 5452SOL    HW217256   1.863   4.866   2.213
 5453SOL     OW17257   5.485   4.203   3.264
 5453SOL    HW117258   5.553   4.269   3.230
 5453SOL    HW217259   5.453   4.231   3.354
 5454SOL     OW17260   5.337   5.751   3.295
 5454SOL    HW117261   5.355   5.681   3.226
 5454SOL    HW217262   5.339   5.841   3.252
 5455SOL     OW17263   1.072   1.864   3.648
 5455SOL    HW117264   0.982   1.837   3.614
 5455SOL    HW217265   1.139   1.858   3.574
 5456SOL     OW17266   6.134   0.877   0.194
 5456SOL    HW117267   6.092   0.788   0.178
 5456SOL    HW217268   6.131   0.898   0.292
 5457SOL     OW17269   6.008   2.772   6.888
 5457SOL    HW117270   6.021   2.694   6.950
 5457SOL    HW217271   5.928   2.755   6.831
 5458SOL     OW17272   6.189   4.657   0.639
 5458SOL    HW117273   6.280   4.626   0.613
 5458SOL    HW217274   6.197   4.734   0.702
 5459SOL     OW17275   2.338   3.928   5.558
 5459SOL    HW117276   2.419   3.875   5.531
 5459SOL    HW217277   2.263   3.865   5.578
 5460SOL     OW17278   1.685   0.165   0.378
 5460SOL    HW117279   1.738   0.207   0.305
 5460SOL    HW217280   1.605   0.119   0.340
 5461SOL     OW17281   6.780   1.044   5.875
 5461SOL    HW117282   6.850   1.101   5.834
 5461SOL    HW217283   6.779   1.056   5.974
 5462SOL     OW17284   5.520   5.392   6.678
 5462SOL    HW117285   5.427   5.425   6.693
 5462SOL    HW217286   5.583   5.469   6.678
 5463SOL     OW17287   0.442   3.306   6.394
 5463SOL    HW117288   0.368   3.250   6.432
 5463SOL    HW217289   0.530   3.271   6.426
 5464SOL     OW17290   6.943   6.146   5.033
 5464SOL    HW117291   7.010   6.125   5.105
 5464SOL    HW217292   6.886   6.223   5.062
 5465SOL     OW17293   6.777   6.087   3.670
 5465SOL    HW117294   6.858   6.121   3.624
 5465SOL    HW217295   6.804   6.031   3.748
 5466SOL     OW17296   6.029   2.747   5.834
 5466SOL    HW117297   6.104   2.789   5.886
 5466SOL    HW217298   6.059   2.726   5.742
 5467SOL     OW17299   5.433   3.467   4.185
 5467SOL    HW117300   5.421   3.391   4.122
 5467SOL    HW217301   5.495   3.534   4.144
 5468SOL     OW17302   0.455   1.165   1.793
 5468SOL    HW117303   0.442   1.251   1.742
 5468SOL    HW217304   0.414   1.173   1.884
 5469SOL     OW17305   2.648   0.589   5.316
 5469SOL    HW117306   2.725   0.605   5.377
 5469SOL    HW217307   2.617   0.494   5.326
 5470SOL     OW17308   3.821   5.249   4.013
 5470SOL    HW117309   3.764   5.184   4.062
 5470SOL    HW217310   3.798   5.342   4.041
 5471SOL     OW17311   4.868   0.589   3.362
 5471SOL    HW117312   4.884   0.592   3.264
 5471SOL    HW217313   4.937   0.644   3.409
 5472SOL     OW17314   2.491   2.047   6.442
 5472SOL    HW117315   2.432   2.055   6.523
 5472SOL    HW217316   2.529   1.954   6.438
 5473SOL     OW17317   2.699   4.211   1.460
 5473SOL    HW117318   2.797   4.205   1.478
 5473SOL    HW217319   2.674   4.307   1.446
 5474SOL     OW17320   0.463   5.451   3.805
 5474SOL    HW117321   0.431   5.375   3.747
 5474SOL    HW217322   0.501   5.414   3.890
 5475SOL     OW17323   6.935   2.285   5.545
 5475SOL    HW117324   6.858   2.228   5.576
 5475SOL    HW217325   6.921   2.379   5.575
 5476SOL     OW17326   2.301   6.678   6.158
 5476SOL    HW117327   2.378   6.630   6.200
 5476SOL    HW217328   2.234   6.700   6.229
 5477SOL     OW17329   1.992   5.450   4.346
 5477SOL    HW117330   2.051   5.491   4.277
 5477SOL    HW217331   1.997   5.504   4.430
 5478SOL     OW17332   5.527   5.050   6.040
 5478SOL    HW117333   5.486   5.026   6.128
 5478SOL    HW217334   5.457   5.043   5.968
 5479SOL     OW17335   3.465   2.127   4.624
 5479SOL    HW117336   3.458   2.212   4.675
 5479SOL    HW217337   3.415   2.054   4.672
 5480SOL     OW17338   6.158   3.992   4.852
 5480SOL    HW117339   6.174   3.926   4.925
 5480SOL    HW217340   6.242   4.045   4.836
 5481SOL     OW17341   4.548   0.960   6.728
 5481SOL    HW117342   4.613   0.980   6.801
 5481SOL    HW217343   4.479   0.895   6.761
 5482SOL     OW17344   4.427   3.360   1.647
 5482SOL    HW117345   4.504   3.423   1.658
 5482SOL    HW217346   4.461   3.266   1.644
 5483SOL     OW17347   6.598   3.961   5.846
 5483SOL    HW117348   6.682   3.923   5.887
 5483SOL    HW217349   6.586   4.055   5.878
 5484SOL     OW17350   6.554   6.511   4.123
 5484SOL    HW117351   6.594   6.424   4.092
 5484SOL    HW217352   6.617   6.586   4.102
 5485SOL     OW17353   3.912   6.887   5.810
 5485SOL    HW117354   3.989   6.878   5.874
 5485SOL    HW217355   3.843   6.818   5.830
 5486SOL     OW17356   0.976   1.045   3.011
 5486SOL    HW117357   0.908   1.005   2.950
 5486SOL    HW217358   1.065   1.004   2.994
 5487SOL     OW17359   6.230   5.000   0.289
 5487SOL    HW117360   6.155   4.937   0.272
 5487SOL    HW217361   6.313   4.949   0.311
 5488SOL     OW17362   5.075   2.235   6.357
 5488SOL    HW117363   5.091   2.327   6.392
 5488SOL    HW217364   5.162   2.197   6.323
 5489SOL     OW17365   1.507   4.822   2.849
 5489SOL    HW117366   1.490   4.916   2.879
 5489SOL    HW217367   1.420   4.775   2.834
 5490SOL     OW17368   2.687   1.113   0.772
 5490SOL    HW117369   2.697   1.195   0.717
 5490SOL    HW217370   2.596   1.073   0.755
 5491SOL     OW17371   1.734   4.775   0.274
 5491SOL    HW117372   1.664   4.744   0.210
 5491SOL    HW217373   1.811   4.711   0.273
 5492SOL     OW17374   0.879   2.333   6.082
 5492SOL    HW117375   0.965   2.365   6.043
 5492SOL    HW217376   0.897   2.274   6.161
 5493SOL     OW17377   3.763   3.177   6.130
 5493SOL    HW117378   3.772   3.257   6.071
 5493SOL    HW217379   3.731   3.205   6.220
 5494SOL     OW17380   6.582   3.607   1.410
 5494SOL    HW117381   6.569   3.650   1.499
 5494SOL    HW217382   6.495   3.569   1.378
 5495SOL     OW17383   4.068   3.509   2.792
 5495SOL    HW117384   4.071   3.456   2.708
 5495SOL    HW217385   4.016   3.459   2.861
 5496SOL     OW17386   3.196   6.057   1.972
 5496SOL    HW117387   3.252   5.996   1.915
 5496SOL    HW217388   3.247   6.142   1.988
 5497SOL     OW17389   0.098   1.437   3.047
 5497SOL    HW117390   0.133   1.445   3.141
 5497SOL    HW217391   0.076   1.529   3.013
 5498SOL     OW17392   4.483   1.546   5.568
 5498SOL    HW117393   4.432   1.607   5.628
 5498SOL    HW217394   4.544   1.489   5.623
 5499SOL     OW17395   0.036   1.818   3.219
 5499SOL    HW117396   0.103   1.856   3.284
 5499SOL    HW217397   0.083   1.793   3.135
 5500SOL     OW17398   1.954   5.685   0.506
 5500SOL    HW117399   2.019   5.758   0.526
 5500SOL    HW217400   1.884   5.719   0.443
 5501SOL     OW17401   2.683   0.431   2.166
 5501SOL    HW117402   2.584   0.442   2.174
 5501SOL    HW217403   2.710   0.345   2.209
 5502SOL     OW17404   6.357   4.388   5.878
 5502SOL    HW117405   6.258   4.384   5.873
 5502SOL    HW217406   6.397   4.307   5.833
 5503SOL     OW17407   0.987   4.450   3.157
 5503SOL    HW117408   0.909   4.394   3.183
 5503SOL    HW217409   1.055   4.449   3.230
 5504SOL     OW17410   3.304   1.911   4.732
 5504SOL    HW117411   3.220   1.858   4.747
 5504SOL    HW217412   3.383   1.849   4.736
 5505SOL     OW17413   2.936   5.618   5.363
 5505SOL    HW117414   2.996   5.629   5.284
 5505SOL    HW217415   2.974   5.549   5.424
 5506SOL     OW17416   6.379   0.743   4.982
 5506SOL    HW117417   6.395   0.764   5.078
 5506SOL    HW217418   6.315   0.667   4.974
 5507SOL     OW17419   2.624   6.891   3.910
 5507SOL    HW117420   2.713   6.937   3.912
 5507SOL    HW217421   2.637   6.794   3.891
 5508SOL     OW17422   2.313   0.222   6.348
 5508SOL    HW117423   2.370   0.299   6.318
 5508SOL    HW217424   2.320   0.211   6.447
 5509SOL     OW17425   5.755   0.187   0.366
 5509SOL    HW117426   5.788   0.279   0.349
 5509SOL    HW217427   5.830   0.122   0.353
 5510SOL     OW17428   4.397   0.498   6.012
 5510SOL    HW117429   4.481   0.553   6.009
 5510SOL    HW217430   4.405   0.427   6.082
 5511SOL     OW17431   0.170   0.573   2.119
 5511SOL    HW117432   0.076   0.596   2.143
 5511SOL    HW217433   0.169   0.496   2.054
 5512SOL     OW17434   0.728   1.508   6.530
 5512SOL    HW117435   0.767   1.482   6.442
 5512SOL    HW217436   0.712   1.426   6.585
 5513SOL     OW17437   4.492   4.493   4.581
 5513SOL    HW117438   4.455   4.402   4.596
 5513SOL    HW217439   4.466   4.553   4.657
 5514SOL     OW17440   5.551   5.030   2.754
 5514SOL    HW117441   5.489   4.992   2.823
 5514SOL    HW217442   5.593   5.114   2.790
 5515SOL     OW17443   6.766   2.615   2.272
 5515SOL    HW117444   6.821   2.657   2.345
 5515SOL    HW217445   6.777   2.516   2.274
 5516SOL     OW17446   1.452   3.077   6.849
 5516SOL    HW117447   1.461   2.983   6.815
 5516SOL    HW217448   1.543   3.117   6.860
 5517SOL     OW17449   3.192   1.862   1.207
 5517SOL    HW117450   3.273   1.898   1.161
 5517SOL    HW217451   3.114   1.921   1.188
 5518SOL     OW17452   5.817   5.406   5.948
 5518SOL    HW117453   5.837   5.405   5.850
 5518SOL    HW217454   5.828   5.314   5.985
 5519SOL     OW17455   5.705   3.284   3.809
 5519SOL    HW117456   5.704   3.287   3.909
 5519SOL    HW217457   5.713   3.378   3.774
 5520SOL     OW17458   1.501   3.719   2.291
 5520SOL    HW117459   1.508   3.813   2.257
 5520SOL    HW217460   1.462   3.720   2.383
 5521SOL     OW17461   5.459   6.466   2.046
 5521SOL    HW117462   5.520   6.455   2.124
 5521SOL    HW217463   5.479   6.396   1.978
 5522SOL     OW17464   2.548   3.396   1.696
 5522SOL    HW117465   2.477   3.423   1.761
 5522SOL    HW217466   2.638   3.398   1.742
 5523SOL     OW17467   3.097   6.784   2.905
 5523SOL    HW117468   3.028   6.788   2.977
 5523SOL    HW217469   3.087   6.862   2.844
 5524SOL     OW17470   1.071   5.129   5.242
 5524SOL    HW117471   1.148   5.155   5.300
 5524SOL    HW217472   1.103   5.119   5.148
 5525SOL     OW17473   6.698   5.185   6.954
 5525SOL    HW117474   6.765   5.253   6.985
 5525SOL    HW217475   6.676   5.124   0.002
 5526SOL     OW17476   6.297   3.324   3.230
 5526SOL    HW117477   6.260   3.233   3.250
 5526SOL    HW217478   6.273   3.350   3.137
 5527SOL     OW17479   1.335   2.675   1.569
 5527SOL    HW117480   1.240   2.668   1.542
 5527SOL    HW217481   1.361   2.595   1.624
 5528SOL     OW17482   0.387   2.456   4.968
 5528SOL    HW117483   0.353   2.490   4.881
 5528SOL    HW217484   0.487   2.463   4.970
 5529SOL     OW17485   2.263   0.694   4.768
 5529SOL    HW117486   2.211   0.609   4.763
 5529SOL    HW217487   2.299   0.706   4.861
 5530SOL     OW17488   0.288   2.324   0.222
 5530SOL    HW117489   0.299   2.232   0.184
 5530SOL    HW217490   0.213   2.325   0.288
 5531SOL     OW17491   4.009   3.425   4.963
 5531SOL    HW117492   4.012   3.358   4.889
 5531SOL    HW217493   4.009   3.377   5.051
 5532SOL     OW17494   1.735   1.210   0.380
 5532SOL    HW117495   1.753   1.122   0.335
 5532SOL    HW217496   1.640   1.236   0.365
 5533SOL     OW17497   3.039   0.696   2.916
 5533SOL    HW117498   3.040   0.727   3.011
 5533SOL    HW217499   3.008   0.601   2.912
 5534SOL     OW17500   1.193   3.457   6.790
 5534SOL    HW117501   1.280   3.423   6.754
 5534SOL    HW217502   1.208   3.545   6.835
 5535SOL     OW17503   6.555   2.996   3.228
 5535SOL    HW117504   6.620   3.071   3.223
 5535SOL    HW217505   6.471   3.021   3.179
 5536SOL     OW17506   2.412   0.759   4.465
 5536SOL    HW117507   2.362   0.793   4.545
 5536SOL    HW217508   2.356   0.692   4.417
 5537SOL     OW17509   3.730   0.530   5.119
 5537SOL    HW117510   3.772   0.542   5.030
 5537SOL    HW217511   3.712   0.433   5.135
 5538SOL     OW17512   3.863   0.967   5.660
 5538SOL    HW117513   3.836   1.014   5.744
 5538SOL    HW217514   3.929   0.896   5.682
 5539SOL     OW17515   1.126   1.163   2.154
 5539SOL    HW117516   1.066   1.121   2.087
 5539SOL    HW217517   1.145   1.098   2.228
 5540SOL     OW17518   5.177   3.251   1.278
 5540SOL    HW117519   5.197   3.158   1.245
 5540SOL    HW217520   5.099   3.288   1.228
 5541SOL     OW17521   5.478   3.433   5.658
 5541SOL    HW117522   5.433   3.454   5.745
 5541SOL    HW217523   5.516   3.517   5.619
 5542SOL     OW17524   5.421   4.945   6.264
 5542SOL    HW117525   5.359   4.866   6.267
 5542SOL    HW217526   5.448   4.970   6.356
 5543SOL     OW17527   2.104   5.939   6.669
 5543SOL    HW117528   2.071   5.871   6.735
 5543SOL    HW217529   2.143   5.893   6.589
 5544SOL     OW17530   4.892   5.293   5.959
 5544SOL    HW117531   4.833   5.361   6.003
 5544SOL    HW217532   4.864   5.281   5.864
 5545SOL     OW17533   4.265   1.620   2.728
 5545SOL    HW117534   4.263   1.623   2.828
 5545SOL    HW217535   4.171   1.622   2.693
 5546SOL     OW17536   0.963   6.115   4.872
 5546SOL    HW117537   0.904   6.183   4.914
 5546SOL    HW217538   1.021   6.073   4.942
 5547SOL     OW17539   4.410   2.012   5.539
 5547SOL    HW117540   4.440   1.922   5.506
 5547SOL    HW217541   4.490   2.068   5.558
 5548SOL     OW17542   6.986   4.205   5.585
 5548SOL    HW117543   6.960   4.109   5.589
 5548SOL    HW217544   6.918   4.256   5.531
 5549SOL     OW17545   4.249   3.568   1.726
 5549SOL    HW117546   4.289   3.480   1.701
 5549SOL    HW217547   4.321   3.637   1.729
 5550SOL     OW17548   2.331   4.304   3.318
 5550SOL    HW117549   2.274   4.385   3.305
 5550SOL    HW217550   2.352   4.293   3.416
 5551SOL     OW17551   1.600   5.327   2.817
 5551SOL    HW117552   1.610   5.230   2.793
 5551SOL    HW217553   1.672   5.380   2.771
 5552SOL     OW17554   6.264   6.972   5.745
 5552SOL    HW117555   6.341   6.983   5.808
 5552SOL    HW217556   6.293   6.921   5.664
 5553SOL     OW17557   4.620   0.238   6.813
 5553SOL    HW117558   4.708   0.263   6.852
 5553SOL    HW217559   4.557   0.213   6.887
 5554SOL     OW17560   4.898   3.448   1.628
 5554SOL    HW117561   4.902   3.432   1.727
 5554SOL    HW217562   4.817   3.403   1.591
 5555SOL     OW17563   0.796   3.882   2.857
 5555SOL    HW117564   0.778   3.887   2.758
 5555SOL    HW217565   0.891   3.908   2.874
 5556SOL     OW17566   6.082   1.186   4.229
 5556SOL    HW117567   6.180   1.174   4.217
 5556SOL    HW217568   6.058   1.170   4.325
 5557SOL     OW17569   3.348   5.727   1.822
 5557SOL    HW117570   3.359   5.824   1.802
 5557SOL    HW217571   3.260   5.695   1.786
 5558SOL     OW17572   3.577   4.083   0.661
 5558SOL    HW117573   3.650   4.037   0.610
 5558SOL    HW217574   3.603   4.089   0.757
 5559SOL     OW17575   1.314   0.187   2.522
 5559SOL    HW117576   1.324   0.241   2.439
 5559SOL    HW217577   1.221   0.150   2.527
 5560SOL     OW17578   6.851   5.598   2.375
 5560SOL    HW117579   6.917   5.561   2.309
 5560SOL    HW217580   6.818   5.687   2.343
 5561SOL     OW17581   3.066   0.567   4.748
 5561SOL    HW117582   3.141   0.575   4.682
 5561SOL    HW217583   3.015   0.483   4.731
 5562SOL     OW17584   4.466   4.375   7.020
 5562SOL    HW117585   4.552   4.425   0.003
 5562SOL    HW217586   4.394   4.419   0.046
 5563SOL     OW17587   3.008   5.216   2.827
 5563SOL    HW117588   3.107   5.213   2.841
 5563SOL    HW217589   2.966   5.133   2.863
 5564SOL     OW17590   4.904   6.677   6.826
 5564SOL    HW117591   4.900   6.681   6.926
 5564SOL    HW217592   4.813   6.657   6.790
 5565SOL     OW17593   4.202   2.877   6.729
 5565SOL    HW117594   4.185   2.888   6.827
 5565SOL    HW217595   4.116   2.883   6.679
 5566SOL     OW17596   2.143   4.398   0.774
 5566SOL    HW117597   2.188   4.435   0.693
 5566SOL    HW217598   2.211   4.379   0.845
 5567SOL     OW17599   0.372   3.519   1.858
 5567SOL    HW117600   0.295   3.460   1.883
 5567SOL    HW217601   0.361   3.549   1.763
 5568SOL     OW17602   4.413   0.412   3.119
 5568SOL    HW117603   4.319   0.443   3.108
 5568SOL    HW217604   4.439   0.420   3.216
 5569SOL     OW17605   2.258   1.930   2.822
 5569SOL    HW117606   2.324   1.894   2.756
 5569SOL    HW217607   2.307   1.982   2.893
 5570SOL     OW17608   6.562   3.389   3.312
 5570SOL    HW117609   6.469   3.369   3.282
 5570SOL    HW217610   6.601   3.460   3.254
 5571SOL     OW17611   6.604   5.170   1.810
 5571SOL    HW117612   6.518   5.203   1.847
 5571SOL    HW217613   6.657   5.247   1.773
 5572SOL     OW17614   1.861   3.654   4.514
 5572SOL    HW117615   1.801   3.705   4.452
 5572SOL    HW217616   1.809   3.578   4.554
 5573SOL     OW17617   1.345   5.440   5.142
 5573SOL    HW117618   1.315   5.536   5.137
 5573SOL    HW217619   1.410   5.421   5.068
 5574SOL     OW17620   0.653   2.955   6.956
 5574SOL    HW117621   0.653   2.896   0.009
 5574SOL    HW217622   0.731   3.017   6.960
 5575SOL     OW17623   0.087   0.126   0.873
 5575SOL    HW117624   0.158   0.059   0.851
 5575SOL    HW217625   0.024   0.134   0.795
 5576SOL     OW17626   1.390   4.004   2.778
 5576SOL    HW117627   1.407   4.059   2.860
 5576SOL    HW217628   1.475   3.993   2.727
 5577SOL     OW17629   2.135   3.044   0.151
 5577SOL    HW117630   2.234   3.037   0.147
 5577SOL    HW217631   2.107   3.090   0.235
 5578SOL     OW17632   3.742   3.979   2.349
 5578SOL    HW117633   3.650   3.994   2.386
 5578SOL    HW217634   3.810   4.016   2.412
 5579SOL     OW17635   0.827   3.946   1.051
 5579SOL    HW117636   0.823   3.846   1.054
 5579SOL    HW217637   0.866   3.975   0.963
 5580SOL     OW17638   4.359   2.162   6.013
 5580SOL    HW117639   4.328   2.230   5.947
 5580SOL    HW217640   4.346   2.197   6.106
 5581SOL     OW17641   1.266   0.963   1.420
 5581SOL    HW117642   1.276   0.979   1.322
 5581SOL    HW217643   1.320   0.884   1.447
 5582SOL     OW17644   2.705   3.790   6.853
 5582SOL    HW117645   2.692   3.870   6.912
 5582SOL    HW217646   2.769   3.726   6.896
 5583SOL     OW17647   3.890   0.870   2.453
 5583SOL    HW117648   3.899   0.915   2.542
 5583SOL    HW217649   3.934   0.926   2.383
 5584SOL     OW17650   6.348   3.497   4.276
 5584SOL    HW117651   6.289   3.428   4.318
 5584SOL    HW217652   6.390   3.460   4.194
 5585SOL     OW17653   5.132   5.308   3.233
 5585SOL    HW117654   5.174   5.331   3.145
 5585SOL    HW217655   5.051   5.252   3.218
 5586SOL     OW17656   0.061   3.768   5.998
 5586SOL    HW117657   7.008   3.740   5.947
 5586SOL    HW217658   0.139   3.712   5.970
 5587SOL     OW17659   4.106   0.276   0.494
 5587SOL    HW117660   4.093   0.253   0.398
 5587SOL    HW217661   4.076   0.370   0.510
 5588SOL     OW17662   2.351   6.264   2.640
 5588SOL    HW117663   2.316   6.350   2.602
 5588SOL    HW217664   2.363   6.273   2.739
 5589SOL     OW17665   6.170   4.253   6.550
 5589SOL    HW117666   6.234   4.192   6.596
 5589SOL    HW217667   6.085   4.259   6.603
 5590SOL     OW17668   6.590   6.497   3.553
 5590SOL    HW117669   6.544   6.580   3.519
 5590SOL    HW217670   6.571   6.421   3.492
 5591SOL     OW17671   0.412   1.949   1.415
 5591SOL    HW117672   0.351   1.967   1.492
 5591SOL    HW217673   0.428   2.033   1.364
 5592SOL     OW17674   2.139   5.532   4.119
 5592SOL    HW117675   2.117   5.529   4.022
 5592SOL    HW217676   2.187   5.616   4.140
 5593SOL     OW17677   0.075   2.910   6.612
 5593SOL    HW117678   0.132   2.954   6.542
 5593SOL    HW217679   7.020   2.964   6.625
 5594SOL     OW17680   4.852   0.927   4.820
 5594SOL    HW117681   4.893   1.015   4.842
 5594SOL    HW217682   4.782   0.938   4.749
 5595SOL     OW17683   0.994   1.398   4.647
 5595SOL    HW117684   0.976   1.462   4.721
 5595SOL    HW217685   0.941   1.425   4.566
 5596SOL     OW17686   4.395   6.332   2.870
 5596SOL    HW117687   4.473   6.274   2.891
 5596SOL    HW217688   4.346   6.354   2.955
 5597SOL     OW17689   4.903   2.406   4.296
 5597SOL    HW117690   4.986   2.459   4.313
 5597SOL    HW217691   4.823   2.459   4.326
 5598SOL     OW17692   5.317   3.566   4.659
 5598SOL    HW117693   5.295   3.656   4.621
 5598SOL    HW217694   5.373   3.515   4.594
 5599SOL     OW17695   1.234   1.224   4.067
 5599SOL    HW117696   1.135   1.210   4.060
 5599SOL    HW217697   1.268   1.266   3.983
 5600SOL     OW17698   0.701   1.179   2.228
 5600SOL    HW117699   0.680   1.244   2.302
 5600SOL    HW217700   0.709   1.229   2.142
 5601SOL     OW17701   2.704   0.511   5.724
 5601SOL    HW117702   2.639   0.439   5.702
 5601SOL    HW217703   2.788   0.471   5.761
 5602SOL     OW17704   6.745   1.449   0.335
 5602SOL    HW117705   6.651   1.454   0.368
 5602SOL    HW217706   6.803   1.407   0.405
 5603SOL     OW17707   5.683   2.584   6.470
 5603SOL    HW117708   5.710   2.493   6.438
 5603SOL    HW217709   5.587   2.582   6.498
 5604SOL     OW17710   6.407   2.237   5.117
 5604SOL    HW117711   6.319   2.204   5.152
 5604SOL    HW217712   6.481   2.203   5.174
 5605SOL     OW17713   0.612   0.522   4.795
 5605SOL    HW117714   0.567   0.577   4.724
 5605SOL    HW217715   0.673   0.456   4.751
 5606SOL     OW17716   4.560   6.983   0.647
 5606SOL    HW117717   4.588   6.954   0.738
 5606SOL    HW217718   4.639   7.017   0.597
 5607SOL     OW17719   5.585   0.291   2.449
 5607SOL    HW117720   5.652   0.333   2.509
 5607SOL    HW217721   5.612   0.197   2.428
 5608SOL     OW17722   4.692   0.123   5.020
 5608SOL    HW117723   4.604   0.156   5.055
 5608SOL    HW217724   4.767   0.174   5.062
 5609SOL     OW17725   2.390   4.933   1.358
 5609SOL    HW117726   2.476   4.902   1.399
 5609SOL    HW217727   2.383   4.899   1.264
 5610SOL     OW17728   4.393   6.456   0.953
 5610SOL    HW117729   4.327   6.388   0.985
 5610SOL    HW217730   4.456   6.414   0.888
 5611SOL     OW17731   0.898   5.420   2.714
 5611SOL    HW117732   0.956   5.338   2.720
 5611SOL    HW217733   0.837   5.423   2.793
 5612SOL     OW17734   3.511   1.797   6.869
 5612SOL    HW117735   3.588   1.861   6.856
 5612SOL    HW217736   3.528   1.743   6.952
 5613SOL     OW17737   5.253   3.706   3.790
 5613SOL    HW117738   5.216   3.648   3.718
 5613SOL    HW217739   5.351   3.719   3.774
 5614SOL     OW17740   4.575   2.595   4.024
 5614SOL    HW117741   4.542   2.583   4.118
 5614SOL    HW217742   4.581   2.693   4.004
 5615SOL     OW17743   0.614   1.127   5.233
 5615SOL    HW117744   0.624   1.215   5.187
 5615SOL    HW217745   0.621   1.053   5.167
 5616SOL     OW17746   2.189   1.423   5.050
 5616SOL    HW117747   2.152   1.342   5.005
 5616SOL    HW217748   2.114   1.483   5.077
 5617SOL     OW17749   2.642   6.930   6.667
 5617SOL    HW117750   2.549   6.898   6.687
 5617SOL    HW217751   2.696   6.853   6.633
 5618SOL     OW17752   6.528   3.857   3.909
 5618SOL    HW117753   6.574   3.799   3.841
 5618SOL    HW217754   6.439   3.818   3.931
 5619SOL     OW17755   3.041   3.745   6.322
 5619SOL    HW117756   3.120   3.803   6.341
 5619SOL    HW217757   2.972   3.759   6.393
 5620SOL     OW17758   3.609   3.312   0.925
 5620SOL    HW117759   3.639   3.310   1.021
 5620SOL    HW217760   3.619   3.404   0.889
 5621SOL     OW17761   1.112   2.443   5.983
 5621SOL    HW117762   1.144   2.369   5.923
 5621SOL    HW217763   1.112   2.529   5.932
 5622SOL     OW17764   4.600   0.203   6.034
 5622SOL    HW117765   4.525   0.219   6.097
 5622SOL    HW217766   4.687   0.218   6.081
 5623SOL     OW17767   1.964   6.090   6.232
 5623SOL    HW117768   1.931   6.004   6.270
 5623SOL    HW217769   2.061   6.101   6.255
 5624SOL     OW17770   0.807   4.729   3.282
 5624SOL    HW117771   0.823   4.721   3.380
 5624SOL    HW217772   0.838   4.645   3.236
 5625SOL     OW17773   6.146   1.589   4.404
 5625SOL    HW117774   6.093   1.669   4.433
 5625SOL    HW217775   6.235   1.590   4.450
 5626SOL     OW17776   2.804   6.603   4.734
 5626SOL    HW117777   2.741   6.537   4.693
 5626SOL    HW217778   2.886   6.612   4.677
 5627SOL     OW17779   1.079   6.059   7.009
 5627SOL    HW117780   1.089   6.126   6.936
 5627SOL    HW217781   1.166   6.011   7.023
 5628SOL     OW17782   1.355   2.757   5.980
 5628SOL    HW117783   1.294   2.748   6.059
 5628SOL    HW217784   1.444   2.791   6.011
 5629SOL     OW17785   3.260   3.622   2.176
 5629SOL    HW117786   3.271   3.626   2.077
 5629SOL    HW217787   3.313   3.696   2.218
 5630SOL     OW17788   1.506   5.062   0.232
 5630SOL    HW117789   1.535   5.035   0.140
 5630SOL    HW217790   1.581   5.045   0.296
 5631SOL     OW17791   4.632   1.957   6.891
 5631SOL    HW117792   4.648   1.918   6.801
 5631SOL    HW217793   4.538   1.989   6.898
 5632SOL     OW17794   4.025   2.708   5.734
 5632SOL    HW117795   3.974   2.769   5.796
 5632SOL    HW217796   3.965   2.637   5.700
 5633SOL     OW17797   6.142   2.787   4.018
 5633SOL    HW117798   6.073   2.789   3.946
 5633SOL    HW217799   6.145   2.696   4.060
 5634SOL     OW17800   2.310   6.076   5.198
 5634SOL    HW117801   2.364   6.116   5.124
 5634SOL    HW217802   2.237   6.020   5.159
 5635SOL     OW17803   2.291   3.718   5.264
 5635SOL    HW117804   2.380   3.675   5.256
 5635SOL    HW217805   2.286   3.798   5.203
 5636SOL     OW17806   3.248   6.287   2.753
 5636SOL    HW117807   3.210   6.380   2.749
 5636SOL    HW217808   3.326   6.281   2.690
 5637SOL     OW17809   5.334   6.692   3.529
 5637SOL    HW117810   5.286   6.719   3.445
 5637SOL    HW217811   5.269   6.650   3.592
 5638SOL     OW17812   5.672   3.659   1.172
 5638SOL    HW117813   5.582   3.622   1.148
 5638SOL    HW217814   5.684   3.656   1.271
 5639SOL     OW17815   0.357   0.561   0.130
 5639SOL    HW117816   0.278   0.507   0.100
 5639SOL    HW217817   0.419   0.575   0.053
 5640SOL     OW17818   2.737   1.032   3.871
 5640SOL    HW117819   2.641   1.032   3.898
 5640SOL    HW217820   2.793   1.064   3.948
 5641SOL     OW17821   0.843   5.026   5.349
 5641SOL    HW117822   0.926   5.058   5.302
 5641SOL    HW217823   0.802   4.952   5.296
 5642SOL     OW17824   1.962   6.757   6.922
 5642SOL    HW117825   1.965   6.846   6.876
 5642SOL    HW217826   2.027   6.694   6.878
 5643SOL     OW17827   4.495   1.273   4.787
 5643SOL    HW117828   4.426   1.235   4.848
 5643SOL    HW217829   4.508   1.370   4.807
 5644SOL     OW17830   3.169   0.098   5.329
 5644SOL    HW117831   3.126   0.131   5.413
 5644SOL    HW217832   3.256   0.146   5.316
 5645SOL     OW17833   6.507   4.172   3.694
 5645SOL    HW117834   6.564   4.204   3.769
 5645SOL    HW217835   6.547   4.089   3.655
 5646SOL     OW17836   1.851   5.251   3.216
 5646SOL    HW117837   1.839   5.299   3.303
 5646SOL    HW217838   1.933   5.285   3.170
 5647SOL     OW17839   5.199   6.509   1.344
 5647SOL    HW117840   5.291   6.535   1.316
 5647SOL    HW217841   5.165   6.436   1.284
 5648SOL     OW17842   1.859   5.736   2.939
 5648SOL    HW117843   1.916   5.768   3.015
 5648SOL    HW217844   1.766   5.768   2.950
 5649SOL     OW17845   1.244   6.542   3.759
 5649SOL    HW117846   1.188   6.461   3.742
 5649SOL    HW217847   1.333   6.515   3.793
 5650SOL     OW17848   1.117   4.662   0.621
 5650SOL    HW117849   1.106   4.756   0.654
 5650SOL    HW217850   1.059   4.601   0.675
 5651SOL     OW17851   1.235   0.777   0.156
 5651SOL    HW117852   1.259   0.772   0.253
 5651SOL    HW217853   1.140   0.747   0.143
 5652SOL     OW17854   0.179   5.437   1.728
 5652SOL    HW117855   0.204   5.372   1.656
 5652SOL    HW217856   0.098   5.404   1.775
 5653SOL     OW17857   0.400   5.667   0.027
 5653SOL    HW117858   0.463   5.607   0.076
 5653SOL    HW217859   0.444   5.701   6.971
 5654SOL     OW17860   1.580   5.334   4.451
 5654SOL    HW117861   1.585   5.365   4.356
 5654SOL    HW217862   1.564   5.413   4.511
 5655SOL     OW17863   0.032   2.709   3.549
 5655SOL    HW117864   0.010   2.801   3.581
 5655SOL    HW217865   6.984   2.647   3.571
 5656SOL     OW17866   6.725   4.127   6.132
 5656SOL    HW117867   6.695   4.152   6.041
 5656SOL    HW217868   6.818   4.162   6.148
 5657SOL     OW17869   4.648   4.299   4.917
 5657SOL    HW117870   4.647   4.199   4.913
 5657SOL    HW217871   4.681   4.336   4.830
 5658SOL     OW17872   3.106   3.119   6.260
 5658SOL    HW117873   3.034   3.073   6.312
 5658SOL    HW217874   3.084   3.216   6.251
 5659SOL     OW17875   3.696   3.754   6.059
 5659SOL    HW117876   3.646   3.736   6.143
 5659SOL    HW217877   3.664   3.693   5.987
 5660SOL     OW17878   4.771   0.329   6.640
 5660SOL    HW117879   4.841   0.389   6.678
 5660SOL    HW217880   4.704   0.308   6.710
 5661SOL     OW17881   1.325   5.204   5.806
 5661SOL    HW117882   1.225   5.199   5.798
 5661SOL    HW217883   1.362   5.112   5.818
 5662SOL     OW17884   2.393   6.826   2.425
 5662SOL    HW117885   2.476   6.782   2.460
 5662SOL    HW217886   2.374   6.909   2.477
 5663SOL     OW17887   1.451   2.528   0.487
 5663SOL    HW117888   1.404   2.546   0.574
 5663SOL    HW217889   1.473   2.615   0.443
 5664SOL     OW17890   5.750   3.850   4.871
 5664SOL    HW117891   5.813   3.898   4.933
 5664SOL    HW217892   5.702   3.917   4.814
 5665SOL     OW17893   1.195   5.719   6.972
 5665SOL    HW117894   1.097   5.719   6.953
 5665SOL    HW217895   1.246   5.713   6.887
 5666SOL     OW17896   6.266   0.919   3.682
 5666SOL    HW117897   6.208   0.846   3.645
 5666SOL    HW217898   6.214   0.971   3.749
 5667SOL     OW17899   2.115   4.962   4.546
 5667SOL    HW117900   2.090   5.055   4.518
 5667SOL    HW217901   2.046   4.898   4.515
 5668SOL     OW17902   6.194   2.668   2.918
 5668SOL    HW117903   6.098   2.641   2.923
 5668SOL    HW217904   6.207   2.728   2.839
 5669SOL     OW17905   6.379   5.150   0.117
 5669SOL    HW117906   6.330   5.087   0.178
 5669SOL    HW217907   6.475   5.124   0.113
 5670SOL     OW17908   1.929   3.173   3.092
 5670SOL    HW117909   1.865   3.248   3.106
 5670SOL    HW217910   1.932   3.116   3.174
 5671SOL     OW17911   6.682   5.664   5.183
 5671SOL    HW117912   6.761   5.612   5.150
 5671SOL    HW217913   6.615   5.602   5.223
 5672SOL     OW17914   4.817   3.903   5.226
 5672SOL    HW117915   4.772   3.820   5.192
 5672SOL    HW217916   4.749   3.961   5.271
 5673SOL     OW17917   1.213   6.781   1.516
 5673SOL    HW117918   1.200   6.709   1.447
 5673SOL    HW217919   1.178   6.868   1.480
 5674SOL     OW17920   2.289   4.622   4.227
 5674SOL    HW117921   2.319   4.679   4.304
 5674SOL    HW217922   2.359   4.622   4.156
 5675SOL     OW17923   3.572   1.592   0.040
 5675SOL    HW117924   3.509   1.569   0.113
 5675SOL    HW217925   3.636   1.517   0.025
 5676SOL     OW17926   2.742   1.959   1.885
 5676SOL    HW117927   2.698   2.049   1.886
 5676SOL    HW217928   2.834   1.967   1.924
 5677SOL     OW17929   6.813   0.639   0.653
 5677SOL    HW117930   6.831   0.664   0.558
 5677SOL    HW217931   6.747   0.703   0.693
 5678SOL     OW17932   4.182   1.357   2.243
 5678SOL    HW117933   4.220   1.330   2.155
 5678SOL    HW217934   4.097   1.407   2.229
 5679SOL     OW17935   5.967   2.125   4.942
 5679SOL    HW117936   5.928   2.203   4.991
 5679SOL    HW217937   6.053   2.152   4.900
 5680SOL     OW17938   1.894   4.879   5.874
 5680SOL    HW117939   1.940   4.914   5.793
 5680SOL    HW217940   1.860   4.786   5.855
 5681SOL     OW17941   0.426   4.089   2.787
 5681SOL    HW117942   0.429   3.991   2.808
 5681SOL    HW217943   0.514   4.117   2.748
 5682SOL     OW17944   2.620   5.708   3.071
 5682SOL    HW117945   2.703   5.671   3.112
 5682SOL    HW217946   2.544   5.700   3.135
 5683SOL     OW17947   4.108   2.785   6.242
 5683SOL    HW117948   4.072   2.746   6.327
 5683SOL    HW217949   4.083   2.725   6.165
 5684SOL     OW17950   2.404   3.749   6.182
 5684SOL    HW117951   2.376   3.843   6.162
 5684SOL    HW217952   2.395   3.693   6.100
 5685SOL     OW17953   1.838   2.086   3.568
 5685SOL    HW117954   1.884   2.173   3.588
 5685SOL    HW217955   1.896   2.032   3.508
 5686SOL     OW17956   3.397   1.075   5.515
 5686SOL    HW117957   3.424   1.021   5.595
 5686SOL    HW217958   3.456   1.050   5.438
 5687SOL     OW17959   0.191   6.202   6.366
 5687SOL    HW117960   0.189   6.103   6.373
 5687SOL    HW217961   0.098   6.238   6.364
 5688SOL     OW17962   2.217   2.623   3.434
 5688SOL    HW117963   2.150   2.660   3.498
 5688SOL    HW217964   2.186   2.533   3.402
 5689SOL     OW17965   2.147   0.384   1.710
 5689SOL    HW117966   2.138   0.476   1.671
 5689SOL    HW217967   2.236   0.375   1.754
 5690SOL     OW17968   0.923   4.686   6.659
 5690SOL    HW117969   0.890   4.761   6.716
 5690SOL    HW217970   0.853   4.615   6.653
 5691SOL     OW17971   3.529   0.771   2.581
 5691SOL    HW117972   3.499   0.855   2.537
 5691SOL    HW217973   3.576   0.713   2.514
 5692SOL     OW17974   4.628   4.446   0.742
 5692SOL    HW117975   4.710   4.404   0.782
 5692SOL    HW217976   4.650   4.479   0.650
 5693SOL     OW17977   4.260   0.277   1.207
 5693SOL    HW117978   4.168   0.310   1.231
 5693SOL    HW217979   4.307   0.247   1.290
 5694SOL     OW17980   0.595   6.877   2.221
 5694SOL    HW117981   0.652   6.827   2.287
 5694SOL    HW217982   0.624   6.854   2.128
 5695SOL     OW17983   0.967   0.669   2.435
 5695SOL    HW117984   0.969   0.699   2.531
 5695SOL    HW217985   0.876   0.632   2.414
 5696SOL     OW17986   1.639   0.631   4.218
 5696SOL    HW117987   1.669   0.553   4.272
 5696SOL    HW217988   1.549   0.611   4.178
 5697SOL     OW17989   6.199   2.249   1.706
 5697SOL    HW117990   6.181   2.336   1.661
 5697SOL    HW217991   6.197   2.261   1.805
 5698SOL     OW17992   1.883   3.691   3.511
 5698SOL    HW117993   1.966   3.656   3.466
 5698SOL    HW217994   1.898   3.695   3.610
 5699SOL     OW17995   2.053   2.246   2.653
 5699SOL    HW117996   1.975   2.198   2.613
 5699SOL    HW217997   2.133   2.233   2.595
 5700SOL     OW17998   6.753   0.175   2.306
 5700SOL    HW117999   6.676   0.114   2.290
 5700SOL    HW218000   6.814   0.136   2.375
 5701SOL     OW18001   6.948   1.482   0.875
 5701SOL    HW118002   6.878   1.528   0.820
 5701SOL    HW218003   0.011   1.511   0.843
 5702SOL     OW18004   1.777   6.508   4.485
 5702SOL    HW118005   1.693   6.480   4.533
 5702SOL    HW218006   1.810   6.594   4.523
 5703SOL     OW18007   6.959   4.408   6.320
 5703SOL    HW118008   6.940   4.310   6.319
 5703SOL    HW218009   6.930   4.446   6.408
 5704SOL     OW18010   5.097   4.363   3.751
 5704SOL    HW118011   5.089   4.462   3.767
 5704SOL    HW218012   5.120   4.347   3.655
 5705SOL     OW18013   6.136   5.661   6.456
 5705SOL    HW118014   6.200   5.640   6.530
 5705SOL    HW218015   6.055   5.603   6.464
 5706SOL     OW18016   5.224   2.966   1.177
 5706SOL    HW118017   5.319   2.947   1.200
 5706SOL    HW218018   5.163   2.913   1.237
 5707SOL     OW18019   5.345   0.321   1.389
 5707SOL    HW118020   5.408   0.286   1.458
 5707SOL    HW218021   5.345   0.421   1.392
 5708SOL     OW18022   5.065   6.191   2.820
 5708SOL    HW118023   5.004   6.219   2.894
 5708SOL    HW218024   5.121   6.113   2.850
 5709SOL     OW18025   7.017   0.871   2.163
 5709SOL    HW118026   7.022   0.833   2.070
 5709SOL    HW218027   6.921   0.889   2.185
 5710SOL     OW18028   2.840   2.438   0.860
 5710SOL    HW118029   2.757   2.488   0.886
 5710SOL    HW218030   2.896   2.495   0.799
 5711SOL     OW18031   5.097   0.693   1.836
 5711SOL    HW118032   5.059   0.600   1.838
 5711SOL    HW218033   5.051   0.746   1.765
 5712SOL     OW18034   6.203   6.035   1.024
 5712SOL    HW118035   6.236   5.957   1.077
 5712SOL    HW218036   6.144   6.002   0.950
 5713SOL     OW18037   2.898   4.924   0.717
 5713SOL    HW118038   2.902   5.021   0.741
 5713SOL    HW218039   2.912   4.869   0.800
 5714SOL     OW18040   6.616   6.484   1.521
 5714SOL    HW118041   6.598   6.489   1.422
 5714SOL    HW218042   6.619   6.576   1.559
 5715SOL     OW18043   0.647   6.623   1.106
 5715SOL    HW118044   0.640   6.639   1.008
 5715SOL    HW218045   0.699   6.697   1.148
 5716SOL     OW18046   0.915   5.377   6.436
 5716SOL    HW118047   0.937   5.400   6.531
 5716SOL    HW218048   0.922   5.278   6.423
 5717SOL     OW18049   2.229   4.971   2.523
 5717SOL    HW118050   2.300   4.970   2.593
 5717SOL    HW218051   2.258   5.028   2.446
 5718SOL     OW18052   0.952   2.841   0.512
 5718SOL    HW118053   0.954   2.742   0.496
 5718SOL    HW218054   0.871   2.880   0.468
 5719SOL     OW18055   2.735   3.651   1.368
 5719SOL    HW118056   2.787   3.617   1.290
 5719SOL    HW218057   2.767   3.742   1.392
 5720SOL     OW18058   2.056   6.532   5.151
 5720SOL    HW118059   2.124   6.585   5.201
 5720SOL    HW218060   2.071   6.434   5.166
 5721SOL     OW18061   5.768   4.325   1.201
 5721SOL    HW118062   5.852   4.271   1.202
 5721SOL    HW218063   5.737   4.339   1.295
 5722SOL     OW18064   0.364   1.566   4.976
 5722SOL    HW118065   0.309   1.556   4.893
 5722SOL    HW218066   0.415   1.652   4.973
 5723SOL     OW18067   3.877   3.439   7.001
 5723SOL    HW118068   3.946   3.477   0.035
 5723SOL    HW218069   3.791   3.487   7.014
 5724SOL     OW18070   6.391   2.363   3.198
 5724SOL    HW118071   6.448   2.426   3.252
 5724SOL    HW218072   6.376   2.402   3.107
 5725SOL     OW18073   5.850   5.471   3.048
 5725SOL    HW118074   5.840   5.455   3.147
 5725SOL    HW218075   5.912   5.549   3.034
 5726SOL     OW18076   5.639   4.532   3.511
 5726SOL    HW118077   5.674   4.534   3.605
 5726SOL    HW218078   5.689   4.463   3.459
 5727SOL     OW18079   0.111   2.719   4.578
 5727SOL    HW118080   0.170   2.785   4.625
 5727SOL    HW218081   0.153   2.693   4.491
 5728SOL     OW18082   4.824   6.156   5.538
 5728SOL    HW118083   4.862   6.241   5.501
 5728SOL    HW218084   4.736   6.137   5.495
 5729SOL     OW18085   1.824   2.343   6.210
 5729SOL    HW118086   1.850   2.314   6.118
 5729SOL    HW218087   1.724   2.350   6.216
 5730SOL     OW18088   6.800   4.482   5.934
 5730SOL    HW118089   6.766   4.504   6.025
 5730SOL    HW218090   6.813   4.567   5.883
 5731SOL     OW18091   6.651   6.994   1.577
 5731SOL    HW118092   6.729   7.000   1.515
 5731SOL    HW218093   6.641   0.053   1.626
 5732SOL     OW18094   1.272   6.390   4.167
 5732SOL    HW118095   1.343   6.394   4.097
 5732SOL    HW218096   1.290   6.314   4.229
 5733SOL     OW18097   3.973   6.649   5.025
 5733SOL    HW118098   4.004   6.723   4.966
 5733SOL    HW218099   3.874   6.654   5.036
 5734SOL     OW18100   1.605   6.351   4.944
 5734SOL    HW118101   1.690   6.301   4.928
 5734SOL    HW218102   1.527   6.292   4.922
 5735SOL     OW18103   2.830   1.687   2.136
 5735SOL    HW118104   2.806   1.640   2.051
 5735SOL    HW218105   2.920   1.730   2.126
 5736SOL     OW18106   0.771   4.788   6.888
 5736SOL    HW118107   0.803   4.694   6.900
 5736SOL    HW218108   0.673   4.792   6.905
 5737SOL     OW18109   6.053   6.171   6.451
 5737SOL    HW118110   6.047   6.179   6.550
 5737SOL    HW218111   6.127   6.109   6.426
 5738SOL     OW18112   1.957   3.422   6.836
 5738SOL    HW118113   1.868   3.415   6.881
 5738SOL    HW218114   1.949   3.481   6.756
 5739SOL     OW18115   1.354   1.229   0.170
 5739SOL    HW118116   1.356   1.147   0.113
 5739SOL    HW218117   1.437   1.283   0.153
 5740SOL     OW18118   4.342   5.949   0.093
 5740SOL    HW118119   4.274   6.012   0.130
 5740SOL    HW218120   4.308   5.855   0.100
 5741SOL     OW18121   6.767   5.924   4.659
 5741SOL    HW118122   6.800   5.835   4.627
 5741SOL    HW218123   6.669   5.918   4.678
 5742SOL     OW18124   6.215   6.861   2.471
 5742SOL    HW118125   6.122   6.828   2.484
 5742SOL    HW218126   6.234   6.934   2.538
 5743SOL     OW18127   2.638   6.984   5.377
 5743SOL    HW118128   2.658   6.889   5.354
 5743SOL    HW218129   2.654   0.015   5.297
 5744SOL     OW18130   5.328   1.722   0.260
 5744SOL    HW118131   5.243   1.672   0.246
 5744SOL    HW218132   5.396   1.662   0.301
 5745SOL     OW18133   1.627   1.580   4.575
 5745SOL    HW118134   1.575   1.664   4.563
 5745SOL    HW218135   1.709   1.600   4.629
 5746SOL     OW18136   5.351   1.551   6.753
 5746SOL    HW118137   5.314   1.459   6.766
 5746SOL    HW218138   5.350   1.599   6.841
 5747SOL     OW18139   0.194   5.107   2.437
 5747SOL    HW118140   0.122   5.118   2.505
 5747SOL    HW218141   0.282   5.134   2.476
 5748SOL     OW18142   2.379   4.860   1.831
 5748SOL    HW118143   2.455   4.815   1.877
 5748SOL    HW218144   2.336   4.797   1.768
 5749SOL     OW18145   2.176   1.833   3.234
 5749SOL    HW118146   2.156   1.796   3.143
 5749SOL    HW218147   2.096   1.881   3.269
 5750SOL     OW18148   6.155   4.759   4.561
 5750SOL    HW118149   6.239   4.811   4.573
 5750SOL    HW218150   6.101   4.799   4.487
 5751SOL     OW18151   2.084   3.312   5.250
 5751SOL    HW118152   1.986   3.320   5.232
 5751SOL    HW218153   2.117   3.224   5.217
 5752SOL     OW18154   6.690   6.800   5.878
 5752SOL    HW118155   6.745   6.791   5.795
 5752SOL    HW218156   6.604   6.750   5.866
 5753SOL     OW18157   3.615   3.142   6.974
 5753SOL    HW118158   3.674   3.188   0.012
 5753SOL    HW218159   3.646   3.162   6.881
 5754SOL     OW18160   5.510   5.532   2.039
 5754SOL    HW118161   5.528   5.496   2.131
 5754SOL    HW218162   5.514   5.457   1.973
 5755SOL     OW18163   3.646   3.639   6.924
 5755SOL    HW118164   3.577   3.573   6.956
 5755SOL    HW218165   3.645   3.642   6.825
 5756SOL     OW18166   6.495   5.125   3.713
 5756SOL    HW118167   6.484   5.061   3.789
 5756SOL    HW218168   6.495   5.074   3.627
 5757SOL     OW18169   6.259   5.560   1.218
 5757SOL    HW118170   6.199   5.498   1.168
 5757SOL    HW218171   6.347   5.515   1.234
 5758SOL     OW18172   2.322   2.166   5.079
 5758SOL    HW118173   2.349   2.232   5.008
 5758SOL    HW218174   2.357   2.197   5.167
 5759SOL     OW18175   4.970   1.629   6.250
 5759SOL    HW118176   4.995   1.671   6.162
 5759SOL    HW218177   4.884   1.580   6.240
 5760SOL     OW18178   1.180   5.221   2.413
 5760SOL    HW118179   1.184   5.155   2.488
 5760SOL    HW218180   1.272   5.232   2.375
 5761SOL     OW18181   4.866   6.841   4.649
 5761SOL    HW118182   4.862   6.905   4.726
 5761SOL    HW218183   4.777   6.837   4.604
 5762SOL     OW18184   5.449   6.530   1.149
 5762SOL    HW118185   5.485   6.560   1.238
 5762SOL    HW218186   5.435   6.431   1.150
 5763SOL     OW18187   1.338   0.374   0.511
 5763SOL    HW118188   1.418   0.406   0.460
 5763SOL    HW218189   1.368   0.304   0.577
 5764SOL     OW18190   5.696   4.290   5.423
 5764SOL    HW118191   5.782   4.334   5.398
 5764SOL    HW218192   5.684   4.207   5.369
 5765SOL     OW18193   6.474   4.301   6.969
 5765SOL    HW118194   6.553   4.257   6.927
 5765SOL    HW218195   6.390   4.271   6.924
 5766SOL     OW18196   3.003   1.881   2.398
 5766SOL    HW118197   3.049   1.967   2.376
 5766SOL    HW218198   2.907   1.899   2.421
 5767SOL     OW18199   0.325   5.945   0.660
 5767SOL    HW118200   0.416   5.937   0.619
 5767SOL    HW218201   0.323   6.023   0.723
 5768SOL     OW18202   6.671   1.110   2.683
 5768SOL    HW118203   6.577   1.080   2.664
 5768SOL    HW218204   6.711   1.147   2.600
 5769SOL     OW18205   3.101   6.182   3.736
 5769SOL    HW118206   3.030   6.223   3.679
 5769SOL    HW218207   3.106   6.083   3.717
 5770SOL     OW18208   6.638   6.923   1.123
 5770SOL    HW118209   6.679   6.942   1.212
 5770SOL    HW218210   6.706   6.938   1.051
 5771SOL     OW18211   1.233   0.422   1.290
 5771SOL    HW118212   1.321   0.468   1.301
 5771SOL    HW218213   1.187   0.456   1.207
 5772SOL     OW18214   5.854   3.444   0.587
 5772SOL    HW118215   5.812   3.379   0.651
 5772SOL    HW218216   5.784   3.485   0.529
 5773SOL     OW18217   5.360   6.299   3.825
 5773SOL    HW118218   5.340   6.265   3.917
 5773SOL    HW218219   5.444   6.354   3.826
 5774SOL     OW18220   2.123   4.774   3.611
 5774SOL    HW118221   2.028   4.748   3.593
 5774SOL    HW218222   2.130   4.814   3.703
 5775SOL     OW18223   6.704   6.752   6.568
 5775SOL    HW118224   6.723   6.708   6.480
 5775SOL    HW218225   6.785   6.803   6.598
 5776SOL     OW18226   5.084   0.330   6.089
 5776SOL    HW118227   5.167   0.351   6.036
 5776SOL    HW218228   5.036   0.415   6.109
 5777SOL     OW18229   7.003   1.352   4.321
 5777SOL    HW118230   0.060   1.351   4.268
 5777SOL    HW218231   6.927   1.323   4.264
 5778SOL     OW18232   1.396   6.523   3.080
 5778SOL    HW118233   1.363   6.542   3.173
 5778SOL    HW218234   1.354   6.587   3.016
 5779SOL     OW18235   4.066   1.326   1.462
 5779SOL    HW118236   4.073   1.231   1.433
 5779SOL    HW218237   3.972   1.345   1.492
 5780SOL     OW18238   0.185   3.961   1.645
 5780SOL    HW118239   0.222   4.042   1.600
 5780SOL    HW218240   0.098   3.936   1.603
 5781SOL     OW18241   2.037   4.424   5.131
 5781SOL    HW118242   2.129   4.403   5.098
 5781SOL    HW218243   2.013   4.518   5.105
 5782SOL     OW18244   1.982   0.956   1.610
 5782SOL    HW118245   1.942   0.996   1.528
 5782SOL    HW218246   1.923   0.883   1.644
 5783SOL     OW18247   1.348   0.169   1.227
 5783SOL    HW118248   1.443   0.183   1.199
 5783SOL    HW218249   1.322   0.242   1.290
 5784SOL     OW18250   0.750   5.854   0.227
 5784SOL    HW118251   0.652   5.854   0.248
 5784SOL    HW218252   0.764   5.884   0.132
 5785SOL     OW18253   1.673   1.648   0.176
 5785SOL    HW118254   1.684   1.643   0.276
 5785SOL    HW218255   1.762   1.638   0.132
 5786SOL     OW18256   1.724   2.941   1.856
 5786SOL    HW118257   1.783   3.014   1.891
 5786SOL    HW218258   1.780   2.868   1.819
 5787SOL     OW18259   6.066   2.501   4.816
 5787SOL    HW118260   6.102   2.479   4.724
 5787SOL    HW218261   6.143   2.510   4.879
 5788SOL     OW18262   3.100   0.953   2.581
 5788SOL    HW118263   3.024   0.954   2.647
 5788SOL    HW218264   3.135   0.860   2.572
 5789SOL     OW18265   4.506   4.093   7.007
 5789SOL    HW118266   4.578   4.070   0.045
 5789SOL    HW218267   4.483   4.190   7.016
 5790SOL     OW18268   5.444   5.788   4.686
 5790SOL    HW118269   5.513   5.766   4.754
 5790SOL    HW218270   5.488   5.828   4.605
 5791SOL     OW18271   3.770   1.026   2.651
 5791SOL    HW118272   3.827   1.108   2.648
 5791SOL    HW218273   3.686   1.042   2.600
 5792SOL     OW18274   4.978   3.802   3.021
 5792SOL    HW118275   4.989   3.762   3.112
 5792SOL    HW218276   5.023   3.744   2.953
 5793SOL     OW18277   5.203   2.542   5.284
 5793SOL    HW118278   5.169   2.459   5.329
 5793SOL    HW218279   5.194   2.532   5.185
 5794SOL     OW18280   3.408   6.422   6.389
 5794SOL    HW118281   3.333   6.355   6.385
 5794SOL    HW218282   3.486   6.387   6.337
 5795SOL     OW18283   1.061   5.060   2.150
 5795SOL    HW118284   0.991   5.050   2.221
 5795SOL    HW218285   1.091   5.155   2.145
 5796SOL     OW18286   4.229   1.790   6.591
 5796SOL    HW118287   4.272   1.700   6.601
 5796SOL    HW218288   4.164   1.787   6.515
 5797SOL     OW18289   4.944   2.622   0.289
 5797SOL    HW118290   4.891   2.698   0.251
 5797SOL    HW218291   4.976   2.563   0.215
 5798SOL     OW18292   1.706   4.204   5.331
 5798SOL    HW118293   1.647   4.143   5.279
 5798SOL    HW218294   1.799   4.199   5.296
 5799SOL     OW18295   1.524   6.295   3.163
 5799SOL    HW118296   1.622   6.291   3.185
 5799SOL    HW218297   1.501   6.384   3.126
 5800SOL     OW18298   0.538   6.623   0.801
 5800SOL    HW118299   0.444   6.618   0.766
 5800SOL    HW218300   0.596   6.668   0.734
 5801SOL     OW18301   2.309   2.445   2.545
 5801SOL    HW118302   2.211   2.464   2.535
 5801SOL    HW218303   2.359   2.486   2.469
 5802SOL     OW18304   0.198   1.457   1.900
 5802SOL    HW118305   0.243   1.451   1.990
 5802SOL    HW218306   0.152   1.545   1.892
 5803SOL     OW18307   1.167   5.052   4.328
 5803SOL    HW118308   1.191   5.081   4.420
 5803SOL    HW218309   1.155   4.953   4.326
 5804SOL     OW18310   6.357   0.719   3.884
 5804SOL    HW118311   6.272   0.709   3.937
 5804SOL    HW218312   6.346   0.792   3.818
 5805SOL     OW18313   2.560   3.080   1.109
 5805SOL    HW118314   2.475   3.030   1.092
 5805SOL    HW218315   2.615   3.082   1.026
 5806SOL     OW18316   0.511   3.253   3.155
 5806SOL    HW118317   0.501   3.285   3.249
 5806SOL    HW218318   0.438   3.188   3.134
 5807SOL     OW18319   0.984   6.941   0.669
 5807SOL    HW118320   0.958   6.983   0.582
 5807SOL    HW218321   0.953   6.998   0.744
 5808SOL     OW18322   5.988   0.501   4.822
 5808SOL    HW118323   5.982   0.597   4.796
 5808SOL    HW218324   5.960   0.444   4.745
 5809SOL     OW18325   0.735   1.978   5.894
 5809SOL    HW118326   0.705   2.060   5.945
 5809SOL    HW218327   0.719   1.897   5.950
 5810SOL     OW18328   3.885   0.095   5.255
 5810SOL    HW118329   3.891   0.003   5.292
 5810SOL    HW218330   3.976   0.128   5.232
 5811SOL     OW18331   2.951   3.528   5.740
 5811SOL    HW118332   3.050   3.524   5.726
 5811SOL    HW218333   2.931   3.574   5.827
 5812SOL     OW18334   5.572   2.755   0.621
 5812SOL    HW118335   5.519   2.802   0.692
 5812SOL    HW218336   5.553   2.798   0.532
 5813SOL     OW18337   4.203   6.744   1.537
 5813SOL    HW118338   4.257   6.801   1.475
 5813SOL    HW218339   4.262   6.672   1.574
 5814SOL     OW18340   5.383   1.864   2.070
 5814SOL    HW118341   5.287   1.892   2.075
 5814SOL    HW218342   5.411   1.856   1.975
 5815SOL     OW18343   6.399   1.603   3.691
 5815SOL    HW118344   6.397   1.509   3.724
 5815SOL    HW218345   6.381   1.605   3.592
 5816SOL     OW18346   0.003   4.039   2.987
 5816SOL    HW118347   0.099   4.018   3.003
 5816SOL    HW218348   6.978   4.021   3.071
 5817SOL     OW18349   5.454   4.627   3.298
 5817SOL    HW118350   5.507   4.611   3.382
 5817SOL    HW218351   5.473   4.718   3.263
 5818SOL     OW18352   2.386   0.279   5.586
 5818SOL    HW118353   2.319   0.258   5.515
 5818SOL    HW218354   2.348   0.347   5.648
 5819SOL     OW18355   4.347   5.000   6.900
 5819SOL    HW118356   4.281   4.956   6.962
 5819SOL    HW218357   4.302   5.075   6.852
 5820SOL     OW18358   5.893   5.356   2.577
 5820SOL    HW118359   5.849   5.400   2.655
 5820SOL    HW218360   5.868   5.259   2.574
 5821SOL     OW18361   6.314   0.870   1.131
 5821SOL    HW118362   6.273   0.789   1.172
 5821SOL    HW218363   6.242   0.932   1.100
 5822SOL     OW18364   2.156   3.334   2.816
 5822SOL    HW118365   2.189   3.245   2.846
 5822SOL    HW218366   2.143   3.333   2.717
 5823SOL     OW18367   1.974   6.398   4.074
 5823SOL    HW118368   2.039   6.464   4.112
 5823SOL    HW218369   1.994   6.307   4.109
 5824SOL     OW18370   0.690   7.011   1.391
 5824SOL    HW118371   0.654   6.972   1.306
 5824SOL    HW218372   0.626   0.051   1.426
 5825SOL     OW18373   6.182   0.475   4.301
 5825SOL    HW118374   6.267   0.424   4.313
 5825SOL    HW218375   6.196   0.570   4.330
 5826SOL     OW18376   0.642   6.866   4.721
 5826SOL    HW118377   0.605   6.773   4.730
 5826SOL    HW218378   0.619   6.919   4.802
 5827SOL     OW18379   2.120   4.813   5.433
 5827SOL    HW118380   2.112   4.713   5.432
 5827SOL    HW218381   2.083   4.850   5.348
 5828SOL     OW18382   4.262   6.946   4.716
 5828SOL    HW118383   4.202   7.026   4.715
 5828SOL    HW218384   4.268   6.909   4.623
 5829SOL     OW18385   2.450   1.266   3.934
 5829SOL    HW118386   2.501   1.314   3.863
 5829SOL    HW218387   2.501   1.184   3.961
 5830SOL     OW18388   3.909   5.531   4.965
 5830SOL    HW118389   3.891   5.585   5.047
 5830SOL    HW218390   3.921   5.435   4.989
 5831SOL     OW18391   1.775   1.416   5.205
 5831SOL    HW118392   1.748   1.347   5.272
 5831SOL    HW218393   1.735   1.504   5.230
 5832SOL     OW18394   2.793   5.117   1.032
 5832SOL    HW118395   2.836   5.164   0.955
 5832SOL    HW218396   2.859   5.108   1.106
 5833SOL     OW18397   4.482   3.597   6.280
 5833SOL    HW118398   4.422   3.591   6.200
 5833SOL    HW218399   4.428   3.587   6.364
 5834SOL     OW18400   5.728   3.822   6.682
 5834SOL    HW118401   5.803   3.868   6.635
 5834SOL    HW218402   5.701   3.876   6.762
 5835SOL     OW18403   5.255   1.016   2.616
 5835SOL    HW118404   5.190   1.002   2.541
 5835SOL    HW218405   5.304   1.102   2.603
 5836SOL     OW18406   4.049   6.724   2.381
 5836SOL    HW118407   3.986   6.725   2.304
 5836SOL    HW218408   4.005   6.682   2.460
 5837SOL     OW18409   3.462   4.159   6.761
 5837SOL    HW118410   3.464   4.224   6.837
 5837SOL    HW218411   3.552   4.116   6.751
 5838SOL     OW18412   3.056   1.858   0.932
 5838SOL    HW118413   3.110   1.782   0.967
 5838SOL    HW218414   3.097   1.891   0.846
 5839SOL     OW18415   1.246   1.866   0.907
 5839SOL    HW118416   1.302   1.825   0.979
 5839SOL    HW218417   1.188   1.795   0.866
 5840SOL     OW18418   1.062   3.626   2.877
 5840SOL    HW118419   0.980   3.629   2.934
 5840SOL    HW218420   1.039   3.586   2.788
 5841SOL     OW18421   5.530   2.264   0.509
 5841SOL    HW118422   5.548   2.246   0.605
 5841SOL    HW218423   5.456   2.331   0.501
 5842SOL     OW18424   2.820   1.513   0.745
 5842SOL    HW118425   2.781   1.595   0.787
 5842SOL    HW218426   2.897   1.538   0.687
 5843SOL     OW18427   1.838   3.154   1.150
 5843SOL    HW118428   1.774   3.125   1.221
 5843SOL    HW218429   1.930   3.161   1.189
 5844SOL     OW18430   0.838   0.594   4.968
 5844SOL    HW118431   0.743   0.592   4.937
 5844SOL    HW218432   0.890   0.659   4.912
 5845SOL     OW18433   1.191   6.169   1.841
 5845SOL    HW118434   1.247   6.246   1.811
 5845SOL    HW218435   1.228   6.084   1.803
 5846SOL     OW18436   6.236   4.042   5.867
 5846SOL    HW118437   6.177   3.974   5.822
 5846SOL    HW218438   6.282   4.098   5.798
 5847SOL     OW18439   3.074   3.215   0.685
 5847SOL    HW118440   3.029   3.127   0.673
 5847SOL    HW218441   3.157   3.202   0.741
 5848SOL     OW18442   2.389   5.775   3.365
 5848SOL    HW118443   2.375   5.715   3.444
 5848SOL    HW218444   2.350   5.732   3.284
 5849SOL     OW18445   2.632   6.134   5.663
 5849SOL    HW118446   2.606   6.094   5.574
 5849SOL    HW218447   2.560   6.196   5.693
 5850SOL     OW18448   1.013   1.685   1.506
 5850SOL    HW118449   1.060   1.601   1.532
 5850SOL    HW218450   1.046   1.761   1.561
 5851SOL     OW18451   5.960   3.165   4.762
 5851SOL    HW118452   5.880   3.113   4.792
 5851SOL    HW218453   5.966   3.250   4.814
 5852SOL     OW18454   5.084   5.275   2.726
 5852SOL    HW118455   5.052   5.195   2.675
 5852SOL    HW218456   5.166   5.312   2.682
 5853SOL     OW18457   3.677   4.612   5.359
 5853SOL    HW118458   3.735   4.657   5.427
 5853SOL    HW218459   3.638   4.681   5.297
 5854SOL     OW18460   2.978   5.246   5.978
 5854SOL    HW118461   3.053   5.307   6.003
 5854SOL    HW218462   2.998   5.153   6.011
 5855SOL     OW18463   1.889   2.567   4.079
 5855SOL    HW118464   1.926   2.481   4.116
 5855SOL    HW218465   1.935   2.644   4.123
 5856SOL     OW18466   1.715   6.946   3.053
 5856SOL    HW118467   1.767   6.969   3.135
 5856SOL    HW218468   1.730   6.851   3.029
 5857SOL     OW18469   6.997   4.284   6.023
 5857SOL    HW118470   0.010   4.289   6.114
 5857SOL    HW218471   6.950   4.370   6.003
 5858SOL     OW18472   2.390   0.638   3.646
 5858SOL    HW118473   2.417   0.581   3.568
 5858SOL    HW218474   2.345   0.582   3.715
 5859SOL     OW18475   5.946   0.050   2.245
 5859SOL    HW118476   5.891   6.995   2.253
 5859SOL    HW218477   6.043   0.025   2.246
 5860SOL     OW18478   0.467   3.022   4.191
 5860SOL    HW118479   0.525   2.951   4.150
 5860SOL    HW218480   0.464   3.102   4.132
 5861SOL     OW18481   4.743   0.792   5.044
 5861SOL    HW118482   4.798   0.803   5.128
 5861SOL    HW218483   4.789   0.838   4.968
 5862SOL     OW18484   6.759   5.020   3.529
 5862SOL    HW118485   6.816   5.016   3.611
 5862SOL    HW218486   6.778   4.940   3.472
 5863SOL     OW18487   3.831   0.255   5.510
 5863SOL    HW118488   3.772   0.326   5.473
 5863SOL    HW218489   3.842   0.181   5.442
 5864SOL     OW18490   2.966   3.711   2.580
 5864SOL    HW118491   2.938   3.642   2.513
 5864SOL    HW218492   2.963   3.802   2.537
 5865SOL     OW18493   5.817   1.180   5.210
 5865SOL    HW118494   5.739   1.203   5.268
 5865SOL    HW218495   5.887   1.250   5.218
 5866SOL     OW18496   3.814   2.964   2.704
 5866SOL    HW118497   3.763   2.940   2.786
 5866SOL    HW218498   3.780   2.910   2.627
 5867SOL     OW18499   2.669   2.277   1.609
 5867SOL    HW118500   2.702   2.371   1.619
 5867SOL    HW218501   2.746   2.215   1.604
 5868SOL     OW18502   0.739   1.158   6.185
 5868SOL    HW118503   0.767   1.174   6.279
 5868SOL    HW218504   0.785   1.076   6.150
 5869SOL     OW18505   1.534   4.894   4.465
 5869SOL    HW118506   1.599   4.966   4.439
 5869SOL    HW218507   1.584   4.817   4.505
 5870SOL     OW18508   4.428   4.688   4.770
 5870SOL    HW118509   4.496   4.759   4.789
 5870SOL    HW218510   4.395   4.650   4.857
 5871SOL     OW18511   3.252   3.668   3.084
 5871SOL    HW118512   3.289   3.723   3.009
 5871SOL    HW218513   3.315   3.670   3.161
 5872SOL     OW18514   3.432   6.093   2.482
 5872SOL    HW118515   3.342   6.050   2.475
 5872SOL    HW218516   3.479   6.086   2.394
 5873SOL     OW18517   3.707   4.893   2.446
 5873SOL    HW118518   3.668   4.924   2.359
 5873SOL    HW218519   3.804   4.916   2.449
 5874SOL     OW18520   2.891   4.884   5.922
 5874SOL    HW118521   2.891   4.786   5.905
 5874SOL    HW218522   2.833   4.905   6.002
 5875SOL     OW18523   3.122   0.988   0.332
 5875SOL    HW118524   3.112   0.900   0.377
 5875SOL    HW218525   3.218   1.017   0.335
 5876SOL     OW18526   3.888   3.393   2.248
 5876SOL    HW118527   3.948   3.440   2.183
 5876SOL    HW218528   3.930   3.307   2.277
 5877SOL     OW18529   5.979   4.857   1.557
 5877SOL    HW118530   5.957   4.767   1.518
 5877SOL    HW218531   6.043   4.904   1.496
 5878SOL     OW18532   2.356   4.670   2.546
 5878SOL    HW118533   2.394   4.677   2.453
 5878SOL    HW218534   2.387   4.584   2.587
 5879SOL     OW18535   0.233   4.173   6.815
 5879SOL    HW118536   0.332   4.162   6.827
 5879SOL    HW218537   0.194   4.086   6.783
 5880SOL     OW18538   2.622   6.449   1.602
 5880SOL    HW118539   2.604   6.354   1.577
 5880SOL    HW218540   2.540   6.503   1.590
 5881SOL     OW18541   0.473   5.028   4.068
 5881SOL    HW118542   0.571   5.016   4.056
 5881SOL    HW218543   0.432   4.943   4.101
 5882SOL     OW18544   4.912   0.339   1.231
 5882SOL    HW118545   4.951   0.349   1.323
 5882SOL    HW218546   4.933   0.247   1.197
 5883SOL     OW18547   6.765   2.996   6.912
 5883SOL    HW118548   6.812   2.956   6.991
 5883SOL    HW218549   6.670   3.015   6.936
 5884SOL     OW18550   0.998   1.403   2.536
 5884SOL    HW118551   1.020   1.488   2.584
 5884SOL    HW218552   1.047   1.401   2.448
 5885SOL     OW18553   5.890   6.284   1.426
 5885SOL    HW118554   5.906   6.266   1.329
 5885SOL    HW218555   5.972   6.259   1.478
 5886SOL     OW18556   0.555   2.214   5.533
 5886SOL    HW118557   0.603   2.132   5.565
 5886SOL    HW218558   0.622   2.287   5.517
 5887SOL     OW18559   3.115   1.121   4.213
 5887SOL    HW118560   3.074   1.117   4.305
 5887SOL    HW218561   3.167   1.038   4.196
 5888SOL     OW18562   2.366   6.207   3.534
 5888SOL    HW118563   2.392   6.291   3.582
 5888SOL    HW218564   2.270   6.214   3.508
 5889SOL     OW18565   2.376   0.384   1.222
 5889SOL    HW118566   2.320   0.343   1.294
 5889SOL    HW218567   2.419   0.468   1.257
 5890SOL     OW18568   1.968   5.887   5.534
 5890SOL    HW118569   1.992   5.984   5.532
 5890SOL    HW218570   1.868   5.878   5.534
 5891SOL     OW18571   3.725   2.858   0.242
 5891SOL    HW118572   3.708   2.762   0.222
 5891SOL    HW218573   3.639   2.908   0.242
 5892SOL     OW18574   0.515   6.375   1.111
 5892SOL    HW118575   0.546   6.469   1.099
 5892SOL    HW218576   0.442   6.372   1.179
 5893SOL     OW18577   1.582   2.129   3.690
 5893SOL    HW118578   1.562   2.227   3.697
 5893SOL    HW218579   1.677   2.117   3.661
 5894SOL     OW18580   1.423   3.531   3.285
 5894SOL    HW118581   1.442   3.436   3.309
 5894SOL    HW218582   1.505   3.586   3.297
 5895SOL     OW18583   5.293   3.157   4.805
 5895SOL    HW118584   5.372   3.139   4.747
 5895SOL    HW218585   5.217   3.099   4.776
 5896SOL     OW18586   3.913   2.183   6.893
 5896SOL    HW118587   3.925   2.265   6.837
 5896SOL    HW218588   3.916   2.208   6.990
 5897SOL     OW18589   3.909   1.079   0.358
 5897SOL    HW118590   3.877   1.156   0.415
 5897SOL    HW218591   4.005   1.094   0.333
 5898SOL     OW18592   2.090   6.870   2.170
 5898SOL    HW118593   2.004   6.919   2.158
 5898SOL    HW218594   2.158   6.904   2.106
 5899SOL     OW18595   5.772   6.855   4.475
 5899SOL    HW118596   5.739   6.915   4.402
 5899SOL    HW218597   5.747   6.761   4.454
 5900SOL     OW18598   4.861   5.007   2.979
 5900SOL    HW118599   4.782   5.000   2.917
 5900SOL    HW218600   4.838   5.066   3.056
 5901SOL     OW18601   2.241   6.376   6.689
 5901SOL    HW118602   2.214   6.315   6.615
 5901SOL    HW218603   2.307   6.442   6.655
 5902SOL     OW18604   6.906   2.614   0.248
 5902SOL    HW118605   6.938   2.578   0.335
 5902SOL    HW218606   6.837   2.552   0.210
 5903SOL     OW18607   6.094   4.317   6.875
 5903SOL    HW118608   6.151   4.238   6.898
 5903SOL    HW218609   6.063   4.361   6.959
 5904SOL     OW18610   0.448   3.523   2.184
 5904SOL    HW118611   0.401   3.518   2.272
 5904SOL    HW218612   0.464   3.619   2.161
 5905SOL     OW18613   6.964   6.340   2.451
 5905SOL    HW118614   6.922   6.291   2.527
 5905SOL    HW218615   0.036   6.339   2.463
 5906SOL     OW18616   5.935   1.097   3.604
 5906SOL    HW118617   5.866   1.063   3.666
 5906SOL    HW218618   6.021   1.110   3.654
 5907SOL     OW18619   0.329   6.409   1.289
 5907SOL    HW118620   0.337   6.359   1.375
 5907SOL    HW218621   0.358   6.503   1.301
 5908SOL     OW18622   0.458   2.628   5.289
 5908SOL    HW118623   0.554   2.650   5.272
 5908SOL    HW218624   0.418   2.587   5.207
 5909SOL     OW18625   0.928   5.883   0.817
 5909SOL    HW118626   0.946   5.981   0.814
 5909SOL    HW218627   0.838   5.865   0.778
 5910SOL     OW18628   1.766   2.040   3.268
 5910SOL    HW118629   1.768   1.940   3.256
 5910SOL    HW218630   1.848   2.069   3.318
 5911SOL     OW18631   6.537   5.460   6.903
 5911SOL    HW118632   6.597   5.434   6.827
 5911SOL    HW218633   6.526   5.382   6.965
 5912SOL     OW18634   6.505   1.654   4.775
 5912SOL    HW118635   6.597   1.681   4.802
 5912SOL    HW218636   6.467   1.592   4.844
 5913SOL     OW18637   5.464   2.886   0.411
 5913SOL    HW118638   5.372   2.871   0.376
 5913SOL    HW218639   5.476   2.982   0.437
 5914SOL     OW18640   1.160   6.500   6.268
 5914SOL    HW118641   1.155   6.421   6.328
 5914SOL    HW218642   1.189   6.581   6.320
 5915SOL     OW18643   3.529   0.051   0.046
 5915SOL    HW118644   3.628   0.044   0.029
 5915SOL    HW218645   3.495   0.136   0.005
 5916SOL     OW18646   1.686   6.630   2.288
 5916SOL    HW118647   1.757   6.562   2.269
 5916SOL    HW218648   1.606   6.610   2.232
 5917SOL     OW18649   2.940   4.359   6.676
 5917SOL    HW118650   2.957   4.313   6.763
 5917SOL    HW218651   2.931   4.290   6.604
 5918SOL     OW18652   2.868   6.402   6.250
 5918SOL    HW118653   2.936   6.405   6.177
 5918SOL    HW218654   2.776   6.402   6.210
 5919SOL     OW18655   3.327   3.069   3.425
 5919SOL    HW118656   3.364   2.987   3.468
 5919SOL    HW218657   3.384   3.094   3.346
 5920SOL     OW18658   6.168   0.210   5.755
 5920SOL    HW118659   6.196   0.235   5.848
 5920SOL    HW218660   6.171   0.111   5.745
 5921SOL     OW18661   3.305   4.727   6.660
 5921SOL    HW118662   3.320   4.791   6.584
 5921SOL    HW218663   3.215   4.684   6.650
 5922SOL     OW18664   6.368   3.649   2.919
 5922SOL    HW118665   6.292   3.610   2.970
 5922SOL    HW218666   6.366   3.749   2.926
 5923SOL     OW18667   6.375   0.988   1.571
 5923SOL    HW118668   6.416   0.901   1.544
 5923SOL    HW218669   6.277   0.975   1.586
 5924SOL     OW18670   5.349   6.950   2.649
 5924SOL    HW118671   5.356   0.019   2.675
 5924SOL    HW218672   5.261   6.934   2.604
 5925SOL     OW18673   4.698   5.170   1.364
 5925SOL    HW118674   4.726   5.251   1.312
 5925SOL    HW218675   4.705   5.191   1.462
 5926SOL     OW18676   4.062   4.783   3.036
 5926SOL    HW118677   4.085   4.752   3.129
 5926SOL    HW218678   3.962   4.788   3.027
 5927SOL     OW18679   1.536   3.846   1.720
 5927SOL    HW118680   1.494   3.921   1.668
 5927SOL    HW218681   1.474   3.768   1.724
 5928SOL     OW18682   4.348   0.707   0.891
 5928SOL    HW118683   4.324   0.688   0.986
 5928SOL    HW218684   4.373   0.622   0.845
 5929SOL     OW18685   0.135   0.426   5.775
 5929SOL    HW118686   0.086   0.494   5.829
 5929SOL    HW218687   0.075   0.389   5.705
 5930SOL     OW18688   1.349   3.200   1.712
 5930SOL    HW118689   1.280   3.153   1.656
 5930SOL    HW218690   1.363   3.149   1.797
 5931SOL     OW18691   5.794   5.904   2.969
 5931SOL    HW118692   5.790   5.951   2.882
 5931SOL    HW218693   5.879   5.851   2.975
 5932SOL     OW18694   3.009   0.459   6.192
 5932SOL    HW118695   3.030   0.420   6.281
 5932SOL    HW218696   2.913   0.444   6.170
 5933SOL     OW18697   6.706   5.215   4.294
 5933SOL    HW118698   6.768   5.283   4.333
 5933SOL    HW218699   6.750   5.172   4.215
 5934SOL     OW18700   3.388   3.669   5.797
 5934SOL    HW118701   3.477   3.624   5.802
 5934SOL    HW218702   3.399   3.763   5.765
 5935SOL     OW18703   0.390   6.480   4.985
 5935SOL    HW118704   0.438   6.567   4.984
 5935SOL    HW218705   0.448   6.409   4.945
 5936SOL     OW18706   3.828   3.286   3.381
 5936SOL    HW118707   3.783   3.209   3.426
 5936SOL    HW218708   3.917   3.257   3.346
 5937SOL     OW18709   0.130   2.763   2.351
 5937SOL    HW118710   0.126   2.851   2.399
 5937SOL    HW218711   0.107   2.776   2.255
 5938SOL     OW18712   6.096   5.039   5.236
 5938SOL    HW118713   6.143   5.058   5.323
 5938SOL    HW218714   6.073   4.942   5.231
 5939SOL     OW18715   3.914   6.999   4.475
 5939SOL    HW118716   3.846   6.970   4.408
 5939SOL    HW218717   3.900   0.068   4.496
 5940SOL     OW18718   4.756   5.338   2.738
 5940SOL    HW118719   4.838   5.298   2.697
 5940SOL    HW218720   4.676   5.284   2.713
 5941SOL     OW18721   6.491   1.922   2.084
 5941SOL    HW118722   6.549   1.981   2.140
 5941SOL    HW218723   6.457   1.974   2.006
 5942SOL     OW18724   6.388   3.338   6.458
 5942SOL    HW118725   6.335   3.422   6.474
 5942SOL    HW218726   6.412   3.297   6.545
 5943SOL     OW18727   3.941   3.458   0.529
 5943SOL    HW118728   3.932   3.359   0.530
 5943SOL    HW218729   3.921   3.492   0.437
 5944SOL     OW18730   0.725   3.431   6.586
 5944SOL    HW118731   0.821   3.418   6.609
 5944SOL    HW218732   0.709   3.399   6.492
 5945SOL     OW18733   0.749   5.740   5.171
 5945SOL    HW118734   0.775   5.654   5.129
 5945SOL    HW218735   0.766   5.736   5.270
 5946SOL     OW18736   3.998   4.506   6.810
 5946SOL    HW118737   4.018   4.425   6.756
 5946SOL    HW218738   4.069   4.518   6.880
 5947SOL     OW18739   3.174   3.460   4.568
 5947SOL    HW118740   3.241   3.400   4.524
 5947SOL    HW218741   3.088   3.412   4.579
 5948SOL     OW18742   5.173   4.043   2.031
 5948SOL    HW118743   5.142   3.948   2.025
 5948SOL    HW218744   5.107   4.103   1.987
 5949SOL     OW18745   5.919   5.528   1.317
 5949SOL    HW118746   5.989   5.501   1.251
 5949SOL    HW218747   5.950   5.610   1.366
 5950SOL     OW18748   5.559   2.439   5.924
 5950SOL    HW118749   5.483   2.485   5.878
 5950SOL    HW218750   5.543   2.439   6.023
 5951SOL     OW18751   1.133   4.729   5.396
 5951SOL    HW118752   1.150   4.689   5.306
 5951SOL    HW218753   1.071   4.671   5.448
 5952SOL     OW18754   4.020   4.685   1.816
 5952SOL    HW118755   4.009   4.773   1.770
 5952SOL    HW218756   4.044   4.701   1.912
 5953SOL     OW18757   6.224   2.632   5.231
 5953SOL    HW118758   6.258   2.578   5.155
 5953SOL    HW218759   6.127   2.653   5.216
 5954SOL     OW18760   0.445   5.578   4.729
 5954SOL    HW118761   0.396   5.590   4.816
 5954SOL    HW218762   0.513   5.651   4.719
 5955SOL     OW18763   5.280   4.734   1.275
 5955SOL    HW118764   5.192   4.745   1.228
 5955SOL    HW218765   5.325   4.651   1.242
 5956SOL     OW18766   5.085   2.675   4.631
 5956SOL    HW118767   5.121   2.748   4.574
 5956SOL    HW218768   5.087   2.703   4.727
 5957SOL     OW18769   1.386   1.046   2.348
 5957SOL    HW118770   1.425   0.954   2.352
 5957SOL    HW218771   1.304   1.050   2.405
 5958SOL     OW18772   3.903   6.895   2.858
 5958SOL    HW118773   3.936   6.972   2.913
 5958SOL    HW218774   3.829   6.926   2.799
 5959SOL     OW18775   5.277   2.269   4.923
 5959SOL    HW118776   5.339   2.337   4.886
 5959SOL    HW218777   5.284   2.269   5.023
 5960SOL     OW18778   3.651   6.472   5.566
 5960SOL    HW118779   3.605   6.542   5.622
 5960SOL    HW218780   3.729   6.435   5.616
 5961SOL     OW18781   4.145   1.961   2.607
 5961SOL    HW118782   4.077   1.916   2.665
 5961SOL    HW218783   4.223   1.900   2.593
 5962SOL     OW18784   5.389   6.379   0.163
 5962SOL    HW118785   5.441   6.382   0.078
 5962SOL    HW218786   5.403   6.464   0.213
 5963SOL     OW18787   3.996   4.756   6.703
 5963SOL    HW118788   3.998   4.666   6.746
 5963SOL    HW218789   3.906   4.773   6.664
 5964SOL     OW18790   1.990   6.848   2.437
 5964SOL    HW118791   1.896   6.879   2.422
 5964SOL    HW218792   2.044   6.863   2.355
 5965SOL     OW18793   1.704   0.028   6.558
 5965SOL    HW118794   1.781   6.992   6.557
 5965SOL    HW218795   1.718   0.096   6.630
 5966SOL     OW18796   1.833   0.299   5.470
 5966SOL    HW118797   1.800   0.300   5.565
 5966SOL    HW218798   1.861   0.206   5.445
 5967SOL     OW18799   2.336   2.346   4.853
 5967SOL    HW118800   2.256   2.300   4.816
 5967SOL    HW218801   2.346   2.436   4.810
 5968SOL     OW18802   5.533   2.493   0.283
 5968SOL    HW118803   5.478   2.479   0.365
 5968SOL    HW218804   5.473   2.524   0.208
 5969SOL     OW18805   5.363   1.084   6.351
 5969SOL    HW118806   5.310   1.014   6.399
 5969SOL    HW218807   5.345   1.173   6.392
 5970SOL     OW18808   0.740   3.399   0.849
 5970SOL    HW118809   0.771   3.428   0.940
 5970SOL    HW218810   0.662   3.455   0.821
 5971SOL     OW18811   6.496   0.039   3.118
 5971SOL    HW118812   6.433   6.991   3.099
 5971SOL    HW218813   6.535   0.028   3.209
 5972SOL     OW18814   4.969   5.135   0.371
 5972SOL    HW118815   4.979   5.199   0.447
 5972SOL    HW218816   4.951   5.043   0.405
 5973SOL     OW18817   1.691   3.106   2.661
 5973SOL    HW118818   1.634   3.023   2.656
 5973SOL    HW218819   1.764   3.092   2.728
 5974SOL     OW18820   3.801   0.556   6.569
 5974SOL    HW118821   3.867   0.560   6.644
 5974SOL    HW218822   3.779   0.461   6.548
 5975SOL     OW18823   5.182   4.581   0.369
 5975SOL    HW118824   5.169   4.483   0.355
 5975SOL    HW218825   5.257   4.614   0.312
 5976SOL     OW18826   3.645   3.554   5.793
 5976SOL    HW118827   3.625   3.463   5.757
 5976SOL    HW218828   3.740   3.578   5.772
 5977SOL     OW18829   0.240   5.143   0.451
 5977SOL    HW118830   0.205   5.226   0.409
 5977SOL    HW218831   0.302   5.167   0.526
 5978SOL     OW18832   3.401   5.552   6.890
 5978SOL    HW118833   3.394   5.463   6.935
 5978SOL    HW218834   3.495   5.585   6.896
 5979SOL     OW18835   6.367   0.742   1.733
 5979SOL    HW118836   6.293   0.675   1.722
 5979SOL    HW218837   6.430   0.733   1.656
 5980SOL     OW18838   3.579   2.787   1.851
 5980SOL    HW118839   3.627   2.862   1.805
 5980SOL    HW218840   3.592   2.703   1.800
 5981SOL     OW18841   4.409   2.828   0.603
 5981SOL    HW118842   4.370   2.903   0.655
 5981SOL    HW218843   4.455   2.764   0.665
 5982SOL     OW18844   6.100   2.010   2.548
 5982SOL    HW118845   6.057   1.935   2.497
 5982SOL    HW218846   6.063   2.097   2.517
 5983SOL     OW18847   6.979   0.990   4.621
 5983SOL    HW118848   6.937   0.904   4.652
 5983SOL    HW218849   0.034   1.008   4.674
 5984SOL     OW18850   6.228   6.664   3.310
 5984SOL    HW118851   6.305   6.728   3.309
 5984SOL    HW218852   6.143   6.715   3.294
 5985SOL     OW18853   6.068   1.820   3.621
 5985SOL    HW118854   6.090   1.817   3.523
 5985SOL    HW218855   6.072   1.727   3.658
 5986SOL     OW18856   4.342   3.889   5.295
 5986SOL    HW118857   4.306   3.980   5.315
 5986SOL    HW218858   4.270   3.833   5.253
 5987SOL     OW18859   6.912   0.601   4.401
 5987SOL    HW118860   6.923   0.622   4.303
 5987SOL    HW218861   6.826   0.640   4.433
 5988SOL     OW18862   2.934   1.597   0.155
 5988SOL    HW118863   2.835   1.595   0.139
 5988SOL    HW218864   2.961   1.687   0.189
 5989SOL     OW18865   0.924   5.977   6.713
 5989SOL    HW118866   0.918   5.948   6.808
 5989SOL    HW218867   0.903   6.075   6.706
 5990SOL     OW18868   3.874   4.509   1.075
 5990SOL    HW118869   3.815   4.578   1.117
 5990SOL    HW218870   3.907   4.446   1.146
 5991SOL     OW18871   4.647   5.883   0.842
 5991SOL    HW118872   4.604   5.864   0.753
 5991SOL    HW218873   4.608   5.965   0.882
 5992SOL     OW18874   3.449   0.422   1.943
 5992SOL    HW118875   3.447   0.345   1.878
 5992SOL    HW218876   3.543   0.441   1.970
 5993SOL     OW18877   6.103   3.315   0.484
 5993SOL    HW118878   6.031   3.366   0.531
 5993SOL    HW218879   6.100   3.335   0.386
 5994SOL     OW18880   6.786   2.863   1.098
 5994SOL    HW118881   6.839   2.881   1.180
 5994SOL    HW218882   6.762   2.766   1.093
 5995SOL     OW18883   4.722   3.303   1.315
 5995SOL    HW118884   4.730   3.403   1.323
 5995SOL    HW218885   4.628   3.279   1.290
 5996SOL     OW18886   2.704   5.622   1.148
 5996SOL    HW118887   2.720   5.692   1.218
 5996SOL    HW218888   2.775   5.553   1.152
 5997SOL     OW18889   6.686   6.897   2.901
 5997SOL    HW118890   6.627   6.820   2.874
 5997SOL    HW218891   6.754   6.864   2.967
 5998SOL     OW18892   5.880   0.837   2.023
 5998SOL    HW118893   5.900   0.875   2.113
 5998SOL    HW218894   5.953   0.774   1.997
 5999SOL     OW18895   4.159   3.585   1.002
 5999SOL    HW118896   4.225   3.605   1.075
 5999SOL    HW218897   4.197   3.615   0.915
 6000SOL     OW18898   0.239   5.533   0.288
 6000SOL    HW118899   0.260   5.463   0.221
 6000SOL    HW218900   0.218   5.619   0.242
 6001SOL     OW18901   4.963   6.398   5.782
 6001SOL    HW118902   4.964   6.389   5.682
 6001SOL    HW218903   4.868   6.404   5.814
 6002SOL     OW18904   6.959   6.899   4.676
 6002SOL    HW118905   6.985   6.956   4.755
 6002SOL    HW218906   6.871   6.856   4.694
 6003SOL     OW18907   6.512   2.618   4.447
 6003SOL    HW118908   6.517   2.657   4.355
 6003SOL    HW218909   6.564   2.675   4.510
 6004SOL     OW18910   5.457   2.657   3.182
 6004SOL    HW118911   5.524   2.584   3.194
 6004SOL    HW218912   5.431   2.662   3.085
 6005SOL     OW18913   4.640   4.085   5.349
 6005SOL    HW118914   4.596   4.158   5.297
 6005SOL    HW218915   4.615   4.092   5.445
 6006SOL     OW18916   3.465   0.091   5.221
 6006SOL    HW118917   3.540   0.155   5.202
 6006SOL    HW218918   3.501   7.025   5.218
 6007SOL     OW18919   0.267   4.320   6.138
 6007SOL    HW118920   0.289   4.373   6.057
 6007SOL    HW218921   0.199   4.369   6.193
 6008SOL     OW18922   2.345   4.378   5.315
 6008SOL    HW118923   2.327   4.373   5.217
 6008SOL    HW218924   2.318   4.291   5.358
 6009SOL     OW18925   4.518   5.498   3.076
 6009SOL    HW118926   4.545   5.594   3.075
 6009SOL    HW218927   4.514   5.466   3.171
 6010SOL     OW18928   0.039   4.326   4.558
 6010SOL    HW118929   0.011   4.394   4.490
 6010SOL    HW218930   7.019   4.344   4.644
 6011SOL     OW18931   4.807   1.532   2.979
 6011SOL    HW118932   4.866   1.453   2.991
 6011SOL    HW218933   4.835   1.604   3.042
 6012SOL     OW18934   6.231   0.425   0.031
 6012SOL    HW118935   6.256   0.461   6.969
 6012SOL    HW218936   6.315   0.400   0.080
 6013SOL     OW18937   5.033   0.915   2.456
 6013SOL    HW118938   5.020   1.005   2.415
 6013SOL    HW218939   4.953   0.892   2.512
 6014SOL     OW18940   2.906   3.385   4.528
 6014SOL    HW118941   2.815   3.348   4.513
 6014SOL    HW218942   2.969   3.346   4.461
 6015SOL     OW18943   6.617   2.435   4.611
 6015SOL    HW118944   6.702   2.455   4.658
 6015SOL    HW218945   6.605   2.498   4.534
 6016SOL     OW18946   4.791   1.745   5.039
 6016SOL    HW118947   4.707   1.698   5.065
 6016SOL    HW218948   4.772   1.810   4.966
 6017SOL     OW18949   6.720   3.230   5.152
 6017SOL    HW118950   6.714   3.292   5.074
 6017SOL    HW218951   6.633   3.229   5.201
 6018SOL     OW18952   3.422   1.298   4.749
 6018SOL    HW118953   3.377   1.348   4.675
 6018SOL    HW218954   3.496   1.353   4.787
 6019SOL     OW18955   0.827   3.832   5.922
 6019SOL    HW118956   0.784   3.880   5.998
 6019SOL    HW218957   0.812   3.733   5.932
 6020SOL     OW18958   1.209   5.089   0.590
 6020SOL    HW118959   1.299   5.046   0.587
 6020SOL    HW218960   1.217   5.187   0.573
 6021SOL     OW18961   4.038   0.296   2.377
 6021SOL    HW118962   4.131   0.319   2.349
 6021SOL    HW218963   4.030   0.303   2.477
 6022SOL     OW18964   6.461   1.253   2.928
 6022SOL    HW118965   6.449   1.155   2.946
 6022SOL    HW218966   6.389   1.304   2.974
 6023SOL     OW18967   4.916   0.439   1.532
 6023SOL    HW118968   4.843   0.500   1.502
 6023SOL    HW218969   4.926   0.446   1.632
 6024SOL     OW18970   0.221   4.612   1.274
 6024SOL    HW118971   0.237   4.688   1.211
 6024SOL    HW218972   0.268   4.630   1.361
 6025SOL     OW18973   2.840   1.809   4.035
 6025SOL    HW118974   2.882   1.897   4.054
 6025SOL    HW218975   2.816   1.765   4.122
 6026SOL     OW18976   6.552   4.206   4.160
 6026SOL    HW118977   6.555   4.250   4.250
 6026SOL    HW218978   6.546   4.107   4.172
 6027SOL     OW18979   5.766   3.803   6.366
 6027SOL    HW118980   5.820   3.887   6.359
 6027SOL    HW218981   5.827   3.725   6.373
 6028SOL     OW18982   5.124   4.770   0.550
 6028SOL    HW118983   5.209   4.806   0.589
 6028SOL    HW218984   5.144   4.689   0.495
 6029SOL     OW18985   2.464   0.117   3.476
 6029SOL    HW118986   2.486   0.031   3.430
 6029SOL    HW218987   2.514   0.123   3.562
 6030SOL     OW18988   4.909   3.811   4.833
 6030SOL    HW118989   4.956   3.764   4.758
 6030SOL    HW218990   4.851   3.746   4.882
 6031SOL     OW18991   1.047   5.871   4.079
 6031SOL    HW118992   1.029   5.967   4.096
 6031SOL    HW218993   0.983   5.815   4.131
 6032SOL     OW18994   3.301   6.368   4.166
 6032SOL    HW118995   3.267   6.309   4.093
 6032SOL    HW218996   3.281   6.326   4.255
 6033SOL     OW18997   2.314   2.351   2.818
 6033SOL    HW118998   2.288   2.255   2.813
 6033SOL    HW218999   2.309   2.391   2.726
 6034SOL     OW19000   1.403   0.081   6.392
 6034SOL    HW119001   1.468   0.005   6.395
 6034SOL    HW219002   1.310   0.045   6.400
 6035SOL     OW19003   0.766   1.006   2.698
 6035SOL    HW119004   0.707   1.032   2.622
 6035SOL    HW219005   0.856   1.049   2.686
 6036SOL     OW19006   6.156   4.948   1.374
 6036SOL    HW119007   6.124   5.043   1.382
 6036SOL    HW219008   6.142   4.916   1.281
 6037SOL     OW19009   3.923   1.229   1.042
 6037SOL    HW119010   3.939   1.315   1.091
 6037SOL    HW219011   4.009   1.198   1.001
 6038SOL     OW19012   0.902   2.236   6.372
 6038SOL    HW119013   0.969   2.309   6.360
 6038SOL    HW219014   0.838   2.262   6.445
 6039SOL     OW19015   4.047   3.816   3.763
 6039SOL    HW119016   4.144   3.832   3.778
 6039SOL    HW219017   4.032   3.719   3.745
 6040SOL     OW19018   1.573   1.644   6.932
 6040SOL    HW119019   1.659   1.623   6.885
 6040SOL    HW219020   1.593   1.672   7.026
 6041SOL     OW19021   2.898   2.562   5.632
 6041SOL    HW119022   2.908   2.477   5.581
 6041SOL    HW219023   2.988   2.601   5.650
 6042SOL     OW19024   3.946   6.443   3.601
 6042SOL    HW119025   3.878   6.483   3.663
 6042SOL    HW219026   3.933   6.479   3.509
 6043SOL     OW19027   1.967   0.951   3.588
 6043SOL    HW119028   2.057   0.930   3.549
 6043SOL    HW219029   1.964   0.921   3.683
 6044SOL     OW19030   1.756   1.587   1.887
 6044SOL    HW119031   1.690   1.553   1.954
 6044SOL    HW219032   1.842   1.610   1.933
 6045SOL     OW19033   5.455   3.231   3.598
 6045SOL    HW119034   5.393   3.198   3.669
 6045SOL    HW219035   5.543   3.257   3.639
 6046SOL     OW19036   3.660   2.552   1.733
 6046SOL    HW119037   3.732   2.543   1.664
 6046SOL    HW219038   3.653   2.466   1.784
 6047SOL     OW19039   5.584   2.162   0.759
 6047SOL    HW119040   5.674   2.123   0.778
 6047SOL    HW219041   5.514   2.114   0.811
 6048SOL     OW19042   5.684   5.055   4.747
 6048SOL    HW119043   5.616   5.128   4.743
 6048SOL    HW219044   5.725   5.043   4.656
 6049SOL     OW19045   5.297   4.521   5.929
 6049SOL    HW119046   5.332   4.522   6.023
 6049SOL    HW219047   5.201   4.547   5.929
 6050SOL     OW19048   3.014   5.604   0.846
 6050SOL    HW119049   3.099   5.552   0.855
 6050SOL    HW219050   3.018   5.663   0.766
 6051SOL     OW19051   0.597   1.631   2.566
 6051SOL    HW119052   0.607   1.729   2.581
 6051SOL    HW219053   0.667   1.582   2.618
 6052SOL     OW19054   5.682   0.506   1.208
 6052SOL    HW119055   5.659   0.595   1.169
 6052SOL    HW219056   5.599   0.465   1.247
 6053SOL     OW19057   4.694   1.284   6.117
 6053SOL    HW119058   4.769   1.290   6.051
 6053SOL    HW219059   4.637   1.205   6.096
 6054SOL     OW19060   3.761   5.316   0.417
 6054SOL    HW119061   3.765   5.415   0.405
 6054SOL    HW219062   3.853   5.278   0.415
 6055SOL     OW19063   3.378   5.136   6.518
 6055SOL    HW119064   3.404   5.109   6.611
 6055SOL    HW219065   3.289   5.097   6.495
 6056SOL     OW19066   5.946   2.852   4.929
 6056SOL    HW119067   6.019   2.896   4.981
 6056SOL    HW219068   5.870   2.915   4.916
 6057SOL     OW19069   4.998   0.614   2.603
 6057SOL    HW119070   4.969   0.573   2.690
 6057SOL    HW219071   4.971   0.710   2.601
 6058SOL     OW19072   6.055   3.831   0.657
 6058SOL    HW119073   6.049   3.736   0.689
 6058SOL    HW219074   6.125   3.879   0.710
 6059SOL     OW19075   5.250   4.376   5.567
 6059SOL    HW119076   5.202   4.405   5.484
 6059SOL    HW219077   5.187   4.382   5.645
 6060SOL     OW19078   3.357   3.075   0.442
 6060SOL    HW119079   3.394   3.036   0.527
 6060SOL    HW219080   3.429   3.124   0.394
 6061SOL     OW19081   3.801   4.709   0.496
 6061SOL    HW119082   3.778   4.805   0.478
 6061SOL    HW219083   3.766   4.683   0.586
 6062SOL     OW19084   2.727   2.090   6.982
 6062SOL    HW119085   2.687   2.003   7.009
 6062SOL    HW219086   2.753   2.142   0.035
 6063SOL     OW19087   4.046   4.259   5.682
 6063SOL    HW119088   4.026   4.169   5.643
 6063SOL    HW219089   3.970   4.321   5.665
 6064SOL     OW19090   0.203   0.459   0.446
 6064SOL    HW119091   0.242   0.371   0.471
 6064SOL    HW219092   0.129   0.444   0.380
 6065SOL     OW19093   1.386   5.307   2.216
 6065SOL    HW119094   1.438   5.247   2.154
 6065SOL    HW219095   1.446   5.376   2.255
 6066SOL     OW19096   5.245   0.666   3.688
 6066SOL    HW119097   5.281   0.759   3.686
 6066SOL    HW219098   5.177   0.655   3.616
 6067SOL     OW19099   6.014   0.064   5.135
 6067SOL    HW119100   6.097   0.095   5.182
 6067SOL    HW219101   5.990   0.131   5.064
 6068SOL     OW19102   5.179   1.563   4.991
 6068SOL    HW119103   5.132   1.613   5.063
 6068SOL    HW219104   5.114   1.501   4.946
 6069SOL     OW19105   0.157   2.979   5.760
 6069SOL    HW119106   0.165   3.025   5.849
 6069SOL    HW219107   0.237   3.003   5.704
 6070SOL     OW19108   3.698   2.091   1.636
 6070SOL    HW119109   3.703   2.152   1.715
 6070SOL    HW219110   3.766   2.018   1.645
 6071SOL     OW19111   6.865   6.205   4.468
 6071SOL    HW119112   6.817   6.267   4.531
 6071SOL    HW219113   6.930   6.149   4.519
 6072SOL     OW19114   0.386   2.052   0.446
 6072SOL    HW119115   0.303   2.000   0.467
 6072SOL    HW219116   0.428   2.015   0.363
 6073SOL     OW19117   4.961   3.325   1.136
 6073SOL    HW119118   4.948   3.234   1.098
 6073SOL    HW219119   4.886   3.345   1.200
 6074SOL     OW19120   1.173   6.478   2.439
 6074SOL    HW119121   1.150   6.467   2.342
 6074SOL    HW219122   1.259   6.527   2.447
 6075SOL     OW19123   4.791   6.925   6.379
 6075SOL    HW119124   4.802   6.927   6.280
 6075SOL    HW219125   4.804   7.016   6.416
 6076SOL     OW19126   2.377   4.898   4.116
 6076SOL    HW119127   2.377   4.869   4.212
 6076SOL    HW219128   2.398   4.995   4.111
 6077SOL     OW19129   5.179   6.530   1.040
 6077SOL    HW119130   5.263   6.570   1.075
 6077SOL    HW219131   5.127   6.599   0.990
 6078SOL     OW19132   4.181   4.119   0.495
 6078SOL    HW119133   4.172   4.170   0.581
 6078SOL    HW219134   4.278   4.103   0.476
 6079SOL     OW19135   4.376   4.459   6.345
 6079SOL    HW119136   4.315   4.424   6.274
 6079SOL    HW219137   4.426   4.539   6.311
 6080SOL     OW19138   1.274   4.881   1.634
 6080SOL    HW119139   1.341   4.950   1.663
 6080SOL    HW219140   1.208   4.922   1.571
 6081SOL     OW19141   1.027   3.870   5.563
 6081SOL    HW119142   0.986   3.939   5.503
 6081SOL    HW219143   0.954   3.811   5.599
 6082SOL     OW19144   3.786   0.420   1.895
 6082SOL    HW119145   3.843   0.343   1.922
 6082SOL    HW219146   3.759   0.411   1.799
 6083SOL     OW19147   5.456   0.148   0.282
 6083SOL    HW119148   5.430   0.236   0.322
 6083SOL    HW219149   5.555   0.145   0.270
 6084SOL     OW19150   0.957   6.372   1.756
 6084SOL    HW119151   0.921   6.294   1.705
 6084SOL    HW219152   1.056   6.376   1.746
 6085SOL     OW19153   6.293   6.035   6.401
 6085SOL    HW119154   6.373   6.093   6.388
 6085SOL    HW219155   6.309   5.972   6.477
 6086SOL     OW19156   3.930   2.868   6.635
 6086SOL    HW119157   3.880   2.931   6.575
 6086SOL    HW219158   3.878   2.853   6.719
 6087SOL     OW19159   5.084   6.449   0.230
 6087SOL    HW119160   5.037   6.391   0.296
 6087SOL    HW219161   5.180   6.423   0.226
 6088SOL     OW19162   5.326   6.751   5.295
 6088SOL    HW119163   5.306   6.787   5.204
 6088SOL    HW219164   5.403   6.801   5.334
 6089SOL     OW19165   6.949   1.881   2.253
 6089SOL    HW119166   6.887   1.804   2.262
 6089SOL    HW219167   6.977   1.891   2.157
 6090SOL     OW19168   2.997   5.218   4.368
 6090SOL    HW119169   3.073   5.224   4.303
 6090SOL    HW219170   2.959   5.125   4.365
 6091SOL     OW19171   2.601   1.091   1.492
 6091SOL    HW119172   2.525   1.098   1.427
 6091SOL    HW219173   2.666   1.164   1.473
 6092SOL     OW19174   4.028   0.056   1.985
 6092SOL    HW119175   4.064   0.043   1.893
 6092SOL    HW219176   4.096   0.103   2.042
 6093SOL     OW19177   2.032   1.575   2.088
 6093SOL    HW119178   2.107   1.518   2.055
 6093SOL    HW219179   2.012   1.553   2.184
 6094SOL     OW19180   0.870   6.775   4.356
 6094SOL    HW119181   0.817   6.723   4.423
 6094SOL    HW219182   0.960   6.733   4.345
 6095SOL     OW19183   4.541   5.654   0.011
 6095SOL    HW119184   4.591   5.646   6.953
 6095SOL    HW219185   4.601   5.695   0.080
 6096SOL     OW19186   5.828   6.379   2.566
 6096SOL    HW119187   5.867   6.287   2.558
 6096SOL    HW219188   5.898   6.447   2.544
 6097SOL     OW19189   1.487   5.661   1.843
 6097SOL    HW119190   1.571   5.714   1.828
 6097SOL    HW219191   1.506   5.564   1.830
 6098SOL     OW19192   6.819   0.796   5.456
 6098SOL    HW119193   6.844   0.875   5.400
 6098SOL    HW219194   6.720   0.792   5.466
 6099SOL     OW19195   5.278   6.208   5.815
 6099SOL    HW119196   5.235   6.296   5.797
 6099SOL    HW219197   5.377   6.218   5.814
 6100SOL     OW19198   0.326   5.556   2.305
 6100SOL    HW119199   0.287   5.555   2.397
 6100SOL    HW219200   0.267   5.504   2.244
 6101SOL     OW19201   6.558   2.352   1.890
 6101SOL    HW119202   6.574   2.278   1.954
 6101SOL    HW219203   6.578   2.440   1.934
 6102SOL     OW19204   4.369   5.915   2.603
 6102SOL    HW119205   4.414   5.946   2.519
 6102SOL    HW219206   4.331   5.994   2.651
 6103SOL     OW19207   6.981   1.603   1.148
 6103SOL    HW119208   6.924   1.546   1.206
 6103SOL    HW219209   6.952   1.594   1.053
 6104SOL     OW19210   6.222   1.356   5.329
 6104SOL    HW119211   6.289   1.305   5.275
 6104SOL    HW219212   6.213   1.314   5.419
 6105SOL     OW19213   2.728   5.459   5.806
 6105SOL    HW119214   2.759   5.502   5.890
 6105SOL    HW219215   2.750   5.361   5.809
 6106SOL     OW19216   0.732   3.908   0.449
 6106SOL    HW119217   0.715   3.821   0.403
 6106SOL    HW219218   0.672   3.915   0.529
 6107SOL     OW19219   5.031   5.345   4.571
 6107SOL    HW119220   5.076   5.259   4.549
 6107SOL    HW219221   5.053   5.413   4.501
 6108SOL     OW19222   1.293   1.700   2.034
 6108SOL    HW119223   1.276   1.602   2.028
 6108SOL    HW219224   1.374   1.716   2.090
 6109SOL     OW19225   5.670   0.583   3.852
 6109SOL    HW119226   5.643   0.600   3.947
 6109SOL    HW219227   5.616   0.506   3.816
 6110SOL     OW19228   0.743   2.572   6.052
 6110SOL    HW119229   0.788   2.652   6.011
 6110SOL    HW219230   0.810   2.498   6.061
 6111SOL     OW19231   1.220   3.567   2.155
 6111SOL    HW119232   1.201   3.650   2.207
 6111SOL    HW219233   1.314   3.571   2.120
 6112SOL     OW19234   3.621   0.793   2.108
 6112SOL    HW119235   3.606   0.694   2.105
 6112SOL    HW219236   3.687   0.819   2.038
 6113SOL     OW19237   2.570   3.823   6.612
 6113SOL    HW119238   2.610   3.795   6.699
 6113SOL    HW219239   2.634   3.881   6.562
 6114SOL     OW19240   4.737   2.215   2.394
 6114SOL    HW119241   4.801   2.242   2.466
 6114SOL    HW219242   4.651   2.185   2.435
 6115SOL     OW19243   0.376   1.422   5.385
 6115SOL    HW119244   0.357   1.345   5.446
 6115SOL    HW219245   0.383   1.390   5.291
 6116SOL     OW19246   3.994   2.263   5.346
 6116SOL    HW119247   4.041   2.249   5.433
 6116SOL    HW219248   3.915   2.323   5.360
 6117SOL     OW19249   1.232   1.370   2.843
 6117SOL    HW119250   1.325   1.389   2.875
 6117SOL    HW219251   1.166   1.390   2.916
 6118SOL     OW19252   6.245   1.520   1.175
 6118SOL    HW119253   6.286   1.598   1.223
 6118SOL    HW219254   6.316   1.451   1.157
 6119SOL     OW19255   0.112   2.776   0.276
 6119SOL    HW119256   0.150   2.826   0.198
 6119SOL    HW219257   0.029   2.728   0.248
 6120SOL     OW19258   1.968   0.058   5.466
 6120SOL    HW119259   1.970   0.007   5.552
 6120SOL    HW219260   1.962   7.022   5.389
 6121SOL     OW19261   0.489   4.137   5.697
 6121SOL    HW119262   0.475   4.039   5.686
 6121SOL    HW219263   0.453   4.186   5.617
 6122SOL     OW19264   5.617   6.045   6.239
 6122SOL    HW119265   5.637   6.128   6.186
 6122SOL    HW219266   5.689   6.031   6.307
 6123SOL     OW19267   4.980   1.141   5.510
 6123SOL    HW119268   5.061   1.198   5.524
 6123SOL    HW219269   5.007   1.044   5.508
 6124SOL     OW19270   1.979   0.007   5.139
 6124SOL    HW119271   1.966   0.098   5.101
 6124SOL    HW219272   1.891   6.987   5.143
 6125SOL     OW19273   2.798   3.935   0.426
 6125SOL    HW119274   2.863   3.994   0.378
 6125SOL    HW219275   2.705   3.964   0.406
 6126SOL     OW19276   0.685   2.398   4.969
 6126SOL    HW119277   0.727   2.326   4.913
 6126SOL    HW219278   0.675   2.365   5.063
 6127SOL     OW19279   4.094   1.102   1.802
 6127SOL    HW119280   4.106   1.200   1.786
 6127SOL    HW219281   4.019   1.087   1.866
 6128SOL     OW19282   5.480   5.619   0.993
 6128SOL    HW119283   5.465   5.629   1.091
 6128SOL    HW219284   5.403   5.659   0.943
 6129SOL     OW19285   1.961   4.445   3.419
 6129SOL    HW119286   1.910   4.390   3.353
 6129SOL    HW219287   2.048   4.474   3.378
 6130SOL     OW19288   5.839   2.495   2.548
 6130SOL    HW119289   5.771   2.506   2.620
 6130SOL    HW219290   5.795   2.460   2.465
 6131SOL     OW19291   0.504   1.947   2.290
 6131SOL    HW119292   0.549   2.036   2.285
 6131SOL    HW219293   0.556   1.880   2.237
 6132SOL     OW19294   3.478   1.912   6.609
 6132SOL    HW119295   3.494   1.864   6.695
 6132SOL    HW219296   3.469   1.846   6.534
 6133SOL     OW19297   1.063   2.511   3.409
 6133SOL    HW119298   1.124   2.452   3.462
 6133SOL    HW219299   1.032   2.463   3.327
 6134SOL     OW19300   5.193   6.637   6.907
 6134SOL    HW119301   5.279   6.593   6.879
 6134SOL    HW219302   5.170   6.710   6.844
 6135SOL     OW19303   6.352   6.870   0.097
 6135SOL    HW119304   6.388   6.777   0.091
 6135SOL    HW219305   6.337   6.905   0.004
 6136SOL     OW19306   1.471   2.861   1.363
 6136SOL    HW119307   1.447   2.806   1.443
 6136SOL    HW219308   1.388   2.889   1.316
 6137SOL     OW19309   0.672   4.562   2.962
 6137SOL    HW119310   0.638   4.505   2.888
 6137SOL    HW219311   0.656   4.516   3.050
 6138SOL     OW19312   3.652   0.490   2.122
 6138SOL    HW119313   3.707   0.468   2.041
 6138SOL    HW219314   3.710   0.487   2.204
 6139SOL     OW19315   0.608   6.686   5.511
 6139SOL    HW119316   0.573   6.607   5.562
 6139SOL    HW219317   0.706   6.674   5.495
 6140SOL     OW19318   1.114   0.516   2.810
 6140SOL    HW119319   1.207   0.508   2.773
 6140SOL    HW219320   1.119   0.545   2.906
 6141SOL     OW19321   0.693   0.359   6.598
 6141SOL    HW119322   0.678   0.456   6.619
 6141SOL    HW219323   0.648   0.336   6.512
 6142SOL     OW19324   0.888   0.873   6.772
 6142SOL    HW119325   0.979   0.833   6.767
 6142SOL    HW219326   0.858   0.899   6.680
 6143SOL     OW19327   0.224   3.977   0.778
 6143SOL    HW119328   0.145   3.937   0.825
 6143SOL    HW219329   0.292   4.005   0.845
 6144SOL     OW19330   4.594   4.757   3.411
 6144SOL    HW119331   4.583   4.829   3.343
 6144SOL    HW219332   4.533   4.680   3.389
 6145SOL     OW19333   5.870   4.238   4.020
 6145SOL    HW119334   5.901   4.261   3.928
 6145SOL    HW219335   5.854   4.139   4.026
 6146SOL     OW19336   3.865   0.105   3.946
 6146SOL    HW119337   3.846   0.164   4.025
 6146SOL    HW219338   3.790   0.114   3.880
 6147SOL     OW19339   1.873   2.886   4.649
 6147SOL    HW119340   1.860   2.986   4.649
 6147SOL    HW219341   1.803   2.844   4.592
 6148SOL     OW19342   4.231   5.230   6.808
 6148SOL    HW119343   4.277   5.306   6.762
 6148SOL    HW219344   4.143   5.212   6.764
 6149SOL     OW19345   2.358   0.055   2.248
 6149SOL    HW119346   2.351   6.996   2.296
 6149SOL    HW219347   2.431   0.110   2.289
 6150SOL     OW19348   6.335   4.090   6.668
 6150SOL    HW119349   6.422   4.069   6.624
 6150SOL    HW219350   6.285   4.005   6.685
 6151SOL     OW19351   5.370   5.409   4.499
 6151SOL    HW119352   5.340   5.504   4.507
 6151SOL    HW219353   5.375   5.385   4.402
 6152SOL     OW19354   1.284   5.426   4.596
 6152SOL    HW119355   1.286   5.472   4.508
 6152SOL    HW219356   1.195   5.383   4.609
 6153SOL     OW19357   4.472   5.450   1.022
 6153SOL    HW119358   4.559   5.417   0.985
 6153SOL    HW219359   4.435   5.382   1.085
 6154SOL     OW19360   5.038   3.440   3.182
 6154SOL    HW119361   5.013   3.536   3.193
 6154SOL    HW219362   5.110   3.432   3.114
 6155SOL     OW19363   2.907   0.805   3.168
 6155SOL    HW119364   2.837   0.859   3.122
 6155SOL    HW219365   2.929   0.847   3.256
 6156SOL     OW19366   5.094   3.718   1.650
 6156SOL    HW119367   5.061   3.812   1.650
 6156SOL    HW219368   5.071   3.675   1.563
 6157SOL     OW19369   0.667   2.442   3.460
 6157SOL    HW119370   0.716   2.355   3.474
 6157SOL    HW219371   0.721   2.517   3.496
 6158SOL     OW19372   3.325   2.151   6.559
 6158SOL    HW119373   3.385   2.072   6.564
 6158SOL    HW219374   3.231   2.121   6.545
 6159SOL     OW19375   5.329   3.255   0.350
 6159SOL    HW119376   5.378   3.258   0.263
 6159SOL    HW219377   5.395   3.257   0.425
 6160SOL     OW19378   6.596   0.205   6.181
 6160SOL    HW119379   6.650   0.243   6.106
 6160SOL    HW219380   6.537   0.132   6.146
 6161SOL     OW19381   5.293   2.345   6.592
 6161SOL    HW119382   5.330   2.315   6.504
 6161SOL    HW219383   5.294   2.445   6.597
 6162SOL     OW19384   5.997   6.815   3.217
 6162SOL    HW119385   5.940   6.872   3.276
 6162SOL    HW219386   5.940   6.747   3.171
 6163SOL     OW19387   5.525   5.773   2.337
 6163SOL    HW119388   5.493   5.786   2.243
 6163SOL    HW219389   5.617   5.734   2.336
 6164SOL     OW19390   3.753   4.084   3.910
 6164SOL    HW119391   3.799   4.037   3.834
 6164SOL    HW219392   3.790   4.049   3.997
 6165SOL     OW19393   4.060   2.414   6.534
 6165SOL    HW119394   4.079   2.316   6.524
 6165SOL    HW219395   4.136   2.457   6.584
 6166SOL     OW19396   6.808   1.994   6.826
 6166SOL    HW119397   6.734   2.053   6.793
 6166SOL    HW219398   6.881   2.050   6.864
 6167SOL     OW19399   1.556   4.703   3.112
 6167SOL    HW119400   1.589   4.752   3.031
 6167SOL    HW219401   1.466   4.737   3.138
 6168SOL     OW19402   6.580   2.401   3.527
 6168SOL    HW119403   6.488   2.364   3.533
 6168SOL    HW219404   6.633   2.370   3.606
 6169SOL     OW19405   1.051   0.750   5.882
 6169SOL    HW119406   1.125   0.800   5.926
 6169SOL    HW219407   1.089   0.690   5.811
 6170SOL     OW19408   3.620   4.457   6.448
 6170SOL    HW119409   3.703   4.451   6.392
 6170SOL    HW219410   3.632   4.403   6.531
 6171SOL     OW19411   1.190   3.378   2.358
 6171SOL    HW119412   1.112   3.389   2.418
 6171SOL    HW219413   1.183   3.441   2.281
 6172SOL     OW19414   0.415   0.626   2.215
 6172SOL    HW119415   0.319   0.633   2.187
 6172SOL    HW219416   0.460   0.555   2.161
 6173SOL     OW19417   0.678   5.172   2.801
 6173SOL    HW119418   0.680   5.252   2.741
 6173SOL    HW219419   0.685   5.201   2.896
 6174SOL     OW19420   5.934   4.524   2.739
 6174SOL    HW119421   5.868   4.463   2.783
 6174SOL    HW219422   5.913   4.618   2.762
 6175SOL     OW19423   5.523   6.724   2.406
 6175SOL    HW119424   5.530   6.630   2.441
 6175SOL    HW219425   5.518   6.787   2.484
 6176SOL     OW19426   6.343   3.784   0.191
 6176SOL    HW119427   6.407   3.824   0.125
 6176SOL    HW219428   6.336   3.686   0.175
 6177SOL     OW19429   5.113   1.379   1.093
 6177SOL    HW119430   5.203   1.421   1.108
 6177SOL    HW219431   5.060   1.437   1.032
 6178SOL     OW19432   4.792   5.141   1.919
 6178SOL    HW119433   4.700   5.150   1.957
 6178SOL    HW219434   4.859   5.137   1.994
 6179SOL     OW19435   0.043   3.466   5.234
 6179SOL    HW119436   0.108   3.493   5.163
 6179SOL    HW219437   0.018   3.370   5.221
 6180SOL     OW19438   3.361   6.849   0.065
 6180SOL    HW119439   3.386   6.776   0.001
 6180SOL    HW219440   3.435   6.917   0.068
 6181SOL     OW19441   4.594   6.198   0.516
 6181SOL    HW119442   4.553   6.127   0.459
 6181SOL    HW219443   4.680   6.229   0.475
 6182SOL     OW19444   5.104   5.607   5.729
 6182SOL    HW119445   5.128   5.539   5.660
 6182SOL    HW219446   5.172   5.605   5.802
 6183SOL     OW19447   2.263   0.344   3.167
 6183SOL    HW119448   2.326   0.416   3.139
 6183SOL    HW219449   2.181   0.348   3.111
 6184SOL     OW19450   1.570   6.882   6.401
 6184SOL    HW119451   1.638   6.939   6.447
 6184SOL    HW219452   1.596   6.786   6.409
 6185SOL     OW19453   0.990   3.757   0.133
 6185SOL    HW119454   1.047   3.747   0.214
 6185SOL    HW219455   1.041   3.728   0.052
 6186SOL     OW19456   5.836   6.968   3.876
 6186SOL    HW119457   5.890   0.023   3.889
 6186SOL    HW219458   5.891   6.900   3.828
 6187SOL     OW19459   4.904   4.588   3.737
 6187SOL    HW119460   4.845   4.550   3.665
 6187SOL    HW219461   4.888   4.687   3.745
 6188SOL     OW19462   2.365   5.798   1.365
 6188SOL    HW119463   2.435   5.752   1.419
 6188SOL    HW219464   2.408   5.862   1.302
 6189SOL     OW19465   4.850   4.869   3.506
 6189SOL    HW119466   4.756   4.839   3.487
 6189SOL    HW219467   4.913   4.821   3.445
 6190SOL     OW19468   5.705   3.909   6.077
 6190SOL    HW119469   5.796   3.883   6.044
 6190SOL    HW219470   5.682   3.856   6.158
 6191SOL     OW19471   5.407   2.669   0.987
 6191SOL    HW119472   5.468   2.595   0.959
 6191SOL    HW219473   5.343   2.635   1.056
 6192SOL     OW19474   3.366   3.849   0.804
 6192SOL    HW119475   3.409   3.786   0.870
 6192SOL    HW219476   3.437   3.899   0.754
 6193SOL     OW19477   3.879   0.494   2.262
 6193SOL    HW119478   3.951   0.524   2.199
 6193SOL    HW219479   3.908   0.411   2.309
 6194SOL     OW19480   1.894   0.034   0.505
 6194SOL    HW119481   1.804   0.067   0.479
 6194SOL    HW219482   1.945   0.006   0.424
 6195SOL     OW19483   4.113   5.485   5.369
 6195SOL    HW119484   4.017   5.464   5.350
 6195SOL    HW219485   4.122   5.516   5.464
 6196SOL     OW19486   7.011   2.388   6.705
 6196SOL    HW119487   0.010   2.482   6.683
 6196SOL    HW219488   0.060   2.327   6.684
 6197SOL     OW19489   4.064   3.819   0.802
 6197SOL    HW119490   4.108   3.903   0.833
 6197SOL    HW219491   4.048   3.759   0.881
 6198SOL     OW19492   3.766   5.816   3.164
 6198SOL    HW119493   3.773   5.730   3.114
 6198SOL    HW219494   3.833   5.817   3.238
 6199SOL     OW19495   0.358   0.047   0.817
 6199SOL    HW119496   0.401   0.137   0.823
 6199SOL    HW219497   0.426   7.006   0.791
 6200SOL     OW19498   2.741   1.472   6.577
 6200SOL    HW119499   2.837   1.459   6.554
 6200SOL    HW219500   2.727   1.446   6.673
 6201SOL     OW19501   2.437   5.229   5.694
 6201SOL    HW119502   2.505   5.286   5.649
 6201SOL    HW219503   2.456   5.133   5.675
 6202SOL     OW19504   3.906   1.606   1.377
 6202SOL    HW119505   3.856   1.546   1.439
 6202SOL    HW219506   3.994   1.565   1.354
 6203SOL     OW19507   5.369   0.080   3.295
 6203SOL    HW119508   5.463   0.044   3.299
 6203SOL    HW219509   5.338   0.103   3.387
 6204SOL     OW19510   0.572   4.892   5.227
 6204SOL    HW119511   0.535   4.935   5.310
 6204SOL    HW219512   0.568   4.793   5.237
 6205SOL     OW19513   5.759   5.914   6.785
 6205SOL    HW119514   5.686   5.939   6.722
 6205SOL    HW219515   5.787   5.994   6.838
 6206SOL     OW19516   6.599   0.601   2.356
 6206SOL    HW119517   6.587   0.538   2.433
 6206SOL    HW219518   6.651   0.556   2.283
 6207SOL     OW19519   1.530   3.470   4.677
 6207SOL    HW119520   1.508   3.523   4.595
 6207SOL    HW219521   1.626   3.443   4.675
 6208SOL     OW19522   5.978   0.183   5.559
 6208SOL    HW119523   6.042   0.202   5.633
 6208SOL    HW219524   5.893   0.233   5.574
 6209SOL     OW19525   3.870   6.091   6.928
 6209SOL    HW119526   3.908   6.182   6.914
 6209SOL    HW219527   3.942   6.023   6.915
 6210SOL     OW19528   5.175   4.591   3.280
 6210SOL    HW119529   5.141   4.521   3.343
 6210SOL    HW219530   5.275   4.595   3.285
 6211SOL     OW19531   2.771   0.365   6.066
 6211SOL    HW119532   2.824   0.361   5.981
 6211SOL    HW219533   2.720   0.280   6.078
 6212SOL     OW19534   0.183   5.294   3.053
 6212SOL    HW119535   0.241   5.272   3.131
 6212SOL    HW219536   0.227   5.365   2.998
 6213SOL     OW19537   5.616   6.673   6.626
 6213SOL    HW119538   5.689   6.722   6.675
 6213SOL    HW219539   5.657   6.611   6.559
 6214SOL     OW19540   6.173   5.423   2.987
 6214SOL    HW119541   6.100   5.358   3.010
 6214SOL    HW219542   6.193   5.480   3.067
 6215SOL     OW19543   3.403   1.520   0.224
 6215SOL    HW119544   3.309   1.502   0.194
 6215SOL    HW219545   3.402   1.595   0.291
 6216SOL     OW19546   6.460   2.063   1.837
 6216SOL    HW119547   6.528   2.033   1.771
 6216SOL    HW219548   6.394   2.124   1.792
 6217SOL     OW19549   5.276   2.528   1.834
 6217SOL    HW119550   5.353   2.590   1.819
 6217SOL    HW219551   5.191   2.574   1.813
 6218SOL     OW19552   3.745   4.923   3.823
 6218SOL    HW119553   3.795   4.975   3.754
 6218SOL    HW219554   3.810   4.869   3.877
 6219SOL     OW19555   0.920   1.575   4.846
 6219SOL    HW119556   0.833   1.588   4.799
 6219SOL    HW219557   0.911   1.501   4.913
 6220SOL     OW19558   2.026   4.553   5.677
 6220SOL    HW119559   2.081   4.499   5.613
 6220SOL    HW219560   1.957   4.605   5.626
 6221SOL     OW19561   5.180   5.208   5.370
 6221SOL    HW119562   5.142   5.128   5.323
 6221SOL    HW219563   5.245   5.177   5.440
 6222SOL     OW19564   0.909   6.720   1.404
 6222SOL    HW119565   0.977   6.655   1.370
 6222SOL    HW219566   0.838   6.669   1.454
 6223SOL     OW19567   6.428   3.121   4.657
 6223SOL    HW119568   6.399   3.215   4.637
 6223SOL    HW219569   6.519   3.106   4.619
 6224SOL     OW19570   1.914   1.516   5.948
 6224SOL    HW119571   1.934   1.575   5.869
 6224SOL    HW219572   1.949   1.425   5.930
 6225SOL     OW19573   2.998   3.311   1.592
 6225SOL    HW119574   2.927   3.256   1.547
 6225SOL    HW219575   3.036   3.375   1.526
 6226SOL     OW19576   5.981   2.057   3.730
 6226SOL    HW119577   6.000   1.974   3.676
 6226SOL    HW219578   6.048   2.065   3.803
 6227SOL     OW19579   3.099   4.934   6.468
 6227SOL    HW119580   3.083   4.888   6.556
 6227SOL    HW219581   3.144   4.870   6.405
 6228SOL     OW19582   0.409   2.031   2.685
 6228SOL    HW119583   0.494   2.005   2.640
 6228SOL    HW219584   0.404   2.131   2.690
 6229SOL     OW19585   1.570   1.691   2.948
 6229SOL    HW119586   1.641   1.759   2.966
 6229SOL    HW219587   1.497   1.733   2.893
 6230SOL     OW19588   1.245   1.355   4.574
 6230SOL    HW119589   1.281   1.395   4.490
 6230SOL    HW219590   1.166   1.408   4.605
 6231SOL     OW19591   6.965   5.279   1.733
 6231SOL    HW119592   6.884   5.326   1.768
 6231SOL    HW219593   6.969   5.290   1.634
 6232SOL     OW19594   6.730   1.544   0.024
 6232SOL    HW119595   6.815   1.576   7.010
 6232SOL    HW219596   6.738   1.548   0.123
 6233SOL     OW19597   5.670   1.603   6.975
 6233SOL    HW119598   5.643   1.510   6.949
 6233SOL    HW219599   5.623   1.669   6.915
 6234SOL     OW19600   0.649   1.490   5.383
 6234SOL    HW119601   0.659   1.544   5.300
 6234SOL    HW219602   0.553   1.469   5.398
 6235SOL     OW19603   1.568   0.125   2.919
 6235SOL    HW119604   1.616   0.041   2.944
 6235SOL    HW219605   1.472   0.104   2.901
 6236SOL     OW19606   0.933   5.177   0.659
 6236SOL    HW119607   0.985   5.098   0.625
 6236SOL    HW219608   0.935   5.178   0.759
 6237SOL     OW19609   4.475   6.010   0.365
 6237SOL    HW119610   4.472   5.968   0.275
 6237SOL    HW219611   4.382   6.016   0.402
 6238SOL     OW19612   4.455   5.212   3.025
 6238SOL    HW119613   4.379   5.260   3.069
 6238SOL    HW219614   4.514   5.279   2.980
 6239SOL     OW19615   2.674   6.587   2.009
 6239SOL    HW119616   2.580   6.597   2.042
 6239SOL    HW219617   2.695   6.490   1.997
 6240SOL     OW19618   2.691   2.151   0.856
 6240SOL    HW119619   2.778   2.199   0.871
 6240SOL    HW219620   2.682   2.075   0.920
 6241SOL     OW19621   2.464   1.312   2.689
 6241SOL    HW119622   2.505   1.252   2.619
 6241SOL    HW219623   2.537   1.347   2.748
 6242SOL     OW19624   5.818   1.308   3.447
 6242SOL    HW119625   5.733   1.360   3.447
 6242SOL    HW219626   5.825   1.255   3.532
 6243SOL     OW19627   6.289   6.850   3.135
 6243SOL    HW119628   6.270   6.787   3.059
 6243SOL    HW219629   6.203   6.889   3.168
 6244SOL     OW19630   1.584   2.267   1.800
 6244SOL    HW119631   1.656   2.264   1.731
 6244SOL    HW219632   1.577   2.178   1.845
 6245SOL     OW19633   2.982   4.286   1.743
 6245SOL    HW119634   3.053   4.254   1.806
 6245SOL    HW219635   2.951   4.377   1.772
 6246SOL     OW19636   2.986   2.806   6.578
 6246SOL    HW119637   2.917   2.743   6.541
 6246SOL    HW219638   3.051   2.756   6.634
 6247SOL     OW19639   0.367   6.476   3.478
 6247SOL    HW119640   0.384   6.378   3.467
 6247SOL    HW219641   0.449   6.528   3.451
 6248SOL     OW19642   1.413   4.064   1.615
 6248SOL    HW119643   1.369   4.073   1.705
 6248SOL    HW219644   1.448   4.153   1.586
 6249SOL     OW19645   0.367   4.701   0.567
 6249SOL    HW119646   0.292   4.704   0.501
 6249SOL    HW219647   0.343   4.638   0.641
 6250SOL     OW19648   6.347   6.052   0.463
 6250SOL    HW119649   6.250   6.039   0.441
 6250SOL    HW219650   6.392   5.963   0.468
 6251SOL     OW19651   3.792   6.845   0.716
 6251SOL    HW119652   3.797   6.921   0.780
 6251SOL    HW219653   3.882   6.803   0.706
 6252SOL     OW19654   1.798   6.188   4.787
 6252SOL    HW119655   1.769   6.220   4.696
 6252SOL    HW219656   1.799   6.088   4.788
 6253SOL     OW19657   2.366   4.578   2.972
 6253SOL    HW119658   2.436   4.516   3.007
 6253SOL    HW219659   2.276   4.545   3.000
 6254SOL     OW19660   5.324   1.301   6.488
 6254SOL    HW119661   5.410   1.317   6.537
 6254SOL    HW219662   5.264   1.242   6.543
 6255SOL     OW19663   1.624   0.870   1.366
 6255SOL    HW119664   1.556   0.844   1.434
 6255SOL    HW219665   1.651   0.789   1.314
 6256SOL     OW19666   4.380   4.972   2.697
 6256SOL    HW119667   4.338   5.059   2.724
 6256SOL    HW219668   4.351   4.900   2.760
 6257SOL     OW19669   5.645   2.430   1.238
 6257SOL    HW119670   5.730   2.379   1.253
 6257SOL    HW219671   5.570   2.365   1.219
 6258SOL     OW19672   4.644   0.645   3.520
 6258SOL    HW119673   4.725   0.609   3.474
 6258SOL    HW219674   4.604   0.718   3.463
 6259SOL     OW19675   2.796   1.321   1.162
 6259SOL    HW119676   2.859   1.243   1.156
 6259SOL    HW219677   2.802   1.374   1.077
 6260SOL     OW19678   3.263   4.157   0.267
 6260SOL    HW119679   3.302   4.133   0.356
 6260SOL    HW219680   3.286   4.252   0.244
 6261SOL     OW19681   3.325   6.637   6.905
 6261SOL    HW119682   3.367   6.560   6.858
 6261SOL    HW219683   3.232   6.613   6.933
 6262SOL     OW19684   2.250   4.057   0.484
 6262SOL    HW119685   2.217   4.061   0.578
 6262SOL    HW219686   2.268   4.149   0.450
 6263SOL     OW19687   0.607   6.768   6.094
 6263SOL    HW119688   0.541   6.693   6.092
 6263SOL    HW219689   0.691   6.737   6.139
 6264SOL     OW19690   1.840   6.740   0.801
 6264SOL    HW119691   1.816   6.829   0.839
 6264SOL    HW219692   1.923   6.748   0.745
 6265SOL     OW19693   3.163   4.206   1.275
 6265SOL    HW119694   3.192   4.134   1.211
 6265SOL    HW219695   3.244   4.256   1.307
 6266SOL     OW19696   4.263   0.721   4.350
 6266SOL    HW119697   4.175   0.696   4.310
 6266SOL    HW219698   4.306   0.791   4.293
 6267SOL     OW19699   3.109   0.189   0.194
 6267SOL    HW119700   3.095   0.260   0.125
 6267SOL    HW219701   3.205   0.187   0.222
 6268SOL     OW19702   2.614   6.166   3.063
 6268SOL    HW119703   2.709   6.155   3.092
 6268SOL    HW219704   2.602   6.123   2.973
 6269SOL     OW19705   6.965   6.177   2.229
 6269SOL    HW119706   0.016   6.118   2.247
 6269SOL    HW219707   6.984   6.270   2.263
 6270SOL     OW19708   2.028   0.195   5.907
 6270SOL    HW119709   2.115   0.149   5.920
 6270SOL    HW219710   2.032   0.286   5.949
 6271SOL     OW19711   6.622   2.949   6.260
 6271SOL    HW119712   6.658   3.000   6.338
 6271SOL    HW219713   6.690   2.883   6.228
 6272SOL     OW19714   0.646   3.100   4.824
 6272SOL    HW119715   0.551   3.125   4.842
 6272SOL    HW219716   0.707   3.163   4.872
 6273SOL     OW19717   1.405   0.774   2.074
 6273SOL    HW119718   1.475   0.844   2.090
 6273SOL    HW219719   1.321   0.818   2.042
 6274SOL     OW19720   2.251   5.745   5.696
 6274SOL    HW119721   2.222   5.749   5.792
 6274SOL    HW219722   2.318   5.816   5.679
 6275SOL     OW19723   2.882   6.517   5.631
 6275SOL    HW119724   2.807   6.475   5.580
 6275SOL    HW219725   2.869   6.616   5.634
 6276SOL     OW19726   1.610   4.864   3.431
 6276SOL    HW119727   1.571   4.788   3.482
 6276SOL    HW219728   1.679   4.830   3.367
 6277SOL     OW19729   4.925   2.692   2.875
 6277SOL    HW119730   4.897   2.764   2.940
 6277SOL    HW219731   4.844   2.656   2.829
 6278SOL     OW19732   4.913   0.278   5.038
 6278SOL    HW119733   5.006   0.314   5.035
 6278SOL    HW219734   4.851   0.350   5.070
 6279SOL     OW19735   3.741   1.308   6.808
 6279SOL    HW119736   3.751   1.209   6.791
 6279SOL    HW219737   3.699   1.322   6.897
 6280SOL     OW19738   0.523   2.781   5.652
 6280SOL    HW119739   0.621   2.758   5.652
 6280SOL    HW219740   0.469   2.697   5.661
 6281SOL     OW19741   2.638   6.460   5.528
 6281SOL    HW119742   2.566   6.484   5.593
 6281SOL    HW219743   2.597   6.418   5.447
 6282SOL     OW19744   1.534   0.309   4.554
 6282SOL    HW119745   1.504   0.219   4.585
 6282SOL    HW219746   1.494   0.379   4.613
 6283SOL     OW19747   6.622   2.474   5.076
 6283SOL    HW119748   6.545   2.417   5.106
 6283SOL    HW219749   6.700   2.415   5.055
 6284SOL     OW19750   2.287   5.394   5.182
 6284SOL    HW119751   2.381   5.411   5.212
 6284SOL    HW219752   2.242   5.334   5.248
 6285SOL     OW19753   1.454   2.838   3.622
 6285SOL    HW119754   1.426   2.831   3.718
 6285SOL    HW219755   1.398   2.908   3.576
 6286SOL     OW19756   6.479   1.779   3.995
 6286SOL    HW119757   6.567   1.821   4.014
 6286SOL    HW219758   6.430   1.833   3.927
 6287SOL     OW19759   4.843   4.567   2.378
 6287SOL    HW119760   4.808   4.606   2.463
 6287SOL    HW219761   4.808   4.474   2.367
 6288SOL     OW19762   5.621   3.901   1.916
 6288SOL    HW119763   5.640   3.984   1.864
 6288SOL    HW219764   5.707   3.854   1.935
 6289SOL     OW19765   1.583   2.860   2.709
 6289SOL    HW119766   1.539   2.848   2.798
 6289SOL    HW219767   1.513   2.862   2.637
 6290SOL     OW19768   5.767   3.757   4.284
 6290SOL    HW119769   5.762   3.708   4.371
 6290SOL    HW219770   5.853   3.734   4.239
 6291SOL     OW19771   3.939   3.067   4.082
 6291SOL    HW119772   3.872   2.993   4.074
 6291SOL    HW219773   3.976   3.069   4.175
 6292SOL     OW19774   0.390   3.174   3.400
 6292SOL    HW119775   0.333   3.232   3.458
 6292SOL    HW219776   0.343   3.087   3.384
 6293SOL     OW19777   4.354   6.722   0.251
 6293SOL    HW119778   4.410   6.782   0.193
 6293SOL    HW219779   4.265   6.708   0.207
 6294SOL     OW19780   3.862   4.933   3.318
 6294SOL    HW119781   3.891   4.900   3.228
 6294SOL    HW219782   3.878   5.031   3.324
 6295SOL     OW19783   5.181   5.434   5.525
 6295SOL    HW119784   5.184   5.335   5.513
 6295SOL    HW219785   5.274   5.469   5.538
 6296SOL     OW19786   6.627   6.949   4.309
 6296SOL    HW119787   6.591   6.871   4.360
 6296SOL    HW219788   6.707   6.986   4.356
 6297SOL     OW19789   4.649   6.879   5.002
 6297SOL    HW119790   4.680   6.974   5.004
 6297SOL    HW219791   4.652   6.841   5.094
 6298SOL     OW19792   1.732   3.848   6.198
 6298SOL    HW119793   1.760   3.934   6.242
 6298SOL    HW219794   1.633   3.837   6.207
 6299SOL     OW19795   6.010   2.095   6.941
 6299SOL    HW119796   6.048   2.184   6.964
 6299SOL    HW219797   5.956   2.102   6.857
 6300SOL     OW19798   5.612   0.801   4.949
 6300SOL    HW119799   5.629   0.758   4.860
 6300SOL    HW219800   5.561   0.737   5.007
 6301SOL     OW19801   2.533   0.370   0.957
 6301SOL    HW119802   2.435   0.388   0.954
 6301SOL    HW219803   2.567   0.359   0.864
 6302SOL     OW19804   1.234   1.613   4.068
 6302SOL    HW119805   1.281   1.667   4.138
 6302SOL    HW219806   1.245   1.658   3.979
 6303SOL     OW19807   2.638   0.768   4.877
 6303SOL    HW119808   2.554   0.744   4.924
 6303SOL    HW219809   2.691   0.685   4.858
 6304SOL     OW19810   2.433   1.067   1.269
 6304SOL    HW119811   2.348   1.015   1.265
 6304SOL    HW219812   2.459   1.096   1.176
 6305SOL     OW19813   5.961   6.343   0.854
 6305SOL    HW119814   6.035   6.387   0.904
 6305SOL    HW219815   5.892   6.309   0.918
 6306SOL     OW19816   0.141   3.645   4.358
 6306SOL    HW119817   0.142   3.725   4.417
 6306SOL    HW219818   0.233   3.626   4.325
 6307SOL     OW19819   3.689   4.770   6.019
 6307SOL    HW119820   3.643   4.851   6.054
 6307SOL    HW219821   3.787   4.787   6.011
 6308SOL     OW19822   1.316   1.932   5.375
 6308SOL    HW119823   1.397   1.941   5.317
 6308SOL    HW219824   1.324   1.849   5.431
 6309SOL     OW19825   4.840   4.046   4.439
 6309SOL    HW119826   4.821   4.071   4.534
 6309SOL    HW219827   4.772   4.089   4.379
 6310SOL     OW19828   2.039   4.967   4.181
 6310SOL    HW119829   1.996   4.924   4.261
 6310SOL    HW219830   2.111   5.029   4.212
 6311SOL     OW19831   6.378   0.928   5.378
 6311SOL    HW119832   6.364   1.012   5.430
 6311SOL    HW219833   6.437   0.946   5.300
 6312SOL     OW19834   4.792   5.228   5.681
 6312SOL    HW119835   4.805   5.160   5.608
 6312SOL    HW219836   4.695   5.249   5.690
 6313SOL     OW19837   1.763   5.848   3.336
 6313SOL    HW119838   1.731   5.755   3.356
 6313SOL    HW219839   1.861   5.854   3.352
 6314SOL     OW19840   3.406   6.953   1.897
 6314SOL    HW119841   3.447   6.862   1.903
 6314SOL    HW219842   3.349   6.958   1.815
 6315SOL     OW19843   3.856   2.349   6.683
 6315SOL    HW119844   3.924   2.390   6.622
 6315SOL    HW219845   3.765   2.386   6.661
 6316SOL     OW19846   4.600   2.599   6.308
 6316SOL    HW119847   4.509   2.618   6.343
 6316SOL    HW219848   4.616   2.500   6.308
 6317SOL     OW19849   5.428   6.517   3.176
 6317SOL    HW119850   5.466   6.604   3.144
 6317SOL    HW219851   5.452   6.503   3.272
 6318SOL     OW19852   2.765   2.394   5.359
 6318SOL    HW119853   2.811   2.335   5.294
 6318SOL    HW219854   2.728   2.338   5.434
 6319SOL     OW19855   0.276   2.872   3.736
 6319SOL    HW119856   0.300   2.820   3.817
 6319SOL    HW219857   0.343   2.856   3.664
 6320SOL     OW19858   5.742   4.461   3.778
 6320SOL    HW119859   5.654   4.415   3.765
 6320SOL    HW219860   5.816   4.394   3.774
 6321SOL     OW19861   3.196   5.315   1.335
 6321SOL    HW119862   3.118   5.252   1.332
 6321SOL    HW219863   3.266   5.284   1.271
 6322SOL     OW19864   1.770   1.894   6.184
 6322SOL    HW119865   1.712   1.880   6.103
 6322SOL    HW219866   1.713   1.892   6.266
 6323SOL     OW19867   3.449   2.456   1.581
 6323SOL    HW119868   3.474   2.436   1.486
 6323SOL    HW219869   3.520   2.512   1.623
 6324SOL     OW19870   4.760   0.916   6.088
 6324SOL    HW119871   4.837   0.977   6.108
 6324SOL    HW219872   4.736   0.922   5.991
 6325SOL     OW19873   1.202   2.163   1.471
 6325SOL    HW119874   1.263   2.242   1.463
 6325SOL    HW219875   1.188   2.122   1.380
 6326SOL     OW19876   5.437   5.901   1.446
 6326SOL    HW119877   5.491   5.823   1.479
 6326SOL    HW219878   5.499   5.971   1.411
 6327SOL     OW19879   0.010   0.459   4.979
 6327SOL    HW119880   0.061   0.530   4.933
 6327SOL    HW219881   0.036   0.456   5.076
 6328SOL     OW19882   2.463   3.667   7.018
 6328SOL    HW119883   2.436   3.571   7.025
 6328SOL    HW219884   2.562   3.673   7.001
 6329SOL     OW19885   1.201   2.343   3.573
 6329SOL    HW119886   1.208   2.282   3.652
 6329SOL    HW219887   1.275   2.324   3.509
 6330SOL     OW19888   5.133   0.918   0.962
 6330SOL    HW119889   5.173   1.007   0.983
 6330SOL    HW219890   5.201   0.846   0.976
 6331SOL     OW19891   6.324   2.847   0.861
 6331SOL    HW119892   6.379   2.777   0.907
 6331SOL    HW219893   6.370   2.935   0.867
 6332SOL     OW19894   6.195   4.840   2.149
 6332SOL    HW119895   6.289   4.855   2.119
 6332SOL    HW219896   6.134   4.900   2.098
 6333SOL     OW19897   4.035   5.017   3.762
 6333SOL    HW119898   4.111   5.078   3.785
 6333SOL    HW219899   4.019   4.954   3.838
 6334SOL     OW19900   2.022   6.954   2.691
 6334SOL    HW119901   1.926   6.975   2.709
 6334SOL    HW219902   2.029   6.891   2.614
 6335SOL     OW19903   5.773   1.726   0.379
 6335SOL    HW119904   5.727   1.639   0.364
 6335SOL    HW219905   5.770   1.781   0.295
 6336SOL     OW19906   0.077   2.107   5.073
 6336SOL    HW119907   7.026   2.048   5.052
 6336SOL    HW219908   0.085   2.118   5.172
 6337SOL     OW19909   4.704   3.662   6.165
 6337SOL    HW119910   4.687   3.744   6.111
 6337SOL    HW219911   4.620   3.634   6.211
 6338SOL     OW19912   2.663   2.261   2.291
 6338SOL    HW119913   2.761   2.242   2.283
 6338SOL    HW219914   2.628   2.290   2.202
 6339SOL     OW19915   0.374   2.503   3.764
 6339SOL    HW119916   0.349   2.492   3.668
 6339SOL    HW219917   0.471   2.529   3.769
 6340SOL     OW19918   2.816   5.702   3.304
 6340SOL    HW119919   2.776   5.641   3.372
 6340SOL    HW219920   2.897   5.746   3.342
 6341SOL     OW19921   6.698   4.824   3.740
 6341SOL    HW119922   6.744   4.810   3.652
 6341SOL    HW219923   6.766   4.820   3.814
 6342SOL     OW19924   2.287   1.831   1.632
 6342SOL    HW119925   2.253   1.886   1.556
 6342SOL    HW219926   2.341   1.889   1.693
 6343SOL     OW19927   4.869   2.754   6.733
 6343SOL    HW119928   4.834   2.711   6.815
 6343SOL    HW219929   4.923   2.688   6.680
 6344SOL     OW19930   6.573   3.688   5.943
 6344SOL    HW119931   6.509   3.764   5.934
 6344SOL    HW219932   6.532   3.606   5.901
 6345SOL     OW19933   4.361   1.066   1.886
 6345SOL    HW119934   4.266   1.048   1.863
 6345SOL    HW219935   4.409   1.099   1.804
 6346SOL     OW19936   6.597   3.652   3.661
 6346SOL    HW119937   6.528   3.653   3.588
 6346SOL    HW219938   6.669   3.718   3.639
 6347SOL     OW19939   3.174   0.706   1.701
 6347SOL    HW119940   3.192   0.674   1.794
 6347SOL    HW219941   3.132   0.798   1.705
 6348SOL     OW19942   0.956   4.088   5.395
 6348SOL    HW119943   0.936   4.059   5.302
 6348SOL    HW219944   0.871   4.108   5.444
 6349SOL     OW19945   2.644   0.810   1.809
 6349SOL    HW119946   2.665   0.712   1.809
 6349SOL    HW219947   2.724   0.862   1.777
 6350SOL     OW19948   2.063   5.142   3.590
 6350SOL    HW119949   1.980   5.102   3.627
 6350SOL    HW219950   2.057   5.146   3.490
 6351SOL     OW19951   6.609   2.587   2.025
 6351SOL    HW119952   6.677   2.604   2.095
 6351SOL    HW219953   6.525   2.635   2.047
 6352SOL     OW19954   1.607   5.635   4.273
 6352SOL    HW119955   1.618   5.633   4.173
 6352SOL    HW219956   1.690   5.673   4.314
 6353SOL     OW19957   6.495   0.445   6.552
 6353SOL    HW119958   6.477   0.384   6.475
 6353SOL    HW219959   6.592   0.442   6.576
 6354SOL     OW19960   1.095   6.935   2.367
 6354SOL    HW119961   1.095   6.990   2.451
 6354SOL    HW219962   1.022   6.868   2.372
 6355SOL     OW19963   0.702   4.321   5.230
 6355SOL    HW119964   0.798   4.332   5.255
 6355SOL    HW219965   0.677   4.224   5.233
 6356SOL     OW19966   5.068   4.913   2.029
 6356SOL    HW119967   5.033   4.996   2.072
 6356SOL    HW219968   5.118   4.858   2.097
 6357SOL     OW19969   5.024   2.693   1.179
 6357SOL    HW119970   5.018   2.783   1.223
 6357SOL    HW219971   4.957   2.632   1.221
 6358SOL     OW19972   0.450   2.151   4.754
 6358SOL    HW119973   0.358   2.128   4.787
 6358SOL    HW219974   0.517   2.100   4.809
 6359SOL     OW19975   6.608   0.533   5.537
 6359SOL    HW119976   6.667   0.504   5.461
 6359SOL    HW219977   6.579   0.628   5.522
 6360SOL     OW19978   2.294   4.351   4.147
 6360SOL    HW119979   2.255   4.442   4.165
 6360SOL    HW219980   2.318   4.308   4.234
 6361SOL     OW19981   5.519   6.976   7.009
 6361SOL    HW119982   5.445   6.934   0.032
 6361SOL    HW219983   5.488   0.033   6.966
 6362SOL     OW19984   5.871   5.152   0.133
 6362SOL    HW119985   5.775   5.132   0.150
 6362SOL    HW219986   5.901   5.228   0.191
 6363SOL     OW19987   2.310   5.376   3.526
 6363SOL    HW119988   2.265   5.331   3.448
 6363SOL    HW219989   2.277   5.335   3.611
 6364SOL     OW19990   2.750   1.323   5.890
 6364SOL    HW119991   2.792   1.304   5.801
 6364SOL    HW219992   2.669   1.380   5.877
 6365SOL     OW19993   4.513   0.086   4.349
 6365SOL    HW119994   4.601   0.049   4.318
 6365SOL    HW219995   4.516   0.102   4.447
 6366SOL     OW19996   0.468   6.225   5.553
 6366SOL    HW119997   0.443   6.237   5.457
 6366SOL    HW219998   0.453   6.130   5.581
 6367SOL     OW19999   4.740   0.524   4.142
 6367SOL    HW120000   4.713   0.452   4.078
 6367SOL    HW220001   4.687   0.516   4.226
 6368SOL     OW20002   2.764   0.279   3.837
 6368SOL    HW120003   2.779   0.355   3.901
 6368SOL    HW220004   2.810   0.297   3.751
 6369SOL     OW20005   3.567   4.956   4.396
 6369SOL    HW120006   3.517   4.959   4.483
 6369SOL    HW220007   3.502   4.945   4.321
 6370SOL     OW20008   1.291   2.255   2.657
 6370SOL    HW120009   1.305   2.303   2.571
 6370SOL    HW220010   1.371   2.198   2.677
 6371SOL     OW20011   4.891   3.288   3.852
 6371SOL    HW120012   4.846   3.338   3.925
 6371SOL    HW220013   4.872   3.190   3.861
 6372SOL     OW20014   2.860   6.919   1.734
 6372SOL    HW120015   2.923   6.922   1.656
 6372SOL    HW220016   2.804   7.001   1.734
 6373SOL     OW20017   6.041   4.602   4.254
 6373SOL    HW120018   5.977   4.563   4.320
 6373SOL    HW220019   6.003   4.592   4.162
 6374SOL     OW20020   2.892   3.544   3.841
 6374SOL    HW120021   2.876   3.547   3.939
 6374SOL    HW220022   2.902   3.449   3.812
 6375SOL     OW20023   1.078   1.286   3.098
 6375SOL    HW120024   1.051   1.190   3.089
 6375SOL    HW220025   1.158   1.293   3.157
 6376SOL     OW20026   6.548   1.829   5.047
 6376SOL    HW120027   6.502   1.910   5.082
 6376SOL    HW220028   6.493   1.787   4.975
 6377SOL     OW20029   6.613   1.065   6.387
 6377SOL    HW120030   6.560   0.981   6.382
 6377SOL    HW220031   6.581   1.129   6.316
 6378SOL     OW20032   5.365   4.897   2.898
 6378SOL    HW120033   5.272   4.933   2.905
 6378SOL    HW220034   5.409   4.899   2.988
 6379SOL     OW20035   2.418   4.923   4.676
 6379SOL    HW120036   2.375   4.873   4.751
 6379SOL    HW220037   2.423   5.020   4.700
 6380SOL     OW20038   0.964   1.596   5.423
 6380SOL    HW120039   0.906   1.514   5.413
 6380SOL    HW220040   1.038   1.577   5.487
 6381SOL     OW20041   3.447   3.065   2.709
 6381SOL    HW120042   3.428   3.160   2.735
 6381SOL    HW220043   3.487   3.017   2.788
 6382SOL     OW20044   1.420   2.660   0.159
 6382SOL    HW120045   1.349   2.728   0.180
 6382SOL    HW220046   1.437   2.659   0.060
 6383SOL     OW20047   2.041   2.043   3.407
 6383SOL    HW120048   2.022   2.125   3.353
 6383SOL    HW220049   2.100   2.068   3.485
 6384SOL     OW20050   5.863   4.583   1.872
 6384SOL    HW120051   5.787   4.628   1.919
 6384SOL    HW220052   5.949   4.607   1.917
 6385SOL     OW20053   5.852   5.079   4.526
 6385SOL    HW120054   5.838   5.075   4.427
 6385SOL    HW220055   5.946   5.053   4.548
 6386SOL     OW20056   2.664   4.315   0.332
 6386SOL    HW120057   2.758   4.348   0.341
 6386SOL    HW220058   2.657   4.223   0.372
 6387SOL     OW20059   1.174   2.009   5.991
 6387SOL    HW120060   1.192   2.091   5.937
 6387SOL    HW220061   1.130   1.939   5.934
 6388SOL     OW20062   4.248   4.550   1.343
 6388SOL    HW120063   4.166   4.576   1.395
 6388SOL    HW220064   4.284   4.464   1.380
 6389SOL     OW20065   1.049   5.984   1.969
 6389SOL    HW120066   0.973   5.998   2.032
 6389SOL    HW220067   1.080   6.072   1.934
 6390SOL     OW20068   0.470   2.835   3.551
 6390SOL    HW120069   0.515   2.849   3.463
 6390SOL    HW220070   0.539   2.829   3.623
 6391SOL     OW20071   2.839   0.894   6.796
 6391SOL    HW120072   2.884   0.981   6.812
 6391SOL    HW220073   2.906   0.820   6.802
 6392SOL     OW20074   2.474   6.731   3.678
 6392SOL    HW120075   2.560   6.744   3.726
 6392SOL    HW220076   2.398   6.756   3.738
 6393SOL     OW20077   5.949   6.476   1.722
 6393SOL    HW120078   5.889   6.554   1.739
 6393SOL    HW220079   6.009   6.463   1.802
 6394SOL     OW20080   2.627   4.856   1.048
 6394SOL    HW120081   2.528   4.868   1.041
 6394SOL    HW220082   2.671   4.945   1.059
 6395SOL     OW20083   5.898   1.981   1.697
 6395SOL    HW120084   5.840   2.059   1.678
 6395SOL    HW220085   5.968   1.973   1.626
 6396SOL     OW20086   5.831   2.955   6.297
 6396SOL    HW120087   5.827   2.986   6.202
 6396SOL    HW220088   5.827   3.034   6.358
 6397SOL     OW20089   6.367   2.123   6.887
 6397SOL    HW120090   6.360   2.027   6.916
 6397SOL    HW220091   6.296   2.142   6.819
 6398SOL     OW20092   3.403   1.082   0.893
 6398SOL    HW120093   3.461   1.042   0.822
 6398SOL    HW220094   3.439   1.057   0.983
 6399SOL     OW20095   1.714   5.229   6.133
 6399SOL    HW120096   1.787   5.163   6.119
 6399SOL    HW220097   1.739   5.291   6.208
 6400SOL     OW20098   2.330   5.622   3.155
 6400SOL    HW120099   2.295   5.664   3.071
 6400SOL    HW220100   2.382   5.540   3.132
 6401SOL     OW20101   6.839   4.802   3.381
 6401SOL    HW120102   6.874   4.814   3.288
 6401SOL    HW220103   6.875   4.717   3.420
 6402SOL     OW20104   2.718   0.504   3.198
 6402SOL    HW120105   2.659   0.577   3.231
 6402SOL    HW220106   2.800   0.543   3.156
 6403SOL     OW20107   0.892   5.614   6.277
 6403SOL    HW120108   0.899   5.537   6.340
 6403SOL    HW220109   0.863   5.696   6.328
 6404SOL     OW20110   4.158   1.380   3.452
 6404SOL    HW120111   4.257   1.378   3.436
 6404SOL    HW220112   4.113   1.312   3.395
 6405SOL     OW20113   1.987   1.421   2.819
 6405SOL    HW120114   1.926   1.363   2.873
 6405SOL    HW220115   2.056   1.364   2.775
 6406SOL     OW20116   1.480   2.378   3.717
 6406SOL    HW120117   1.391   2.416   3.744
 6406SOL    HW220118   1.548   2.399   3.787
 6407SOL     OW20119   2.902   6.598   3.707
 6407SOL    HW120120   2.875   6.535   3.634
 6407SOL    HW220121   3.001   6.591   3.722
 6408SOL     OW20122   6.187   2.751   0.227
 6408SOL    HW120123   6.284   2.762   0.205
 6408SOL    HW220124   6.149   2.676   0.174
 6409SOL     OW20125   6.517   4.167   3.340
 6409SOL    HW120126   6.526   4.123   3.251
 6409SOL    HW220127   6.460   4.249   3.331
 6410SOL     OW20128   1.657   1.885   0.518
 6410SOL    HW120129   1.608   1.832   0.588
 6410SOL    HW220130   1.750   1.850   0.510
 6411SOL     OW20131   0.346   2.392   3.161
 6411SOL    HW120132   0.324   2.474   3.108
 6411SOL    HW220133   0.438   2.361   3.137
 6412SOL     OW20134   0.093   3.455   5.528
 6412SOL    HW120135   0.155   3.379   5.552
 6412SOL    HW220136   0.089   3.464   5.428
 6413SOL     OW20137   5.645   4.469   2.177
 6413SOL    HW120138   5.630   4.398   2.246
 6413SOL    HW220139   5.562   4.481   2.122
 6414SOL     OW20140   5.751   0.618   1.716
 6414SOL    HW120141   5.706   0.707   1.720
 6414SOL    HW220142   5.778   0.598   1.621
 6415SOL     OW20143   3.140   1.917   2.846
 6415SOL    HW120144   3.201   1.885   2.918
 6415SOL    HW220145   3.112   1.839   2.790
 6416SOL     OW20146   1.066   0.717   6.258
 6416SOL    HW120147   1.098   0.714   6.353
 6416SOL    HW220148   1.128   0.774   6.204
 6417SOL     OW20149   1.007   5.270   3.479
 6417SOL    HW120150   0.935   5.232   3.538
 6417SOL    HW220151   0.975   5.269   3.384
 6418SOL     OW20152   6.394   5.061   2.291
 6418SOL    HW120153   6.401   4.961   2.287
 6418SOL    HW220154   6.474   5.099   2.337
 6419SOL     OW20155   3.369   5.407   2.012
 6419SOL    HW120156   3.340   5.320   1.973
 6419SOL    HW220157   3.426   5.456   1.947
 6420SOL     OW20158   3.352   3.623   6.459
 6420SOL    HW120159   3.342   3.627   6.558
 6420SOL    HW220160   3.279   3.675   6.415
 6421SOL     OW20161   6.380   1.721   1.282
 6421SOL    HW120162   6.370   1.719   1.381
 6421SOL    HW220163   6.409   1.812   1.253
 6422SOL     OW20164   6.788   6.889   3.672
 6422SOL    HW120165   6.736   6.953   3.730
 6422SOL    HW220166   6.886   6.906   3.685
 6423SOL     OW20167   4.755   4.298   1.951
 6423SOL    HW120168   4.655   4.302   1.951
 6423SOL    HW220169   4.792   4.389   1.972
 6424SOL     OW20170   6.462   4.631   6.049
 6424SOL    HW120171   6.467   4.724   6.013
 6424SOL    HW220172   6.459   4.567   5.972
 6425SOL     OW20173   6.815   5.127   4.065
 6425SOL    HW120174   6.848   5.039   4.100
 6425SOL    HW220175   6.755   5.112   3.987
 6426SOL     OW20176   0.405   3.531   3.713
 6426SOL    HW120177   0.390   3.512   3.810
 6426SOL    HW220178   0.498   3.564   3.700
 6427SOL     OW20179   1.650   3.530   6.728
 6427SOL    HW120180   1.726   3.572   6.678
 6427SOL    HW220181   1.661   3.548   6.826
 6428SOL     OW20182   6.716   3.721   1.040
 6428SOL    HW120183   6.721   3.757   1.133
 6428SOL    HW220184   6.621   3.699   1.018
 6429SOL     OW20185   0.856   0.921   4.821
 6429SOL    HW120186   0.859   1.018   4.796
 6429SOL    HW220187   0.945   0.894   4.857
 6430SOL     OW20188   4.638   0.859   1.649
 6430SOL    HW120189   4.669   0.928   1.714
 6430SOL    HW220190   4.541   0.840   1.665
 6431SOL     OW20191   5.977   0.074   3.574
 6431SOL    HW120192   6.049   0.143   3.577
 6431SOL    HW220193   6.017   7.010   3.583
 6432SOL     OW20194   4.605   4.359   0.302
 6432SOL    HW120195   4.509   4.357   0.331
 6432SOL    HW220196   4.636   4.454   0.298
 6433SOL     OW20197   3.116   4.536   1.055
 6433SOL    HW120198   3.037   4.504   1.002
 6433SOL    HW220199   3.155   4.460   1.107
 6434SOL     OW20200   1.376   3.872   1.381
 6434SOL    HW120201   1.412   3.785   1.413
 6434SOL    HW220202   1.361   3.933   1.459
 6435SOL     OW20203   3.694   5.063   6.960
 6435SOL    HW120204   3.621   5.035   6.899
 6435SOL    HW220205   3.763   4.990   6.966
 6436SOL     OW20206   2.184   3.205   3.998
 6436SOL    HW120207   2.120   3.281   3.985
 6436SOL    HW220208   2.185   3.178   4.094
 6437SOL     OW20209   1.739   1.597   0.447
 6437SOL    HW120210   1.835   1.582   0.470
 6437SOL    HW220211   1.681   1.551   0.515
 6438SOL     OW20212   0.055   4.490   5.395
 6438SOL    HW120213   0.146   4.533   5.401
 6438SOL    HW220214   0.050   4.434   5.313
 6439SOL     OW20215   0.752   6.770   0.678
 6439SOL    HW120216   0.832   6.828   0.695
 6439SOL    HW220217   0.766   6.718   0.594
 6440SOL     OW20218   2.266   1.580   1.750
 6440SOL    HW120219   2.283   1.678   1.737
 6440SOL    HW220220   2.352   1.534   1.770
 6441SOL     OW20221   1.054   0.123   2.513
 6441SOL    HW120222   1.012   0.162   2.431
 6441SOL    HW220223   0.982   0.097   2.577
 6442SOL     OW20224   2.102   1.673   3.635
 6442SOL    HW120225   2.061   1.643   3.549
 6442SOL    HW220226   2.047   1.747   3.674
 6443SOL     OW20227   3.399   2.918   0.973
 6443SOL    HW120228   3.395   2.914   1.073
 6443SOL    HW220229   3.319   2.874   0.935
 6444SOL     OW20230   0.383   2.412   3.431
 6444SOL    HW120231   0.483   2.405   3.428
 6444SOL    HW220232   0.343   2.350   3.363
 6445SOL     OW20233   4.623   2.667   5.491
 6445SOL    HW120234   4.547   2.676   5.427
 6445SOL    HW220235   4.587   2.666   5.585
 6446SOL     OW20236   0.011   1.694   6.180
 6446SOL    HW120237   0.078   1.692   6.106
 6446SOL    HW220238   7.014   1.600   6.205
 6447SOL     OW20239   0.419   6.194   2.584
 6447SOL    HW120240   0.494   6.152   2.533
 6447SOL    HW220241   0.454   6.232   2.669
 6448SOL     OW20242   6.362   3.983   2.348
 6448SOL    HW120243   6.451   4.012   2.385
 6448SOL    HW220244   6.288   4.024   2.401
 6449SOL     OW20245   3.880   4.404   1.649
 6449SOL    HW120246   3.792   4.451   1.654
 6449SOL    HW220247   3.951   4.469   1.620
 6450SOL     OW20248   6.973   3.209   1.568
 6450SOL    HW120249   6.886   3.258   1.555
 6450SOL    HW220250   6.957   3.128   1.624
 6451SOL     OW20251   3.176   6.594   5.655
 6451SOL    HW120252   3.109   6.520   5.646
 6451SOL    HW220253   3.132   6.673   5.700
 6452SOL     OW20254   3.690   6.700   4.999
 6452SOL    HW120255   3.607   6.644   5.007
 6452SOL    HW220256   3.677   6.769   4.929
 6453SOL     OW20257   1.866   6.817   6.574
 6453SOL    HW120258   1.948   6.763   6.553
 6453SOL    HW220259   1.805   6.765   6.633
 6454SOL     OW20260   3.153   1.351   3.751
 6454SOL    HW120261   3.088   1.422   3.779
 6454SOL    HW220262   3.163   1.284   3.824
 6455SOL     OW20263   0.942   2.753   4.321
 6455SOL    HW120264   0.893   2.672   4.354
 6455SOL    HW220265   0.987   2.798   4.397
 6456SOL     OW20266   1.307   0.817   3.566
 6456SOL    HW120267   1.380   0.820   3.498
 6456SOL    HW220268   1.314   0.733   3.620
 6457SOL     OW20269   5.434   1.531   0.815
 6457SOL    HW120270   5.380   1.510   0.733
 6457SOL    HW220271   5.453   1.629   0.818
 6458SOL     OW20272   0.771   6.215   2.646
 6458SOL    HW120273   0.854   6.176   2.686
 6458SOL    HW220274   0.717   6.259   2.718
 6459SOL     OW20275   5.414   5.795   0.612
 6459SOL    HW120276   5.440   5.713   0.561
 6459SOL    HW220277   5.478   5.809   0.687
 6460SOL     OW20278   4.265   5.287   6.077
 6460SOL    HW120279   4.222   5.217   6.020
 6460SOL    HW220280   4.283   5.368   6.021
 6461SOL     OW20281   3.083   5.598   5.137
 6461SOL    HW120282   3.007   5.541   5.108
 6461SOL    HW220283   3.166   5.542   5.143
 6462SOL     OW20284   2.140   3.033   5.155
 6462SOL    HW120285   2.226   3.033   5.103
 6462SOL    HW220286   2.158   3.011   5.251
 6463SOL     OW20287   2.123   4.334   6.531
 6463SOL    HW120288   2.116   4.385   6.617
 6463SOL    HW220289   2.167   4.246   6.547
 6464SOL     OW20290   1.157   4.504   4.392
 6464SOL    HW120291   1.224   4.457   4.450
 6464SOL    HW220292   1.204   4.564   4.328
 6465SOL     OW20293   5.695   2.701   3.837
 6465SOL    HW120294   5.620   2.649   3.796
 6465SOL    HW220295   5.689   2.797   3.809
 6466SOL     OW20296   0.201   2.342   5.157
 6466SOL    HW120297   0.269   2.385   5.097
 6466SOL    HW220298   0.160   2.264   5.110
 6467SOL     OW20299   2.435   1.309   6.925
 6467SOL    HW120300   2.468   1.393   6.881
 6467SOL    HW220301   2.465   1.308   7.020
 6468SOL     OW20302   4.030   5.916   1.398
 6468SOL    HW120303   3.970   5.836   1.394
 6468SOL    HW220304   4.012   5.967   1.482
 6469SOL     OW20305   5.392   0.907   5.658
 6469SOL    HW120306   5.416   0.831   5.598
 6469SOL    HW220307   5.472   0.965   5.673
 6470SOL     OW20308   6.345   5.069   6.249
 6470SOL    HW120309   6.305   5.002   6.186
 6470SOL    HW220310   6.334   5.161   6.211
 6471SOL     OW20311   6.350   5.582   5.871
 6471SOL    HW120312   6.342   5.655   5.803
 6471SOL    HW220313   6.317   5.496   5.832
 6472SOL     OW20314   0.493   5.285   0.980
 6472SOL    HW120315   0.471   5.377   1.014
 6472SOL    HW220316   0.546   5.236   1.049
 6473SOL     OW20317   2.034   1.724   5.703
 6473SOL    HW120318   2.066   1.810   5.742
 6473SOL    HW220319   2.093   1.649   5.732
 6474SOL     OW20320   1.594   4.153   5.837
 6474SOL    HW120321   1.496   4.132   5.841
 6474SOL    HW220322   1.627   4.143   5.743
 6475SOL     OW20323   6.022   5.962   4.251
 6475SOL    HW120324   6.101   5.902   4.239
 6475SOL    HW220325   6.030   6.040   4.187
 6476SOL     OW20326   5.135   3.777   2.101
 6476SOL    HW120327   5.209   3.768   2.168
 6476SOL    HW220328   5.050   3.741   2.141
 6477SOL     OW20329   0.086   4.913   1.282
 6477SOL    HW120330   0.006   4.884   1.229
 6477SOL    HW220331   0.064   4.911   1.380
 6478SOL     OW20332   2.822   5.913   2.402
 6478SOL    HW120333   2.825   5.855   2.321
 6478SOL    HW220334   2.894   5.883   2.466
 6479SOL     OW20335   4.209   5.275   2.435
 6479SOL    HW120336   4.300   5.306   2.463
 6479SOL    HW220337   4.173   5.213   2.504
 6480SOL     OW20338   4.155   3.087   5.727
 6480SOL    HW120339   4.115   3.007   5.773
 6480SOL    HW220340   4.084   3.135   5.676
 6481SOL     OW20341   3.404   1.952   1.793
 6481SOL    HW120342   3.396   2.047   1.761
 6481SOL    HW220343   3.420   1.892   1.715
 6482SOL     OW20344   6.865   0.822   6.555
 6482SOL    HW120345   6.797   0.815   6.482
 6482SOL    HW220346   6.953   0.785   6.523
 6483SOL     OW20347   2.515   6.169   1.913
 6483SOL    HW120348   2.483   6.109   1.840
 6483SOL    HW220349   2.444   6.175   1.984
 6484SOL     OW20350   3.478   0.056   2.478
 6484SOL    HW120351   3.498   0.039   2.381
 6484SOL    HW220352   3.398   0.002   2.505
 6485SOL     OW20353   1.490   3.261   3.301
 6485SOL    HW120354   1.532   3.260   3.391
 6485SOL    HW220355   1.392   3.241   3.309
 6486SOL     OW20356   1.241   4.563   3.769
 6486SOL    HW120357   1.217   4.656   3.743
 6486SOL    HW220358   1.298   4.522   3.698
 6487SOL     OW20359   6.274   5.753   4.990
 6487SOL    HW120360   6.297   5.827   5.054
 6487SOL    HW220361   6.259   5.792   4.899
 6488SOL     OW20362   3.210   6.232   5.224
 6488SOL    HW120363   3.178   6.138   5.214
 6488SOL    HW220364   3.134   6.289   5.257
 6489SOL     OW20365   2.097   3.181   6.412
 6489SOL    HW120366   2.188   3.223   6.406
 6489SOL    HW220367   2.095   3.116   6.487
 6490SOL     OW20368   4.128   2.385   0.190
 6490SOL    HW120369   4.148   2.452   0.119
 6490SOL    HW220370   4.210   2.332   0.210
 6491SOL     OW20371   4.072   1.052   6.833
 6491SOL    HW120372   4.145   1.001   6.788
 6491SOL    HW220373   4.070   1.146   6.797
 6492SOL     OW20374   6.030   6.235   6.717
 6492SOL    HW120375   6.008   6.171   6.791
 6492SOL    HW220376   6.123   6.271   6.731
 6493SOL     OW20377   1.260   6.283   5.213
 6493SOL    HW120378   1.332   6.215   5.224
 6493SOL    HW220379   1.277   6.360   5.274
 6494SOL     OW20380   0.701   0.434   2.958
 6494SOL    HW120381   0.797   0.409   2.972
 6494SOL    HW220382   0.652   0.428   3.045
 6495SOL     OW20383   5.252   6.026   3.973
 6495SOL    HW120384   5.318   6.003   3.901
 6495SOL    HW220385   5.299   6.070   4.049
 6496SOL     OW20386   6.814   6.249   2.022
 6496SOL    HW120387   6.869   6.195   2.085
 6496SOL    HW220388   6.845   6.233   1.929
 6497SOL     OW20389   2.614   3.030   0.548
 6497SOL    HW120390   2.522   2.998   0.572
 6497SOL    HW220391   2.674   2.952   0.535
 6498SOL     OW20392   2.236   4.860   3.873
 6498SOL    HW120393   2.225   4.954   3.839
 6498SOL    HW220394   2.266   4.862   3.968
 6499SOL     OW20395   5.003   1.072   5.188
 6499SOL    HW120396   4.905   1.077   5.209
 6499SOL    HW220397   5.038   0.981   5.211
 6500SOL     OW20398   6.418   4.397   3.541
 6500SOL    HW120399   6.489   4.458   3.575
 6500SOL    HW220400   6.427   4.308   3.587
 6501SOL     OW20401   6.491   3.112   0.812
 6501SOL    HW120402   6.556   3.125   0.737
 6501SOL    HW220403   6.447   3.199   0.834
 6502SOL     OW20404   0.155   4.132   3.521
 6502SOL    HW120405   0.165   4.186   3.604
 6502SOL    HW220406   0.243   4.125   3.474
 6503SOL     OW20407   6.127   6.846   3.576
 6503SOL    HW120408   6.192   6.888   3.639
 6503SOL    HW220409   6.175   6.783   3.515
 6504SOL     OW20410   4.148   6.723   6.631
 6504SOL    HW120411   4.199   6.643   6.599
 6504SOL    HW220412   4.118   6.777   6.552
 6505SOL     OW20413   6.399   4.725   1.048
 6505SOL    HW120414   6.438   4.645   1.001
 6505SOL    HW220415   6.464   4.758   1.116
 6506SOL     OW20416   0.739   2.877   0.873
 6506SOL    HW120417   0.696   2.849   0.787
 6506SOL    HW220418   0.806   2.949   0.855
 6507SOL     OW20419   1.341   5.957   0.018
 6507SOL    HW120420   1.439   5.975   0.018
 6507SOL    HW220421   1.323   5.866   7.010
 6508SOL     OW20422   2.306   1.643   3.362
 6508SOL    HW120423   2.316   1.719   3.426
 6508SOL    HW220424   2.264   1.676   3.277
 6509SOL     OW20425   1.835   2.578   4.765
 6509SOL    HW120426   1.772   2.641   4.720
 6509SOL    HW220427   1.795   2.548   4.852
 6510SOL     OW20428   0.390   5.252   6.661
 6510SOL    HW120429   0.448   5.184   6.615
 6510SOL    HW220430   0.371   5.221   6.754
 6511SOL     OW20431   6.065   0.214   4.375
 6511SOL    HW120432   6.001   0.172   4.311
 6511SOL    HW220433   6.090   0.305   4.341
 6512SOL     OW20434   4.549   0.410   2.846
 6512SOL    HW120435   4.581   0.503   2.826
 6512SOL    HW220436   4.494   0.411   2.930
 6513SOL     OW20437   3.589   6.451   4.059
 6513SOL    HW120438   3.561   6.357   4.037
 6513SOL    HW220439   3.520   6.515   4.025
 6514SOL     OW20440   5.553   6.941   3.498
 6514SOL    HW120441   5.481   6.873   3.503
 6514SOL    HW220442   5.570   6.979   3.589
 6515SOL     OW20443   0.195   5.004   4.271
 6515SOL    HW120444   0.171   5.044   4.182
 6515SOL    HW220445   0.257   4.927   4.257
 6516SOL     OW20446   0.226   1.888   6.836
 6516SOL    HW120447   0.309   1.839   6.862
 6516SOL    HW220448   0.194   1.855   6.747
 6517SOL     OW20449   6.669   1.810   0.589
 6517SOL    HW120450   6.719   1.747   0.649
 6517SOL    HW220451   6.722   1.825   0.506
 6518SOL     OW20452   0.940   6.430   0.306
 6518SOL    HW120453   0.958   6.336   0.277
 6518SOL    HW220454   1.008   6.491   0.265
 6519SOL     OW20455   2.490   1.908   3.756
 6519SOL    HW120456   2.575   1.921   3.705
 6519SOL    HW220457   2.414   1.896   3.692
 6520SOL     OW20458   6.052   5.465   3.443
 6520SOL    HW120459   6.104   5.420   3.515
 6520SOL    HW220460   6.114   5.518   3.385
 6521SOL     OW20461   0.888   1.165   4.708
 6521SOL    HW120462   0.934   1.253   4.699
 6521SOL    HW220463   0.905   1.111   4.626
 6522SOL     OW20464   3.137   5.232   6.746
 6522SOL    HW120465   3.161   5.327   6.729
 6522SOL    HW220466   3.062   5.205   6.685
 6523SOL     OW20467   2.891   1.761   6.747
 6523SOL    HW120468   2.958   1.708   6.798
 6523SOL    HW220469   2.897   1.740   6.650
 6524SOL     OW20470   3.303   2.920   3.692
 6524SOL    HW120471   3.334   2.920   3.788
 6524SOL    HW220472   3.212   2.961   3.687
 6525SOL     OW20473   1.985   2.789   2.751
 6525SOL    HW120474   1.937   2.865   2.796
 6525SOL    HW220475   1.924   2.746   2.685
 6526SOL     OW20476   0.603   6.655   5.064
 6526SOL    HW120477   0.555   6.652   5.152
 6526SOL    HW220478   0.586   6.743   5.020
 6527SOL     OW20479   0.798   1.404   5.011
 6527SOL    HW120480   0.707   1.373   4.985
 6527SOL    HW220481   0.844   1.334   5.065
 6528SOL     OW20482   0.057   0.875   3.852
 6528SOL    HW120483   0.013   0.813   3.787
 6528SOL    HW220484   0.084   0.824   3.934
 6529SOL     OW20485   6.206   1.875   3.365
 6529SOL    HW120486   6.234   1.963   3.403
 6529SOL    HW220487   6.285   1.814   3.363
 6530SOL     OW20488   6.769   3.387   0.719
 6530SOL    HW120489   6.860   3.349   0.735
 6530SOL    HW220490   6.716   3.325   0.661
 6531SOL     OW20491   5.476   3.112   4.224
 6531SOL    HW120492   5.439   3.130   4.315
 6531SOL    HW220493   5.476   3.013   4.207
 6532SOL     OW20494   5.725   1.692   0.708
 6532SOL    HW120495   5.654   1.746   0.663
 6532SOL    HW220496   5.804   1.750   0.728
 6533SOL     OW20497   5.366   6.267   1.524
 6533SOL    HW120498   5.421   6.252   1.605
 6533SOL    HW220499   5.302   6.342   1.540
 6534SOL     OW20500   2.466   3.659   1.115
 6534SOL    HW120501   2.557   3.672   1.075
 6534SOL    HW220502   2.469   3.683   1.212
 6535SOL     OW20503   0.371   2.698   4.836
 6535SOL    HW120504   0.374   2.771   4.768
 6535SOL    HW220505   0.287   2.705   4.889
 6536SOL     OW20506   6.572   3.044   6.550
 6536SOL    HW120507   6.475   3.019   6.541
 6536SOL    HW220508   6.620   2.970   6.597
 6537SOL     OW20509   6.507   6.297   7.019
 6537SOL    HW120510   6.577   6.337   6.961
 6537SOL    HW220511   6.424   6.353   7.014
 6538SOL     OW20512   4.074   4.351   0.392
 6538SOL    HW120513   4.011   4.313   0.324
 6538SOL    HW220514   4.112   4.277   0.447
 6539SOL     OW20515   2.369   2.005   6.190
 6539SOL    HW120516   2.273   1.978   6.198
 6539SOL    HW220517   2.406   2.023   6.281
 6540SOL     OW20518   3.609   1.743   4.358
 6540SOL    HW120519   3.678   1.734   4.286
 6540SOL    HW220520   3.607   1.837   4.392
 6541SOL     OW20521   3.012   2.122   4.846
 6541SOL    HW120522   2.922   2.163   4.833
 6541SOL    HW220523   3.054   2.158   4.929
 6542SOL     OW20524   6.323   4.524   2.754
 6542SOL    HW120525   6.327   4.583   2.835
 6542SOL    HW220526   6.309   4.580   2.673
 6543SOL     OW20527   6.338   5.461   0.138
 6543SOL    HW120528   6.378   5.516   0.211
 6543SOL    HW220529   6.345   5.364   0.162
 6544SOL     OW20530   0.377   6.087   3.960
 6544SOL    HW120531   0.357   6.132   3.873
 6544SOL    HW220532   0.468   6.114   3.991
 6545SOL     OW20533   4.932   1.867   5.967
 6545SOL    HW120534   4.833   1.879   5.970
 6545SOL    HW220535   4.954   1.786   5.912
 6546SOL     OW20536   4.599   4.251   6.343
 6546SOL    HW120537   4.509   4.288   6.368
 6546SOL    HW220538   4.623   4.282   6.251
 6547SOL     OW20539   4.240   1.636   5.689
 6547SOL    HW120540   4.249   1.678   5.780
 6547SOL    HW220541   4.146   1.649   5.656
 6548SOL     OW20542   0.944   4.359   6.571
 6548SOL    HW120543   0.852   4.395   6.560
 6548SOL    HW220544   0.967   4.351   6.668
 6549SOL     OW20545   3.710   1.249   1.241
 6549SOL    HW120546   3.643   1.185   1.278
 6549SOL    HW220547   3.753   1.210   1.159
 6550SOL     OW20548   0.379   6.182   3.407
 6550SOL    HW120549   0.477   6.168   3.415
 6550SOL    HW220550   0.339   6.111   3.349
 6551SOL     OW20551   1.791   4.229   2.229
 6551SOL    HW120552   1.876   4.276   2.203
 6551SOL    HW220553   1.811   4.134   2.253
 6552SOL     OW20554   2.366   5.801   4.996
 6552SOL    HW120555   2.365   5.702   4.985
 6552SOL    HW220556   2.416   5.825   5.079
 6553SOL     OW20557   0.129   2.763   1.157
 6553SOL    HW120558   0.063   2.824   1.201
 6553SOL    HW220559   0.200   2.738   1.222
 6554SOL     OW20560   5.814   1.572   5.822
 6554SOL    HW120561   5.886   1.628   5.780
 6554SOL    HW220562   5.747   1.632   5.866
 6555SOL     OW20563   2.244   0.817   2.170
 6555SOL    HW120564   2.331   0.865   2.162
 6555SOL    HW220565   2.237   0.748   2.098
 6556SOL     OW20566   4.714   4.634   4.929
 6556SOL    HW120567   4.811   4.628   4.907
 6556SOL    HW220568   4.673   4.711   4.879
 6557SOL     OW20569   5.525   5.892   0.843
 6557SOL    HW120570   5.594   5.954   0.880
 6557SOL    HW220571   5.434   5.930   0.860
 6558SOL     OW20572   6.624   5.449   0.917
 6558SOL    HW120573   6.600   5.511   0.992
 6558SOL    HW220574   6.553   5.452   0.847
 6559SOL     OW20575   5.924   3.786   0.974
 6559SOL    HW120576   5.925   3.746   1.066
 6559SOL    HW220577   5.976   3.728   0.912
 6560SOL     OW20578   3.886   2.809   1.791
 6560SOL    HW120579   3.817   2.741   1.815
 6560SOL    HW220580   3.840   2.894   1.763
 6561SOL     OW20581   4.057   3.767   2.755
 6561SOL    HW120582   4.058   3.813   2.844
 6561SOL    HW220583   4.065   3.669   2.768
 6562SOL     OW20584   5.969   4.598   6.436
 6562SOL    HW120585   5.925   4.611   6.347
 6562SOL    HW220586   6.044   4.532   6.426
 6563SOL     OW20587   0.748   5.870   6.990
 6563SOL    HW120588   0.844   5.843   6.981
 6563SOL    HW220589   0.694   5.823   6.921
 6564SOL     OW20590   1.390   3.300   2.147
 6564SOL    HW120591   1.349   3.375   2.201
 6564SOL    HW220592   1.443   3.339   2.072
 6565SOL     OW20593   6.322   2.509   5.000
 6565SOL    HW120594   6.351   2.524   4.906
 6565SOL    HW220595   6.345   2.415   5.027
 6566SOL     OW20596   3.305   0.229   1.640
 6566SOL    HW120597   3.266   0.140   1.664
 6566SOL    HW220598   3.234   0.300   1.648
 6567SOL     OW20599   4.726   2.756   1.316
 6567SOL    HW120600   4.736   2.696   1.396
 6567SOL    HW220601   4.745   2.703   1.233
 6568SOL     OW20602   4.740   4.922   2.307
 6568SOL    HW120603   4.827   4.930   2.256
 6568SOL    HW220604   4.664   4.938   2.244
 6569SOL     OW20605   2.849   4.720   0.923
 6569SOL    HW120606   2.856   4.620   0.922
 6569SOL    HW220607   2.758   4.746   0.953
 6570SOL     OW20608   4.448   6.897   1.649
 6570SOL    HW120609   4.519   6.959   1.618
 6570SOL    HW220610   4.490   6.814   1.685
 6571SOL     OW20611   2.015   5.933   3.110
 6571SOL    HW120612   2.109   5.913   3.085
 6571SOL    HW220613   2.009   5.954   3.207
 6572SOL     OW20614   6.447   4.495   5.041
 6572SOL    HW120615   6.503   4.472   5.120
 6572SOL    HW220616   6.482   4.579   4.998
 6573SOL     OW20617   3.201   0.886   3.103
 6573SOL    HW120618   3.248   0.896   3.191
 6573SOL    HW220619   3.238   0.808   3.053
 6574SOL     OW20620   2.386   6.206   2.160
 6574SOL    HW120621   2.418   6.285   2.212
 6574SOL    HW220622   2.288   6.214   2.144
 6575SOL     OW20623   0.766   1.656   1.679
 6575SOL    HW120624   0.793   1.710   1.758
 6575SOL    HW220625   0.844   1.645   1.618
 6576SOL     OW20626   1.322   6.111   6.243
 6576SOL    HW120627   1.379   6.062   6.309
 6576SOL    HW220628   1.263   6.177   6.291
 6577SOL     OW20629   0.503   1.828   3.831
 6577SOL    HW120630   0.412   1.821   3.791
 6577SOL    HW220631   0.508   1.771   3.913
 6578SOL     OW20632   6.659   5.560   3.450
 6578SOL    HW120633   6.752   5.596   3.447
 6578SOL    HW220634   6.600   5.621   3.503
 6579SOL     OW20635   7.022   4.056   4.394
 6579SOL    HW120636   0.019   4.145   4.434
 6579SOL    HW220637   0.077   4.004   4.377
 6580SOL     OW20638   6.216   1.146   0.765
 6580SOL    HW120639   6.240   1.180   0.674
 6580SOL    HW220640   6.190   1.223   0.824
 6581SOL     OW20641   3.706   1.377   5.399
 6581SOL    HW120642   3.620   1.385   5.348
 6581SOL    HW220643   3.732   1.467   5.434
 6582SOL     OW20644   1.536   6.774   1.957
 6582SOL    HW120645   1.561   6.680   1.935
 6582SOL    HW220646   1.490   6.776   2.046
 6583SOL     OW20647   4.786   1.625   5.771
 6583SOL    HW120648   4.874   1.590   5.802
 6583SOL    HW220649   4.753   1.695   5.835
 6584SOL     OW20650   5.654   2.068   6.633
 6584SOL    HW120651   5.596   2.137   6.678
 6584SOL    HW220652   5.669   1.992   6.696
 6585SOL     OW20653   0.224   1.298   0.257
 6585SOL    HW120654   0.192   1.207   0.282
 6585SOL    HW220655   0.201   1.363   0.330
 6586SOL     OW20656   6.426   2.081   6.193
 6586SOL    HW120657   6.335   2.113   6.218
 6586SOL    HW220658   6.450   2.114   6.101
 6587SOL     OW20659   2.830   5.809   4.345
 6587SOL    HW120660   2.873   5.744   4.283
 6587SOL    HW220661   2.790   5.884   4.293
 6588SOL     OW20662   1.893   4.023   1.448
 6588SOL    HW120663   1.973   3.967   1.473
 6588SOL    HW220664   1.855   4.064   1.530
 6589SOL     OW20665   5.114   0.577   6.814
 6589SOL    HW120666   5.073   0.595   6.903
 6589SOL    HW220667   5.058   0.619   6.743
 6590SOL     OW20668   0.053   1.776   4.794
 6590SOL    HW120669   0.064   1.734   4.885
 6590SOL    HW220670   0.116   1.733   4.730
 6591SOL     OW20671   5.957   6.674   2.855
 6591SOL    HW120672   6.056   6.687   2.857
 6591SOL    HW220673   5.912   6.756   2.891
 6592SOL     OW20674   4.383   6.901   4.274
 6592SOL    HW120675   4.418   6.984   4.318
 6592SOL    HW220676   4.383   6.826   4.340
 6593SOL     OW20677   2.176   2.138   3.634
 6593SOL    HW120678   2.253   2.175   3.685
 6593SOL    HW220679   2.109   2.210   3.617
 6594SOL     OW20680   4.623   1.074   0.140
 6594SOL    HW120681   4.601   1.040   0.231
 6594SOL    HW220682   4.553   1.139   0.111
 6595SOL     OW20683   0.649   4.149   1.481
 6595SOL    HW120684   0.714   4.084   1.442
 6595SOL    HW220685   0.558   4.131   1.444
 6596SOL     OW20686   3.878   0.490   5.798
 6596SOL    HW120687   3.974   0.479   5.775
 6596SOL    HW220688   3.858   0.443   5.884
 6597SOL     OW20689   0.792   6.629   3.922
 6597SOL    HW120690   0.766   6.703   3.985
 6597SOL    HW220691   0.755   6.647   3.832
 6598SOL     OW20692   1.652   5.738   5.164
 6598SOL    HW120693   1.745   5.735   5.200
 6598SOL    HW220694   1.648   5.692   5.075
 6599SOL     OW20695   4.132   5.111   5.848
 6599SOL    HW120696   4.167   5.157   5.767
 6599SOL    HW220697   4.156   5.014   5.844
 6600SOL     OW20698   5.325   5.057   4.936
 6600SOL    HW120699   5.368   4.968   4.946
 6600SOL    HW220700   5.372   5.109   4.864
 6601SOL     OW20701   0.493   0.164   0.268
 6601SOL    HW120702   0.570   0.223   0.244
 6601SOL    HW220703   0.413   0.220   0.289
 6602SOL     OW20704   6.967   2.497   1.103
 6602SOL    HW120705   0.005   2.572   1.099
 6602SOL    HW220706   6.935   2.476   1.011
 6603SOL     OW20707   1.444   3.384   4.269
 6603SOL    HW120708   1.421   3.290   4.294
 6603SOL    HW220709   1.504   3.384   4.189
 6604SOL     OW20710   2.595   6.187   1.559
 6604SOL    HW120711   2.508   6.160   1.600
 6604SOL    HW220712   2.598   6.158   1.464
 6605SOL     OW20713   4.495   4.820   0.743
 6605SOL    HW120714   4.496   4.720   0.745
 6605SOL    HW220715   4.420   4.854   0.800
 6606SOL     OW20716   4.403   0.057   2.535
 6606SOL    HW120717   4.326   0.039   2.473
 6606SOL    HW220718   4.483   0.005   2.506
 6607SOL     OW20719   2.006   1.170   1.823
 6607SOL    HW120720   2.023   1.096   1.758
 6607SOL    HW220721   2.007   1.258   1.774
 6608SOL     OW20722   5.191   3.534   2.453
 6608SOL    HW120723   5.273   3.478   2.448
 6608SOL    HW220724   5.207   3.622   2.408
 6609SOL     OW20725   5.221   0.923   6.537
 6609SOL    HW120726   5.125   0.915   6.510
 6609SOL    HW220727   5.236   1.010   6.583
 6610SOL     OW20728   2.134   0.197   0.164
 6610SOL    HW120729   2.127   0.238   0.073
 6610SOL    HW220730   2.061   0.232   0.222
 6611SOL     OW20731   6.794   2.335   3.112
 6611SOL    HW120732   6.742   2.407   3.158
 6611SOL    HW220733   6.818   2.366   3.020
 6612SOL     OW20734   1.477   4.158   6.816
 6612SOL    HW120735   1.391   4.208   6.808
 6612SOL    HW220736   1.547   4.217   6.858
 6613SOL     OW20737   5.802   6.149   3.515
 6613SOL    HW120738   5.735   6.206   3.468
 6613SOL    HW220739   5.793   6.055   3.483
 6614SOL     OW20740   5.044   6.640   6.547
 6614SOL    HW120741   5.087   6.686   6.468
 6614SOL    HW220742   5.034   6.705   6.622
 6615SOL     OW20743   0.670   4.023   4.526
 6615SOL    HW120744   0.612   3.942   4.517
 6615SOL    HW220745   0.753   3.999   4.577
 6616SOL     OW20746   3.917   1.631   6.065
 6616SOL    HW120747   4.015   1.643   6.079
 6616SOL    HW220748   3.899   1.617   5.967
 6617SOL     OW20749   3.870   6.846   3.399
 6617SOL    HW120750   3.961   6.814   3.426
 6617SOL    HW220751   3.833   6.786   3.328
 6618SOL     OW20752   1.247   3.030   2.284
 6618SOL    HW120753   1.258   3.120   2.244
 6618SOL    HW220754   1.230   3.039   2.383
 6619SOL     OW20755   4.973   6.832   4.196
 6619SOL    HW120756   5.010   6.803   4.284
 6619SOL    HW220757   4.936   6.753   4.147
 6620SOL     OW20758   1.573   3.202   5.971
 6620SOL    HW120759   1.555   3.160   6.060
 6620SOL    HW220760   1.494   3.186   5.911
 6621SOL     OW20761   3.111   3.922   0.864
 6621SOL    HW120762   3.189   3.868   0.832
 6621SOL    HW220763   3.041   3.925   0.793
 6622SOL     OW20764   5.695   5.693   1.288
 6622SOL    HW120765   5.623   5.712   1.354
 6622SOL    HW220766   5.763   5.632   1.329
 6623SOL     OW20767   3.529   3.148   2.112
 6623SOL    HW120768   3.557   3.062   2.153
 6623SOL    HW220769   3.462   3.193   2.171
 6624SOL     OW20770   2.690   6.097   4.568
 6624SOL    HW120771   2.663   6.117   4.662
 6624SOL    HW220772   2.641   6.015   4.536
 6625SOL     OW20773   6.031   1.629   6.396
 6625SOL    HW120774   6.093   1.702   6.366
 6625SOL    HW220775   6.048   1.547   6.342
 6626SOL     OW20776   3.301   4.979   3.082
 6626SOL    HW120777   3.219   4.952   3.031
 6626SOL    HW220778   3.282   4.974   3.180
 6627SOL     OW20779   2.494   0.873   5.808
 6627SOL    HW120780   2.560   0.919   5.749
 6627SOL    HW220781   2.410   0.927   5.814
 6628SOL     OW20782   4.893   5.144   2.551
 6628SOL    HW120783   4.803   5.101   2.560
 6628SOL    HW220784   4.948   5.095   2.484
 6629SOL     OW20785   3.492   6.184   1.168
 6629SOL    HW120786   3.507   6.135   1.082
 6629SOL    HW220787   3.481   6.119   1.243
 6630SOL     OW20788   3.687   1.721   0.595
 6630SOL    HW120789   3.713   1.652   0.663
 6630SOL    HW220790   3.700   1.812   0.634
 6631SOL     OW20791   4.322   6.857   2.376
 6631SOL    HW120792   4.399   6.855   2.313
 6631SOL    HW220793   4.238   6.837   2.325
 6632SOL     OW20794   0.073   1.336   1.441
 6632SOL    HW120795   0.171   1.337   1.420
 6632SOL    HW220796   0.031   1.254   1.403
 6633SOL     OW20797   1.502   5.660   6.056
 6633SOL    HW120798   1.550   5.696   5.976
 6633SOL    HW220799   1.476   5.565   6.039
 6634SOL     OW20800   6.458   3.430   6.195
 6634SOL    HW120801   6.432   3.380   6.277
 6634SOL    HW220802   6.397   3.404   6.120
 6635SOL     OW20803   4.361   5.221   3.574
 6635SOL    HW120804   4.416   5.176   3.504
 6635SOL    HW220805   4.322   5.152   3.635
 6636SOL     OW20806   1.819   3.373   5.201
 6636SOL    HW120807   1.813   3.301   5.132
 6636SOL    HW220808   1.776   3.341   5.286
 6637SOL     OW20809   0.952   0.215   6.931
 6637SOL    HW120810   0.862   0.204   6.890
 6637SOL    HW220811   0.991   0.125   6.952
 6638SOL     OW20812   3.698   5.031   4.844
 6638SOL    HW120813   3.694   5.128   4.870
 6638SOL    HW220814   3.789   4.995   4.863
 6639SOL     OW20815   5.824   5.780   5.909
 6639SOL    HW120816   5.883   5.708   5.872
 6639SOL    HW220817   5.763   5.812   5.838
 6640SOL     OW20818   0.327   1.814   4.581
 6640SOL    HW120819   0.257   1.866   4.532
 6640SOL    HW220820   0.418   1.851   4.558
 6641SOL     OW20821   3.222   3.615   6.710
 6641SOL    HW120822   3.237   3.708   6.743
 6641SOL    HW220823   3.124   3.599   6.699
 6642SOL     OW20824   2.576   5.494   6.883
 6642SOL    HW120825   2.628   5.525   6.804
 6642SOL    HW220826   2.484   5.534   6.881
 6643SOL     OW20827   6.326   4.528   0.062
 6643SOL    HW120828   6.233   4.492   0.076
 6643SOL    HW220829   6.392   4.466   0.103
 6644SOL     OW20830   3.045   4.698   1.713
 6644SOL    HW120831   2.996   4.624   1.759
 6644SOL    HW220832   3.074   4.669   1.622
 6645SOL     OW20833   6.877   4.983   0.649
 6645SOL    HW120834   6.831   4.947   0.729
 6645SOL    HW220835   6.884   5.083   0.656
 6646SOL     OW20836   4.761   5.533   4.618
 6646SOL    HW120837   4.725   5.626   4.623
 6646SOL    HW220838   4.860   5.535   4.625
 6647SOL     OW20839   3.121   1.227   2.755
 6647SOL    HW120840   3.085   1.318   2.733
 6647SOL    HW220841   3.078   1.194   2.840
 6648SOL     OW20842   3.718   5.628   2.946
 6648SOL    HW120843   3.676   5.614   2.856
 6648SOL    HW220844   3.756   5.541   2.979
 6649SOL     OW20845   5.751   2.316   6.448
 6649SOL    HW120846   5.735   2.231   6.497
 6649SOL    HW220847   5.821   2.303   6.379
 6650SOL     OW20848   4.033   1.167   3.299
 6650SOL    HW120849   4.003   1.103   3.370
 6650SOL    HW220850   3.982   1.149   3.215
 6651SOL     OW20851   1.548   2.111   0.638
 6651SOL    HW120852   1.586   2.021   0.615
 6651SOL    HW220853   1.567   2.175   0.563
 6652SOL     OW20854   6.546   4.045   0.491
 6652SOL    HW120855   6.538   4.083   0.583
 6652SOL    HW220856   6.624   3.983   0.487
 6653SOL     OW20857   4.036   3.675   3.176
 6653SOL    HW120858   3.978   3.693   3.256
 6653SOL    HW220859   4.019   3.744   3.106
 6654SOL     OW20860   2.177   2.994   1.322
 6654SOL    HW120861   2.264   2.966   1.361
 6654SOL    HW220862   2.157   2.938   1.241
 6655SOL     OW20863   2.657   0.087   1.674
 6655SOL    HW120864   2.573   0.059   1.626
 6655SOL    HW220865   2.633   0.129   1.761
 6656SOL     OW20866   6.820   1.166   2.462
 6656SOL    HW120867   6.849   1.201   2.373
 6656SOL    HW220868   6.758   1.089   2.448
 6657SOL     OW20869   4.317   6.549   6.510
 6657SOL    HW120870   4.381   6.604   6.455
 6657SOL    HW220871   4.368   6.499   6.580
 6658SOL     OW20872   6.249   1.003   5.777
 6658SOL    HW120873   6.338   0.999   5.730
 6658SOL    HW220874   6.209   0.911   5.778
 6659SOL     OW20875   2.449   2.219   6.851
 6659SOL    HW120876   2.548   2.218   6.870
 6659SOL    HW220877   2.399   2.202   6.936
 6660SOL     OW20878   6.794   6.257   1.424
 6660SOL    HW120879   6.811   6.354   1.406
 6660SOL    HW220880   6.696   6.238   1.415
 6661SOL     OW20881   6.924   5.039   3.786
 6661SOL    HW120882   6.970   5.114   3.738
 6661SOL    HW220883   6.992   4.976   3.822
 6662SOL     OW20884   1.092   1.014   0.050
 6662SOL    HW120885   1.045   0.925   0.051
 6662SOL    HW220886   1.191   0.999   0.052
 6663SOL     OW20887   6.917   5.677   3.592
 6663SOL    HW120888   6.924   5.582   3.621
 6663SOL    HW220889   6.867   5.729   3.662
 6664SOL     OW20890   1.326   0.139   1.612
 6664SOL    HW120891   1.412   0.091   1.595
 6664SOL    HW220892   1.262   0.122   1.537
 6665SOL     OW20893   1.397   7.015   3.514
 6665SOL    HW120894   1.372   0.016   3.421
 6665SOL    HW220895   1.373   6.918   3.527
 6666SOL     OW20896   6.000   1.869   5.021
 6666SOL    HW120897   5.933   1.810   5.064
 6666SOL    HW220898   5.962   1.961   5.012
 6667SOL     OW20899   6.379   4.746   4.880
 6667SOL    HW120900   6.350   4.820   4.819
 6667SOL    HW220901   6.317   4.742   4.959
 6668SOL     OW20902   0.111   5.972   2.308
 6668SOL    HW120903   0.093   5.933   2.399
 6668SOL    HW220904   0.092   5.903   2.238
 6669SOL     OW20905   2.205   3.918   3.635
 6669SOL    HW120906   2.253   3.857   3.699
 6669SOL    HW220907   2.191   4.007   3.678
 6670SOL     OW20908   3.562   4.634   6.700
 6670SOL    HW120909   3.467   4.651   6.674
 6670SOL    HW220910   3.567   4.554   6.758
 6671SOL     OW20911   5.750   4.814   0.286
 6671SOL    HW120912   5.722   4.901   0.326
 6671SOL    HW220913   5.743   4.819   0.186
 6672SOL     OW20914   0.926   0.799   5.181
 6672SOL    HW120915   0.966   0.812   5.090
 6672SOL    HW220916   0.885   0.708   5.186
 6673SOL     OW20917   4.880   5.801   2.561
 6673SOL    HW120918   4.893   5.702   2.570
 6673SOL    HW220919   4.870   5.842   2.652
 6674SOL     OW20920   0.739   5.564   5.819
 6674SOL    HW120921   0.752   5.648   5.871
 6674SOL    HW220922   0.828   5.526   5.795
 6675SOL     OW20923   5.705   3.844   0.836
 6675SOL    HW120924   5.799   3.826   0.864
 6675SOL    HW220925   5.658   3.894   0.909
 6676SOL     OW20926   0.878   3.458   5.679
 6676SOL    HW120927   0.896   3.492   5.586
 6676SOL    HW220928   0.896   3.360   5.682
 6677SOL     OW20929   0.057   3.044   7.017
 6677SOL    HW120930   7.019   2.994   0.045
 6677SOL    HW220931   0.106   2.980   6.957
 6678SOL     OW20932   1.224   2.575   6.644
 6678SOL    HW120933   1.204   2.497   6.703
 6678SOL    HW220934   1.226   2.545   6.549
 6679SOL     OW20935   1.441   1.638   5.067
 6679SOL    HW120936   1.446   1.540   5.086
 6679SOL    HW220937   1.404   1.652   4.976
 6680SOL     OW20938   4.001   5.693   5.821
 6680SOL    HW120939   3.926   5.716   5.760
 6680SOL    HW220940   4.073   5.763   5.813
 6681SOL     OW20941   5.433   6.123   6.988
 6681SOL    HW120942   5.450   6.217   7.018
 6681SOL    HW220943   5.447   6.060   0.037
 6682SOL     OW20944   0.465   4.685   2.679
 6682SOL    HW120945   0.512   4.604   2.715
 6682SOL    HW220946   0.421   4.662   2.592
 6683SOL     OW20947   4.951   1.914   5.200
 6683SOL    HW120948   4.885   1.911   5.275
 6683SOL    HW220949   4.924   1.847   5.130
 6684SOL     OW20950   2.114   6.505   1.635
 6684SOL    HW120951   2.065   6.449   1.702
 6684SOL    HW220952   2.058   6.584   1.611
 6685SOL     OW20953   5.345   1.890   5.887
 6685SOL    HW120954   5.420   1.957   5.884
 6685SOL    HW220955   5.264   1.934   5.927
 6686SOL     OW20956   6.054   3.986   4.461
 6686SOL    HW120957   6.114   4.066   4.465
 6686SOL    HW220958   6.109   3.904   4.446
 6687SOL     OW20959   1.051   1.754   0.742
 6687SOL    HW120960   1.044   1.773   0.644
 6687SOL    HW220961   0.977   1.801   0.791
 6688SOL     OW20962   0.080   4.665   2.376
 6688SOL    HW120963   0.024   4.589   2.346
 6688SOL    HW220964   0.173   4.655   2.339
 6689SOL     OW20965   4.569   2.752   1.062
 6689SOL    HW120966   4.538   2.688   1.133
 6689SOL    HW220967   4.574   2.844   1.101
 6690SOL     OW20968   2.468   1.400   1.798
 6690SOL    HW120969   2.562   1.434   1.800
 6690SOL    HW220970   2.464   1.311   1.843
 6691SOL     OW20971   2.754   5.690   0.855
 6691SOL    HW120972   2.847   5.665   0.831
 6691SOL    HW220973   2.739   5.676   0.953
 6692SOL     OW20974   2.882   4.433   5.427
 6692SOL    HW120975   2.847   4.341   5.410
 6692SOL    HW220976   2.914   4.473   5.341
 6693SOL     OW20977   4.329   3.568   6.055
 6693SOL    HW120978   4.417   3.581   6.009
 6693SOL    HW220979   4.281   3.490   6.013
 6694SOL     OW20980   4.258   5.634   0.102
 6694SOL    HW120981   4.350   5.646   0.065
 6694SOL    HW220982   4.260   5.563   0.173
 6695SOL     OW20983   0.580   2.204   6.319
 6695SOL    HW120984   0.516   2.136   6.353
 6695SOL    HW220985   0.617   2.257   6.397
 6696SOL     OW20986   1.838   2.776   1.454
 6696SOL    HW120987   1.868   2.871   1.458
 6696SOL    HW220988   1.742   2.772   1.427
 6697SOL     OW20989   4.742   2.150   2.805
 6697SOL    HW120990   4.667   2.185   2.750
 6697SOL    HW220991   4.705   2.097   2.882
 6698SOL     OW20992   3.662   2.564   0.957
 6698SOL    HW120993   3.606   2.490   0.919
 6698SOL    HW220994   3.663   2.641   0.894
 6699SOL     OW20995   3.972   4.245   6.702
 6699SOL    HW120996   3.905   4.208   6.637
 6699SOL    HW220997   4.040   4.174   6.723
 6700SOL     OW20998   0.297   5.422   0.543
 6700SOL    HW120999   0.258   5.414   0.451
 6700SOL    HW221000   0.332   5.515   0.556
 6701SOL     OW21001   5.953   2.857   1.187
 6701SOL    HW121002   5.862   2.824   1.213
 6701SOL    HW221003   5.975   2.826   1.095
 6702SOL     OW21004   2.854   2.111   0.207
 6702SOL    HW121005   2.928   2.178   0.211
 6702SOL    HW221006   2.827   2.086   0.300
 6703SOL     OW21007   6.337   2.345   0.019
 6703SOL    HW121008   6.352   2.258   7.000
 6703SOL    HW221009   6.318   2.416   6.980
 6704SOL     OW21010   4.539   2.524   2.434
 6704SOL    HW121011   4.578   2.613   2.413
 6704SOL    HW221012   4.525   2.473   2.349
 6705SOL     OW21013   0.371   2.439   2.222
 6705SOL    HW121014   0.280   2.448   2.181
 6705SOL    HW221015   0.423   2.523   2.206
 6706SOL     OW21016   0.804   3.550   0.407
 6706SOL    HW121017   0.796   3.614   0.330
 6706SOL    HW221018   0.835   3.599   0.488
 6707SOL     OW21019   6.162   6.287   4.820
 6707SOL    HW121020   6.110   6.228   4.757
 6707SOL    HW221021   6.139   6.262   4.915
 6708SOL     OW21022   1.488   5.406   2.560
 6708SOL    HW121023   1.540   5.458   2.629
 6708SOL    HW221024   1.503   5.309   2.574
 6709SOL     OW21025   3.691   6.514   1.345
 6709SOL    HW121026   3.666   6.418   1.337
 6709SOL    HW221027   3.609   6.571   1.334
 6710SOL     OW21028   2.016   2.502   6.019
 6710SOL    HW121029   2.005   2.575   6.087
 6710SOL    HW221030   1.964   2.525   5.937
 6711SOL     OW21031   5.273   3.971   6.350
 6711SOL    HW121032   5.206   3.987   6.423
 6711SOL    HW221033   5.363   3.956   6.390
 6712SOL     OW21034   3.995   5.398   0.231
 6712SOL    HW121035   3.905   5.355   0.222
 6712SOL    HW221036   3.997   5.483   0.178
 6713SOL     OW21037   2.547   1.935   1.450
 6713SOL    HW121038   2.509   2.027   1.459
 6713SOL    HW221039   2.604   1.915   1.529
 6714SOL     OW21040   4.916   6.873   5.328
 6714SOL    HW121041   4.978   6.943   5.291
 6714SOL    HW221042   4.830   6.916   5.354
 6715SOL     OW21043   0.493   1.131   0.136
 6715SOL    HW121044   0.444   1.062   0.189
 6715SOL    HW221045   0.430   1.204   0.110
 6716SOL     OW21046   1.591   6.182   0.938
 6716SOL    HW121047   1.663   6.114   0.924
 6716SOL    HW221048   1.576   6.232   0.853
 6717SOL     OW21049   3.877   3.184   0.506
 6717SOL    HW121050   3.940   3.151   0.436
 6717SOL    HW221051   3.804   3.117   0.521
 6718SOL     OW21052   3.922   5.567   6.398
 6718SOL    HW121053   3.938   5.580   6.300
 6718SOL    HW221054   3.878   5.648   6.436
 6719SOL     OW21055   0.247   0.021   5.961
 6719SOL    HW121056   0.317   0.088   5.986
 6719SOL    HW221057   0.212   0.042   5.869
 6720SOL     OW21058   2.406   6.049   1.684
 6720SOL    HW121059   2.357   5.975   1.638
 6720SOL    HW221060   2.343   6.124   1.705
 6721SOL     OW21061   5.172   6.692   4.775
 6721SOL    HW121062   5.270   6.693   4.757
 6721SOL    HW221063   5.128   6.769   4.728
 6722SOL     OW21064   4.779   3.464   0.929
 6722SOL    HW121065   4.694   3.414   0.913
 6722SOL    HW221066   4.843   3.407   0.980
 6723SOL     OW21067   2.137   6.169   3.295
 6723SOL    HW121068   2.059   6.230   3.280
 6723SOL    HW221069   2.104   6.080   3.326
 6724SOL     OW21070   2.361   4.429   6.193
 6724SOL    HW121071   2.332   4.360   6.125
 6724SOL    HW221072   2.288   4.497   6.203
 6725SOL     OW21073   1.214   4.337   2.816
 6725SOL    HW121074   1.276   4.289   2.878
 6725SOL    HW221075   1.141   4.381   2.868
 6726SOL     OW21076   1.674   2.854   4.424
 6726SOL    HW121077   1.593   2.896   4.465
 6726SOL    HW221078   1.730   2.924   4.380
 6727SOL     OW21079   5.546   3.629   6.346
 6727SOL    HW121080   5.616   3.697   6.372
 6727SOL    HW221081   5.464   3.644   6.400
 6728SOL     OW21082   3.880   2.168   4.547
 6728SOL    HW121083   3.979   2.180   4.542
 6728SOL    HW221084   3.840   2.243   4.601
 6729SOL     OW21085   6.750   0.835   2.224
 6729SOL    HW121086   6.708   0.920   2.255
 6729SOL    HW221087   6.697   0.758   2.259
 6730SOL     OW21088   2.686   0.109   6.874
 6730SOL    HW121089   2.737   0.063   6.947
 6730SOL    HW221090   2.670   0.045   6.799
 6731SOL     OW21091   2.959   4.597   1.260
 6731SOL    HW121092   3.033   4.625   1.199
 6731SOL    HW221093   2.948   4.497   1.256
 6732SOL     OW21094   2.227   6.189   0.207
 6732SOL    HW121095   2.152   6.238   0.163
 6732SOL    HW221096   2.248   6.233   0.295
 6733SOL     OW21097   4.415   5.502   5.706
 6733SOL    HW121098   4.399   5.554   5.790
 6733SOL    HW221099   4.503   5.530   5.667
 6734SOL     OW21100   0.985   3.518   5.432
 6734SOL    HW121101   1.066   3.505   5.489
 6734SOL    HW221102   0.980   3.614   5.402
 6735SOL     OW21103   0.191   5.309   5.097
 6735SOL    HW121104   0.108   5.261   5.070
 6735SOL    HW221105   0.238   5.344   5.016
 6736SOL     OW21106   2.594   3.348   1.136
 6736SOL    HW121107   2.604   3.384   1.228
 6736SOL    HW221108   2.583   3.248   1.140
 6737SOL     OW21109   2.169   1.297   2.012
 6737SOL    HW121110   2.123   1.261   1.930
 6737SOL    HW221111   2.255   1.248   2.026
 6738SOL     OW21112   2.468   1.584   2.571
 6738SOL    HW121113   2.471   1.484   2.571
 6738SOL    HW221114   2.551   1.620   2.527
 6739SOL     OW21115   3.599   5.728   5.214
 6739SOL    HW121116   3.686   5.777   5.224
 6739SOL    HW221117   3.531   5.790   5.176
 6740SOL     OW21118   1.649   1.036   4.262
 6740SOL    HW121119   1.734   1.088   4.257
 6740SOL    HW221120   1.657   0.966   4.334
 6741SOL     OW21121   5.570   1.318   5.962
 6741SOL    HW121122   5.522   1.405   5.976
 6741SOL    HW221123   5.523   1.245   6.012
 6742SOL     OW21124   0.186   4.988   5.194
 6742SOL    HW121125   0.095   5.001   5.153
 6742SOL    HW221126   0.207   5.065   5.254
 6743SOL     OW21127   4.083   2.891   0.486
 6743SOL    HW121128   4.160   2.954   0.494
 6743SOL    HW221129   4.015   2.929   0.425
 6744SOL     OW21130   4.289   4.402   5.634
 6744SOL    HW121131   4.292   4.469   5.708
 6744SOL    HW221132   4.223   4.330   5.657
 6745SOL     OW21133   1.263   4.751   3.442
 6745SOL    HW121134   1.319   4.819   3.395
 6745SOL    HW221135   1.227   4.791   3.526
 6746SOL     OW21136   0.732   1.207   1.289
 6746SOL    HW121137   0.677   1.285   1.320
 6746SOL    HW221138   0.797   1.238   1.220
 6747SOL     OW21139   5.679   7.018   4.282
 6747SOL    HW121140   5.586   7.027   4.317
 6747SOL    HW221141   5.679   6.962   4.200
 6748SOL     OW21142   0.871   0.385   1.765
 6748SOL    HW121143   0.920   0.351   1.846
 6748SOL    HW221144   0.869   0.313   1.696
 6749SOL     OW21145   3.482   0.752   6.938
 6749SOL    HW121146   3.449   0.699   6.859
 6749SOL    HW221147   3.580   0.733   6.951
 6750SOL     OW21148   2.604   2.305   4.292
 6750SOL    HW121149   2.589   2.343   4.384
 6750SOL    HW221150   2.702   2.293   4.277
 6751SOL     OW21151   2.543   2.469   4.086
 6751SOL    HW121152   2.627   2.446   4.036
 6751SOL    HW221153   2.538   2.415   4.170
 6752SOL     OW21154   6.061   3.304   0.976
 6752SOL    HW121155   6.120   3.225   0.956
 6752SOL    HW221156   5.968   3.286   0.945
 6753SOL     OW21157   4.308   1.936   6.131
 6753SOL    HW121158   4.214   1.947   6.164
 6753SOL    HW221159   4.342   2.023   6.098
 6754SOL     OW21160   6.053   1.689   6.030
 6754SOL    HW121161   6.059   1.589   6.031
 6754SOL    HW221162   6.137   1.727   6.069
 6755SOL     OW21163   5.648   2.077   3.451
 6755SOL    HW121164   5.568   2.137   3.460
 6755SOL    HW221165   5.658   2.050   3.355
 6756SOL     OW21166   4.588   4.924   4.313
 6756SOL    HW121167   4.602   4.826   4.327
 6756SOL    HW221168   4.506   4.938   4.257
 6757SOL     OW21169   4.833   6.353   1.140
 6757SOL    HW121170   4.833   6.451   1.121
 6757SOL    HW221171   4.766   6.333   1.212
 6758SOL     OW21172   5.262   3.199   2.288
 6758SOL    HW121173   5.225   3.207   2.195
 6758SOL    HW221174   5.281   3.103   2.309
 6759SOL     OW21175   1.270   4.662   2.899
 6759SOL    HW121176   1.338   4.590   2.894
 6759SOL    HW221177   1.178   4.623   2.890
 6760SOL     OW21178   0.084   4.501   4.180
 6760SOL    HW121179   0.110   4.405   4.195
 6760SOL    HW221180   0.116   4.556   4.257
 6761SOL     OW21181   5.175   2.916   5.549
 6761SOL    HW121182   5.102   2.883   5.609
 6761SOL    HW221183   5.228   2.838   5.516
 6762SOL     OW21184   6.200   5.312   4.018
 6762SOL    HW121185   6.248   5.379   3.961
 6762SOL    HW221186   6.267   5.251   4.062
 6763SOL     OW21187   5.878   6.984   5.434
 6763SOL    HW121188   5.902   0.030   5.497
 6763SOL    HW221189   5.905   7.010   5.341
 6764SOL     OW21190   2.890   3.741   6.547
 6764SOL    HW121191   2.852   3.667   6.602
 6764SOL    HW221192   2.933   3.809   6.607
 6765SOL     OW21193   6.565   4.708   3.375
 6765SOL    HW121194   6.663   4.726   3.373
 6765SOL    HW221195   6.540   4.665   3.462
 6766SOL     OW21196   1.598   0.961   5.393
 6766SOL    HW121197   1.627   0.970   5.297
 6766SOL    HW221198   1.675   0.984   5.453
 6767SOL     OW21199   0.465   2.478   6.398
 6767SOL    HW121200   0.523   2.557   6.379
 6767SOL    HW221201   0.490   2.440   6.487
 6768SOL     OW21202   0.696   0.178   4.175
 6768SOL    HW121203   0.639   0.110   4.222
 6768SOL    HW221204   0.657   0.199   4.086
 6769SOL     OW21205   2.506   2.736   5.791
 6769SOL    HW121206   2.552   2.688   5.716
 6769SOL    HW221207   2.431   2.791   5.755
 6770SOL     OW21208   0.195   1.852   3.431
 6770SOL    HW121209   0.232   1.936   3.472
 6770SOL    HW221210   0.151   1.797   3.501
 6771SOL     OW21211   3.509   2.105   4.010
 6771SOL    HW121212   3.602   2.074   4.030
 6771SOL    HW221213   3.501   2.126   3.913
 6772SOL     OW21214   6.276   1.517   2.725
 6772SOL    HW121215   6.233   1.435   2.763
 6772SOL    HW221216   6.342   1.491   2.654
 6773SOL     OW21217   0.109   6.137   1.711
 6773SOL    HW121218   0.095   6.042   1.682
 6773SOL    HW221219   0.027   6.190   1.688
 6774SOL     OW21220   2.212   2.379   5.738
 6774SOL    HW121221   2.217   2.467   5.786
 6774SOL    HW221222   2.147   2.387   5.663
 6775SOL     OW21223   0.659   1.794   4.726
 6775SOL    HW121224   0.618   1.786   4.817
 6775SOL    HW221225   0.619   1.873   4.678
 6776SOL     OW21226   3.550   4.229   1.763
 6776SOL    HW121227   3.563   4.328   1.764
 6776SOL    HW221228   3.635   4.184   1.735
 6777SOL     OW21229   5.370   5.591   1.244
 6777SOL    HW121230   5.276   5.604   1.214
 6777SOL    HW221231   5.375   5.510   1.303
 6778SOL     OW21232   0.010   4.015   2.586
 6778SOL    HW121233   6.997   3.995   2.497
 6778SOL    HW221234   0.098   3.968   2.594
 6779SOL     OW21235   5.842   4.458   5.803
 6779SOL    HW121236   5.763   4.421   5.755
 6779SOL    HW221237   5.911   4.387   5.817
 6780SOL     OW21238   2.929   2.235   2.596
 6780SOL    HW121239   2.900   2.293   2.520
 6780SOL    HW221240   2.852   2.180   2.628
 6781SOL     OW21241   6.897   1.376   3.957
 6781SOL    HW121242   6.935   1.286   3.981
 6781SOL    HW221243   6.971   1.438   3.934
 6782SOL     OW21244   6.814   1.919   3.266
 6782SOL    HW121245   6.753   1.882   3.197
 6782SOL    HW221246   6.903   1.873   3.261
 6783SOL     OW21247   1.426   4.769   5.137
 6783SOL    HW121248   1.429   4.824   5.221
 6783SOL    HW221249   1.337   4.724   5.130
 6784SOL     OW21250   1.785   3.703   1.660
 6784SOL    HW121251   1.867   3.714   1.716
 6784SOL    HW221252   1.774   3.782   1.600
 6785SOL     OW21253   5.158   5.105   4.443
 6785SOL    HW121254   5.172   5.093   4.542
 6785SOL    HW221255   5.073   5.059   4.416
 6786SOL     OW21256   6.800   2.389   6.897
 6786SOL    HW121257   6.882   2.377   6.841
 6786SOL    HW221258   6.727   2.331   6.862
 6787SOL     OW21259   3.936   2.027   6.645
 6787SOL    HW121260   3.876   2.091   6.693
 6787SOL    HW221261   3.882   1.972   6.581
 6788SOL     OW21262   0.417   4.083   3.428
 6788SOL    HW121263   0.390   4.118   3.338
 6788SOL    HW221264   0.453   3.990   3.418
 6789SOL     OW21265   6.530   3.947   4.178
 6789SOL    HW121266   6.537   3.926   4.080
 6789SOL    HW221267   6.552   3.865   4.231
 6790SOL     OW21268   0.769   4.915   5.734
 6790SOL    HW121269   0.772   4.828   5.685
 6790SOL    HW221270   0.847   4.972   5.708
 6791SOL     OW21271   3.722   0.772   3.890
 6791SOL    HW121272   3.819   0.753   3.904
 6791SOL    HW221273   3.702   0.775   3.792
 6792SOL     OW21274   4.137   0.193   5.822
 6792SOL    HW121275   4.044   0.168   5.796
 6792SOL    HW221276   4.202   0.145   5.763
 6793SOL     OW21277   2.328   3.065   0.684
 6793SOL    HW121278   2.345   3.090   0.589
 6793SOL    HW221279   2.325   3.147   0.740
 6794SOL     OW21280   5.049   1.671   5.453
 6794SOL    HW121281   5.144   1.663   5.483
 6794SOL    HW221282   5.036   1.618   5.369
 6795SOL     OW21283   0.908   1.259   1.060
 6795SOL    HW121284   0.999   1.293   1.038
 6795SOL    HW221285   0.840   1.308   1.005
 6796SOL     OW21286   6.594   1.030   2.362
 6796SOL    HW121287   6.516   1.051   2.303
 6796SOL    HW221288   6.568   0.962   2.430
 6797SOL     OW21289   0.410   2.508   1.074
 6797SOL    HW121290   0.426   2.544   0.982
 6797SOL    HW221291   0.370   2.417   1.068
 6798SOL     OW21292   5.301   0.485   1.824
 6798SOL    HW121293   5.244   0.565   1.808
 6798SOL    HW221294   5.389   0.513   1.862
 6799SOL     OW21295   5.800   0.691   3.640
 6799SOL    HW121296   5.764   0.646   3.722
 6799SOL    HW221297   5.730   0.753   3.604
 6800SOL     OW21298   7.015   2.123   1.118
 6800SOL    HW121299   0.016   2.068   1.196
 6800SOL    HW221300   0.051   2.108   1.042
 6801SOL     OW21301   0.609   5.642   5.590
 6801SOL    HW121302   0.542   5.702   5.633
 6801SOL    HW221303   0.675   5.610   5.658
 6802SOL     OW21304   2.693   5.170   1.451
 6802SOL    HW121305   2.667   5.094   1.511
 6802SOL    HW221306   2.705   5.252   1.506
 6803SOL     OW21307   5.015   4.965   5.802
 6803SOL    HW121308   5.092   4.935   5.746
 6803SOL    HW221309   5.033   5.057   5.838
 6804SOL     OW21310   3.035   4.926   2.979
 6804SOL    HW121311   3.042   4.901   3.076
 6804SOL    HW221312   2.939   4.918   2.950
 6805SOL     OW21313   0.105   4.304   5.203
 6805SOL    HW121314   0.114   4.238   5.278
 6805SOL    HW221315   0.189   4.305   5.149
 6806SOL     OW21316   0.004   1.484   2.308
 6806SOL    HW121317   0.079   1.491   2.242
 6806SOL    HW221318   0.042   1.474   2.400
 6807SOL     OW21319   3.365   3.729   1.549
 6807SOL    HW121320   3.315   3.816   1.548
 6807SOL    HW221321   3.302   3.655   1.527
 6808SOL     OW21322   3.582   0.899   4.397
 6808SOL    HW121323   3.551   0.913   4.491
 6808SOL    HW221324   3.594   0.987   4.351
 6809SOL     OW21325   5.241   3.246   2.018
 6809SOL    HW121326   5.270   3.338   1.989
 6809SOL    HW221327   5.245   3.184   1.940
 6810SOL     OW21328   2.532   0.483   3.883
 6810SOL    HW121329   2.602   0.523   3.942
 6810SOL    HW221330   2.573   0.451   3.798
 6811SOL     OW21331   6.550   1.330   1.182
 6811SOL    HW121332   6.551   1.257   1.249
 6811SOL    HW221333   6.623   1.395   1.202
 6812SOL     OW21334   3.236   4.061   5.241
 6812SOL    HW121335   3.291   3.991   5.194
 6812SOL    HW221336   3.283   4.090   5.324
 6813SOL     OW21337   6.278   3.845   1.888
 6813SOL    HW121338   6.264   3.857   1.986
 6813SOL    HW221339   6.332   3.922   1.853
 6814SOL     OW21340   5.019   1.200   6.285
 6814SOL    HW121341   5.036   1.284   6.233
 6814SOL    HW221342   4.925   1.201   6.319
 6815SOL     OW21343   1.976   4.848   6.319
 6815SOL    HW121344   1.975   4.756   6.359
 6815SOL    HW221345   2.068   4.869   6.287
 6816SOL     OW21346   0.804   1.320   3.005
 6816SOL    HW121347   0.894   1.282   3.025
 6816SOL    HW221348   0.759   1.348   3.090
 6817SOL     OW21349   3.725   2.127   2.307
 6817SOL    HW121350   3.645   2.072   2.330
 6817SOL    HW221351   3.716   2.162   2.214
 6818SOL     OW21352   1.966   6.754   5.559
 6818SOL    HW121353   1.917   6.800   5.634
 6818SOL    HW221354   1.899   6.721   5.492
 6819SOL     OW21355   4.519   4.483   2.181
 6819SOL    HW121356   4.542   4.573   2.144
 6819SOL    HW221357   4.508   4.418   2.106
 6820SOL     OW21358   2.801   5.842   1.281
 6820SOL    HW121359   2.771   5.936   1.297
 6820SOL    HW221360   2.874   5.840   1.213
 6821SOL     OW21361   4.018   2.658   5.388
 6821SOL    HW121362   4.061   2.617   5.308
 6821SOL    HW221363   4.088   2.680   5.456
 6822SOL     OW21364   6.724   2.820   6.624
 6822SOL    HW121365   6.787   2.829   6.701
 6822SOL    HW221366   6.776   2.803   6.540
 6823SOL     OW21367   6.171   3.589   6.873
 6823SOL    HW121368   6.072   3.584   6.858
 6823SOL    HW221369   6.191   3.571   6.969
 6824SOL     OW21370   0.223   1.962   5.696
 6824SOL    HW121371   0.246   1.996   5.788
 6824SOL    HW221372   0.217   2.040   5.633
 6825SOL     OW21373   5.921   5.094   1.263
 6825SOL    HW121374   5.903   5.046   1.177
 6825SOL    HW221375   5.847   5.159   1.281
 6826SOL     OW21376   0.170   3.787   3.081
 6826SOL    HW121377   0.092   3.811   3.139
 6826SOL    HW221378   0.137   3.735   3.002
 6827SOL     OW21379   4.610   5.930   4.975
 6827SOL    HW121380   4.580   5.848   4.927
 6827SOL    HW221381   4.665   5.905   5.054
 6828SOL     OW21382   3.176   1.764   2.562
 6828SOL    HW121383   3.106   1.790   2.496
 6828SOL    HW221384   3.266   1.792   2.528
 6829SOL     OW21385   4.608   6.870   4.534
 6829SOL    HW121386   4.579   6.948   4.590
 6829SOL    HW221387   4.528   6.817   4.507
 6830SOL     OW21388   5.166   0.155   2.961
 6830SOL    HW121389   5.197   0.154   3.056
 6830SOL    HW221390   5.075   0.116   2.955
 6831SOL     OW21391   1.422   1.507   6.168
 6831SOL    HW121392   1.429   1.558   6.082
 6831SOL    HW221393   1.481   1.550   6.237
 6832SOL     OW21394   2.925   2.639   0.172
 6832SOL    HW121395   2.933   2.694   0.089
 6832SOL    HW221396   3.014   2.599   0.194
 6833SOL     OW21397   2.719   5.013   6.182
 6833SOL    HW121398   2.688   5.011   6.277
 6833SOL    HW221399   2.688   5.097   6.138
 6834SOL     OW21400   5.465   0.414   0.775
 6834SOL    HW121401   5.482   0.498   0.826
 6834SOL    HW221402   5.513   0.419   0.687
 6835SOL     OW21403   2.334   2.090   4.671
 6835SOL    HW121404   2.373   2.062   4.584
 6835SOL    HW221405   2.407   2.114   4.735
 6836SOL     OW21406   2.128   4.554   6.226
 6836SOL    HW121407   2.136   4.546   6.325
 6836SOL    HW221408   2.035   4.528   6.197
 6837SOL     OW21409   0.506   0.345   1.480
 6837SOL    HW121410   0.528   0.440   1.502
 6837SOL    HW221411   0.466   0.340   1.388
 6838SOL     OW21412   3.016   4.253   5.234
 6838SOL    HW121413   3.105   4.214   5.209
 6838SOL    HW221414   3.014   4.349   5.207
 6839SOL     OW21415   5.568   2.444   3.720
 6839SOL    HW121416   5.481   2.435   3.768
 6839SOL    HW221417   5.638   2.390   3.767
 6840SOL     OW21418   2.724   6.717   5.385
 6840SOL    HW121419   2.662   6.647   5.422
 6840SOL    HW221420   2.783   6.675   5.315
 6841SOL     OW21421   3.975   5.442   1.488
 6841SOL    HW121422   3.963   5.482   1.397
 6841SOL    HW221423   3.927   5.355   1.494
 6842SOL     OW21424   6.931   4.147   6.331
 6842SOL    HW121425   6.983   4.069   6.296
 6842SOL    HW221426   6.909   4.133   6.428
 6843SOL     OW21427   3.532   1.763   2.166
 6843SOL    HW121428   3.521   1.850   2.119
 6843SOL    HW221429   3.628   1.748   2.187
 6844SOL     OW21430   4.931   5.095   4.088
 6844SOL    HW121431   4.902   5.180   4.043
 6844SOL    HW221432   4.865   5.071   4.159
 6845SOL     OW21433   4.876   4.542   2.066
 6845SOL    HW121434   4.816   4.573   1.993
 6845SOL    HW221435   4.832   4.559   2.155
 6846SOL     OW21436   3.820   2.933   2.399
 6846SOL    HW121437   3.849   3.005   2.335
 6846SOL    HW221438   3.792   2.852   2.348
 6847SOL     OW21439   6.014   2.958   1.640
 6847SOL    HW121440   6.081   2.889   1.668
 6847SOL    HW221441   6.062   3.037   1.601
 6848SOL     OW21442   1.158   6.218   3.478
 6848SOL    HW121443   1.065   6.234   3.512
 6848SOL    HW221444   1.199   6.141   3.528
 6849SOL     OW21445   3.958   5.914   4.133
 6849SOL    HW121446   3.915   5.963   4.209
 6849SOL    HW221447   4.034   5.967   4.096
 6850SOL     OW21448   5.120   2.960   2.915
 6850SOL    HW121449   5.197   2.954   2.979
 6850SOL    HW221450   5.119   2.878   2.857
 6851SOL     OW21451   1.727   5.247   5.606
 6851SOL    HW121452   1.691   5.199   5.686
 6851SOL    HW221453   1.791   5.187   5.558
 6852SOL     OW21454   1.337   4.436   1.782
 6852SOL    HW121455   1.307   4.530   1.799
 6852SOL    HW221456   1.322   4.413   1.686
 6853SOL     OW21457   0.562   4.663   5.624
 6853SOL    HW121458   0.518   4.624   5.543
 6853SOL    HW221459   0.492   4.701   5.684
 6854SOL     OW21460   6.899   3.072   6.684
 6854SOL    HW121461   6.865   3.028   6.767
 6854SOL    HW221462   6.938   3.161   6.707
 6855SOL     OW21463   3.136   6.705   2.443
 6855SOL    HW121464   3.190   6.621   2.452
 6855SOL    HW221465   3.068   6.692   2.370
 6856SOL     OW21466   6.092   3.566   5.099
 6856SOL    HW121467   6.128   3.658   5.086
 6856SOL    HW221468   6.022   3.567   5.171
 6857SOL     OW21469   2.883   2.323   6.144
 6857SOL    HW121470   2.793   2.342   6.182
 6857SOL    HW221471   2.906   2.393   6.076
 6858SOL     OW21472   3.915   3.021   5.013
 6858SOL    HW121473   3.941   2.998   5.106
 6858SOL    HW221474   3.996   3.016   4.954
 6859SOL     OW21475   3.223   0.146   0.496
 6859SOL    HW121476   3.318   0.168   0.519
 6859SOL    HW221477   3.172   0.230   0.479
 6860SOL     OW21478   5.711   4.159   0.842
 6860SOL    HW121479   5.743   4.253   0.842
 6860SOL    HW221480   5.708   4.124   0.748
 6861SOL     OW21481   5.872   5.253   0.432
 6861SOL    HW121482   5.861   5.281   0.528
 6861SOL    HW221483   5.966   5.274   0.403
 6862SOL     OW21484   3.316   5.581   4.625
 6862SOL    HW121485   3.380   5.582   4.701
 6862SOL    HW221486   3.224   5.558   4.658
 6863SOL     OW21487   5.833   2.063   4.201
 6863SOL    HW121488   5.928   2.093   4.189
 6863SOL    HW221489   5.795   2.035   4.113
 6864SOL     OW21490   3.059   6.509   4.310
 6864SOL    HW121491   3.101   6.561   4.236
 6864SOL    HW221492   3.113   6.428   4.328
 6865SOL     OW21493   6.903   4.173   4.091
 6865SOL    HW121494   6.986   4.185   4.146
 6865SOL    HW221495   6.825   4.157   4.151
 6866SOL     OW21496   6.732   3.569   1.785
 6866SOL    HW121497   6.741   3.543   1.881
 6866SOL    HW221498   6.636   3.588   1.764
 6867SOL     OW21499   2.073   4.258   1.895
 6867SOL    HW121500   2.111   4.308   1.817
 6867SOL    HW221501   2.058   4.163   1.869
 6868SOL     OW21502   2.027   5.876   4.641
 6868SOL    HW121503   1.968   5.918   4.710
 6868SOL    HW221504   2.121   5.873   4.675
 6869SOL     OW21505   5.389   2.341   5.462
 6869SOL    HW121506   5.313   2.357   5.525
 6869SOL    HW221507   5.365   2.267   5.400
 6870SOL     OW21508   5.832   3.851   3.239
 6870SOL    HW121509   5.739   3.886   3.246
 6870SOL    HW221510   5.829   3.752   3.227
 6871SOL     OW21511   5.444   5.385   1.456
 6871SOL    HW121512   5.427   5.302   1.509
 6871SOL    HW221513   5.421   5.465   1.512
 6872SOL     OW21514   2.078   3.069   0.469
 6872SOL    HW121515   2.014   3.007   0.515
 6872SOL    HW221516   2.052   3.164   0.488
 6873SOL     OW21517   6.184   3.537   6.482
 6873SOL    HW121518   6.153   3.456   6.533
 6873SOL    HW221519   6.105   3.582   6.441
 6874SOL     OW21520   0.162   2.616   4.326
 6874SOL    HW121521   0.209   2.584   4.244
 6874SOL    HW221522   0.119   2.538   4.373
 6875SOL     OW21523   2.083   1.075   2.511
 6875SOL    HW121524   2.100   1.128   2.428
 6875SOL    HW221525   2.086   0.977   2.490
 6876SOL     OW21526   3.788   5.936   0.343
 6876SOL    HW121527   3.726   5.880   0.289
 6876SOL    HW221528   3.743   5.965   0.428
 6877SOL     OW21529   2.441   3.923   0.111
 6877SOL    HW121530   2.445   3.835   0.063
 6877SOL    HW221531   2.346   3.945   0.133
 6878SOL     OW21532   2.061   1.385   5.416
 6878SOL    HW121533   1.978   1.429   5.449
 6878SOL    HW221534   2.120   1.454   5.374
 6879SOL     OW21535   0.956   2.451   6.937
 6879SOL    HW121536   1.052   2.458   6.908
 6879SOL    HW221537   0.949   2.383   7.011
 6880SOL     OW21538   2.176   4.128   4.769
 6880SOL    HW121539   2.240   4.136   4.846
 6880SOL    HW221540   2.136   4.037   4.768
 6881SOL     OW21541   0.417   4.058   1.350
 6881SOL    HW121542   0.351   4.118   1.306
 6881SOL    HW221543   0.374   3.970   1.370
 6882SOL     OW21544   2.144   0.862   5.208
 6882SOL    HW121545   2.202   0.826   5.135
 6882SOL    HW221546   2.199   0.876   5.290
 6883SOL     OW21547   4.113   0.859   1.691
 6883SOL    HW121548   4.070   0.806   1.764
 6883SOL    HW221549   4.107   0.956   1.712
 6884SOL     OW21550   2.183   4.610   4.503
 6884SOL    HW121551   2.170   4.598   4.601
 6884SOL    HW221552   2.105   4.570   4.454
 6885SOL     OW21553   2.768   6.094   4.304
 6885SOL    HW121554   2.762   6.090   4.404
 6885SOL    HW221555   2.812   6.179   4.276
 6886SOL     OW21556   5.437   1.230   2.606
 6886SOL    HW121557   5.390   1.297   2.548
 6886SOL    HW221558   5.536   1.237   2.592
 6887SOL     OW21559   6.058   0.914   4.737
 6887SOL    HW121560   6.065   0.839   4.804
 6887SOL    HW221561   6.022   0.996   4.783
 6888SOL     OW21562   6.333   0.168   4.906
 6888SOL    HW121563   6.297   0.233   4.972
 6888SOL    HW221564   6.359   0.216   4.822
 6889SOL     OW21565   1.181   4.380   6.066
 6889SOL    HW121566   1.276   4.394   6.095
 6889SOL    HW221567   1.128   4.463   6.084
 6890SOL     OW21568   2.004   6.567   1.165
 6890SOL    HW121569   2.047   6.526   1.085
 6890SOL    HW221570   1.972   6.659   1.142
 6891SOL     OW21571   2.106   3.470   3.661
 6891SOL    HW121572   2.111   3.489   3.563
 6891SOL    HW221573   2.166   3.393   3.682
 6892SOL     OW21574   3.114   0.497   4.175
 6892SOL    HW121575   3.036   0.434   4.178
 6892SOL    HW221576   3.081   0.591   4.186
 6893SOL     OW21577   4.848   5.860   2.826
 6893SOL    HW121578   4.809   5.768   2.833
 6893SOL    HW221579   4.871   5.892   2.918
 6894SOL     OW21580   5.623   5.360   0.398
 6894SOL    HW121581   5.591   5.371   0.304
 6894SOL    HW221582   5.715   5.321   0.398
 6895SOL     OW21583   2.511   4.181   0.001
 6895SOL    HW121584   2.496   4.088   0.036
 6895SOL    HW221585   2.578   4.228   0.059
 6896SOL     OW21586   3.735   0.416   3.224
 6896SOL    HW121587   3.757   0.337   3.280
 6896SOL    HW221588   3.757   0.396   3.128
 6897SOL     OW21589   3.592   3.884   0.413
 6897SOL    HW121590   3.584   3.883   0.314
 6897SOL    HW221591   3.682   3.921   0.439
 6898SOL     OW21592   4.223   1.380   1.665
 6898SOL    HW121593   4.176   1.355   1.581
 6898SOL    HW221594   4.322   1.377   1.649
 6899SOL     OW21595   4.788   6.662   6.455
 6899SOL    HW121596   4.781   6.752   6.412
 6899SOL    HW221597   4.883   6.646   6.484
 6900SOL     OW21598   5.783   0.388   6.233
 6900SOL    HW121599   5.728   0.434   6.302
 6900SOL    HW221600   5.764   0.290   6.234
 6901SOL     OW21601   1.789   0.320   6.446
 6901SOL    HW121602   1.739   0.238   6.417
 6901SOL    HW221603   1.724   0.394   6.463
 6902SOL     OW21604   0.775   6.287   7.025
 6902SOL    HW121605   0.680   6.262   7.010
 6902SOL    HW221606   0.824   6.211   0.041
 6903SOL     OW21607   4.003   4.527   0.569
 6903SOL    HW121608   4.037   4.468   0.496
 6903SOL    HW221609   3.930   4.585   0.534
 6904SOL     OW21610   6.442   1.325   3.795
 6904SOL    HW121611   6.540   1.319   3.772
 6904SOL    HW221612   6.393   1.251   3.750
 6905SOL     OW21613   5.832   6.606   0.733
 6905SOL    HW121614   5.767   6.648   0.796
 6905SOL    HW221615   5.866   6.521   0.771
 6906SOL     OW21616   3.793   0.810   3.085
 6906SOL    HW121617   3.747   0.889   3.127
 6906SOL    HW221618   3.780   0.814   2.986
 6907SOL     OW21619   3.697   1.131   1.575
 6907SOL    HW121620   3.611   1.089   1.548
 6907SOL    HW221621   3.726   1.095   1.663
 6908SOL     OW21622   1.072   6.805   5.541
 6908SOL    HW121623   1.104   6.856   5.462
 6908SOL    HW221624   0.995   6.747   5.515
 6909SOL     OW21625   4.923   4.236   0.597
 6909SOL    HW121626   4.906   4.247   0.695
 6909SOL    HW221627   4.907   4.141   0.572
 6910SOL     OW21628   6.191   1.926   1.791
 6910SOL    HW121629   6.221   2.012   1.750
 6910SOL    HW221630   6.123   1.882   1.731
 6911SOL     OW21631   4.014   0.644   4.199
 6911SOL    HW121632   3.989   0.593   4.116
 6911SOL    HW221633   3.940   0.706   4.224
 6912SOL     OW21634   4.909   4.670   0.714
 6912SOL    HW121635   4.989   4.685   0.656
 6912SOL    HW221636   4.873   4.758   0.744
 6913SOL     OW21637   5.144   5.107   4.717
 6913SOL    HW121638   5.082   5.070   4.786
 6913SOL    HW221639   5.189   5.189   4.753
 6914SOL     OW21640   5.980   5.544   0.536
 6914SOL    HW121641   5.931   5.558   0.450
 6914SOL    HW221642   5.921   5.567   0.613
 6915SOL     OW21643   0.427   4.782   3.150
 6915SOL    HW121644   0.517   4.795   3.109
 6915SOL    HW221645   0.380   4.707   3.103
 6916SOL     OW21646   6.227   3.493   0.132
 6916SOL    HW121647   6.138   3.538   0.135
 6916SOL    HW221648   6.215   3.394   0.132
 6917SOL     OW21649   5.074   6.746   6.242
 6917SOL    HW121650   4.997   6.791   6.197
 6917SOL    HW221651   5.086   6.654   6.204
 6918SOL     OW21652   0.058   3.876   4.000
 6918SOL    HW121653   0.013   3.948   3.947
 6918SOL    HW221654   0.154   3.900   4.014
 6919SOL     OW21655   1.920   6.424   2.500
 6919SOL    HW121656   1.960   6.489   2.565
 6919SOL    HW221657   1.961   6.334   2.512
 6920SOL     OW21658   5.254   5.641   4.877
 6920SOL    HW121659   5.267   5.703   4.954
 6920SOL    HW221660   5.299   5.678   4.796
 6921SOL     OW21661   6.892   0.307   3.370
 6921SOL    HW121662   6.923   0.218   3.402
 6921SOL    HW221663   6.948   0.336   3.292
 6922SOL     OW21664   2.465   5.768   0.857
 6922SOL    HW121665   2.418   5.786   0.771
 6922SOL    HW221666   2.554   5.727   0.839
 6923SOL     OW21667   4.784   7.004   4.319
 6923SOL    HW121668   4.875   6.964   4.332
 6923SOL    HW221669   4.772   7.026   4.222
 6924SOL     OW21670   0.235   5.247   1.526
 6924SOL    HW121671   0.216   5.168   1.585
 6924SOL    HW221672   0.281   5.217   1.443
 6925SOL     OW21673   4.461   6.567   3.051
 6925SOL    HW121674   4.475   6.582   2.953
 6925SOL    HW221675   4.367   6.537   3.067
 6926SOL     OW21676   3.198   3.916   3.842
 6926SOL    HW121677   3.196   3.981   3.917
 6926SOL    HW221678   3.291   3.909   3.806
 6927SOL     OW21679   5.105   3.822   6.175
 6927SOL    HW121680   5.029   3.793   6.234
 6927SOL    HW221681   5.178   3.860   6.232
 6928SOL     OW21682   5.008   0.699   6.589
 6928SOL    HW121683   4.985   0.796   6.580
 6928SOL    HW221684   5.034   0.663   6.499
 6929SOL     OW21685   4.218   6.156   0.243
 6929SOL    HW121686   4.267   6.224   0.298
 6929SOL    HW221687   4.122   6.182   0.237
 6930SOL     OW21688   0.638   6.778   1.943
 6930SOL    HW121689   0.726   6.825   1.949
 6930SOL    HW221690   0.582   6.821   1.872
 6931SOL     OW21691   1.550   0.314   1.430
 6931SOL    HW121692   1.609   0.330   1.509
 6931SOL    HW221693   1.515   0.221   1.432
 6932SOL     OW21694   2.692   1.730   6.944
 6932SOL    HW121695   2.698   1.638   6.984
 6932SOL    HW221696   2.771   1.746   6.886
 6933SOL     OW21697   4.137   5.487   5.664
 6933SOL    HW121698   4.125   5.574   5.712
 6933SOL    HW221699   4.230   5.454   5.678
 6934SOL     OW21700   4.870   3.303   0.391
 6934SOL    HW121701   4.934   3.234   0.425
 6934SOL    HW221702   4.914   3.392   0.389
 6935SOL     OW21703   4.349   6.607   3.478
 6935SOL    HW121704   4.403   6.572   3.555
 6935SOL    HW221705   4.317   6.531   3.422
 6936SOL     OW21706   0.641   2.597   1.162
 6936SOL    HW121707   0.548   2.564   1.177
 6936SOL    HW221708   0.662   2.595   1.065
 6937SOL     OW21709   4.576   6.431   6.161
 6937SOL    HW121710   4.518   6.360   6.201
 6937SOL    HW221711   4.555   6.519   6.203
 6938SOL     OW21712   4.881   3.352   5.089
 6938SOL    HW121713   4.866   3.440   5.044
 6938SOL    HW221714   4.935   3.366   5.172
 6939SOL     OW21715   0.110   4.369   2.266
 6939SOL    HW121716   0.062   4.302   2.209
 6939SOL    HW221717   0.111   4.337   2.361
 6940SOL     OW21718   4.852   0.566   5.814
 6940SOL    HW121719   4.847   0.578   5.913
 6940SOL    HW221720   4.948   0.567   5.785
 6941SOL     OW21721   3.527   2.889   3.500
 6941SOL    HW121722   3.559   2.816   3.440
 6941SOL    HW221723   3.483   2.850   3.580
 6942SOL     OW21724   7.003   3.282   0.842
 6942SOL    HW121725   0.033   3.242   0.772
 6942SOL    HW221726   7.005   3.225   0.924
 6943SOL     OW21727   5.548   6.633   5.947
 6943SOL    HW121728   5.628   6.582   5.980
 6943SOL    HW221729   5.465   6.591   5.982
 6944SOL     OW21730   1.375   5.391   6.399
 6944SOL    HW121731   1.338   5.353   6.484
 6944SOL    HW221732   1.406   5.317   6.340
 6945SOL     OW21733   6.118   3.126   6.251
 6945SOL    HW121734   6.073   3.139   6.340
 6945SOL    HW221735   6.215   3.146   6.260
 6946SOL     OW21736   5.747   4.381   2.917
 6946SOL    HW121737   5.687   4.392   2.996
 6946SOL    HW221738   5.719   4.301   2.864
 6947SOL     OW21739   3.470   6.633   2.744
 6947SOL    HW121740   3.442   6.729   2.738
 6947SOL    HW221741   3.488   6.597   2.653
 6948SOL     OW21742   4.932   1.013   6.781
 6948SOL    HW121743   4.956   1.042   6.874
 6948SOL    HW221744   4.861   0.943   6.786
 6949SOL     OW21745   5.212   6.703   3.296
 6949SOL    HW121746   5.131   6.659   3.334
 6949SOL    HW221747   5.259   6.640   3.236
 6950SOL     OW21748   2.113   0.777   2.619
 6950SOL    HW121749   2.095   0.817   2.709
 6950SOL    HW221750   2.096   0.679   2.622
 6951SOL     OW21751   6.364   6.116   5.524
 6951SOL    HW121752   6.316   6.038   5.484
 6951SOL    HW221753   6.447   6.084   5.570
 6952SOL     OW21754   0.494   5.188   4.291
 6952SOL    HW121755   0.585   5.185   4.333
 6952SOL    HW221756   0.497   5.139   4.204
 6953SOL     OW21757   4.894   1.259   5.926
 6953SOL    HW121758   4.992   1.251   5.906
 6953SOL    HW221759   4.841   1.224   5.849
 6954SOL     OW21760   6.624   3.136   4.414
 6954SOL    HW121761   6.711   3.116   4.460
 6954SOL    HW221762   6.627   3.229   4.377
 6955SOL     OW21763   0.095   6.307   1.468
 6955SOL    HW121764   0.127   6.230   1.413
 6955SOL    HW221765   0.147   6.311   1.554
 6956SOL     OW21766   4.539   5.219   2.000
 6956SOL    HW121767   4.559   5.312   2.029
 6956SOL    HW221768   4.440   5.205   1.997
 6957SOL     OW21769   0.126   4.724   2.013
 6957SOL    HW121770   0.210   4.683   2.051
 6957SOL    HW221771   0.078   4.774   2.084
 6958SOL     OW21772   2.523   2.958   6.099
 6958SOL    HW121773   2.468   2.905   6.033
 6958SOL    HW221774   2.609   2.911   6.116
 6959SOL     OW21775   3.494   1.710   4.755
 6959SOL    HW121776   3.585   1.732   4.792
 6959SOL    HW221777   3.505   1.665   4.666
 6960SOL     OW21778   6.863   4.860   0.198
 6960SOL    HW121779   6.880   4.770   0.158
 6960SOL    HW221780   6.944   4.917   0.188
 6961SOL     OW21781   1.255   1.862   3.470
 6961SOL    HW121782   1.304   1.824   3.391
 6961SOL    HW221783   1.286   1.956   3.486
 6962SOL     OW21784   4.962   5.127   2.164
 6962SOL    HW121785   5.015   5.123   2.249
 6962SOL    HW221786   4.980   5.213   2.117
 6963SOL     OW21787   0.883   5.080   1.771
 6963SOL    HW121788   0.829   5.151   1.816
 6963SOL    HW221789   0.843   5.060   1.681
 6964SOL     OW21790   4.558   5.568   5.215
 6964SOL    HW121791   4.488   5.516   5.263
 6964SOL    HW221792   4.546   5.557   5.116
 6965SOL     OW21793   6.577   3.629   6.338
 6965SOL    HW121794   6.657   3.666   6.291
 6965SOL    HW221795   6.541   3.551   6.286
 6966SOL     OW21796   5.169   2.705   2.726
 6966SOL    HW121797   5.206   2.621   2.685
 6966SOL    HW221798   5.076   2.688   2.758
 6967SOL     OW21799   1.503   2.191   5.970
 6967SOL    HW121800   1.499   2.182   5.870
 6967SOL    HW221801   1.481   2.286   5.995
 6968SOL     OW21802   4.350   5.724   1.609
 6968SOL    HW121803   4.369   5.727   1.511
 6968SOL    HW221804   4.403   5.650   1.652
 6969SOL     OW21805   3.710   1.516   1.209
 6969SOL    HW121806   3.727   1.418   1.208
 6969SOL    HW221807   3.780   1.562   1.264
 6970SOL     OW21808   3.721   4.477   0.736
 6970SOL    HW121809   3.786   4.414   0.778
 6970SOL    HW221810   3.681   4.436   0.654
 6971SOL     OW21811   6.349   2.581   1.704
 6971SOL    HW121812   6.396   2.521   1.769
 6971SOL    HW221813   6.307   2.526   1.632
 6972SOL     OW21814   5.365   4.488   4.194
 6972SOL    HW121815   5.387   4.430   4.116
 6972SOL    HW221816   5.394   4.444   4.279
 6973SOL     OW21817   2.050   5.224   4.499
 6973SOL    HW121818   2.032   5.311   4.452
 6973SOL    HW221819   2.034   5.236   4.597
 6974SOL     OW21820   3.352   3.923   3.494
 6974SOL    HW121821   3.375   3.930   3.591
 6974SOL    HW221822   3.253   3.925   3.483
 6975SOL     OW21823   3.664   0.644   6.120
 6975SOL    HW121824   3.633   0.685   6.034
 6975SOL    HW221825   3.717   0.710   6.173
 6976SOL     OW21826   2.591   5.040   6.592
 6976SOL    HW121827   2.649   5.074   6.667
 6976SOL    HW221828   2.570   4.943   6.608
 6977SOL     OW21829   3.788   1.504   2.519
 6977SOL    HW121830   3.790   1.479   2.422
 6977SOL    HW221831   3.695   1.531   2.545
 6978SOL     OW21832   0.171   0.561   1.802
 6978SOL    HW121833   0.261   0.550   1.760
 6978SOL    HW221834   0.144   0.476   1.846
 6979SOL     OW21835   0.705   4.786   2.432
 6979SOL    HW121836   0.648   4.838   2.496
 6979SOL    HW221837   0.718   4.693   2.466
 6980SOL     OW21838   2.246   1.109   3.226
 6980SOL    HW121839   2.242   1.159   3.140
 6980SOL    HW221840   2.156   1.110   3.270
 6981SOL     OW21841   2.350   4.287   0.339
 6981SOL    HW121842   2.307   4.330   0.260
 6981SOL    HW221843   2.447   4.270   0.319
 6982SOL     OW21844   1.393   0.598   4.127
 6982SOL    HW121845   1.312   0.566   4.076
 6982SOL    HW221846   1.376   0.690   4.161
 6983SOL     OW21847   6.944   0.218   4.669
 6983SOL    HW121848   7.021   0.174   4.714
 6983SOL    HW221849   6.858   0.185   4.710
 6984SOL     OW21850   1.899   1.994   5.576
 6984SOL    HW121851   1.991   1.963   5.600
 6984SOL    HW221852   1.850   2.022   5.659
 6985SOL     OW21853   3.930   5.816   2.246
 6985SOL    HW121854   3.855   5.837   2.310
 6985SOL    HW221855   3.896   5.754   2.175
 6986SOL     OW21856   1.744   6.369   5.429
 6986SOL    HW121857   1.819   6.312   5.394
 6986SOL    HW221858   1.725   6.443   5.365
 6987SOL     OW21859   6.851   2.762   6.401
 6987SOL    HW121860   6.841   2.663   6.386
 6987SOL    HW221861   6.862   2.808   6.312
 6988SOL     OW21862   5.259   1.213   3.954
 6988SOL    HW121863   5.321   1.279   3.995
 6988SOL    HW221864   5.164   1.243   3.970
 6989SOL     OW21865   1.441   1.403   3.496
 6989SOL    HW121866   1.540   1.395   3.512
 6989SOL    HW221867   1.403   1.470   3.559
 6990SOL     OW21868   4.609   2.985   6.730
 6990SOL    HW121869   4.619   2.941   6.819
 6990SOL    HW221870   4.538   2.937   6.677
 6991SOL     OW21871   2.497   4.607   5.590
 6991SOL    HW121872   2.597   4.604   5.596
 6991SOL    HW221873   2.470   4.696   5.552
 6992SOL     OW21874   6.053   6.415   4.535
 6992SOL    HW121875   6.018   6.457   4.451
 6992SOL    HW221876   6.108   6.334   4.512
 6993SOL     OW21877   0.091   0.260   3.187
 6993SOL    HW121878   0.078   0.179   3.131
 6993SOL    HW221879   0.078   0.342   3.131
 6994SOL     OW21880   1.736   3.615   5.825
 6994SOL    HW121881   1.739   3.710   5.794
 6994SOL    HW221882   1.776   3.609   5.917
 6995SOL     OW21883   5.836   5.679   4.586
 6995SOL    HW121884   5.823   5.689   4.685
 6995SOL    HW221885   5.855   5.583   4.565
 6996SOL     OW21886   2.622   0.863   5.171
 6996SOL    HW121887   2.616   0.860   5.072
 6996SOL    HW221888   2.640   0.772   5.207
 6997SOL     OW21889   4.975   6.165   4.744
 6997SOL    HW121890   4.982   6.181   4.646
 6997SOL    HW221891   4.999   6.249   4.794
 6998SOL     OW21892   2.123   2.866   1.653
 6998SOL    HW121893   2.115   2.892   1.749
 6998SOL    HW221894   2.054   2.915   1.600
 6999SOL     OW21895   2.131   2.093   5.977
 6999SOL    HW121896   2.140   2.179   6.027
 6999SOL    HW221897   2.109   2.020   6.042
 7000SOL     OW21898   0.464   6.129   2.862
 7000SOL    HW121899   0.484   6.096   2.954
 7000SOL    HW221900   0.376   6.177   2.862
 7001SOL     OW21901   2.291   2.914   5.876
 7001SOL    HW121902   2.231   2.948   5.949
 7001SOL    HW221903   2.334   2.991   5.830
 7002SOL     OW21904   1.803   5.322   4.217
 7002SOL    HW121905   1.732   5.388   4.192
 7002SOL    HW221906   1.868   5.364   4.280
 7003SOL     OW21907   3.104   6.922   0.472
 7003SOL    HW121908   3.169   6.853   0.504
 7003SOL    HW221909   3.153   7.007   0.452
 7004SOL     OW21910   2.051   4.405   1.459
 7004SOL    HW121911   2.006   4.431   1.545
 7004SOL    HW221912   1.983   4.365   1.397
 7005SOL     OW21913   6.038   6.475   6.424
 7005SOL    HW121914   6.019   6.380   6.447
 7005SOL    HW221915   5.979   6.505   6.349
 7006SOL     OW21916   4.839   4.046   4.703
 7006SOL    HW121917   4.872   4.122   4.760
 7006SOL    HW221918   4.872   3.960   4.741
 7007SOL     OW21919   5.048   6.684   3.041
 7007SOL    HW121920   4.955   6.720   3.029
 7007SOL    HW221921   5.091   6.674   2.952
 7008SOL     OW21922   2.335   5.518   4.946
 7008SOL    HW121923   2.399   5.474   4.882
 7008SOL    HW221924   2.319   5.456   5.023
 7009SOL     OW21925   6.189   5.801   2.296
 7009SOL    HW121926   6.113   5.782   2.233
 7009SOL    HW221927   6.238   5.883   2.265
 7010SOL     OW21928   3.356   4.512   6.071
 7010SOL    HW121929   3.408   4.543   5.992
 7010SOL    HW221930   3.272   4.567   6.079
 7011SOL     OW21931   2.221   6.847   5.651
 7011SOL    HW121932   2.268   6.824   5.565
 7011SOL    HW221933   2.123   6.827   5.642
 7012SOL     OW21934   1.084   0.084   1.771
 7012SOL    HW121935   1.028   0.140   1.831
 7012SOL    HW221936   1.163   0.136   1.740
 7013SOL     OW21937   1.187   0.007   1.411
 7013SOL    HW121938   1.114   0.050   1.358
 7013SOL    HW221939   1.275   0.024   1.366
 7014SOL     OW21940   3.347   4.711   0.975
 7014SOL    HW121941   3.359   4.722   0.876
 7014SOL    HW221942   3.269   4.651   0.993
 7015SOL     OW21943   5.124   3.231   2.536
 7015SOL    HW121944   5.100   3.134   2.540
 7015SOL    HW221945   5.175   3.249   2.453
 7016SOL     OW21946   4.555   4.936   2.088
 7016SOL    HW121947   4.488   4.876   2.045
 7016SOL    HW221948   4.553   5.026   2.044
 7017SOL     OW21949   3.158   1.739   3.389
 7017SOL    HW121950   3.139   1.800   3.311
 7017SOL    HW221951   3.113   1.651   3.373
 7018SOL     OW21952   0.161   4.101   4.680
 7018SOL    HW121953   0.095   4.091   4.754
 7018SOL    HW221954   0.152   4.192   4.639
 7019SOL     OW21955   2.580   4.779   6.664
 7019SOL    HW121956   2.634   4.731   6.595
 7019SOL    HW221957   2.485   4.747   6.660
 7020SOL     OW21958   6.009   0.188   0.038
 7020SOL    HW121959   5.939   0.238   7.013
 7020SOL    HW221960   6.095   0.239   0.037
 7021SOL     OW21961   2.372   1.136   5.002
 7021SOL    HW121962   2.325   1.134   5.090
 7021SOL    HW221963   2.427   1.219   4.995
 7022SOL     OW21964   5.122   3.380   0.719
 7022SOL    HW121965   5.061   3.413   0.647
 7022SOL    HW221966   5.196   3.446   0.733
 7023SOL     OW21967   6.222   2.264   2.326
 7023SOL    HW121968   6.153   2.324   2.285
 7023SOL    HW221969   6.242   2.295   2.419
 7024SOL     OW21970   1.872   6.161   6.523
 7024SOL    HW121971   1.788   6.176   6.576
 7024SOL    HW221972   1.857   6.087   6.458
 7025SOL     OW21973   3.070   2.102   6.529
 7025SOL    HW121974   3.051   2.146   6.441
 7025SOL    HW221975   2.984   2.078   6.573
 7026SOL     OW21976   3.096   1.795   2.063
 7026SOL    HW121977   3.080   1.892   2.078
 7026SOL    HW221978   3.168   1.763   2.124
 7027SOL     OW21979   3.815   5.621   3.803
 7027SOL    HW121980   3.790   5.711   3.767
 7027SOL    HW221981   3.855   5.632   3.894
 7028SOL     OW21982   4.885   6.987   3.589
 7028SOL    HW121983   4.914   6.949   3.501
 7028SOL    HW221984   4.963   6.990   3.651
 7029SOL     OW21985   3.746   6.403   0.243
 7029SOL    HW121986   3.704   6.450   0.165
 7029SOL    HW221987   3.833   6.447   0.265
 7030SOL     OW21988   0.335   3.606   5.660
 7030SOL    HW121989   0.391   3.585   5.579
 7030SOL    HW221990   0.329   3.525   5.718
 7031SOL     OW21991   2.304   5.719   4.278
 7031SOL    HW121992   2.319   5.655   4.352
 7031SOL    HW221993   2.388   5.731   4.226
 7032SOL     OW21994   4.583   6.818   2.808
 7032SOL    HW121995   4.579   6.908   2.851
 7032SOL    HW221996   4.512   6.811   2.737
 7033SOL     OW21997   0.226   1.098   3.785
 7033SOL    HW121998   0.184   1.013   3.817
 7033SOL    HW221999   0.232   1.097   3.685
 7034SOL     OW22000   4.870   0.019   2.957
 7034SOL    HW122001   4.785   0.009   2.906
 7034SOL    HW222002   4.850   0.021   3.055
 7035SOL     OW22003   0.634   6.332   2.842
 7035SOL    HW122004   0.657   6.377   2.928
 7035SOL    HW222005   0.580   6.250   2.860
 7036SOL     OW22006   6.873   5.782   1.979
 7036SOL    HW122007   6.954   5.750   2.029
 7036SOL    HW222008   6.901   5.821   1.892
 7037SOL     OW22009   0.356   5.910   5.176
 7037SOL    HW122010   0.416   5.862   5.112
 7037SOL    HW222011   0.387   5.894   5.269
 7038SOL     OW22012   1.008   3.990   3.415
 7038SOL    HW122013   1.013   3.893   3.392
 7038SOL    HW222014   1.100   4.028   3.421
 7039SOL     OW22015   3.649   6.945   6.549
 7039SOL    HW122016   3.574   6.994   6.505
 7039SOL    HW222017   3.618   6.907   6.636
 7040SOL     OW22018   4.538   2.904   6.154
 7040SOL    HW122019   4.591   2.930   6.235
 7040SOL    HW222020   4.522   2.984   6.097
 7041SOL     OW22021   1.217   0.881   2.933
 7041SOL    HW122022   1.310   0.910   2.956
 7041SOL    HW222023   1.213   0.854   2.837
 7042SOL     OW22024   4.570   5.652   6.100
 7042SOL    HW122025   4.530   5.580   6.156
 7042SOL    HW222026   4.578   5.736   6.154
 7043SOL     OW22027   1.460   2.483   3.251
 7043SOL    HW122028   1.447   2.580   3.231
 7043SOL    HW222029   1.433   2.465   3.345
 7044SOL     OW22030   4.701   4.647   2.579
 7044SOL    HW122031   4.692   4.746   2.564
 7044SOL    HW222032   4.618   4.601   2.548
 7045SOL     OW22033   4.796   6.651   1.097
 7045SOL    HW122034   4.716   6.637   1.156
 7045SOL    HW222035   4.866   6.702   1.148
 7046SOL     OW22036   3.967   0.639   4.898
 7046SOL    HW122037   3.897   0.686   4.844
 7046SOL    HW222038   3.993   0.696   4.976
 7047SOL     OW22039   0.846   1.789   3.477
 7047SOL    HW122040   0.812   1.872   3.522
 7047SOL    HW222041   0.782   1.762   3.405
 7048SOL     OW22042   0.306   5.814   1.113
 7048SOL    HW122043   0.376   5.765   1.060
 7048SOL    HW222044   0.307   5.911   1.088
 7049SOL     OW22045   1.580   0.933   0.587
 7049SOL    HW122046   1.511   1.005   0.591
 7049SOL    HW222047   1.593   0.894   0.678
 7050SOL     OW22048   3.676   4.170   4.510
 7050SOL    HW122049   3.708   4.264   4.505
 7050SOL    HW222050   3.638   4.142   4.422
 7051SOL     OW22051   6.826   0.429   1.188
 7051SOL    HW122052   6.878   0.452   1.106
 7051SOL    HW222053   6.734   0.467   1.181
 7052SOL     OW22054   0.085   1.924   4.430
 7052SOL    HW122055   0.008   1.971   4.472
 7052SOL    HW222056   0.141   1.991   4.381
 7053SOL     OW22057   0.299   4.088   6.299
 7053SOL    HW122058   0.282   4.168   6.241
 7053SOL    HW222059   0.395   4.087   6.327
 7054SOL     OW22060   6.380   6.637   1.419
 7054SOL    HW122061   6.401   6.694   1.340
 7054SOL    HW222062   6.370   6.694   1.500
 7055SOL     OW22063   4.545   0.341   5.805
 7055SOL    HW122064   4.590   0.279   5.869
 7055SOL    HW222065   4.509   0.420   5.854
 7056SOL     OW22066   5.498   4.585   2.787
 7056SOL    HW122067   5.588   4.554   2.818
 7056SOL    HW222068   5.478   4.675   2.825
 7057SOL     OW22069   0.162   4.243   4.183
 7057SOL    HW122070   0.190   4.167   4.124
 7057SOL    HW222071   0.227   4.253   4.258
 7058SOL     OW22072   0.227   5.341   4.759
 7058SOL    HW122073   0.237   5.439   4.774
 7058SOL    HW222074   0.316   5.300   4.741
 7059SOL     OW22075   0.538   6.880   1.706
 7059SOL    HW122076   0.474   6.830   1.648
 7059SOL    HW222077   0.619   6.905   1.652
 7060SOL     OW22078   3.063   0.175   1.230
 7060SOL    HW122079   3.020   0.263   1.214
 7060SOL    HW222080   3.015   0.104   1.179
 7061SOL     OW22081   0.367   1.744   3.263
 7061SOL    HW122082   0.293   1.765   3.327
 7061SOL    HW222083   0.378   1.821   3.200
 7062SOL     OW22084   6.088   1.936   5.420
 7062SOL    HW122085   5.991   1.955   5.433
 7062SOL    HW222086   6.100   1.840   5.396
 7063SOL     OW22087   1.623   6.249   1.288
 7063SOL    HW122088   1.531   6.276   1.317
 7063SOL    HW222089   1.626   6.243   1.188
 7064SOL     OW22090   4.312   2.523   1.510
 7064SOL    HW122091   4.378   2.461   1.554
 7064SOL    HW222092   4.325   2.615   1.546
 7065SOL     OW22093   4.542   4.220   1.241
 7065SOL    HW122094   4.459   4.244   1.291
 7065SOL    HW222095   4.612   4.191   1.306
 7066SOL     OW22096   3.869   0.778   0.522
 7066SOL    HW122097   3.848   0.709   0.452
 7066SOL    HW222098   3.846   0.869   0.486
 7067SOL     OW22099   1.146   4.129   5.674
 7067SOL    HW122100   1.132   4.030   5.669
 7067SOL    HW222101   1.145   4.167   5.582
 7068SOL     OW22102   0.899   2.759   3.175
 7068SOL    HW122103   0.884   2.725   3.082
 7068SOL    HW222104   0.996   2.779   3.187
 7069SOL     OW22105   6.497   3.464   5.519
 7069SOL    HW122106   6.459   3.462   5.427
 7069SOL    HW222107   6.429   3.431   5.584
 7070SOL     OW22108   6.519   4.685   5.431
 7070SOL    HW122109   6.423   4.659   5.425
 7070SOL    HW222110   6.526   4.784   5.439
 7071SOL     OW22111   1.123   5.941   5.060
 7071SOL    HW122112   1.219   5.964   5.077
 7071SOL    HW222113   1.089   5.885   5.136
 7072SOL     OW22114   6.830   6.413   5.947
 7072SOL    HW122115   6.890   6.458   5.879
 7072SOL    HW222116   6.739   6.402   5.908
 7073SOL     OW22117   0.174   0.840   5.609
 7073SOL    HW122118   0.180   0.900   5.530
 7073SOL    HW222119   0.124   0.757   5.585
 7074SOL     OW22120   3.287   2.765   1.919
 7074SOL    HW122121   3.383   2.740   1.907
 7074SOL    HW222122   3.231   2.714   1.854
 7075SOL     OW22123   1.782   5.796   4.403
 7075SOL    HW122124   1.734   5.840   4.479
 7075SOL    HW222125   1.848   5.730   4.439
 7076SOL     OW22126   3.240   1.871   6.993
 7076SOL    HW122127   3.189   1.785   7.000
 7076SOL    HW222128   3.322   1.857   6.937
 7077SOL     OW22129   2.074   5.663   5.395
 7077SOL    HW122130   2.171   5.641   5.383
 7077SOL    HW222131   2.065   5.742   5.456
 7078SOL     OW22132   6.226   6.683   2.907
 7078SOL    HW122133   6.219   6.596   2.955
 7078SOL    HW222134   6.293   6.675   2.832
 7079SOL     OW22135   6.949   6.209   5.557
 7079SOL    HW122136   6.965   6.134   5.622
 7079SOL    HW222137   6.870   6.186   5.500
 7080SOL     OW22138   4.160   2.304   3.647
 7080SOL    HW122139   4.186   2.208   3.639
 7080SOL    HW222140   4.123   2.336   3.559
 7081SOL     OW22141   3.262   1.161   4.904
 7081SOL    HW122142   3.323   1.217   4.848
 7081SOL    HW222143   3.221   1.217   4.975
 7082SOL     OW22144   5.325   1.189   6.930
 7082SOL    HW122145   5.327   1.175   0.002
 7082SOL    HW222146   5.410   1.153   6.891
 7083SOL     OW22147   3.022   1.476   6.349
 7083SOL    HW122148   3.052   1.554   6.295
 7083SOL    HW222149   2.951   1.426   6.299
 7084SOL     OW22150   6.863   6.942   5.367
 7084SOL    HW122151   6.926   7.014   5.337
 7084SOL    HW222152   6.801   6.978   5.437
 7085SOL     OW22153   2.368   2.349   3.163
 7085SOL    HW122154   2.345   2.280   3.231
 7085SOL    HW222155   2.440   2.409   3.198
 7086SOL     OW22156   5.502   0.687   6.289
 7086SOL    HW122157   5.535   0.781   6.293
 7086SOL    HW222158   5.547   0.633   6.360
 7087SOL     OW22159   1.087   3.213   4.736
 7087SOL    HW122160   1.027   3.205   4.657
 7087SOL    HW222161   1.173   3.256   4.710
 7088SOL     OW22162   4.891   3.020   4.521
 7088SOL    HW122163   4.949   3.000   4.600
 7088SOL    HW222164   4.901   3.116   4.496
 7089SOL     OW22165   3.601   2.682   6.012
 7089SOL    HW122166   3.645   2.710   6.097
 7089SOL    HW222167   3.520   2.739   5.997
 7090SOL     OW22168   1.746   1.254   5.429
 7090SOL    HW122169   1.735   1.318   5.506
 7090SOL    HW222170   1.786   1.169   5.463
 7091SOL     OW22171   0.311   0.952   0.292
 7091SOL    HW122172   0.226   0.994   0.325
 7091SOL    HW222173   0.291   0.894   0.213
 7092SOL     OW22174   4.072   3.956   6.993
 7092SOL    HW122175   3.988   3.906   7.013
 7092SOL    HW222176   4.142   3.931   0.032
 7093SOL     OW22177   3.441   4.200   4.045
 7093SOL    HW122178   3.463   4.185   3.948
 7093SOL    HW222179   3.343   4.187   4.059
 7094SOL     OW22180   0.450   6.878   5.692
 7094SOL    HW122181   0.366   6.831   5.720
 7094SOL    HW222182   0.482   6.840   5.605
 7095SOL     OW22183   1.919   3.153   6.754
 7095SOL    HW122184   1.975   3.077   6.788
 7095SOL    HW222185   1.965   3.239   6.773
 7096SOL     OW22186   5.195   2.093   4.008
 7096SOL    HW122187   5.157   2.095   3.915
 7096SOL    HW222188   5.241   2.006   4.023
 7097SOL     OW22189   6.684   0.271   1.561
 7097SOL    HW122190   6.732   0.295   1.477
 7097SOL    HW222191   6.744   0.286   1.639
 7098SOL     OW22192   1.393   6.030   5.131
 7098SOL    HW122193   1.386   6.116   5.081
 7098SOL    HW222194   1.473   6.031   5.190
 7099SOL     OW22195   1.094   1.575   5.184
 7099SOL    HW122196   1.055   1.587   5.275
 7099SOL    HW222197   1.193   1.569   5.190
 7100SOL     OW22198   5.057   3.901   1.053
 7100SOL    HW122199   4.967   3.877   1.090
 7100SOL    HW222200   5.085   3.832   0.986
 7101SOL     OW22201   2.937   0.338   4.604
 7101SOL    HW122202   2.944   0.295   4.514
 7101SOL    HW222203   2.962   0.271   4.674
 7102SOL     OW22204   4.105   1.042   0.950
 7102SOL    HW122205   4.142   1.048   0.858
 7102SOL    HW222206   4.163   0.982   1.006
 7103SOL     OW22207   3.576   5.818   6.691
 7103SOL    HW122208   3.612   5.757   6.762
 7103SOL    HW222209   3.534   5.897   6.733
 7104SOL     OW22210   1.768   3.086   3.521
 7104SOL    HW122211   1.797   3.154   3.454
 7104SOL    HW222212   1.703   3.128   3.586
 7105SOL     OW22213   3.297   3.409   4.917
 7105SOL    HW122214   3.358   3.378   4.844
 7105SOL    HW222215   3.287   3.336   4.985
 7106SOL     OW22216   3.929   3.066   4.361
 7106SOL    HW122217   3.987   3.137   4.402
 7106SOL    HW222218   3.928   2.986   4.421
 7107SOL     OW22219   2.698   1.501   0.085
 7107SOL    HW122220   2.709   1.415   0.135
 7107SOL    HW222221   2.614   1.547   0.115
 7108SOL     OW22222   3.900   6.548   1.517
 7108SOL    HW122223   3.835   6.572   1.445
 7108SOL    HW222224   3.963   6.624   1.531
 7109SOL     OW22225   3.476   0.138   6.124
 7109SOL    HW122226   3.466   0.180   6.034
 7109SOL    HW222227   3.467   0.039   6.116
 7110SOL     OW22228   5.362   5.396   4.207
 7110SOL    HW122229   5.297   5.319   4.204
 7110SOL    HW222230   5.446   5.370   4.159
 7111SOL     OW22231   1.605   3.382   3.997
 7111SOL    HW122232   1.679   3.446   3.976
 7111SOL    HW222233   1.546   3.373   3.917
 7112SOL     OW22234   1.616   5.927   4.205
 7112SOL    HW122235   1.562   5.860   4.154
 7112SOL    HW222236   1.675   5.880   4.270
 7113SOL     OW22237   3.934   3.812   4.670
 7113SOL    HW122238   3.911   3.799   4.767
 7113SOL    HW222239   3.989   3.735   4.638
 7114SOL     OW22240   3.907   0.340   1.616
 7114SOL    HW122241   3.817   0.383   1.611
 7114SOL    HW222242   3.929   0.298   1.528
 7115SOL     OW22243   5.465   2.250   1.211
 7115SOL    HW122244   5.462   2.252   1.311
 7115SOL    HW222245   5.371   2.254   1.175
 7116SOL     OW22246   5.905   4.267   3.737
 7116SOL    HW122247   5.846   4.228   3.667
 7116SOL    HW222248   5.980   4.317   3.694
 7117SOL     OW22249   7.008   6.165   3.543
 7117SOL    HW122250   7.002   6.265   3.542
 7117SOL    HW222251   7.024   6.132   3.450
 7118SOL     OW22252   5.279   3.811   1.316
 7118SOL    HW122253   5.269   3.901   1.274
 7118SOL    HW222254   5.329   3.751   1.253
 7119SOL     OW22255   5.396   1.157   3.244
 7119SOL    HW122256   5.324   1.226   3.249
 7119SOL    HW222257   5.481   1.200   3.211
 7120SOL     OW22258   4.662   1.464   2.773
 7120SOL    HW122259   4.736   1.485   2.836
 7120SOL    HW222260   4.636   1.368   2.783
 7121SOL     OW22261   1.905   6.930   3.615
 7121SOL    HW122262   1.837   6.955   3.684
 7121SOL    HW222263   1.935   6.836   3.631
 7122SOL     OW22264   6.758   0.976   0.342
 7122SOL    HW122265   6.668   0.949   0.377
 7122SOL    HW222266   6.755   1.071   0.311
 7123SOL     OW22267   2.748   5.655   1.674
 7123SOL    HW122268   2.760   5.609   1.762
 7123SOL    HW222269   2.734   5.753   1.688
 7124SOL     OW22270   0.642   5.002   0.805
 7124SOL    HW122271   0.721   5.046   0.847
 7124SOL    HW222272   0.672   4.919   0.757
 7125SOL     OW22273   6.309   6.374   1.425
 7125SOL    HW122274   6.321   6.473   1.435
 7125SOL    HW222275   6.399   6.331   1.415
 7126SOL     OW22276   2.332   3.426   0.495
 7126SOL    HW122277   2.290   3.510   0.461
 7126SOL    HW222278   2.324   3.423   0.594
 7127SOL     OW22279   3.233   5.225   4.183
 7127SOL    HW122280   3.178   5.269   4.113
 7127SOL    HW222281   3.330   5.228   4.156
 7128SOL     OW22282   3.269   4.780   0.652
 7128SOL    HW122283   3.317   4.734   0.577
 7128SOL    HW222284   3.171   4.770   0.639
 7129SOL     OW22285   3.181   0.910   1.271
 7129SOL    HW122286   3.145   0.875   1.184
 7129SOL    HW222287   3.228   0.836   1.319
 7130SOL     OW22288   3.399   4.974   4.192
 7130SOL    HW122289   3.400   5.062   4.144
 7130SOL    HW222290   3.305   4.953   4.219
 7131SOL     OW22291   2.673   1.637   1.057
 7131SOL    HW122292   2.677   1.653   1.155
 7131SOL    HW222293   2.735   1.700   1.010
 7132SOL     OW22294   4.172   3.464   3.110
 7132SOL    HW122295   4.112   3.541   3.132
 7132SOL    HW222296   4.246   3.496   3.051
 7133SOL     OW22297   5.112   5.058   2.900
 7133SOL    HW122298   5.130   5.133   2.836
 7133SOL    HW222299   5.019   5.066   2.936
 7134SOL     OW22300   6.384   6.128   4.032
 7134SOL    HW122301   6.314   6.102   3.965
 7134SOL    HW222302   6.343   6.137   4.122
 7135SOL     OW22303   1.249   0.800   4.277
 7135SOL    HW122304   1.150   0.806   4.263
 7135SOL    HW222305   1.286   0.892   4.290
 7136SOL     OW22306   1.629   1.380   0.795
 7136SOL    HW122307   1.636   1.347   0.889
 7136SOL    HW222308   1.543   1.348   0.755
 7137SOL     OW22309   4.127   0.856   4.619
 7137SOL    HW122310   4.044   0.809   4.591
 7137SOL    HW222311   4.104   0.929   4.683
 7138SOL     OW22312   3.369   2.822   1.504
 7138SOL    HW122313   3.356   2.889   1.578
 7138SOL    HW222314   3.467   2.814   1.484
 7139SOL     OW22315   4.920   3.286   2.127
 7139SOL    HW122316   4.863   3.206   2.110
 7139SOL    HW222317   4.942   3.291   2.224
 7140SOL     OW22318   5.920   3.134   5.117
 7140SOL    HW122319   5.999   3.080   5.090
 7140SOL    HW222320   5.854   3.076   5.164
 7141SOL     OW22321   3.393   0.403   0.864
 7141SOL    HW122322   3.445   0.445   0.938
 7141SOL    HW222323   3.312   0.356   0.901
 7142SOL     OW22324   4.491   0.161   3.637
 7142SOL    HW122325   4.462   0.167   3.541
 7142SOL    HW222326   4.413   0.133   3.694
 7143SOL     OW22327   1.777   3.599   6.109
 7143SOL    HW122328   1.775   3.698   6.119
 7143SOL    HW222329   1.774   3.555   6.199
 7144SOL     OW22330   1.022   1.215   2.735
 7144SOL    HW122331   0.987   1.283   2.671
 7144SOL    HW222332   1.103   1.252   2.782
 7145SOL     OW22333   4.515   6.665   6.359
 7145SOL    HW122334   4.580   6.654   6.434
 7145SOL    HW222335   4.563   6.693   6.276
 7146SOL     OW22336   2.412   6.708   0.819
 7146SOL    HW122337   2.420   6.662   0.907
 7146SOL    HW222338   2.350   6.656   0.760
 7147SOL     OW22339   6.786   6.612   3.708
 7147SOL    HW122340   6.728   6.587   3.630
 7147SOL    HW222341   6.798   6.711   3.710
 7148SOL     OW22342   0.887   6.184   1.549
 7148SOL    HW122343   0.960   6.118   1.563
 7148SOL    HW222344   0.850   6.173   1.457
 7149SOL     OW22345   6.850   0.536   3.556
 7149SOL    HW122346   6.860   0.467   3.484
 7149SOL    HW222347   6.766   0.519   3.607
 7150SOL     OW22348   4.810   3.102   1.495
 7150SOL    HW122349   4.792   3.171   1.426
 7150SOL    HW222350   4.806   3.144   1.586
 7151SOL     OW22351   1.370   5.850   0.770
 7151SOL    HW122352   1.415   5.775   0.721
 7151SOL    HW222353   1.381   5.935   0.717
 7152SOL     OW22354   0.549   3.279   5.466
 7152SOL    HW122355   0.545   3.218   5.546
 7152SOL    HW222356   0.596   3.233   5.391
 7153SOL     OW22357   4.079   6.797   5.569
 7153SOL    HW122358   4.045   6.827   5.480
 7153SOL    HW222359   4.019   6.830   5.641
 7154SOL     OW22360   4.003   5.635   4.541
 7154SOL    HW122361   3.951   5.550   4.538
 7154SOL    HW222362   3.966   5.699   4.473
 7155SOL     OW22363   1.277   6.182   2.182
 7155SOL    HW122364   1.365   6.197   2.228
 7155SOL    HW222365   1.279   6.094   2.135
 7156SOL     OW22366   6.916   4.945   5.084
 7156SOL    HW122367   6.927   4.850   5.058
 7156SOL    HW222368   6.821   4.961   5.112
 7157SOL     OW22369   6.222   5.386   0.506
 7157SOL    HW122370   6.147   5.444   0.538
 7157SOL    HW222371   6.309   5.426   0.533
 7158SOL     OW22372   6.848   6.772   3.049
 7158SOL    HW122373   6.893   6.683   3.043
 7158SOL    HW222374   6.883   6.821   3.130
 7159SOL     OW22375   0.333   4.655   1.526
 7159SOL    HW122376   0.423   4.681   1.560
 7159SOL    HW222377   0.263   4.691   1.588
 7160SOL     OW22378   6.471   0.219   1.707
 7160SOL    HW122379   6.528   0.267   1.641
 7160SOL    HW222380   6.506   0.234   1.800
 7161SOL     OW22381   3.462   3.736   3.965
 7161SOL    HW122382   3.446   3.750   4.063
 7161SOL    HW222383   3.554   3.699   3.952
 7162SOL     OW22384   3.492   5.207   4.961
 7162SOL    HW122385   3.532   5.298   4.961
 7162SOL    HW222386   3.396   5.212   4.932
 7163SOL     OW22387   3.413   0.665   3.462
 7163SOL    HW122388   3.430   0.687   3.366
 7163SOL    HW222389   3.501   0.652   3.509
 7164SOL     OW22390   2.193   1.267   2.693
 7164SOL    HW122391   2.175   1.204   2.618
 7164SOL    HW222392   2.290   1.293   2.694
 7165SOL     OW22393   5.828   1.118   0.378
 7165SOL    HW122394   5.844   1.030   0.423
 7165SOL    HW222395   5.890   1.187   0.417
 7166SOL     OW22396   4.930   4.376   1.645
 7166SOL    HW122397   4.938   4.473   1.668
 7166SOL    HW222398   4.877   4.329   1.716
 7167SOL     OW22399   5.045   3.970   5.036
 7167SOL    HW122400   5.108   4.024   4.979
 7167SOL    HW222401   4.961   3.953   4.986
 7168SOL     OW22402   1.580   1.579   4.215
 7168SOL    HW122403   1.608   1.672   4.189
 7168SOL    HW222404   1.573   1.523   4.132
 7169SOL     OW22405   1.785   3.351   5.798
 7169SOL    HW122406   1.737   3.435   5.823
 7169SOL    HW222407   1.743   3.273   5.845
 7170SOL     OW22408   4.560   5.234   2.577
 7170SOL    HW122409   4.586   5.311   2.519
 7170SOL    HW222410   4.463   5.240   2.599
 7171SOL     OW22411   4.763   3.182   5.862
 7171SOL    HW122412   4.773   3.083   5.874
 7171SOL    HW222413   4.771   3.227   5.951
 7172SOL     OW22414   1.315   6.731   0.112
 7172SOL    HW122415   1.300   6.829   0.111
 7172SOL    HW222416   1.402   6.711   0.158
 7173SOL     OW22417   6.082   5.339   4.404
 7173SOL    HW122418   6.058   5.314   4.310
 7173SOL    HW222419   6.096   5.437   4.410
 7174SOL     OW22420   1.740   5.071   6.563
 7174SOL    HW122421   1.722   4.986   6.513
 7174SOL    HW222422   1.824   5.060   6.618
 7175SOL     OW22423   5.403   3.599   1.092
 7175SOL    HW122424   5.434   3.505   1.079
 7175SOL    HW222425   5.306   3.599   1.115
 7176SOL     OW22426   6.756   4.809   2.477
 7176SOL    HW122427   6.822   4.829   2.549
 7176SOL    HW222428   6.766   4.714   2.447
 7177SOL     OW22429   1.837   5.907   3.973
 7177SOL    HW122430   1.746   5.928   4.011
 7177SOL    HW222431   1.889   5.853   4.040
 7178SOL     OW22432   1.888   2.849   5.805
 7178SOL    HW122433   1.871   2.860   5.903
 7178SOL    HW222434   1.979   2.812   5.790
 7179SOL     OW22435   2.681   3.372   5.744
 7179SOL    HW122436   2.780   3.375   5.735
 7179SOL    HW222437   2.642   3.461   5.722
 7180SOL     OW22438   0.997   5.098   6.507
 7180SOL    HW122439   0.906   5.065   6.535
 7180SOL    HW222440   1.035   5.156   6.578
 7181SOL     OW22441   3.731   0.670   0.285
 7181SOL    HW122442   3.760   0.618   0.204
 7181SOL    HW222443   3.719   0.766   0.261
 7182SOL     OW22444   1.983   4.106   5.556
 7182SOL    HW122445   2.023   4.145   5.639
 7182SOL    HW222446   2.017   4.013   5.543
 7183SOL     OW22447   1.699   4.896   2.596
 7183SOL    HW122448   1.637   4.863   2.668
 7183SOL    HW222449   1.787   4.849   2.604
 7184SOL     OW22450   0.950   0.060   3.873
 7184SOL    HW122451   1.004   0.005   3.936
 7184SOL    HW222452   1.008   0.127   3.828
 7185SOL     OW22453   5.183   2.843   6.765
 7185SOL    HW122454   5.118   2.914   6.792
 7185SOL    HW222455   5.276   2.881   6.766
 7186SOL     OW22456   6.906   0.254   5.344
 7186SOL    HW122457   6.943   0.292   5.429
 7186SOL    HW222458   6.978   0.202   5.297
 7187SOL     OW22459   1.892   4.465   1.665
 7187SOL    HW122460   1.923   4.471   1.761
 7187SOL    HW222461   1.795   4.440   1.663
 7188SOL     OW22462   5.347   7.008   1.601
 7188SOL    HW122463   5.350   0.071   1.642
 7188SOL    HW222464   5.330   6.940   1.673
 7189SOL     OW22465   6.375   1.462   6.310
 7189SOL    HW122466   6.373   1.485   6.408
 7189SOL    HW222467   6.290   1.418   6.284
 7190SOL     OW22468   5.250   4.018   3.483
 7190SOL    HW122469   5.315   4.090   3.507
 7190SOL    HW222470   5.167   4.059   3.444
 7191SOL     OW22471   1.099   3.760   2.438
 7191SOL    HW122472   1.077   3.779   2.342
 7191SOL    HW222473   1.067   3.669   2.462
 7192SOL     OW22474   2.182   6.069   5.845
 7192SOL    HW122475   2.106   6.014   5.811
 7192SOL    HW222476   2.153   6.164   5.855
 7193SOL     OW22477   2.850   2.282   4.461
 7193SOL    HW122478   2.917   2.230   4.514
 7193SOL    HW222479   2.867   2.268   4.364
 7194SOL     OW22480   2.121   1.730   1.135
 7194SOL    HW122481   2.144   1.666   1.062
 7194SOL    HW222482   2.127   1.683   1.223
 7195SOL     OW22483   0.137   4.958   0.812
 7195SOL    HW122484   0.073   4.932   0.740
 7195SOL    HW222485   0.231   4.942   0.781
 7196SOL     OW22486   3.126   3.288   3.188
 7196SOL    HW122487   3.093   3.376   3.153
 7196SOL    HW222488   3.079   3.214   3.140
 7197SOL     OW22489   6.772   1.714   5.166
 7197SOL    HW122490   6.679   1.727   5.133
 7197SOL    HW222491   6.814   1.638   5.117
 7198SOL     OW22492   1.624   6.717   5.693
 7198SOL    HW122493   1.673   6.736   5.609
 7198SOL    HW222494   1.567   6.635   5.680
 7199SOL     OW22495   0.703   0.502   2.504
 7199SOL    HW122496   0.669   0.469   2.592
 7199SOL    HW222497   0.658   0.588   2.480
 7200SOL     OW22498   2.286   1.022   0.332
 7200SOL    HW122499   2.358   1.071   0.282
 7200SOL    HW222500   2.269   1.068   0.419
 7201SOL     OW22501   1.765   5.067   3.018
 7201SOL    HW122502   1.795   5.110   3.102
 7201SOL    HW222503   1.665   5.062   3.016
 7202SOL     OW22504   3.861   0.064   6.468
 7202SOL    HW122505   3.945   0.020   6.435
 7202SOL    HW222506   3.797   7.022   6.499
 7203SOL     OW22507   6.659   0.150   0.710
 7203SOL    HW122508   6.585   0.109   0.656
 7203SOL    HW222509   6.640   0.248   0.724
 7204SOL     OW22510   6.612   0.072   3.809
 7204SOL    HW122511   6.628   0.081   3.711
 7204SOL    HW222512   6.604   0.163   3.850
 7205SOL     OW22513   1.763   5.594   3.227
 7205SOL    HW122514   1.702   5.578   3.150
 7205SOL    HW222515   1.858   5.589   3.197
 7206SOL     OW22516   0.385   1.386   1.280
 7206SOL    HW122517   0.463   1.439   1.313
 7206SOL    HW222518   0.374   1.303   1.336
 7207SOL     OW22519   3.528   0.256   1.085
 7207SOL    HW122520   3.523   0.354   1.101
 7207SOL    HW222521   3.436   0.217   1.085
 7208SOL     OW22522   3.854   6.761   4.620
 7208SOL    HW122523   3.889   6.851   4.593
 7208SOL    HW222524   3.771   6.772   4.674
 7209SOL     OW22525   3.121   3.044   4.215
 7209SOL    HW122526   3.117   3.083   4.124
 7209SOL    HW222527   3.044   3.078   4.269
 7210SOL     OW22528   4.579   1.048   3.488
 7210SOL    HW122529   4.582   1.135   3.537
 7210SOL    HW222530   4.585   0.973   3.554
 7211SOL     OW22531   0.718   6.077   3.886
 7211SOL    HW122532   0.643   6.057   3.823
 7211SOL    HW222533   0.792   6.011   3.873
 7212SOL     OW22534   0.328   5.977   4.323
 7212SOL    HW122535   0.245   5.930   4.353
 7212SOL    HW222536   0.303   6.062   4.277
 7213SOL     OW22537   5.537   0.115   5.270
 7213SOL    HW122538   5.604   0.187   5.255
 7213SOL    HW222539   5.577   0.026   5.246
 7214SOL     OW22540   2.338   5.278   4.541
 7214SOL    HW122541   2.246   5.240   4.524
 7214SOL    HW222542   2.359   5.273   4.638
 7215SOL     OW22543   1.402   3.103   4.343
 7215SOL    HW122544   1.308   3.076   4.320
 7215SOL    HW222545   1.464   3.073   4.270
 7216SOL     OW22546   2.812   5.752   6.816
 7216SOL    HW122547   2.802   5.678   6.749
 7216SOL    HW222548   2.899   5.800   6.799
 7217SOL     OW22549   1.802   4.623   2.518
 7217SOL    HW122550   1.876   4.683   2.487
 7217SOL    HW222551   1.716   4.651   2.476
 7218SOL     OW22552   4.770   2.045   5.394
 7218SOL    HW122553   4.759   1.967   5.454
 7218SOL    HW222554   4.820   2.117   5.443
 7219SOL     OW22555   4.400   6.829   3.717
 7219SOL    HW122556   4.474   6.882   3.760
 7219SOL    HW222557   4.347   6.888   3.657
 7220SOL     OW22558   6.608   0.740   3.265
 7220SOL    HW122559   6.586   0.689   3.182
 7220SOL    HW222560   6.693   0.791   3.252
 7221SOL     OW22561   5.756   4.662   5.561
 7221SOL    HW122562   5.685   4.592   5.571
 7221SOL    HW222563   5.801   4.678   5.649
 7222SOL     OW22564   6.158   6.419   1.054
 7222SOL    HW122565   6.251   6.384   1.046
 7222SOL    HW222566   6.148   6.501   0.997
 7223SOL     OW22567   3.156   1.835   0.671
 7223SOL    HW122568   3.253   1.832   0.645
 7223SOL    HW222569   3.116   1.921   0.640
 7224SOL     OW22570   5.970   1.390   4.629
 7224SOL    HW122571   5.896   1.457   4.627
 7224SOL    HW222572   5.939   1.304   4.589
 7225SOL     OW22573   1.569   5.774   0.202
 7225SOL    HW122574   1.657   5.770   0.249
 7225SOL    HW222575   1.532   5.682   0.190
 7226SOL     OW22576   0.281   6.747   0.400
 7226SOL    HW122577   0.195   6.749   0.350
 7226SOL    HW222578   0.310   6.840   0.423
 7227SOL     OW22579   0.438   1.746   6.910
 7227SOL    HW122580   0.510   1.681   6.885
 7227SOL    HW222581   0.476   1.838   6.913
 7228SOL     OW22582   6.859   6.552   1.771
 7228SOL    HW122583   6.797   6.628   1.751
 7228SOL    HW222584   6.940   6.587   1.816
 7229SOL     OW22585   1.048   0.699   4.529
 7229SOL    HW122586   0.974   0.638   4.560
 7229SOL    HW222587   1.023   0.740   4.442
 7230SOL     OW22588   4.333   5.472   4.213
 7230SOL    HW122589   4.384   5.387   4.223
 7230SOL    HW222590   4.318   5.492   4.117
 7231SOL     OW22591   5.879   1.874   6.153
 7231SOL    HW122592   5.799   1.817   6.134
 7231SOL    HW222593   5.960   1.829   6.116
 7232SOL     OW22594   4.289   4.782   2.873
 7232SOL    HW122595   4.327   4.690   2.859
 7232SOL    HW222596   4.200   4.774   2.916
 7233SOL     OW22597   0.541   2.949   5.231
 7233SOL    HW122598   0.609   3.015   5.265
 7233SOL    HW222599   0.566   2.857   5.261
 7234SOL     OW22600   5.824   2.166   1.938
 7234SOL    HW122601   5.915   2.125   1.948
 7234SOL    HW222602   5.830   2.246   1.879
 7235SOL     OW22603   5.430   4.192   4.790
 7235SOL    HW122604   5.507   4.239   4.834
 7235SOL    HW222605   5.446   4.093   4.792
 7236SOL     OW22606   3.582   1.671   2.871
 7236SOL    HW122607   3.565   1.643   2.776
 7236SOL    HW222608   3.676   1.648   2.896
 7237SOL     OW22609   6.633   6.351   5.314
 7237SOL    HW122610   6.651   6.256   5.338
 7237SOL    HW222611   6.649   6.409   5.394
 7238SOL     OW22612   2.677   1.590   2.351
 7238SOL    HW122613   2.733   1.630   2.278
 7238SOL    HW222614   2.615   1.522   2.312
 7239SOL     OW22615   1.888   1.431   2.565
 7239SOL    HW122616   1.797   1.472   2.565
 7239SOL    HW222617   1.923   1.426   2.658
 7240SOL     OW22618   2.901   3.855   1.103
 7240SOL    HW122619   2.876   3.798   1.182
 7240SOL    HW222620   2.980   3.815   1.057
 7241SOL     OW22621   3.665   0.654   5.755
 7241SOL    HW122622   3.746   0.595   5.760
 7241SOL    HW222623   3.673   0.727   5.822
 7242SOL     OW22624   5.729   4.140   6.749
 7242SOL    HW122625   5.786   4.210   6.707
 7242SOL    HW222626   5.703   4.168   6.841
 7243SOL     OW22627   1.274   4.632   6.485
 7243SOL    HW122628   1.217   4.696   6.536
 7243SOL    HW222629   1.216   4.567   6.437
 7244SOL     OW22630   5.358   1.524   1.089
 7244SOL    HW122631   5.341   1.609   1.040
 7244SOL    HW222632   5.415   1.465   1.032
 7245SOL     OW22633   0.173   2.055   4.810
 7245SOL    HW122634   0.136   1.964   4.792
 7245SOL    HW222635   0.159   2.078   4.906
 7246SOL     OW22636   6.169   6.940   4.712
 7246SOL    HW122637   6.189   6.880   4.789
 7246SOL    HW222638   6.133   6.886   4.636
 7247SOL     OW22639   2.720   6.326   1.949
 7247SOL    HW122640   2.640   6.274   1.918
 7247SOL    HW222641   2.790   6.323   1.878
 7248SOL     OW22642   3.907   1.034   4.060
 7248SOL    HW122643   3.853   1.108   4.019
 7248SOL    HW222644   4.000   1.035   4.022
 7249SOL     OW22645   5.498   4.265   1.080
 7249SOL    HW122646   5.473   4.168   1.076
 7249SOL    HW222647   5.588   4.274   1.124
 7250SOL     OW22648   2.001   4.622   6.470
 7250SOL    HW122649   1.986   4.523   6.473
 7250SOL    HW222650   1.978   4.662   6.559
 7251SOL     OW22651   6.926   6.691   4.933
 7251SOL    HW122652   7.016   6.706   4.975
 7251SOL    HW222653   6.929   6.608   4.877
 7252SOL     OW22654   2.964   3.462   4.783
 7252SOL    HW122655   2.907   3.466   4.700
 7252SOL    HW222656   2.937   3.383   4.838
 7253SOL     OW22657   2.749   6.360   1.211
 7253SOL    HW122658   2.751   6.425   1.287
 7253SOL    HW222659   2.785   6.404   1.129
 7254SOL     OW22660   3.572   5.311   3.823
 7254SOL    HW122661   3.665   5.283   3.801
 7254SOL    HW222662   3.542   5.381   3.758
 7255SOL     OW22663   2.873   3.525   2.401
 7255SOL    HW122664   2.907   3.575   2.322
 7255SOL    HW222665   2.849   3.432   2.374
 7256SOL     OW22666   4.266   5.055   4.243
 7256SOL    HW122667   4.351   5.108   4.242
 7256SOL    HW222668   4.198   5.100   4.185
 7257SOL     OW22669   5.392   2.635   2.906
 7257SOL    HW122670   5.457   2.612   2.833
 7257SOL    HW222671   5.315   2.685   2.866
 7258SOL     OW22672   3.727   0.288   4.837
 7258SOL    HW122673   3.666   0.242   4.772
 7258SOL    HW222674   3.807   0.323   4.789
 7259SOL     OW22675   2.367   3.819   6.814
 7259SOL    HW122676   2.380   3.752   6.887
 7259SOL    HW222677   2.419   3.790   6.733
 7260SOL     OW22678   3.420   2.088   2.783
 7260SOL    HW122679   3.330   2.128   2.766
 7260SOL    HW222680   3.445   2.103   2.879
 7261SOL     OW22681   2.140   3.250   1.987
 7261SOL    HW122682   2.125   3.236   1.889
 7261SOL    HW222683   2.168   3.345   2.004
 7262SOL     OW22684   5.507   2.031   4.598
 7262SOL    HW122685   5.595   2.078   4.590
 7262SOL    HW222686   5.434   2.098   4.608
 7263SOL     OW22687   1.131   5.787   1.353
 7263SOL    HW122688   1.153   5.712   1.415
 7263SOL    HW222689   1.179   5.774   1.266
 7264SOL     OW22690   6.368   1.210   6.708
 7264SOL    HW122691   6.416   1.130   6.744
 7264SOL    HW222692   6.434   1.270   6.661
 7265SOL     OW22693   5.345   4.993   5.836
 7265SOL    HW122694   5.327   4.913   5.780
 7265SOL    HW222695   5.263   5.051   5.840
 7266SOL     OW22696   4.886   0.498   1.832
 7266SOL    HW122697   4.786   0.495   1.832
 7266SOL    HW222698   4.921   0.462   1.919
 7267SOL     OW22699   0.299   3.654   4.794
 7267SOL    HW122700   0.358   3.691   4.866
 7267SOL    HW222701   0.204   3.653   4.826
 7268SOL     OW22702   3.984   6.194   1.532
 7268SOL    HW122703   4.001   6.172   1.628
 7268SOL    HW222704   4.035   6.277   1.508
 7269SOL     OW22705   0.740   5.642   1.760
 7269SOL    HW122706   0.816   5.583   1.787
 7269SOL    HW222707   0.757   5.679   1.669
 7270SOL     OW22708   2.446   1.881   2.596
 7270SOL    HW122709   2.476   1.926   2.511
 7270SOL    HW222710   2.479   1.787   2.598
 7271SOL     OW22711   6.986   3.832   3.246
 7271SOL    HW122712   7.010   3.926   3.269
 7271SOL    HW222713   6.895   3.811   3.281
 7272SOL     OW22714   4.832   2.853   3.067
 7272SOL    HW122715   4.824   2.951   3.050
 7272SOL    HW222716   4.751   2.822   3.118
 7273SOL     OW22717   5.855   4.497   1.613
 7273SOL    HW122718   5.881   4.538   1.700
 7273SOL    HW222719   5.854   4.568   1.542
 7274SOL     OW22720   6.841   5.053   5.796
 7274SOL    HW122721   6.818   4.988   5.724
 7274SOL    HW222722   6.919   5.020   5.847
 7275SOL     OW22723   6.747   0.223   0.029
 7275SOL    HW122724   6.766   0.302   6.998
 7275SOL    HW222725   6.654   0.190   0.010
 7276SOL     OW22726   2.293   1.868   3.573
 7276SOL    HW122727   2.277   1.962   3.602
 7276SOL    HW222728   2.213   1.812   3.592
 7277SOL     OW22729   4.629   1.520   4.780
 7277SOL    HW122730   4.684   1.438   4.792
 7277SOL    HW222731   4.654   1.565   4.694
 7278SOL     OW22732   3.320   1.342   3.513
 7278SOL    HW122733   3.304   1.438   3.487
 7278SOL    HW222734   3.284   1.326   3.605
 7279SOL     OW22735   4.614   4.608   0.109
 7279SOL    HW122736   4.541   4.673   0.130
 7279SOL    HW222737   4.655   4.632   0.021
 7280SOL     OW22738   5.337   2.153   5.273
 7280SOL    HW122739   5.247   2.156   5.230
 7280SOL    HW222740   5.397   2.092   5.221
 7281SOL     OW22741   3.477   6.698   1.949
 7281SOL    HW122742   3.406   6.640   1.910
 7281SOL    HW222743   3.545   6.641   1.996
 7282SOL     OW22744   6.629   5.377   2.156
 7282SOL    HW122745   6.699   5.325   2.204
 7282SOL    HW222746   6.672   5.456   2.111
 7283SOL     OW22747   3.847   5.084   2.694
 7283SOL    HW122748   3.817   5.156   2.632
 7283SOL    HW222749   3.773   5.018   2.706
 7284SOL     OW22750   6.798   1.758   3.638
 7284SOL    HW122751   6.718   1.815   3.617
 7284SOL    HW222752   6.778   1.663   3.616
 7285SOL     OW22753   4.736   2.766   1.997
 7285SOL    HW122754   4.650   2.721   1.974
 7285SOL    HW222755   4.720   2.865   2.003
 7286SOL     OW22756   0.530   0.566   0.334
 7286SOL    HW122757   0.472   0.558   0.254
 7286SOL    HW222758   0.565   0.476   0.360
 7287SOL     OW22759   1.257   2.523   3.830
 7287SOL    HW122760   1.165   2.482   3.821
 7287SOL    HW222761   1.274   2.544   3.926
 7288SOL     OW22762   3.033   2.177   3.104
 7288SOL    HW122763   2.942   2.212   3.128
 7288SOL    HW222764   3.047   2.186   3.006
 7289SOL     OW22765   6.177   2.750   1.330
 7289SOL    HW122766   6.242   2.823   1.352
 7289SOL    HW222767   6.103   2.787   1.275
 7290SOL     OW22768   3.614   1.453   4.836
 7290SOL    HW122769   3.609   1.506   4.752
 7290SOL    HW222770   3.624   1.514   4.915
 7291SOL     OW22771   3.887   0.857   6.884
 7291SOL    HW122772   3.844   0.837   6.796
 7291SOL    HW222773   3.957   0.927   6.872
 7292SOL     OW22774   2.078   6.908   3.054
 7292SOL    HW122775   2.030   6.845   2.992
 7292SOL    HW222776   2.040   7.001   3.042
 7293SOL     OW22777   1.401   1.079   4.821
 7293SOL    HW122778   1.487   1.095   4.870
 7293SOL    HW222779   1.416   1.012   4.749
 7294SOL     OW22780   2.579   5.176   1.199
 7294SOL    HW122781   2.608   5.180   1.294
 7294SOL    HW222782   2.658   5.156   1.141
 7295SOL     OW22783   6.402   5.434   2.296
 7295SOL    HW122784   6.494   5.414   2.263
 7295SOL    HW222785   6.350   5.482   2.226
 7296SOL     OW22786   3.991   4.878   2.427
 7296SOL    HW122787   4.019   4.818   2.502
 7296SOL    HW222788   4.060   4.948   2.411
 7297SOL     OW22789   3.706   6.017   1.253
 7297SOL    HW122790   3.713   6.094   1.189
 7297SOL    HW222791   3.753   5.938   1.215
 7298SOL     OW22792   4.942   5.782   6.301
 7298SOL    HW122793   4.889   5.751   6.222
 7298SOL    HW222794   4.911   5.873   6.330
 7299SOL     OW22795   1.439   2.966   0.406
 7299SOL    HW122796   1.347   2.941   0.435
 7299SOL    HW222797   1.486   2.886   0.368
 7300SOL     OW22798   1.018   4.898   1.931
 7300SOL    HW122799   1.024   4.949   2.016
 7300SOL    HW222800   0.976   4.955   1.860
 7301SOL     OW22801   5.598   6.684   5.670
 7301SOL    HW122802   5.555   6.627   5.600
 7301SOL    HW222803   5.564   6.657   5.760
 7302SOL     OW22804   4.836   2.910   5.806
 7302SOL    HW122805   4.923   2.937   5.849
 7302SOL    HW222806   4.854   2.880   5.712
 7303SOL     OW22807   2.585   0.792   0.901
 7303SOL    HW122808   2.537   0.880   0.910
 7303SOL    HW222809   2.525   0.727   0.854
 7304SOL     OW22810   2.620   5.491   2.026
 7304SOL    HW122811   2.711   5.490   1.983
 7304SOL    HW222812   2.578   5.580   2.015
 7305SOL     OW22813   5.691   2.509   0.592
 7305SOL    HW122814   5.641   2.595   0.604
 7305SOL    HW222815   5.638   2.448   0.533
 7306SOL     OW22816   2.187   1.595   1.383
 7306SOL    HW122817   2.167   1.501   1.354
 7306SOL    HW222818   2.271   1.595   1.438
 7307SOL     OW22819   1.869   6.802   1.087
 7307SOL    HW122820   1.797   6.763   1.144
 7307SOL    HW222821   1.843   6.895   1.058
 7308SOL     OW22822   4.693   0.860   2.289
 7308SOL    HW122823   4.710   0.887   2.195
 7308SOL    HW222824   4.689   0.760   2.295
 7309SOL     OW22825   2.190   5.243   3.320
 7309SOL    HW122826   2.245   5.171   3.278
 7309SOL    HW222827   2.132   5.285   3.250
 7310SOL     OW22828   1.832   3.028   0.316
 7310SOL    HW122829   1.930   3.013   0.334
 7310SOL    HW222830   1.797   3.096   0.379
 7311SOL     OW22831   0.247   6.783   6.376
 7311SOL    HW122832   0.321   6.739   6.428
 7311SOL    HW222833   0.231   6.875   6.412
 7312SOL     OW22834   0.060   2.445   5.393
 7312SOL    HW122835   0.011   2.375   5.445
 7312SOL    HW222836   0.115   2.402   5.321
 7313SOL     OW22837   2.710   0.709   2.236
 7313SOL    HW122838   2.660   0.721   2.321
 7313SOL    HW222839   2.712   0.612   2.211
 7314SOL     OW22840   0.099   4.592   7.014
 7314SOL    HW122841   0.045   4.600   0.071
 7314SOL    HW222842   0.091   4.499   6.978
 7315SOL     OW22843   0.861   4.919   2.636
 7315SOL    HW122844   0.943   4.865   2.618
 7315SOL    HW222845   0.782   4.876   2.594
 7316SOL     OW22846   3.229   2.026   0.183
 7316SOL    HW122847   3.254   1.953   0.119
 7316SOL    HW222848   3.299   2.097   0.183
 7317SOL     OW22849   3.453   1.303   1.947
 7317SOL    HW122850   3.385   1.271   2.011
 7317SOL    HW222851   3.484   1.228   1.889
 7318SOL     OW22852   3.759   0.315   1.312
 7318SOL    HW122853   3.682   0.373   1.285
 7318SOL    HW222854   3.746   0.223   1.275
 7319SOL     OW22855   6.440   4.826   0.394
 7319SOL    HW122856   6.397   4.736   0.395
 7319SOL    HW222857   6.509   4.831   0.466
 7320SOL     OW22858   7.017   3.094   1.026
 7320SOL    HW122859   6.931   3.068   1.070
 7320SOL    HW222860   0.055   3.125   1.095
 7321SOL     OW22861   2.031   6.209   6.802
 7321SOL    HW122862   2.023   6.123   6.752
 7321SOL    HW222863   2.085   6.274   6.749
 7322SOL     OW22864   0.540   2.578   2.391
 7322SOL    HW122865   0.572   2.489   2.425
 7322SOL    HW222866   0.613   2.623   2.340
 7323SOL     OW22867   1.362   1.624   1.353
 7323SOL    HW122868   1.344   1.663   1.443
 7323SOL    HW222869   1.350   1.525   1.357
 7324SOL     OW22870   5.669   4.732   2.996
 7324SOL    HW122871   5.593   4.753   3.058
 7324SOL    HW222872   5.754   4.723   3.048
 7325SOL     OW22873   4.050   1.288   6.159
 7325SOL    HW122874   4.069   1.206   6.213
 7325SOL    HW222875   3.964   1.276   6.109
 7326SOL     OW22876   2.482   0.775   0.311
 7326SOL    HW122877   2.497   0.852   0.249
 7326SOL    HW222878   2.388   0.778   0.346
 7327SOL     OW22879   6.394   3.872   3.123
 7327SOL    HW122880   6.444   3.787   3.139
 7327SOL    HW222881   6.458   3.946   3.102
 7328SOL     OW22882   4.238   4.891   5.198
 7328SOL    HW122883   4.199   4.799   5.196
 7328SOL    HW222884   4.243   4.927   5.105
 7329SOL     OW22885   2.601   3.245   0.759
 7329SOL    HW122886   2.600   3.164   0.702
 7329SOL    HW222887   2.633   3.324   0.706
 7330SOL     OW22888   3.630   2.787   1.409
 7330SOL    HW122889   3.720   2.755   1.440
 7330SOL    HW222890   3.607   2.744   1.322
 7331SOL     OW22891   4.320   0.465   1.873
 7331SOL    HW122892   4.235   0.459   1.821
 7331SOL    HW222893   4.326   0.554   1.918
 7332SOL     OW22894   3.023   3.922   6.697
 7332SOL    HW122895   3.112   3.919   6.742
 7332SOL    HW222896   2.957   3.970   6.756
 7333SOL     OW22897   6.604   2.318   1.614
 7333SOL    HW122898   6.610   2.329   1.714
 7333SOL    HW222899   6.687   2.273   1.581
 7334SOL     OW22900   3.185   6.868   5.660
 7334SOL    HW122901   3.237   6.906   5.737
 7334SOL    HW222902   3.238   6.879   5.576
 7335SOL     OW22903   6.701   2.724   2.602
 7335SOL    HW122904   6.678   2.802   2.544
 7335SOL    HW222905   6.772   2.670   2.557
 7336SOL     OW22906   1.359   6.132   1.371
 7336SOL    HW122907   1.286   6.099   1.430
 7336SOL    HW222908   1.383   6.062   1.304
 7337SOL     OW22909   2.304   2.121   2.581
 7337SOL    HW122910   2.341   2.038   2.622
 7337SOL    HW222911   2.374   2.164   2.524
 7338SOL     OW22912   5.523   2.999   1.679
 7338SOL    HW122913   5.603   2.983   1.621
 7338SOL    HW222914   5.513   3.097   1.695
 7339SOL     OW22915   6.561   5.643   4.922
 7339SOL    HW122916   6.463   5.662   4.927
 7339SOL    HW222917   6.600   5.644   5.014
 7340SOL     OW22918   2.877   0.236   0.400
 7340SOL    HW122919   2.793   0.201   0.358
 7340SOL    HW222920   2.951   0.235   0.333
 7341SOL     OW22921   6.401   5.119   4.077
 7341SOL    HW122922   6.322   5.084   4.128
 7341SOL    HW222923   6.428   5.052   4.008
 7342SOL     OW22924   6.940   0.077   0.670
 7342SOL    HW122925   6.849   0.116   0.684
 7342SOL    HW222926   6.966   0.087   0.574
 7343SOL     OW22927   6.036   3.806   2.770
 7343SOL    HW122928   6.109   3.824   2.837
 7343SOL    HW222929   5.948   3.833   2.809
 7344SOL     OW22930   1.994   6.439   0.032
 7344SOL    HW122931   1.970   6.453   6.964
 7344SOL    HW222932   2.077   6.490   0.053
 7345SOL     OW22933   4.289   5.123   5.622
 7345SOL    HW122934   4.273   5.146   5.526
 7345SOL    HW222935   4.313   5.026   5.630
 7346SOL     OW22936   3.696   4.561   1.405
 7346SOL    HW122937   3.640   4.547   1.487
 7346SOL    HW222938   3.638   4.558   1.324
 7347SOL     OW22939   5.944   1.658   1.829
 7347SOL    HW122940   5.851   1.640   1.861
 7347SOL    HW222941   6.000   1.689   1.906
 7348SOL     OW22942   1.688   2.088   3.961
 7348SOL    HW122943   1.625   2.127   4.028
 7348SOL    HW222944   1.640   2.020   3.906
 7349SOL     OW22945   3.856   1.634   0.801
 7349SOL    HW122946   3.854   1.666   0.896
 7349SOL    HW222947   3.950   1.633   0.768
 7350SOL     OW22948   1.117   1.950   3.186
 7350SOL    HW122949   1.216   1.944   3.177
 7350SOL    HW222950   1.073   1.893   3.116
 7351SOL     OW22951   4.575   5.094   6.647
 7351SOL    HW122952   4.559   5.122   6.742
 7351SOL    HW222953   4.542   5.001   6.633
 7352SOL     OW22954   1.150   1.986   2.299
 7352SOL    HW122955   1.117   2.076   2.268
 7352SOL    HW222956   1.106   1.915   2.244
 7353SOL     OW22957   5.751   1.704   4.832
 7353SOL    HW122958   5.847   1.687   4.853
 7353SOL    HW222959   5.725   1.796   4.863
 7354SOL     OW22960   6.504   6.385   5.593
 7354SOL    HW122961   6.489   6.287   5.583
 7354SOL    HW222962   6.423   6.435   5.561
 7355SOL     OW22963   0.965   5.479   1.730
 7355SOL    HW122964   0.973   5.387   1.769
 7355SOL    HW222965   1.057   5.517   1.717
 7356SOL     OW22966   6.378   1.933   6.589
 7356SOL    HW122967   6.301   1.936   6.652
 7356SOL    HW222968   6.451   1.876   6.628
 7357SOL     OW22969   5.384   2.468   0.044
 7357SOL    HW122970   5.353   2.374   0.060
 7357SOL    HW222971   5.470   2.466   7.021
 7358SOL     OW22972   3.174   1.665   4.114
 7358SOL    HW122973   3.119   1.632   4.191
 7358SOL    HW222974   3.251   1.719   4.148
 7359SOL     OW22975   4.045   3.170   2.988
 7359SOL    HW122976   4.031   3.124   2.901
 7359SOL    HW222977   4.142   3.189   3.002
 7360SOL     OW22978   1.218   2.360   5.095
 7360SOL    HW122979   1.269   2.321   5.172
 7360SOL    HW222980   1.132   2.399   5.128
 7361SOL     OW22981   5.145   6.079   1.507
 7361SOL    HW122982   5.228   6.113   1.553
 7361SOL    HW222983   5.167   5.995   1.457
 7362SOL     OW22984   2.060   6.262   5.191
 7362SOL    HW122985   1.970   6.221   5.209
 7362SOL    HW222986   2.132   6.201   5.225
 7363SOL     OW22987   4.901   2.958   6.898
 7363SOL    HW122988   4.911   2.875   6.843
 7363SOL    HW222989   4.854   3.028   6.844
 7364SOL     OW22990   4.319   6.722   0.862
 7364SOL    HW122991   4.321   6.706   0.764
 7364SOL    HW222992   4.335   6.636   0.910
 7365SOL     OW22993   2.845   0.204   2.246
 7365SOL    HW122994   2.828   0.110   2.277
 7365SOL    HW222995   2.928   0.206   2.190
 7366SOL     OW22996   0.018   5.186   6.898
 7366SOL    HW122997   7.011   5.263   6.952
 7366SOL    HW222998   6.987   5.107   6.912
 7367SOL     OW22999   4.821   3.705   1.772
 7367SOL    HW123000   4.860   3.796   1.787
 7367SOL    HW223001   4.885   3.650   1.718
 7368SOL     OW23002   3.049   3.800   4.747
 7368SOL    HW123003   2.986   3.820   4.821
 7368SOL    HW223004   3.016   3.843   4.663
 7369SOL     OW23005   5.190   3.919   0.743
 7369SOL    HW123006   5.142   3.949   0.661
 7369SOL    HW223007   5.285   3.950   0.739
 7370SOL     OW23008   2.326   6.938   0.727
 7370SOL    HW123009   2.337   6.856   0.782
 7370SOL    HW223010   2.412   6.989   0.726
 7371SOL     OW23011   3.124   4.852   4.148
 7371SOL    HW123012   3.127   4.907   4.064
 7371SOL    HW223013   3.050   4.785   4.141
 7372SOL     OW23014   3.859   0.159   6.037
 7372SOL    HW123015   3.778   0.218   6.042
 7372SOL    HW223016   3.904   0.172   5.948
 7373SOL     OW23017   3.464   0.572   2.970
 7373SOL    HW123018   3.498   0.509   2.900
 7373SOL    HW223019   3.470   0.666   2.936
 7374SOL     OW23020   1.525   3.086   6.217
 7374SOL    HW123021   1.534   3.163   6.281
 7374SOL    HW223022   1.551   3.001   6.263
 7375SOL     OW23023   1.449   0.928   4.612
 7375SOL    HW123024   1.366   0.967   4.572
 7375SOL    HW223025   1.515   0.906   4.540
 7376SOL     OW23026   2.908   2.765   6.864
 7376SOL    HW123027   2.840   2.760   6.790
 7376SOL    HW223028   2.903   2.856   6.907
 7377SOL     OW23029   4.653   4.623   1.935
 7377SOL    HW123030   4.579   4.597   1.874
 7377SOL    HW223031   4.651   4.721   1.951
 7378SOL     OW23032   0.610   1.523   4.715
 7378SOL    HW123033   0.646   1.617   4.721
 7378SOL    HW223034   0.523   1.518   4.764
 7379SOL     OW23035   3.827   1.411   2.273
 7379SOL    HW123036   3.742   1.387   2.225
 7379SOL    HW223037   3.881   1.473   2.217
 7380SOL     OW23038   0.094   3.289   5.809
 7380SOL    HW123039   0.001   3.317   5.787
 7380SOL    HW223040   0.132   3.235   5.734
 7381SOL     OW23041   4.438   2.389   2.167
 7381SOL    HW123042   4.448   2.424   2.074
 7381SOL    HW223043   4.423   2.290   2.164
 7382SOL     OW23044   0.188   4.674   4.366
 7382SOL    HW123045   0.242   4.639   4.443
 7382SOL    HW223046   0.246   4.728   4.306
 7383SOL     OW23047   0.218   6.311   2.846
 7383SOL    HW123048   0.178   6.276   2.931
 7383SOL    HW223049   0.159   6.286   2.769
 7384SOL     OW23050   5.154   6.699   2.240
 7384SOL    HW123051   5.190   6.657   2.323
 7384SOL    HW223052   5.158   6.633   2.165
 7385SOL     OW23053   4.947   6.081   2.088
 7385SOL    HW123054   4.945   6.013   2.015
 7385SOL    HW223055   4.954   6.172   2.048
 7386SOL     OW23056   1.081   2.537   5.615
 7386SOL    HW123057   1.171   2.513   5.651
 7386SOL    HW223058   1.024   2.455   5.607
 7387SOL     OW23059   4.492   5.247   4.207
 7387SOL    HW123060   4.570   5.222   4.264
 7387SOL    HW223061   4.520   5.252   4.111
 7388SOL     OW23062   6.468   4.774   4.234
 7388SOL    HW123063   6.525   4.815   4.163
 7388SOL    HW223064   6.455   4.841   4.308
 7389SOL     OW23065   1.527   3.671   7.020
 7389SOL    HW123066   1.599   3.677   0.061
 7389SOL    HW223067   1.547   3.734   6.945
 7390SOL     OW23068   0.541   1.341   5.874
 7390SOL    HW123069   0.496   1.279   5.938
 7390SOL    HW223070   0.599   1.289   5.811
 7391SOL     OW23071   5.869   3.771   5.901
 7391SOL    HW123072   5.780   3.738   5.870
 7391SOL    HW223073   5.901   3.714   5.977
 7392SOL     OW23074   1.511   4.850   4.881
 7392SOL    HW123075   1.608   4.873   4.882
 7392SOL    HW223076   1.472   4.869   4.971
 7393SOL     OW23077   6.406   5.622   2.551
 7393SOL    HW123078   6.326   5.682   2.548
 7393SOL    HW223079   6.445   5.614   2.459
 7394SOL     OW23080   3.924   3.653   6.587
 7394SOL    HW123081   3.973   3.587   6.645
 7394SOL    HW223082   3.938   3.630   6.491
 7395SOL     OW23083   0.770   6.937   6.692
 7395SOL    HW123084   0.752   0.006   6.710
 7395SOL    HW223085   0.734   6.913   6.602
 7396SOL     OW23086   1.249   0.825   6.079
 7396SOL    HW123087   1.274   0.905   6.134
 7396SOL    HW223088   1.332   0.783   6.042
 7397SOL     OW23089   6.885   4.341   4.782
 7397SOL    HW123090   6.881   4.346   4.882
 7397SOL    HW223091   6.816   4.277   4.749
 7398SOL     OW23092   4.734   5.153   4.344
 7398SOL    HW123093   4.754   5.171   4.440
 7398SOL    HW223094   4.687   5.065   4.336
 7399SOL     OW23095   6.053   3.894   5.751
 7399SOL    HW123096   5.994   3.922   5.676
 7399SOL    HW223097   5.998   3.854   5.824
 7400SOL     OW23098   2.902   4.533   0.161
 7400SOL    HW123099   2.902   4.448   0.108
 7400SOL    HW223100   2.814   4.579   0.149
 7401SOL     OW23101   0.171   1.600   3.907
 7401SOL    HW123102   0.267   1.609   3.933
 7401SOL    HW223103   0.153   1.505   3.882
 7402SOL     OW23104   2.031   0.010   3.855
 7402SOL    HW123105   2.038   0.052   3.945
 7402SOL    HW223106   1.951   6.977   3.852
 7403SOL     OW23107   1.937   3.203   3.364
 7403SOL    HW123108   1.973   3.206   3.457
 7403SOL    HW223109   1.990   3.265   3.306
 7404SOL     OW23110   1.046   0.537   1.086
 7404SOL    HW123111   0.960   0.587   1.091
 7404SOL    HW223112   1.122   0.601   1.083
 7405SOL     OW23113   2.885   5.263   5.307
 7405SOL    HW123114   2.853   5.222   5.392
 7405SOL    HW223115   2.820   5.242   5.234
 7406SOL     OW23116   1.773   3.688   2.174
 7406SOL    HW123117   1.689   3.663   2.221
 7406SOL    HW223118   1.809   3.773   2.211
 7407SOL     OW23119   0.996   6.235   5.158
 7407SOL    HW123120   1.095   6.238   5.165
 7407SOL    HW223121   0.967   6.277   5.072
 7408SOL     OW23122   1.812   4.632   5.536
 7408SOL    HW123123   1.848   4.632   5.443
 7408SOL    HW223124   1.718   4.597   5.536
 7409SOL     OW23125   1.074   0.837   4.940
 7409SOL    HW123126   1.128   0.920   4.954
 7409SOL    HW223127   1.123   0.775   4.880
 7410SOL     OW23128   0.228   5.154   1.253
 7410SOL    HW123129   0.207   5.173   1.158
 7410SOL    HW223130   0.182   5.070   1.281
 7411SOL     OW23131   2.816   6.479   4.962
 7411SOL    HW123132   2.807   6.523   4.872
 7411SOL    HW223133   2.883   6.405   4.957
 7412SOL     OW23134   1.974   0.960   0.871
 7412SOL    HW123135   1.977   0.977   0.969
 7412SOL    HW223136   2.028   1.029   0.823
 7413SOL     OW23137   6.310   3.327   4.554
 7413SOL    HW123138   6.253   3.258   4.510
 7413SOL    HW223139   6.257   3.376   4.624
 7414SOL     OW23140   6.396   6.627   2.153
 7414SOL    HW123141   6.423   6.556   2.217
 7414SOL    HW223142   6.455   6.625   2.072
 7415SOL     OW23143   2.107   3.529   3.010
 7415SOL    HW123144   2.032   3.583   2.970
 7415SOL    HW223145   2.136   3.459   2.944
 7416SOL     OW23146   3.640   1.132   4.250
 7416SOL    HW123147   3.649   1.101   4.155
 7416SOL    HW223148   3.553   1.180   4.260
 7417SOL     OW23149   1.470   6.802   6.161
 7417SOL    HW123150   1.405   6.859   6.111
 7417SOL    HW223151   1.497   6.849   6.245
 7418SOL     OW23152   2.462   4.095   1.316
 7418SOL    HW123153   2.387   4.089   1.382
 7418SOL    HW223154   2.541   4.139   1.359
 7419SOL     OW23155   5.656   1.499   4.950
 7419SOL    HW123156   5.707   1.415   4.928
 7419SOL    HW223157   5.689   1.574   4.893
 7420SOL     OW23158   6.551   6.251   1.650
 7420SOL    HW123159   6.604   6.221   1.729
 7420SOL    HW223160   6.576   6.345   1.627
 7421SOL     OW23161   3.778   4.128   1.641
 7421SOL    HW123162   3.742   4.130   1.548
 7421SOL    HW223163   3.837   4.207   1.656
 7422SOL     OW23164   0.765   3.685   1.033
 7422SOL    HW123165   0.808   3.613   1.088
 7422SOL    HW223166   0.666   3.671   1.032
 7423SOL     OW23167   2.370   4.793   6.033
 7423SOL    HW123168   2.433   4.751   6.098
 7423SOL    HW223169   2.368   4.738   5.949
 7424SOL     OW23170   5.505   1.380   4.565
 7424SOL    HW123171   5.578   1.322   4.529
 7424SOL    HW223172   5.474   1.443   4.494
 7425SOL     OW23173   3.379   4.499   6.350
 7425SOL    HW123174   3.400   4.475   6.255
 7425SOL    HW223175   3.463   4.493   6.404
 7426SOL     OW23176   0.418   1.716   6.050
 7426SOL    HW123177   0.435   1.630   6.097
 7426SOL    HW223178   0.342   1.705   5.987
 7427SOL     OW23179   3.168   6.302   4.800
 7427SOL    HW123180   3.129   6.229   4.745
 7427SOL    HW223181   3.248   6.268   4.849
 7428SOL     OW23182   3.617   2.404   5.968
 7428SOL    HW123183   3.528   2.366   5.941
 7428SOL    HW223184   3.607   2.502   5.985
 7429SOL     OW23185   0.100   0.014   2.176
 7429SOL    HW123186   0.048   0.092   2.142
 7429SOL    HW223187   0.043   6.987   2.237
 7430SOL     OW23188   6.830   3.529   5.331
 7430SOL    HW123189   6.918   3.505   5.292
 7430SOL    HW223190   6.767   3.556   5.258
 7431SOL     OW23191   0.608   3.124   1.919
 7431SOL    HW123192   0.660   3.204   1.888
 7431SOL    HW223193   0.548   3.151   1.994
 7432SOL     OW23194   0.713   6.940   3.851
 7432SOL    HW123195   0.702   6.894   3.939
 7432SOL    HW223196   0.807   6.973   3.842
 7433SOL     OW23197   5.817   5.502   0.743
 7433SOL    HW123198   5.865   5.415   0.750
 7433SOL    HW223199   5.786   5.530   0.834
 7434SOL     OW23200   2.883   2.049   6.752
 7434SOL    HW123201   2.826   2.080   6.829
 7434SOL    HW223202   2.858   1.955   6.728
 7435SOL     OW23203   3.213   6.111   6.437
 7435SOL    HW123204   3.169   6.199   6.421
 7435SOL    HW223205   3.258   6.081   6.353
 7436SOL     OW23206   5.336   3.376   6.958
 7436SOL    HW123207   5.374   3.292   6.997
 7436SOL    HW223208   5.249   3.356   6.915
 7437SOL     OW23209   0.169   5.012   6.275
 7437SOL    HW123210   0.233   4.957   6.221
 7437SOL    HW223211   0.088   5.032   6.219
 7438SOL     OW23212   0.562   4.497   2.190
 7438SOL    HW123213   0.636   4.433   2.211
 7438SOL    HW223214   0.596   4.570   2.130
 7439SOL     OW23215   2.200   0.173   4.107
 7439SOL    HW123216   2.266   0.131   4.046
 7439SOL    HW223217   2.140   0.103   4.146
 7440SOL     OW23218   1.239   2.728   4.616
 7440SOL    HW123219   1.296   2.659   4.571
 7440SOL    HW223220   1.147   2.691   4.629
 7441SOL     OW23221   5.494   0.947   4.182
 7441SOL    HW123222   5.460   0.909   4.268
 7441SOL    HW223223   5.497   1.047   4.189
 7442SOL     OW23224   0.955   1.681   6.621
 7442SOL    HW123225   0.886   1.623   6.575
 7442SOL    HW223226   0.949   1.774   6.585
 7443SOL     OW23227   0.544   1.615   6.314
 7443SOL    HW123228   0.600   1.539   6.283
 7443SOL    HW223229   0.478   1.582   6.381
 7444SOL     OW23230   6.729   3.410   6.011
 7444SOL    HW123231   6.813   3.465   6.006
 7444SOL    HW223232   6.668   3.448   6.081
 7445SOL     OW23233   5.115   1.455   1.810
 7445SOL    HW123234   5.113   1.531   1.745
 7445SOL    HW223235   5.204   1.451   1.854
 7446SOL     OW23236   6.653   3.883   0.788
 7446SOL    HW123237   6.631   3.884   0.885
 7446SOL    HW223238   6.687   3.793   0.761
 7447SOL     OW23239   1.866   4.353   0.706
 7447SOL    HW123240   1.826   4.399   0.626
 7447SOL    HW223241   1.966   4.351   0.696
 7448SOL     OW23242   5.483   0.276   5.496
 7448SOL    HW123243   5.477   0.209   5.422
 7448SOL    HW223244   5.426   0.246   5.573
 7449SOL     OW23245   4.899   2.276   1.909
 7449SOL    HW123246   4.858   2.221   1.836
 7449SOL    HW223247   4.891   2.227   1.996
 7450SOL     OW23248   4.481   2.412   2.976
 7450SOL    HW123249   4.508   2.426   2.881
 7450SOL    HW223250   4.453   2.317   2.990
 7451SOL     OW23251   1.423   1.355   5.083
 7451SOL    HW123252   1.365   1.329   5.006
 7451SOL    HW223253   1.492   1.285   5.099
 7452SOL     OW23254   1.907   0.282   5.112
 7452SOL    HW123255   1.837   0.225   5.154
 7452SOL    HW223256   1.867   0.370   5.085
 7453SOL     OW23257   5.962   6.864   5.028
 7453SOL    HW123258   6.007   6.798   5.088
 7453SOL    HW223259   5.974   6.956   5.065
 7454SOL     OW23260   0.641   3.550   1.879
 7454SOL    HW123261   0.542   3.540   1.867
 7454SOL    HW223262   0.672   3.630   1.829
 7455SOL     OW23263   5.154   2.186   0.607
 7455SOL    HW123264   5.167   2.100   0.559
 7455SOL    HW223265   5.202   2.259   0.558
 7456SOL     OW23266   1.327   3.230   4.605
 7456SOL    HW123267   1.416   3.275   4.595
 7456SOL    HW223268   1.293   3.202   4.515
 7457SOL     OW23269   5.395   1.046   5.294
 7457SOL    HW123270   5.378   1.095   5.208
 7457SOL    HW223271   5.315   1.053   5.353
 7458SOL     OW23272   2.804   0.016   0.138
 7458SOL    HW123273   2.886   0.066   0.165
 7458SOL    HW223274   2.723   0.071   0.158
 7459SOL     OW23275   5.002   0.034   5.655
 7459SOL    HW123276   4.948   0.093   5.595
 7459SOL    HW223277   5.067   7.009   5.600
 7460SOL     OW23278   1.698   4.416   0.921
 7460SOL    HW123279   1.736   4.493   0.972
 7460SOL    HW223280   1.757   4.395   0.843
 7461SOL     OW23281   5.773   1.234   5.796
 7461SOL    HW123282   5.722   1.172   5.737
 7461SOL    HW223283   5.710   1.298   5.839
 7462SOL     OW23284   2.015   1.845   2.006
 7462SOL    HW123285   2.075   1.911   2.052
 7462SOL    HW223286   2.024   1.756   2.049
 7463SOL     OW23287   3.817   3.255   1.721
 7463SOL    HW123288   3.727   3.295   1.703
 7463SOL    HW223289   3.818   3.215   1.813
 7464SOL     OW23290   4.176   6.114   0.646
 7464SOL    HW123291   4.113   6.188   0.620
 7464SOL    HW223292   4.170   6.040   0.578
 7465SOL     OW23293   2.040   6.906   1.371
 7465SOL    HW123294   1.971   6.975   1.392
 7465SOL    HW223295   2.013   6.818   1.410
 7466SOL     OW23296   0.334   0.354   6.266
 7466SOL    HW123297   0.416   0.405   6.293
 7466SOL    HW223298   0.317   0.367   6.168
 7467SOL     OW23299   6.714   2.349   1.161
 7467SOL    HW123300   6.656   2.328   1.083
 7467SOL    HW223301   6.789   2.409   1.132
 7468SOL     OW23302   5.270   1.631   2.582
 7468SOL    HW123303   5.299   1.711   2.530
 7468SOL    HW223304   5.326   1.622   2.664
 7469SOL     OW23305   1.168   6.997   6.400
 7469SOL    HW123306   1.121   0.010   6.479
 7469SOL    HW223307   1.111   6.925   6.362
 7470SOL     OW23308   0.281   1.727   2.337
 7470SOL    HW123309   0.354   1.769   2.283
 7470SOL    HW223310   0.207   1.793   2.351
 7471SOL     OW23311   6.573   0.042   5.054
 7471SOL    HW123312   6.500   7.022   5.006
 7471SOL    HW223313   6.656   7.014   5.052
 7472SOL     OW23314   3.817   0.233   4.484
 7472SOL    HW123315   3.728   0.190   4.470
 7472SOL    HW223316   3.805   0.332   4.489
 7473SOL     OW23317   6.752   3.463   4.413
 7473SOL    HW123318   6.733   3.549   4.366
 7473SOL    HW223319   6.848   3.438   4.399
 7474SOL     OW23320   3.235   0.897   4.176
 7474SOL    HW123321   3.305   0.900   4.106
 7474SOL    HW223322   3.272   0.856   4.259
 7475SOL     OW23323   4.216   6.989   1.747
 7475SOL    HW123324   4.234   0.057   1.768
 7475SOL    HW223325   4.299   6.946   1.712
 7476SOL     OW23326   4.639   5.783   4.572
 7476SOL    HW123327   4.676   5.844   4.642
 7476SOL    HW223328   4.558   5.825   4.531
 7477SOL     OW23329   4.114   1.001   4.295
 7477SOL    HW123330   4.148   1.048   4.213
 7477SOL    HW223331   4.188   0.994   4.362
 7478SOL     OW23332   2.802   3.567   6.326
 7478SOL    HW123333   2.802   3.475   6.366
 7478SOL    HW223334   2.859   3.627   6.382
 7479SOL     OW23335   4.644   1.470   0.333
 7479SOL    HW123336   4.688   1.410   0.266
 7479SOL    HW223337   4.553   1.496   0.300
 7480SOL     OW23338   5.825   5.963   1.530
 7480SOL    HW123339   5.832   6.012   1.617
 7480SOL    HW223340   5.780   6.021   1.462
 7481SOL     OW23341   5.327   4.869   0.722
 7481SOL    HW123342   5.266   4.947   0.711
 7481SOL    HW223343   5.413   4.899   0.763
 7482SOL     OW23344   4.386   1.000   2.624
 7482SOL    HW123345   4.472   0.954   2.601
 7482SOL    HW223346   4.364   1.068   2.555
 7483SOL     OW23347   3.287   2.107   4.405
 7483SOL    HW123348   3.363   2.131   4.466
 7483SOL    HW223349   3.310   2.023   4.356
 7484SOL     OW23350   1.725   6.484   1.381
 7484SOL    HW123351   1.696   6.480   1.477
 7484SOL    HW223352   1.701   6.398   1.336
 7485SOL     OW23353   3.241   6.023   5.840
 7485SOL    HW123354   3.269   5.928   5.850
 7485SOL    HW223355   3.310   6.083   5.880
 7486SOL     OW23356   3.240   6.606   5.378
 7486SOL    HW123357   3.266   6.702   5.364
 7486SOL    HW223358   3.213   6.592   5.473
 7487SOL     OW23359   2.784   6.444   3.290
 7487SOL    HW123360   2.699   6.439   3.239
 7487SOL    HW223361   2.855   6.391   3.243
 7488SOL     OW23362   3.335   6.998   5.841
 7488SOL    HW123363   3.366   6.949   5.922
 7488SOL    HW223364   3.413   7.010   5.779
 7489SOL     OW23365   4.478   2.180   4.263
 7489SOL    HW123366   4.459   2.170   4.361
 7489SOL    HW223367   4.402   2.226   4.219
 7490SOL     OW23368   0.402   0.554   0.642
 7490SOL    HW123369   0.411   0.495   0.561
 7490SOL    HW223370   0.402   0.650   0.614
 7491SOL     OW23371   0.051   5.629   6.429
 7491SOL    HW123372   0.026   5.548   6.481
 7491SOL    HW223373   0.022   5.619   6.334
 7492SOL     OW23374   1.787   2.612   5.294
 7492SOL    HW123375   1.697   2.653   5.281
 7492SOL    HW223376   1.807   2.549   5.220
 7493SOL     OW23377   6.103   4.351   5.877
 7493SOL    HW123378   6.081   4.254   5.886
 7493SOL    HW223379   6.068   4.400   5.957
 7494SOL     OW23380   5.644   0.935   2.376
 7494SOL    HW123381   5.737   0.936   2.341
 7494SOL    HW223382   5.638   0.874   2.455
 7495SOL     OW23383   2.189   1.934   0.784
 7495SOL    HW123384   2.170   1.867   0.712
 7495SOL    HW223385   2.104   1.955   0.833
 7496SOL     OW23386   1.149   5.021   6.305
 7496SOL    HW123387   1.153   5.111   6.263
 7496SOL    HW223388   1.096   5.026   6.390
 7497SOL     OW23389   2.735   5.081   2.129
 7497SOL    HW123390   2.823   5.100   2.173
 7497SOL    HW223391   2.750   5.024   2.049
 7498SOL     OW23392   2.771   1.209   4.700
 7498SOL    HW123393   2.723   1.145   4.760
 7498SOL    HW223394   2.739   1.197   4.606
 7499SOL     OW23395   5.438   6.615   4.425
 7499SOL    HW123396   5.355   6.561   4.436
 7499SOL    HW223397   5.449   6.674   4.505
 7500SOL     OW23398   4.041   5.915   2.620
 7500SOL    HW123399   4.028   5.856   2.700
 7500SOL    HW223400   4.095   5.995   2.646
 7501SOL     OW23401   0.996   3.163   4.133
 7501SOL    HW123402   1.056   3.114   4.196
 7501SOL    HW223403   0.938   3.098   4.084
 7502SOL     OW23404   1.774   0.923   5.111
 7502SOL    HW123405   1.818   0.865   5.043
 7502SOL    HW223406   1.821   0.912   5.199
 7503SOL     OW23407   2.707   0.911   6.516
 7503SOL    HW123408   2.720   1.003   6.479
 7503SOL    HW223409   2.713   0.915   6.616
 7504SOL     OW23410   4.086   6.772   3.556
 7504SOL    HW123411   4.045   6.736   3.639
 7504SOL    HW223412   4.159   6.711   3.525
 7505SOL     OW23413   2.303   0.858   5.402
 7505SOL    HW123414   2.277   0.866   5.499
 7505SOL    HW223415   2.331   0.764   5.382
 7506SOL     OW23416   3.392   0.821   2.868
 7506SOL    HW123417   3.373   0.919   2.868
 7506SOL    HW223418   3.418   0.792   2.776
 7507SOL     OW23419   0.559   5.814   6.328
 7507SOL    HW123420   0.595   5.760   6.252
 7507SOL    HW223421   0.465   5.785   6.348
 7508SOL     OW23422   5.812   6.553   3.096
 7508SOL    HW123423   5.719   6.590   3.094
 7508SOL    HW223424   5.859   6.575   3.010
 7509SOL     OW23425   5.235   4.121   6.779
 7509SOL    HW123426   5.196   4.190   6.840
 7509SOL    HW223427   5.232   4.032   6.824
 7510SOL     OW23428   3.293   4.160   4.691
 7510SOL    HW123429   3.254   4.096   4.758
 7510SOL    HW223430   3.258   4.252   4.709
 7511SOL     OW23431   1.926   0.248   2.610
 7511SOL    HW123432   2.011   0.213   2.569
 7511SOL    HW223433   1.856   0.256   2.539
 7512SOL     OW23434   2.554   3.428   1.432
 7512SOL    HW123435   2.523   3.409   1.525
 7512SOL    HW223436   2.629   3.494   1.435
 7513SOL     OW23437   1.132   2.788   5.839
 7513SOL    HW123438   1.223   2.755   5.862
 7513SOL    HW223439   1.130   2.815   5.743
 7514SOL     OW23440   2.909   6.137   1.598
 7514SOL    HW123441   2.959   6.197   1.661
 7514SOL    HW223442   2.817   6.174   1.583
 7515SOL     OW23443   0.469   6.905   2.761
 7515SOL    HW123444   0.534   6.979   2.779
 7515SOL    HW223445   0.379   6.944   2.743
 7516SOL     OW23446   7.003   6.798   4.263
 7516SOL    HW123447   6.991   6.706   4.299
 7516SOL    HW223448   6.968   6.802   4.169
 7517SOL     OW23449   0.201   3.690   1.169
 7517SOL    HW123450   0.257   3.650   1.096
 7517SOL    HW223451   0.144   3.763   1.131
 7518SOL     OW23452   4.194   5.828   3.632
 7518SOL    HW123453   4.172   5.839   3.729
 7518SOL    HW223454   4.231   5.914   3.597
 7519SOL     OW23455   1.305   6.835   4.943
 7519SOL    HW123456   1.271   6.925   4.915
 7519SOL    HW223457   1.235   6.788   4.997
 7520SOL     OW23458   1.717   6.666   3.008
 7520SOL    HW123459   1.785   6.611   3.055
 7520SOL    HW223460   1.716   6.641   2.911
 7521SOL     OW23461   4.521   4.326   5.244
 7521SOL    HW123462   4.548   4.359   5.334
 7521SOL    HW223463   4.435   4.369   5.217
 7522SOL     OW23464   2.013   1.141   7.020
 7522SOL    HW123465   2.052   1.080   6.951
 7522SOL    HW223466   1.956   1.088   0.055
 7523SOL     OW23467   5.843   6.833   5.673
 7523SOL    HW123468   5.860   6.864   5.580
 7523SOL    HW223469   5.757   6.782   5.675
 7524SOL     OW23470   6.917   1.799   5.595
 7524SOL    HW123471   7.002   1.843   5.567
 7524SOL    HW223472   6.920   1.779   5.693
 7525SOL     OW23473   1.941   0.415   0.323
 7525SOL    HW123474   1.901   0.427   0.413
 7525SOL    HW223475   1.869   0.412   0.254
 7526SOL     OW23476   3.463   3.269   4.731
 7526SOL    HW123477   3.466   3.169   4.728
 7526SOL    HW223478   3.547   3.304   4.774
 7527SOL     OW23479   5.318   3.891   2.794
 7527SOL    HW123480   5.236   3.928   2.837
 7527SOL    HW223481   5.389   3.962   2.791
 7528SOL     OW23482   4.568   2.685   0.812
 7528SOL    HW123483   4.647   2.708   0.755
 7528SOL    HW223484   4.585   2.715   0.906
 7529SOL     OW23485   4.517   1.089   4.211
 7529SOL    HW123486   4.447   1.132   4.268
 7529SOL    HW223487   4.511   0.990   4.220
 7530SOL     OW23488   0.285   3.214   2.473
 7530SOL    HW123489   0.314   3.200   2.568
 7530SOL    HW223490   0.364   3.204   2.412
 7531SOL     OW23491   3.956   1.784   3.570
 7531SOL    HW123492   4.027   1.838   3.527
 7531SOL    HW223493   3.934   1.822   3.660
 7532SOL     OW23494   5.511   6.162   2.112
 7532SOL    HW123495   5.468   6.090   2.165
 7532SOL    HW223496   5.558   6.225   2.173
 7533SOL     OW23497   2.900   1.397   4.087
 7533SOL    HW123498   2.870   1.302   4.096
 7533SOL    HW223499   2.932   1.413   3.993
 7534SOL     OW23500   3.998   6.328   5.428
 7534SOL    HW123501   3.991   6.323   5.527
 7534SOL    HW223502   3.908   6.347   5.389
 7535SOL     OW23503   2.826   1.982   5.297
 7535SOL    HW123504   2.897   1.953   5.361
 7535SOL    HW223505   2.869   2.028   5.219
 7536SOL     OW23506   4.465   5.338   4.991
 7536SOL    HW123507   4.506   5.281   5.063
 7536SOL    HW223508   4.536   5.361   4.923
 7537SOL     OW23509   2.064   4.258   4.557
 7537SOL    HW123510   2.112   4.197   4.619
 7537SOL    HW223511   1.974   4.220   4.536
 7538SOL     OW23512   3.317   3.016   3.016
 7538SOL    HW123513   3.354   3.108   3.029
 7538SOL    HW223514   3.217   3.020   3.011
 7539SOL     OW23515   1.736   3.091   5.302
 7539SOL    HW123516   1.714   3.099   5.205
 7539SOL    HW223517   1.774   3.001   5.320
 7540SOL     OW23518   2.554   0.678   0.016
 7540SOL    HW123519   2.491   0.627   0.075
 7540SOL    HW223520   2.514   0.768   7.024
 7541SOL     OW23521   6.260   2.967   5.687
 7541SOL    HW123522   6.221   2.935   5.600
 7541SOL    HW223523   6.202   3.039   5.724
 7542SOL     OW23524   1.170   0.183   5.870
 7542SOL    HW123525   1.151   0.197   5.967
 7542SOL    HW223526   1.176   0.085   5.851
 7543SOL     OW23527   4.190   2.609   0.389
 7543SOL    HW123528   4.199   2.691   0.445
 7543SOL    HW223529   4.179   2.635   0.293
 7544SOL     OW23530   0.941   2.073   2.994
 7544SOL    HW123531   1.015   2.044   3.055
 7544SOL    HW223532   0.862   2.014   3.007
 7545SOL     OW23533   4.785   6.899   2.529
 7545SOL    HW123534   4.807   6.807   2.496
 7545SOL    HW223535   4.747   6.893   2.621
 7546SOL     OW23536   5.091   1.094   0.259
 7546SOL    HW123537   5.041   1.149   0.327
 7546SOL    HW223538   5.168   1.147   0.224
 7547SOL     OW23539   3.752   0.668   7.024
 7547SOL    HW123540   3.811   0.744   6.997
 7547SOL    HW223541   3.758   0.595   6.955
 7548SOL     OW23542   2.350   1.924   1.008
 7548SOL    HW123543   2.310   1.847   1.057
 7548SOL    HW223544   2.296   1.943   0.925
 7549SOL     OW23545   5.774   1.595   2.511
 7549SOL    HW123546   5.832   1.676   2.517
 7549SOL    HW223547   5.830   1.513   2.523
 7550SOL     OW23548   1.514   5.549   2.326
 7550SOL    HW123549   1.466   5.636   2.317
 7550SOL    HW223550   1.486   5.504   2.411
 7551SOL     OW23551   4.248   3.308   0.020
 7551SOL    HW123552   4.297   3.228   7.013
 7551SOL    HW223553   4.283   3.390   7.003
 7552SOL     OW23554   2.390   5.540   4.460
 7552SOL    HW123555   2.485   5.571   4.468
 7552SOL    HW223556   2.387   5.440   4.467
 7553SOL     OW23557   4.004   4.627   5.985
 7553SOL    HW123558   4.013   4.691   6.062
 7553SOL    HW223559   3.913   4.584   5.989
 7554SOL     OW23560   4.891   1.819   0.832
 7554SOL    HW123561   4.881   1.849   0.927
 7554SOL    HW223562   4.815   1.855   0.778
 7555SOL     OW23563   0.631   5.431   5.350
 7555SOL    HW123564   0.704   5.378   5.393
 7555SOL    HW223565   0.579   5.479   5.420
 7556SOL     OW23566   0.761   3.113   5.224
 7556SOL    HW123567   0.824   3.114   5.301
 7556SOL    HW223568   0.788   3.042   5.159
 7557SOL     OW23569   5.182   4.329   6.370
 7557SOL    HW123570   5.138   4.267   6.435
 7557SOL    HW223571   5.118   4.402   6.346
 7558SOL     OW23572   2.104   2.144   3.959
 7558SOL    HW123573   2.164   2.139   4.039
 7558SOL    HW223574   2.023   2.087   3.975
 7559SOL     OW23575   6.254   5.054   0.971
 7559SOL    HW123576   6.199   5.031   1.052
 7559SOL    HW223577   6.221   5.140   0.932
 7560SOL     OW23578   4.795   0.073   0.525
 7560SOL    HW123579   4.834   0.148   0.578
 7560SOL    HW223580   4.807   7.015   0.575
 7561SOL     OW23581   0.952   3.280   0.725
 7561SOL    HW123582   1.041   3.315   0.754
 7561SOL    HW223583   0.880   3.324   0.778
 7562SOL     OW23584   5.675   6.680   4.777
 7562SOL    HW123585   5.685   6.718   4.869
 7562SOL    HW223586   5.765   6.667   4.736
 7563SOL     OW23587   2.747   0.558   1.798
 7563SOL    HW123588   2.804   0.523   1.872
 7563SOL    HW223589   2.752   0.496   1.719
 7564SOL     OW23590   5.531   6.742   3.044
 7564SOL    HW123591   5.464   6.815   3.058
 7564SOL    HW223592   5.509   6.692   2.960
 7565SOL     OW23593   5.174   5.214   6.465
 7565SOL    HW123594   5.223   5.284   6.412
 7565SOL    HW223595   5.146   5.140   6.404
 7566SOL     OW23596   0.059   4.854   3.939
 7566SOL    HW123597   0.128   4.920   3.967
 7566SOL    HW223598   7.013   4.850   4.007
 7567SOL     OW23599   2.628   4.143   6.060
 7567SOL    HW123600   2.544   4.113   6.104
 7567SOL    HW223601   2.707   4.104   6.107
 7568SOL     OW23602   5.668   5.743   3.848
 7568SOL    HW123603   5.639   5.758   3.754
 7568SOL    HW223604   5.711   5.653   3.855
 7569SOL     OW23605   4.122   6.055   6.627
 7569SOL    HW123606   4.163   5.980   6.576
 7569SOL    HW223607   4.089   6.022   6.715
 7570SOL     OW23608   5.741   4.312   4.786
 7570SOL    HW123609   5.817   4.246   4.782
 7570SOL    HW223610   5.771   4.400   4.749
 7571SOL     OW23611   5.474   3.719   2.075
 7571SOL    HW123612   5.394   3.695   2.020
 7571SOL    HW223613   5.538   3.771   2.019
 7572SOL     OW23614   5.150   0.220   3.875
 7572SOL    HW123615   5.164   0.136   3.822
 7572SOL    HW223616   5.097   0.285   3.821
 7573SOL     OW23617   0.104   5.835   4.330
 7573SOL    HW123618   0.082   5.825   4.233
 7573SOL    HW223619   0.023   5.816   4.385
 7574SOL     OW23620   6.358   1.183   3.547
 7574SOL    HW123621   6.344   1.084   3.558
 7574SOL    HW223622   6.456   1.202   3.540
 7575SOL     OW23623   4.506   1.096   6.071
 7575SOL    HW123624   4.501   1.010   6.020
 7575SOL    HW223625   4.454   1.087   6.156
 7576SOL     OW23626   5.576   5.059   0.184
 7576SOL    HW123627   5.498   5.089   0.130
 7576SOL    HW223628   5.545   5.036   0.277
 7577SOL     OW23629   6.572   0.398   4.548
 7577SOL    HW123630   6.581   0.450   4.463
 7577SOL    HW223631   6.652   0.414   4.605
 7578SOL     OW23632   2.172   6.448   4.564
 7578SOL    HW123633   2.078   6.413   4.556
 7578SOL    HW223634   2.233   6.393   4.507
 7579SOL     OW23635   4.321   2.215   2.402
 7579SOL    HW123636   4.270   2.221   2.488
 7579SOL    HW223637   4.346   2.307   2.372
 7580SOL     OW23638   1.360   3.657   2.893
 7580SOL    HW123639   1.265   3.657   2.863
 7580SOL    HW223640   1.388   3.564   2.914
 7581SOL     OW23641   5.406   1.818   0.756
 7581SOL    HW123642   5.479   1.834   0.690
 7581SOL    HW223643   5.320   1.852   0.719
 7582SOL     OW23644   3.880   1.603   0.451
 7582SOL    HW123645   3.861   1.505   0.448
 7582SOL    HW223646   3.802   1.651   0.491
 7583SOL     OW23647   5.842   4.291   1.927
 7583SOL    HW123648   5.886   4.381   1.933
 7583SOL    HW223649   5.761   4.297   1.869
 7584SOL     OW23650   2.707   6.789   1.060
 7584SOL    HW123651   2.621   6.832   1.035
 7584SOL    HW223652   2.743   6.833   1.142
 7585SOL     OW23653   1.317   3.981   6.537
 7585SOL    HW123654   1.226   4.011   6.566
 7585SOL    HW223655   1.348   3.908   6.597
 7586SOL     OW23656   3.038   0.119   2.487
 7586SOL    HW123657   3.095   0.200   2.471
 7586SOL    HW223658   2.967   0.114   2.417
 7587SOL     OW23659   2.044   1.844   6.808
 7587SOL    HW123660   2.079   1.849   6.902
 7587SOL    HW223661   2.119   1.853   6.744
 7588SOL     OW23662   0.740   5.381   2.059
 7588SOL    HW123663   0.664   5.401   2.121
 7588SOL    HW223664   0.818   5.438   2.083
 7589SOL     OW23665   5.788   6.060   0.190
 7589SOL    HW123666   5.692   6.042   0.167
 7589SOL    HW223667   5.795   6.150   0.232
 7590SOL     OW23668   2.817   1.709   5.462
 7590SOL    HW123669   2.769   1.740   5.545
 7590SOL    HW223670   2.870   1.785   5.424
 7591SOL     OW23671   0.070   4.933   0.485
 7591SOL    HW123672   7.006   4.950   0.523
 7591SOL    HW223673   0.117   5.020   0.472
 7592SOL     OW23674   6.510   4.767   0.127
 7592SOL    HW123675   6.530   4.798   0.219
 7592SOL    HW223676   6.473   4.674   0.130
 7593SOL     OW23677   5.603   2.818   0.110
 7593SOL    HW123678   5.518   2.811   0.164
 7593SOL    HW223679   5.656   2.896   0.141
 7594SOL     OW23680   0.803   4.990   3.170
 7594SOL    HW123681   0.885   5.029   3.128
 7594SOL    HW223682   0.821   4.895   3.195
 7595SOL     OW23683   0.274   3.599   6.366
 7595SOL    HW123684   0.325   3.513   6.373
 7595SOL    HW223685   0.210   3.606   6.442
 7596SOL     OW23686   4.963   4.888   2.684
 7596SOL    HW123687   4.965   4.896   2.784
 7596SOL    HW223688   4.869   4.894   2.652
 7597SOL     OW23689   3.145   5.467   2.162
 7597SOL    HW123690   3.157   5.553   2.211
 7597SOL    HW223691   3.216   5.458   2.093
 7598SOL     OW23692   0.030   0.376   2.763
 7598SOL    HW123693   0.064   0.457   2.716
 7598SOL    HW223694   0.077   0.295   2.729
 7599SOL     OW23695   6.054   1.441   3.269
 7599SOL    HW123696   6.049   1.362   3.209
 7599SOL    HW223697   5.977   1.440   3.333
 7600SOL     OW23698   1.862   6.983   2.141
 7600SOL    HW123699   1.806   6.944   2.213
 7600SOL    HW223700   1.881   0.052   2.162
 7601SOL     OW23701   2.092   5.669   3.517
 7601SOL    HW123702   2.177   5.627   3.548
 7601SOL    HW223703   2.038   5.697   3.596
 7602SOL     OW23704   2.340   4.613   4.911
 7602SOL    HW123705   2.251   4.613   4.866
 7602SOL    HW223706   2.412   4.621   4.842
 7603SOL     OW23707   1.141   6.267   6.442
 7603SOL    HW123708   1.051   6.224   6.438
 7603SOL    HW223709   1.168   6.279   6.538
 7604SOL     OW23710   3.678   6.053   4.112
 7604SOL    HW123711   3.713   6.004   4.032
 7604SOL    HW223712   3.581   6.035   4.123
 7605SOL     OW23713   1.803   5.448   6.943
 7605SOL    HW123714   1.832   5.531   6.991
 7605SOL    HW223715   1.873   5.421   6.877
 7606SOL     OW23716   0.501   2.830   2.155
 7606SOL    HW123717   0.423   2.827   2.093
 7606SOL    HW223718   0.577   2.878   2.111
 7607SOL     OW23719   4.661   6.821   0.211
 7607SOL    HW123720   4.633   6.901   0.265
 7607SOL    HW223721   4.685   6.850   0.118
 7608SOL     OW23722   3.200   4.062   3.134
 7608SOL    HW123723   3.234   4.134   3.194
 7608SOL    HW223724   3.129   4.010   3.181
 7609SOL     OW23725   6.992   3.745   3.736
 7609SOL    HW123726   6.977   3.822   3.799
 7609SOL    HW223727   0.061   3.739   3.713
 7610SOL     OW23728   6.197   0.650   1.213
 7610SOL    HW123729   6.151   0.615   1.131
 7610SOL    HW223730   6.268   0.585   1.241
 7611SOL     OW23731   1.305   1.793   6.960
 7611SOL    HW123732   1.218   1.749   6.940
 7611SOL    HW223733   1.380   1.733   6.931
 7612SOL     OW23734   3.888   1.130   4.405
 7612SOL    HW123735   3.960   1.080   4.357
 7612SOL    HW223736   3.802   1.122   4.355
 7613SOL     OW23737   4.857   1.601   1.361
 7613SOL    HW123738   4.759   1.614   1.349
 7613SOL    HW223739   4.879   1.504   1.354
 7614SOL     OW23740   3.913   2.288   1.778
 7614SOL    HW123741   3.945   2.382   1.784
 7614SOL    HW223742   3.826   2.279   1.826
 7615SOL     OW23743   4.992   4.977   6.500
 7615SOL    HW123744   4.927   5.053   6.508
 7615SOL    HW223745   5.047   4.990   6.417
 7616SOL     OW23746   0.705   4.192   4.313
 7616SOL    HW123747   0.683   4.127   4.385
 7616SOL    HW223748   0.803   4.189   4.294
 7617SOL     OW23749   3.071   5.692   3.952
 7617SOL    HW123750   3.030   5.681   3.861
 7617SOL    HW223751   3.161   5.648   3.953
 7618SOL     OW23752   1.311   2.167   6.270
 7618SOL    HW123753   1.300   2.120   6.182
 7618SOL    HW223754   1.343   2.101   6.339
 7619SOL     OW23755   5.841   3.427   5.740
 7619SOL    HW123756   5.798   3.339   5.764
 7619SOL    HW223757   5.789   3.501   5.782
 7620SOL     OW23758   3.533   0.532   1.118
 7620SOL    HW123759   3.444   0.565   1.150
 7620SOL    HW223760   3.597   0.608   1.114
 7621SOL     OW23761   0.842   0.506   0.012
 7621SOL    HW123762   0.927   0.477   0.055
 7621SOL    HW223763   0.840   0.474   6.945
 7622SOL     OW23764   5.063   2.788   1.529
 7622SOL    HW123765   4.970   2.818   1.552
 7622SOL    HW223766   5.123   2.868   1.527
 7623SOL     OW23767   4.575   5.870   6.264
 7623SOL    HW123768   4.535   5.928   6.335
 7623SOL    HW223769   4.647   5.921   6.216
 7624SOL     OW23770   0.221   2.161   3.618
 7624SOL    HW123771   0.134   2.192   3.579
 7624SOL    HW223772   0.287   2.144   3.544
 7625SOL     OW23773   5.456   1.476   0.327
 7625SOL    HW123774   5.532   1.428   0.372
 7625SOL    HW223775   5.379   1.482   0.391
 7626SOL     OW23776   0.100   6.920   5.027
 7626SOL    HW123777   0.131   6.877   4.942
 7626SOL    HW223778   0.150   6.882   5.104
 7627SOL     OW23779   6.478   3.591   0.641
 7627SOL    HW123780   6.460   3.667   0.580
 7627SOL    HW223781   6.444   3.613   0.733
 7628SOL     OW23782   2.581   0.806   1.521
 7628SOL    HW123783   2.548   0.900   1.514
 7628SOL    HW223784   2.579   0.777   1.617
 7629SOL     OW23785   6.373   6.173   2.481
 7629SOL    HW123786   6.449   6.195   2.419
 7629SOL    HW223787   6.390   6.085   2.525
 7630SOL     OW23788   6.212   6.846   2.199
 7630SOL    HW123789   6.209   6.850   2.299
 7630SOL    HW223790   6.260   6.763   2.171
 7631SOL     OW23791   1.144   1.992   5.171
 7631SOL    HW123792   1.192   2.004   5.084
 7631SOL    HW223793   1.210   1.966   5.242
 7632SOL     OW23794   4.170   2.037   1.176
 7632SOL    HW123795   4.101   2.031   1.248
 7632SOL    HW223796   4.157   2.122   1.124
 7633SOL     OW23797   5.553   3.289   0.162
 7633SOL    HW123798   5.630   3.238   0.202
 7633SOL    HW223799   5.583   3.380   0.135
 7634SOL     OW23800   2.038   0.820   2.327
 7634SOL    HW123801   1.973   0.765   2.276
 7634SOL    HW223802   2.127   0.819   2.281
 7635SOL     OW23803   2.628   5.354   5.566
 7635SOL    HW123804   2.695   5.287   5.533
 7635SOL    HW223805   2.673   5.421   5.625
 7636SOL     OW23806   1.345   1.250   3.779
 7636SOL    HW123807   1.310   1.207   3.696
 7636SOL    HW223808   1.444   1.260   3.772
 7637SOL     OW23809   1.602   6.703   3.859
 7637SOL    HW123810   1.601   6.627   3.794
 7637SOL    HW223811   1.509   6.719   3.894
 7638SOL     OW23812   5.634   5.742   1.562
 7638SOL    HW123813   5.682   5.660   1.593
 7638SOL    HW223814   5.698   5.819   1.560
 7639SOL     OW23815   1.186   2.075   6.538
 7639SOL    HW123816   1.230   1.991   6.507
 7639SOL    HW223817   1.143   2.120   6.459
 7640SOL     OW23818   2.306   2.161   0.623
 7640SOL    HW123819   2.265   2.220   0.693
 7640SOL    HW223820   2.274   2.067   0.636
 7641SOL     OW23821   0.838   4.390   2.166
 7641SOL    HW123822   0.889   4.433   2.241
 7641SOL    HW223823   0.828   4.455   2.091
 7642SOL     OW23824   2.851   1.708   2.796
 7642SOL    HW123825   2.865   1.625   2.850
 7642SOL    HW223826   2.832   1.785   2.857
 7643SOL     OW23827   4.788   2.457   3.594
 7643SOL    HW123828   4.744   2.413   3.673
 7643SOL    HW223829   4.861   2.517   3.626
 7644SOL     OW23830   6.291   1.944   2.339
 7644SOL    HW123831   6.271   2.017   2.273
 7644SOL    HW223832   6.239   1.961   2.423
 7645SOL     OW23833   4.826   5.182   6.571
 7645SOL    HW123834   4.845   5.280   6.566
 7645SOL    HW223835   4.745   5.167   6.627
 7646SOL     OW23836   1.687   2.053   2.223
 7646SOL    HW123837   1.734   1.988   2.164
 7646SOL    HW223838   1.608   2.009   2.266
 7647SOL     OW23839   0.802   3.319   1.892
 7647SOL    HW123840   0.897   3.325   1.920
 7647SOL    HW223841   0.752   3.399   1.925
 7648SOL     OW23842   4.636   2.068   3.468
 7648SOL    HW123843   4.618   2.083   3.566
 7648SOL    HW223844   4.550   2.043   3.423
 7649SOL     OW23845   0.488   0.387   2.060
 7649SOL    HW123846   0.499   0.370   2.157
 7649SOL    HW223847   0.434   0.312   2.019
 7650SOL     OW23848   6.424   3.172   2.067
 7650SOL    HW123849   6.499   3.168   2.001
 7650SOL    HW223850   6.460   3.163   2.160
 7651SOL     OW23851   2.274   0.000   6.952
 7651SOL    HW123852   2.280   0.017   0.023
 7651SOL    HW223853   2.189   6.980   6.931
 7652SOL     OW23854   6.031   3.700   4.134
 7652SOL    HW123855   6.018   3.789   4.092
 7652SOL    HW223856   6.105   3.705   4.202
 7653SOL     OW23857   2.064   1.179   0.733
 7653SOL    HW123858   1.976   1.218   0.706
 7653SOL    HW223859   2.133   1.203   0.665
 7654SOL     OW23860   4.851   2.422   3.340
 7654SOL    HW123861   4.821   2.445   3.432
 7654SOL    HW223862   4.774   2.432   3.276
 7655SOL     OW23863   4.053   0.267   3.816
 7655SOL    HW123864   3.973   0.229   3.862
 7655SOL    HW223865   4.123   0.197   3.807
 7656SOL     OW23866   0.456   5.731   6.044
 7656SOL    HW123867   0.548   5.727   6.082
 7656SOL    HW223868   0.406   5.647   6.068
 7657SOL     OW23869   3.033   2.186   2.837
 7657SOL    HW123870   3.017   2.229   2.749
 7657SOL    HW223871   3.049   2.088   2.824
 7658SOL     OW23872   4.672   0.526   6.274
 7658SOL    HW123873   4.713   0.520   6.365
 7658SOL    HW223874   4.573   0.514   6.281
 7659SOL     OW23875   5.611   0.071   0.582
 7659SOL    HW123876   5.649   0.117   0.502
 7659SOL    HW223877   5.670   7.022   0.607
 7660SOL     OW23878   5.717   5.994   3.936
 7660SOL    HW123879   5.704   5.904   3.895
 7660SOL    HW223880   5.735   5.983   4.034
 7661SOL     OW23881   5.997   2.086   4.603
 7661SOL    HW123882   5.901   2.109   4.619
 7661SOL    HW223883   6.052   2.117   4.681
 7662SOL     OW23884   1.830   2.452   1.889
 7662SOL    HW123885   1.904   2.390   1.915
 7662SOL    HW223886   1.746   2.426   1.938
 7663SOL     OW23887   6.735   5.475   6.702
 7663SOL    HW123888   6.831   5.499   6.692
 7663SOL    HW223889   6.722   5.379   6.677
 7664SOL     OW23890   2.791   6.496   2.544
 7664SOL    HW123891   2.744   6.409   2.560
 7664SOL    HW223892   2.830   6.529   2.630
 7665SOL     OW23893   3.386   0.038   3.705
 7665SOL    HW123894   3.364   0.118   3.649
 7665SOL    HW223895   3.346   6.984   3.663
 7666SOL     OW23896   0.376   6.717   1.566
 7666SOL    HW123897   0.376   6.638   1.627
 7666SOL    HW223898   0.395   6.688   1.472
 7667SOL     OW23899   4.923   6.144   6.906
 7667SOL    HW123900   4.952   6.230   6.948
 7667SOL    HW223901   4.997   6.077   6.911
 7668SOL     OW23902   3.399   4.021   1.400
 7668SOL    HW123903   3.432   3.953   1.335
 7668SOL    HW223904   3.308   3.996   1.431
 7669SOL     OW23905   5.392   1.244   4.771
 7669SOL    HW123906   5.303   1.209   4.740
 7669SOL    HW223907   5.436   1.294   4.697
 7670SOL     OW23908   1.553   5.872   6.643
 7670SOL    HW123909   1.586   5.948   6.700
 7670SOL    HW223910   1.621   5.849   6.575
 7671SOL     OW23911   4.753   1.307   4.208
 7671SOL    HW123912   4.795   1.217   4.204
 7671SOL    HW223913   4.806   1.366   4.269
 7672SOL     OW23914   6.278   6.995   3.756
 7672SOL    HW123915   6.256   0.053   3.804
 7672SOL    HW223916   6.308   6.927   3.822
 7673SOL     OW23917   1.867   5.067   0.899
 7673SOL    HW123918   1.847   5.106   0.810
 7673SOL    HW223919   1.869   4.967   0.892
 7674SOL     OW23920   6.662   1.903   4.578
 7674SOL    HW123921   6.585   1.939   4.629
 7674SOL    HW223922   6.629   1.862   4.492
 7675SOL     OW23923   5.155   0.765   2.266
 7675SOL    HW123924   5.247   0.797   2.245
 7675SOL    HW223925   5.112   0.827   2.333
 7676SOL     OW23926   0.571   1.969   6.637
 7676SOL    HW123927   0.661   1.990   6.599
 7676SOL    HW223928   0.572   1.985   6.736
 7677SOL     OW23929   1.838   2.711   1.758
 7677SOL    HW123930   1.845   2.618   1.794
 7677SOL    HW223931   1.854   2.709   1.659
 7678SOL     OW23932   1.668   0.888   6.481
 7678SOL    HW123933   1.618   0.822   6.424
 7678SOL    HW223934   1.765   0.884   6.459
 7679SOL     OW23935   1.288   5.701   5.064
 7679SOL    HW123936   1.193   5.728   5.082
 7679SOL    HW223937   1.309   5.714   4.967
 7680SOL     OW23938   2.389   3.000   6.928
 7680SOL    HW123939   2.421   2.905   6.929
 7680SOL    HW223940   2.361   3.026   7.021
 7681SOL     OW23941   3.095   0.430   0.465
 7681SOL    HW123942   3.061   0.492   0.394
 7681SOL    HW223943   3.018   0.380   0.505
 7682SOL     OW23944   2.514   6.836   1.759
 7682SOL    HW123945   2.607   6.825   1.795
 7682SOL    HW223946   2.455   6.874   1.830
 7683SOL     OW23947   6.679   2.747   3.161
 7683SOL    HW123948   6.643   2.832   3.199
 7683SOL    HW223949   6.767   2.766   3.116
 7684SOL     OW23950   5.785   2.689   6.700
 7684SOL    HW123951   5.742   2.650   6.618
 7684SOL    HW223952   5.718   2.692   6.774
 7685SOL     OW23953   3.668   2.596   0.175
 7685SOL    HW123954   3.722   2.555   0.102
 7685SOL    HW223955   3.675   2.540   0.257
 7686SOL     OW23956   4.046   0.211   2.844
 7686SOL    HW123957   4.107   0.278   2.885
 7686SOL    HW223958   4.018   0.243   2.753
 7687SOL     OW23959   5.386   5.899   5.805
 7687SOL    HW123960   5.369   5.996   5.823
 7687SOL    HW223961   5.345   5.844   5.878
 7688SOL     OW23962   6.867   6.911   6.095
 7688SOL    HW123963   6.781   6.864   6.073
 7688SOL    HW223964   6.934   6.843   6.124
 7689SOL     OW23965   4.997   5.808   4.206
 7689SOL    HW123966   4.948   5.724   4.185
 7689SOL    HW223967   5.093   5.799   4.178
 7690SOL     OW23968   5.568   5.713   2.964
 7690SOL    HW123969   5.560   5.704   2.865
 7690SOL    HW223970   5.657   5.754   2.986
 7691SOL     OW23971   4.857   3.007   3.917
 7691SOL    HW123972   4.811   2.920   3.899
 7691SOL    HW223973   4.831   3.041   4.007
 7692SOL     OW23974   0.978   6.791   0.965
 7692SOL    HW123975   0.942   6.812   1.056
 7692SOL    HW223976   0.986   6.875   0.912
 7693SOL     OW23977   4.318   0.814   6.792
 7693SOL    HW123978   4.355   0.729   6.754
 7693SOL    HW223979   4.309   0.805   6.891
 7694SOL     OW23980   0.505   4.706   4.000
 7694SOL    HW123981   0.598   4.685   4.028
 7694SOL    HW223982   0.465   4.627   3.953
 7695SOL     OW23983   3.968   0.693   0.797
 7695SOL    HW123984   3.941   0.713   0.891
 7695SOL    HW223985   3.890   0.707   0.736
 7696SOL     OW23986   6.882   2.225   4.292
 7696SOL    HW123987   6.931   2.270   4.218
 7696SOL    HW223988   6.804   2.175   4.255
 7697SOL     OW23989   2.247   1.250   2.982
 7697SOL    HW123990   2.199   1.248   2.895
 7697SOL    HW223991   2.346   1.248   2.966
 7698SOL     OW23992   0.052   3.312   4.609
 7698SOL    HW123993   0.051   3.219   4.572
 7698SOL    HW223994   0.066   3.378   4.535
 7699SOL     OW23995   2.347   6.069   6.772
 7699SOL    HW123996   2.374   6.109   6.684
 7699SOL    HW223997   2.259   6.024   6.762
 7700SOL     OW23998   4.373   0.105   5.378
 7700SOL    HW123999   4.360   0.170   5.454
 7700SOL    HW224000   4.390   0.014   5.415
 7701SOL     OW24001   6.585   1.294   6.215
 7701SOL    HW124002   6.583   1.305   6.116
 7701SOL    HW224003   6.497   1.325   6.253
 7702SOL     OW24004   3.541   6.511   6.049
 7702SOL    HW124005   3.555   6.438   5.982
 7702SOL    HW224006   3.531   6.471   6.140
 7703SOL     OW24007   6.612   1.453   5.267
 7703SOL    HW124008   6.573   1.503   5.344
 7703SOL    HW224009   6.539   1.416   5.211
 7704SOL     OW24010   4.313   5.083   6.295
 7704SOL    HW124011   4.302   5.150   6.222
 7704SOL    HW224012   4.224   5.061   6.334
 7705SOL     OW24013   3.628   4.836   5.228
 7705SOL    HW124014   3.555   4.880   5.176
 7705SOL    HW224015   3.716   4.854   5.185
 7706SOL     OW24016   6.037   0.749   5.609
 7706SOL    HW124017   6.124   0.716   5.646
 7706SOL    HW224018   6.054   0.802   5.526
 7707SOL     OW24019   0.151   5.211   6.454
 7707SOL    HW124020   0.153   5.133   6.391
 7707SOL    HW224021   0.185   5.182   6.543
 7708SOL     OW24022   5.247   6.117   4.966
 7708SOL    HW124023   5.188   6.092   5.042
 7708SOL    HW224024   5.342   6.098   4.990
 7709SOL     OW24025   4.917   2.828   2.539
 7709SOL    HW124026   4.859   2.889   2.485
 7709SOL    HW224027   4.923   2.739   2.492
 7710SOL     OW24028   2.190   0.209   0.690
 7710SOL    HW124029   2.231   0.149   0.621
 7710SOL    HW224030   2.215   0.304   0.671
 7711SOL     OW24031   6.289   6.586   5.579
 7711SOL    HW124032   6.364   6.613   5.519
 7711SOL    HW224033   6.208   6.640   5.559
 7712SOL     OW24034   6.594   5.297   1.525
 7712SOL    HW124035   6.641   5.211   1.506
 7712SOL    HW224036   6.660   5.365   1.555
 7713SOL     OW24037   2.140   4.081   0.733
 7713SOL    HW124038   2.041   4.074   0.720
 7713SOL    HW224039   2.160   4.151   0.801
 7714SOL     OW24040   6.314   4.559   4.211
 7714SOL    HW124041   6.221   4.586   4.235
 7714SOL    HW224042   6.377   4.633   4.233
 7715SOL     OW24043   4.904   0.696   0.912
 7715SOL    HW124044   4.891   0.694   1.011
 7715SOL    HW224045   4.986   0.749   0.890
 7716SOL     OW24046   4.761   2.966   2.730
 7716SOL    HW124047   4.827   2.911   2.679
 7716SOL    HW224048   4.699   2.905   2.781
 7717SOL     OW24049   2.762   1.409   4.877
 7717SOL    HW124050   2.750   1.331   4.815
 7717SOL    HW224051   2.707   1.396   4.959
 7718SOL     OW24052   2.051   1.650   2.684
 7718SOL    HW124053   1.981   1.717   2.705
 7718SOL    HW224054   2.008   1.564   2.655
 7719SOL     OW24055   0.083   3.145   4.001
 7719SOL    HW124056   0.002   3.086   3.995
 7719SOL    HW224057   0.143   3.126   3.923
 7720SOL     OW24058   6.383   6.235   0.951
 7720SOL    HW124059   6.413   6.186   0.869
 7720SOL    HW224060   6.304   6.187   0.990
 7721SOL     OW24061   2.109   4.505   3.024
 7721SOL    HW124062   2.029   4.564   3.037
 7721SOL    HW224063   2.089   4.437   2.953
 7722SOL     OW24064   6.726   5.161   2.824
 7722SOL    HW124065   6.772   5.241   2.785
 7722SOL    HW224066   6.628   5.179   2.829
 7723SOL     OW24067   0.075   3.604   0.512
 7723SOL    HW124068   0.030   3.692   0.495
 7723SOL    HW224069   0.050   3.540   0.439
 7724SOL     OW24070   2.064   4.321   2.181
 7724SOL    HW124071   2.133   4.391   2.202
 7724SOL    HW224072   2.074   4.292   2.086
 7725SOL     OW24073   5.219   2.414   3.080
 7725SOL    HW124074   5.128   2.427   3.041
 7725SOL    HW224075   5.288   2.439   3.011
 7726SOL     OW24076   6.954   4.556   3.522
 7726SOL    HW124077   6.892   4.496   3.571
 7726SOL    HW224078   7.014   4.603   3.587
 7727SOL     OW24079   6.149   2.040   3.946
 7727SOL    HW124080   6.153   2.094   4.030
 7727SOL    HW224081   6.176   1.946   3.965
 7728SOL     OW24082   1.439   3.224   2.679
 7728SOL    HW124083   1.407   3.255   2.769
 7728SOL    HW224084   1.525   3.174   2.690
 7729SOL     OW24085   5.710   2.698   1.161
 7729SOL    HW124086   5.675   2.612   1.197
 7729SOL    HW224087   5.753   2.682   1.072
 7730SOL     OW24088   5.692   6.062   2.745
 7730SOL    HW124089   5.640   6.013   2.674
 7730SOL    HW224090   5.645   6.148   2.766
 7731SOL     OW24091   6.233   1.154   0.498
 7731SOL    HW124092   6.191   1.076   0.452
 7731SOL    HW224093   6.291   1.204   0.434
 7732SOL     OW24094   4.848   5.721   0.559
 7732SOL    HW124095   4.800   5.794   0.607
 7732SOL    HW224096   4.946   5.741   0.558
 7733SOL     OW24097   3.805   7.026   1.207
 7733SOL    HW124098   3.900   6.994   1.198
 7733SOL    HW224099   3.770   0.023   1.117
 7734SOL     OW24100   1.603   3.219   3.064
 7734SOL    HW124101   1.672   3.290   3.048
 7734SOL    HW224102   1.573   3.223   3.159
 7735SOL     OW24103   4.599   4.694   6.648
 7735SOL    HW124104   4.676   4.654   6.598
 7735SOL    HW224105   4.553   4.762   6.590
 7736SOL     OW24106   5.202   4.242   0.613
 7736SOL    HW124107   5.261   4.295   0.674
 7736SOL    HW224108   5.106   4.259   0.636
 7737SOL     OW24109   4.665   2.091   1.167
 7737SOL    HW124110   4.597   2.160   1.191
 7737SOL    HW224111   4.686   2.098   1.069
 7738SOL     OW24112   2.446   5.604   1.080
 7738SOL    HW124113   2.438   5.667   1.003
 7738SOL    HW224114   2.536   5.614   1.122
 7739SOL     OW24115   0.698   2.381   0.704
 7739SOL    HW124116   0.775   2.318   0.700
 7739SOL    HW224117   0.620   2.343   0.654
 7740SOL     OW24118   6.974   6.916   2.356
 7740SOL    HW124119   6.936   6.973   2.429
 7740SOL    HW224120   6.923   6.830   2.351
 7741SOL     OW24121   1.572   5.549   4.592
 7741SOL    HW124122   1.665   5.567   4.623
 7741SOL    HW224123   1.511   5.620   4.627
 7742SOL     OW24124   6.128   2.274   3.232
 7742SOL    HW124125   6.224   2.297   3.216
 7742SOL    HW224126   6.069   2.336   3.180
 7743SOL     OW24127   4.404   3.208   5.781
 7743SOL    HW124128   4.458   3.127   5.758
 7743SOL    HW224129   4.307   3.187   5.770
 7744SOL     OW24130   6.776   6.386   3.845
 7744SOL    HW124131   6.772   6.463   3.781
 7744SOL    HW224132   6.692   6.332   3.838
 7745SOL     OW24133   4.090   2.440   6.209
 7745SOL    HW124134   4.035   2.460   6.290
 7745SOL    HW224135   4.065   2.503   6.135
 7746SOL     OW24136   1.480   7.026   0.270
 7746SOL    HW124137   1.469   6.972   0.354
 7746SOL    HW224138   1.392   0.005   0.223
 7747SOL     OW24139   5.003   6.674   0.886
 7747SOL    HW124140   4.986   6.609   0.812
 7747SOL    HW224141   4.933   6.662   0.957
 7748SOL     OW24142   3.141   3.731   6.061
 7748SOL    HW124143   3.086   3.662   6.014
 7748SOL    HW224144   3.097   3.755   6.148
 7749SOL     OW24145   4.997   3.261   5.729
 7749SOL    HW124146   4.931   3.261   5.654
 7749SOL    HW224147   4.958   3.216   5.808
 7750SOL     OW24148   0.796   6.553   1.569
 7750SOL    HW124149   0.781   6.458   1.595
 7750SOL    HW224150   0.854   6.598   1.637
 7751SOL     OW24151   0.908   1.620   2.110
 7751SOL    HW124152   0.962   1.550   2.064
 7751SOL    HW224153   0.833   1.577   2.161
 7752SOL     OW24154   5.034   0.764   4.607
 7752SOL    HW124155   5.006   0.679   4.563
 7752SOL    HW224156   4.987   0.773   4.695
 7753SOL     OW24157   1.876   1.193   4.254
 7753SOL    HW124158   1.823   1.276   4.273
 7753SOL    HW224159   1.972   1.209   4.277
 7754SOL     OW24160   3.399   5.975   1.744
 7754SOL    HW124161   3.364   5.976   1.650
 7754SOL    HW224162   3.483   6.030   1.749
 7755SOL     OW24163   1.885   3.972   6.834
 7755SOL    HW124164   1.816   4.011   6.773
 7755SOL    HW224165   1.934   3.898   6.786
 7756SOL     OW24166   2.236   5.832   1.639
 7756SOL    HW124167   2.285   5.805   1.556
 7756SOL    HW224168   2.273   5.782   1.718
 7757SOL     OW24169   0.277   4.536   2.125
 7757SOL    HW124170   0.371   4.501   2.121
 7757SOL    HW224171   0.216   4.463   2.157
 7758SOL     OW24172   1.401   0.807   5.670
 7758SOL    HW124173   1.357   0.782   5.584
 7758SOL    HW224174   1.409   0.907   5.675
 7759SOL     OW24175   2.584   2.673   6.314
 7759SOL    HW124176   2.551   2.651   6.222
 7759SOL    HW224177   2.608   2.589   6.362
 7760SOL     OW24178   4.358   1.804   1.823
 7760SOL    HW124179   4.261   1.815   1.798
 7760SOL    HW224180   4.366   1.793   1.922
 7761SOL     OW24181   4.956   5.650   4.819
 7761SOL    HW124182   5.048   5.612   4.812
 7761SOL    HW224183   4.961   5.750   4.828
 7762SOL     OW24184   0.064   0.330   3.855
 7762SOL    HW124185   0.011   0.249   3.880
 7762SOL    HW224186   0.010   0.412   3.872
 7763SOL     OW24187   2.671   0.465   5.015
 7763SOL    HW124188   2.690   0.563   5.017
 7763SOL    HW224189   2.655   0.436   4.921
 7764SOL     OW24190   3.269   3.742   5.477
 7764SOL    HW124191   3.301   3.806   5.547
 7764SOL    HW224192   3.216   3.669   5.520
 7765SOL     OW24193   6.967   3.342   4.155
 7765SOL    HW124194   6.981   3.437   4.128
 7765SOL    HW224195   7.024   3.282   4.099
 7766SOL     OW24196   0.554   4.732   0.273
 7766SOL    HW124197   0.465   4.772   0.291
 7766SOL    HW224198   0.559   4.641   0.315
 7767SOL     OW24199   3.123   0.178   3.031
 7767SOL    HW124200   3.165   0.234   3.102
 7767SOL    HW224201   3.125   0.228   2.944
 7768SOL     OW24202   4.402   4.570   3.114
 7768SOL    HW124203   4.332   4.522   3.061
 7768SOL    HW224204   4.467   4.613   3.051
 7769SOL     OW24205   3.534   2.580   5.376
 7769SOL    HW124206   3.470   2.630   5.318
 7769SOL    HW224207   3.511   2.482   5.375
 7770SOL     OW24208   1.320   3.586   4.824
 7770SOL    HW124209   1.349   3.599   4.918
 7770SOL    HW224210   1.396   3.549   4.770
 7771SOL     OW24211   2.951   2.577   6.023
 7771SOL    HW124212   2.884   2.576   5.948
 7771SOL    HW224213   3.043   2.586   5.985
 7772SOL     OW24214   4.850   0.802   1.193
 7772SOL    HW124215   4.769   0.845   1.234
 7772SOL    HW224216   4.933   0.845   1.229
 7773SOL     OW24217   2.875   5.611   0.285
 7773SOL    HW124218   2.964   5.633   0.325
 7773SOL    HW224219   2.882   5.527   0.232
 7774SOL     OW24220   5.061   1.318   2.618
 7774SOL    HW124221   5.071   1.241   2.681
 7774SOL    HW224222   5.004   1.388   2.661
 7775SOL     OW24223   3.187   0.767   0.028
 7775SOL    HW124224   3.099   0.770   0.075
 7775SOL    HW224225   3.261   0.774   0.094
 7776SOL     OW24226   0.837   6.911   5.290
 7776SOL    HW124227   0.926   6.957   5.288
 7776SOL    HW224228   0.850   6.814   5.307
 7777SOL     OW24229   5.306   5.171   3.930
 7777SOL    HW124230   5.379   5.104   3.940
 7777SOL    HW224231   5.266   5.192   4.019
 7778SOL     OW24232   6.170   4.197   3.023
 7778SOL    HW124233   6.156   4.099   3.035
 7778SOL    HW224234   6.232   4.212   2.945
 7779SOL     OW24235   3.069   6.302   1.763
 7779SOL    HW124236   3.026   6.381   1.720
 7779SOL    HW224237   3.155   6.330   1.806
 7780SOL     OW24238   6.724   6.118   5.420
 7780SOL    HW124239   6.739   6.047   5.351
 7780SOL    HW224240   6.657   6.085   5.487
 7781SOL     OW24241   1.651   3.043   0.921
 7781SOL    HW124242   1.581   3.062   0.852
 7781SOL    HW224243   1.693   3.128   0.951
 7782SOL     OW24244   6.222   5.180   3.580
 7782SOL    HW124245   6.192   5.269   3.615
 7782SOL    HW224246   6.311   5.157   3.619
 7783SOL     OW24247   1.117   0.211   5.154
 7783SOL    HW124248   1.212   0.232   5.176
 7783SOL    HW224249   1.062   0.294   5.160
 7784SOL     OW24250   2.543   2.365   2.053
 7784SOL    HW124251   2.595   2.297   2.002
 7784SOL    HW224252   2.505   2.432   1.989
 7785SOL     OW24253   1.040   6.152   2.394
 7785SOL    HW124254   0.987   6.223   2.440
 7785SOL    HW224255   1.068   6.184   2.304
 7786SOL     OW24256   4.478   0.404   6.492
 7786SOL    HW124257   4.543   0.441   6.558
 7786SOL    HW224258   4.485   0.304   6.491
 7787SOL     OW24259   2.735   3.225   1.516
 7787SOL    HW124260   2.659   3.288   1.499
 7787SOL    HW224261   2.753   3.171   1.433
 7788SOL     OW24262   1.270   4.613   1.477
 7788SOL    HW124263   1.327   4.664   1.542
 7788SOL    HW224264   1.174   4.618   1.505
 7789SOL     OW24265   3.339   0.961   6.605
 7789SOL    HW124266   3.399   1.000   6.675
 7789SOL    HW224267   3.273   0.899   6.647
 7790SOL     OW24268   5.633   5.033   1.964
 7790SOL    HW124269   5.564   5.015   2.035
 7790SOL    HW224270   5.651   4.949   1.913
 7791SOL     OW24271   2.197   5.358   1.874
 7791SOL    HW124272   2.129   5.322   1.938
 7791SOL    HW224273   2.255   5.284   1.841
 7792SOL     OW24274   1.006   1.643   2.715
 7792SOL    HW124275   1.060   1.725   2.694
 7792SOL    HW224276   0.911   1.669   2.734
 7793SOL     OW24277   4.561   1.670   0.504
 7793SOL    HW124278   4.523   1.734   0.437
 7793SOL    HW224279   4.597   1.590   0.458
 7794SOL     OW24280   0.856   5.433   3.231
 7794SOL    HW124281   0.893   5.505   3.171
 7794SOL    HW224282   0.827   5.474   3.318
 7795SOL     OW24283   2.821   5.629   6.068
 7795SOL    HW124284   2.847   5.652   6.162
 7795SOL    HW224285   2.822   5.712   6.012
 7796SOL     OW24286   3.623   3.264   6.398
 7796SOL    HW124287   3.616   3.331   6.473
 7796SOL    HW224288   3.543   3.273   6.338
 7797SOL     OW24289   0.678   5.754   3.631
 7797SOL    HW124290   0.669   5.698   3.713
 7797SOL    HW224291   0.618   5.834   3.639
 7798SOL     OW24292   0.407   2.226   1.105
 7798SOL    HW124293   0.498   2.211   1.066
 7798SOL    HW224294   0.337   2.203   1.037
 7799SOL     OW24295   2.695   6.439   3.549
 7799SOL    HW124296   2.719   6.446   3.452
 7799SOL    HW224297   2.597   6.451   3.561
 7800SOL     OW24298   0.227   6.126   1.257
 7800SOL    HW124299   0.321   6.121   1.225
 7800SOL    HW224300   0.164   6.114   1.180
 7801SOL     OW24301   1.586   2.388   2.632
 7801SOL    HW124302   1.615   2.368   2.726
 7801SOL    HW224303   1.597   2.485   2.614
 7802SOL     OW24304   6.889   3.978   5.558
 7802SOL    HW124305   6.796   3.953   5.533
 7802SOL    HW224306   6.940   3.896   5.585
 7803SOL     OW24307   4.947   2.420   5.471
 7803SOL    HW124308   4.933   2.337   5.524
 7803SOL    HW224309   5.018   2.475   5.514
 7804SOL     OW24310   2.635   2.421   4.839
 7804SOL    HW124311   2.650   2.461   4.930
 7804SOL    HW224312   2.555   2.361   4.841
 7805SOL     OW24313   5.353   2.803   1.400
 7805SOL    HW124314   5.306   2.866   1.462
 7805SOL    HW224315   5.309   2.713   1.404
 7806SOL     OW24316   6.355   2.375   5.756
 7806SOL    HW124317   6.412   2.317   5.815
 7806SOL    HW224318   6.287   2.422   5.812
 7807SOL     OW24319   2.240   5.029   5.910
 7807SOL    HW124320   2.160   5.000   5.857
 7807SOL    HW224321   2.292   4.948   5.940
 7808SOL     OW24322   5.448   4.147   2.765
 7808SOL    HW124323   5.435   4.149   2.864
 7808SOL    HW224324   5.411   4.230   2.724
 7809SOL     OW24325   4.955   5.121   3.505
 7809SOL    HW124326   4.917   5.034   3.474
 7809SOL    HW224327   4.882   5.188   3.515
 7810SOL     OW24328   4.021   6.280   5.163
 7810SOL    HW124329   4.012   6.184   5.136
 7810SOL    HW224330   4.042   6.284   5.261
 7811SOL     OW24331   1.174   5.707   2.291
 7811SOL    HW124332   1.193   5.646   2.368
 7811SOL    HW224333   1.140   5.653   2.214
 7812SOL     OW24334   2.310   3.182   5.546
 7812SOL    HW124335   2.241   3.251   5.570
 7812SOL    HW224336   2.377   3.175   5.620
 7813SOL     OW24337   5.666   1.838   1.147
 7813SOL    HW124338   5.677   1.794   1.236
 7813SOL    HW224339   5.695   1.775   1.075
 7814SOL     OW24340   6.793   2.949   1.907
 7814SOL    HW124341   6.784   2.927   2.004
 7814SOL    HW224342   6.719   2.905   1.856
 7815SOL     OW24343   6.151   2.685   5.593
 7815SOL    HW124344   6.105   2.726   5.514
 7815SOL    HW224345   6.226   2.744   5.623
 7816SOL     OW24346   0.551   1.770   4.979
 7816SOL    HW124347   0.542   1.859   5.023
 7816SOL    HW224348   0.598   1.707   5.040
 7817SOL     OW24349   3.180   2.961   6.494
 7817SOL    HW124350   3.102   2.922   6.543
 7817SOL    HW224351   3.147   3.009   6.413
 7818SOL     OW24352   5.702   1.420   2.074
 7818SOL    HW124353   5.740   1.497   2.024
 7818SOL    HW224354   5.650   1.454   2.153
 7819SOL     OW24355   1.331   3.547   3.941
 7819SOL    HW124356   1.381   3.475   3.891
 7819SOL    HW224357   1.236   3.518   3.953
 7820SOL     OW24358   1.185   0.682   5.433
 7820SOL    HW124359   1.214   0.670   5.338
 7820SOL    HW224360   1.146   0.773   5.445
 7821SOL     OW24361   6.244   5.576   6.950
 7821SOL    HW124362   6.282   5.512   7.016
 7821SOL    HW224363   6.276   5.553   6.858
 7822SOL     OW24364   1.251   1.081   4.495
 7822SOL    HW124365   1.236   1.176   4.523
 7822SOL    HW224366   1.307   1.080   4.413
 7823SOL     OW24367   1.686   3.716   0.193
 7823SOL    HW124368   1.691   3.815   0.177
 7823SOL    HW224369   1.768   3.686   0.242
 7824SOL     OW24370   5.275   2.484   2.576
 7824SOL    HW124371   5.256   2.389   2.554
 7824SOL    HW224372   5.276   2.539   2.492
 7825SOL     OW24373   3.261   3.141   1.510
 7825SOL    HW124374   3.165   3.172   1.510
 7825SOL    HW224375   3.277   3.085   1.591
 7826SOL     OW24376   6.616   1.121   0.700
 7826SOL    HW124377   6.600   1.219   0.696
 7826SOL    HW224378   6.546   1.073   0.648
 7827SOL     OW24379   5.024   5.285   1.479
 7827SOL    HW124380   5.028   5.185   1.471
 7827SOL    HW224381   5.095   5.325   1.421
 7828SOL     OW24382   0.512   6.268   0.753
 7828SOL    HW124383   0.505   6.366   0.737
 7828SOL    HW224384   0.598   6.247   0.798
 7829SOL     OW24385   3.298   2.995   1.734
 7829SOL    HW124386   3.296   2.903   1.772
 7829SOL    HW224387   3.287   3.062   1.807
 7830SOL     OW24388   6.203   3.225   0.130
 7830SOL    HW124389   6.152   3.164   0.192
 7830SOL    HW224390   6.181   3.201   0.035
 7831SOL     OW24391   1.440   3.353   0.944
 7831SOL    HW124392   1.421   3.316   0.854
 7831SOL    HW224393   1.520   3.308   0.983
 7832SOL     OW24394   2.617   2.232   5.550
 7832SOL    HW124395   2.627   2.288   5.632
 7832SOL    HW224396   2.528   2.188   5.551
 7833SOL     OW24397   0.824   6.657   0.410
 7833SOL    HW124398   0.870   6.579   0.368
 7833SOL    HW224399   0.725   6.645   0.404
 7834SOL     OW24400   1.018   0.848   1.560
 7834SOL    HW124401   1.099   0.904   1.578
 7834SOL    HW224402   1.027   0.760   1.607
 7835SOL     OW24403   2.220   2.995   4.818
 7835SOL    HW124404   2.153   2.925   4.843
 7835SOL    HW224405   2.290   3.002   4.890
 7836SOL     OW24406   3.047   6.623   0.045
 7836SOL    HW124407   3.067   6.561   0.120
 7836SOL    HW224408   3.076   6.716   0.069
 7837SOL     OW24409   6.152   6.350   2.738
 7837SOL    HW124410   6.112   6.442   2.737
 7837SOL    HW224411   6.209   6.338   2.657
 7838SOL     OW24412   4.141   6.940   5.065
 7838SOL    HW124413   4.238   6.915   5.065
 7838SOL    HW224414   4.097   6.898   4.986
 7839SOL     OW24415   6.032   4.799   4.815
 7839SOL    HW124416   6.058   4.784   4.720
 7839SOL    HW224417   6.104   4.764   4.875
 7840SOL     OW24418   5.100   3.029   4.223
 7840SOL    HW124419   5.138   2.951   4.271
 7840SOL    HW224420   5.067   3.000   4.133
 7841SOL     OW24421   0.360   1.975   6.202
 7841SOL    HW124422   0.383   1.995   6.298
 7841SOL    HW224423   0.391   1.883   6.179
 7842SOL     OW24424   2.307   1.588   2.782
 7842SOL    HW124425   2.216   1.605   2.745
 7842SOL    HW224426   2.367   1.558   2.708
 7843SOL     OW24427   5.998   4.214   1.209
 7843SOL    HW124428   6.096   4.217   1.190
 7843SOL    HW224429   5.956   4.142   1.155
 7844SOL     OW24430   3.994   0.925   3.395
 7844SOL    HW124431   4.006   0.864   3.316
 7844SOL    HW224432   4.026   0.879   3.478
 7845SOL     OW24433   6.624   1.287   4.422
 7845SOL    HW124434   6.685   1.317   4.350
 7845SOL    HW224435   6.533   1.269   4.384
 7846SOL     OW24436   2.255   0.285   1.429
 7846SOL    HW124437   2.156   0.292   1.441
 7846SOL    HW224438   2.298   0.268   1.518
 7847SOL     OW24439   6.951   0.227   0.199
 7847SOL    HW124440   6.965   0.325   0.214
 7847SOL    HW224441   6.878   0.214   0.131
 7848SOL     OW24442   4.161   4.016   1.469
 7848SOL    HW124443   4.128   3.956   1.395
 7848SOL    HW224444   4.152   3.969   1.557
 7849SOL     OW24445   5.181   2.922   4.543
 7849SOL    HW124446   5.262   2.967   4.506
 7849SOL    HW224447   5.167   2.950   4.638
 7850SOL     OW24448   0.061   1.089   5.429
 7850SOL    HW124449   0.122   1.127   5.499
 7850SOL    HW224450   0.071   1.142   5.345
 7851SOL     OW24451   5.731   0.751   0.294
 7851SOL    HW124452   5.688   0.809   0.225
 7851SOL    HW224453   5.711   0.655   0.276
 7852SOL     OW24454   3.144   6.468   0.224
 7852SOL    HW124455   3.159   6.493   0.320
 7852SOL    HW224456   3.221   6.413   0.192
 7853SOL     OW24457   2.688   2.560   0.551
 7853SOL    HW124458   2.674   2.478   0.495
 7853SOL    HW224459   2.783   2.563   0.583
 7854SOL     OW24460   3.470   3.915   2.295
 7854SOL    HW124461   3.425   3.986   2.241
 7854SOL    HW224462   3.539   3.869   2.240
 7855SOL     OW24463   4.485   5.418   6.789
 7855SOL    HW124464   4.579   5.384   6.800
 7855SOL    HW224465   4.445   5.435   6.879
 7856SOL     OW24466   5.466   3.563   5.245
 7856SOL    HW124467   5.376   3.524   5.226
 7856SOL    HW224468   5.537   3.505   5.206
 7857SOL     OW24469   6.016   1.754   5.761
 7857SOL    HW124470   6.018   1.746   5.861
 7857SOL    HW224471   5.978   1.842   5.735
 7858SOL     OW24472   6.112   4.093   3.544
 7858SOL    HW124473   6.131   4.184   3.579
 7858SOL    HW224474   6.080   4.034   3.619
 7859SOL     OW24475   1.336   4.696   5.753
 7859SOL    HW124476   1.261   4.631   5.762
 7859SOL    HW224477   1.340   4.729   5.658
 7860SOL     OW24478   3.777   6.933   1.653
 7860SOL    HW124479   3.695   6.887   1.620
 7860SOL    HW224480   3.858   6.891   1.613
 7861SOL     OW24481   4.178   5.289   1.302
 7861SOL    HW124482   4.158   5.384   1.280
 7861SOL    HW224483   4.097   5.233   1.289
 7862SOL     OW24484   2.935   3.989   1.708
 7862SOL    HW124485   2.906   4.073   1.663
 7862SOL    HW224486   2.857   3.926   1.714
 7863SOL     OW24487   6.402   6.170   1.940
 7863SOL    HW124488   6.315   6.184   1.987
 7863SOL    HW224489   6.455   6.255   1.941
 7864SOL     OW24490   0.609   5.786   4.720
 7864SOL    HW124491   0.588   5.837   4.636
 7864SOL    HW224492   0.700   5.745   4.711
 7865SOL     OW24493   3.467   6.413   3.403
 7865SOL    HW124494   3.506   6.434   3.493
 7865SOL    HW224495   3.540   6.399   3.337
 7866SOL     OW24496   2.627   1.882   3.508
 7866SOL    HW124497   2.596   1.798   3.463
 7866SOL    HW224498   2.711   1.864   3.559
 7867SOL     OW24499   6.342   6.006   2.190
 7867SOL    HW124500   6.375   6.010   2.096
 7867SOL    HW224501   6.419   6.015   2.254
 7868SOL     OW24502   5.189   6.289   0.910
 7868SOL    HW124503   5.097   6.268   0.876
 7868SOL    HW224504   5.187   6.379   0.954
 7869SOL     OW24505   0.339   2.757   1.930
 7869SOL    HW124506   0.345   2.659   1.914
 7869SOL    HW224507   0.314   2.803   1.844
 7870SOL     OW24508   6.634   5.379   3.776
 7870SOL    HW124509   6.577   5.299   3.759
 7870SOL    HW224510   6.720   5.370   3.726
 7871SOL     OW24511   5.900   2.695   2.812
 7871SOL    HW124512   5.941   2.680   2.721
 7871SOL    HW224513   5.834   2.622   2.831
 7872SOL     OW24514   0.333   3.431   2.958
 7872SOL    HW124515   0.358   3.419   3.054
 7872SOL    HW224516   0.298   3.345   2.921
 7873SOL     OW24517   0.133   6.516   6.069
 7873SOL    HW124518   0.052   6.461   6.091
 7873SOL    HW224519   0.213   6.456   6.065
 7874SOL     OW24520   5.856   1.435   0.062
 7874SOL    HW124521   5.820   1.496   7.018
 7874SOL    HW224522   5.921   1.371   0.022
 7875SOL     OW24523   4.658   3.910   6.477
 7875SOL    HW124524   4.605   3.862   6.546
 7875SOL    HW224525   4.596   3.967   6.422
 7876SOL     OW24526   6.763   6.975   4.011
 7876SOL    HW124527   6.701   7.026   3.952
 7876SOL    HW224528   6.736   6.987   4.107
 7877SOL     OW24529   6.605   2.564   2.940
 7877SOL    HW124530   6.616   2.627   3.018
 7877SOL    HW224531   6.694   2.522   2.919
 7878SOL     OW24532   4.787   4.072   2.522
 7878SOL    HW124533   4.781   4.002   2.451
 7878SOL    HW224534   4.837   4.036   2.601
 7879SOL     OW24535   5.003   6.568   3.412
 7879SOL    HW124536   4.968   6.532   3.498
 7879SOL    HW224537   5.066   6.502   3.371
 7880SOL     OW24538   0.495   6.242   6.893
 7880SOL    HW124539   0.519   6.195   6.808
 7880SOL    HW224540   0.419   6.196   6.937
 7881SOL     OW24541   0.479   4.082   5.289
 7881SOL    HW124542   0.436   4.111   5.374
 7881SOL    HW224543   0.484   3.982   5.286
 7882SOL     OW24544   0.774   3.232   2.831
 7882SOL    HW124545   0.822   3.147   2.812
 7882SOL    HW224546   0.766   3.245   2.930
 7883SOL     OW24547   2.642   1.185   2.947
 7883SOL    HW124548   2.632   1.194   3.046
 7883SOL    HW224549   2.667   1.274   2.908
 7884SOL     OW24550   1.491   4.302   3.871
 7884SOL    HW124551   1.542   4.340   3.948
 7884SOL    HW224552   1.512   4.205   3.861
 7885SOL     OW24553   5.449   5.981   2.931
 7885SOL    HW124554   5.493   5.891   2.939
 7885SOL    HW224555   5.510   6.043   2.881
 7886SOL     OW24556   4.798   2.872   1.642
 7886SOL    HW124557   4.809   2.946   1.576
 7886SOL    HW224558   4.758   2.909   1.727
 7887SOL     OW24559   4.168   3.304   0.277
 7887SOL    HW124560   4.094   3.370   0.286
 7887SOL    HW224561   4.211   3.313   0.187
 7888SOL     OW24562   6.269   1.478   4.156
 7888SOL    HW124563   6.239   1.517   4.243
 7888SOL    HW224564   6.364   1.502   4.139
 7889SOL     OW24565   5.481   5.197   0.683
 7889SOL    HW124566   5.497   5.108   0.726
 7889SOL    HW224567   5.523   5.268   0.739
 7890SOL     OW24568   1.414   2.933   3.903
 7890SOL    HW124569   1.331   2.879   3.916
 7890SOL    HW224570   1.465   2.938   3.989
 7891SOL     OW24571   0.301   2.040   4.300
 7891SOL    HW124572   0.329   2.125   4.346
 7891SOL    HW224573   0.291   2.057   4.202
 7892SOL     OW24574   1.440   3.617   5.612
 7892SOL    HW124575   1.471   3.629   5.706
 7892SOL    HW224576   1.517   3.587   5.555
 7893SOL     OW24577   6.062   0.322   1.860
 7893SOL    HW124578   5.992   0.314   1.931
 7893SOL    HW224579   6.020   0.314   1.770
 7894SOL     OW24580   2.562   1.510   5.878
 7894SOL    HW124581   2.506   1.516   5.961
 7894SOL    HW224582   2.564   1.600   5.833
 7895SOL     OW24583   3.726   6.371   3.777
 7895SOL    HW124584   3.736   6.347   3.874
 7895SOL    HW224585   3.743   6.290   3.721
 7896SOL     OW24586   4.040   2.544   1.701
 7896SOL    HW124587   4.116   2.568   1.640
 7896SOL    HW224588   3.990   2.627   1.726
 7897SOL     OW24589   3.836   4.120   6.484
 7897SOL    HW124590   3.737   4.120   6.494
 7897SOL    HW224591   3.873   4.034   6.520
 7898SOL     OW24592   4.980   0.185   4.638
 7898SOL    HW124593   5.062   0.231   4.670
 7898SOL    HW224594   5.004   0.094   4.602
 7899SOL     OW24595   5.305   5.178   1.575
 7899SOL    HW124596   5.299   5.150   1.479
 7899SOL    HW224597   5.241   5.252   1.592
 7900SOL     OW24598   0.550   3.929   0.623
 7900SOL    HW124599   0.480   3.991   0.658
 7900SOL    HW224600   0.583   3.872   0.698
 7901SOL     OW24601   5.369   1.118   6.069
 7901SOL    HW124602   5.369   1.073   6.158
 7901SOL    HW224603   5.376   1.050   5.996
 7902SOL     OW24604   0.592   5.912   2.752
 7902SOL    HW124605   0.571   5.999   2.795
 7902SOL    HW224606   0.510   5.877   2.706
 7903SOL     OW24607   2.317   1.666   4.677
 7903SOL    HW124608   2.342   1.728   4.603
 7903SOL    HW224609   2.289   1.578   4.639
 7904SOL     OW24610   6.058   0.663   2.261
 7904SOL    HW124611   5.969   0.675   2.306
 7904SOL    HW224612   6.123   0.627   2.327
 7905SOL     OW24613   5.496   0.999   0.572
 7905SOL    HW124614   5.511   0.985   0.474
 7905SOL    HW224615   5.407   0.962   0.597
 7906SOL     OW24616   1.374   5.102   0.967
 7906SOL    HW124617   1.342   5.132   1.057
 7906SOL    HW224618   1.391   5.181   0.909
 7907SOL     OW24619   6.036   0.319   2.723
 7907SOL    HW124620   5.994   0.283   2.807
 7907SOL    HW224621   6.038   0.248   2.653
 7908SOL     OW24622   0.686   0.851   6.546
 7908SOL    HW124623   0.590   0.878   6.558
 7908SOL    HW224624   0.721   0.890   6.461
 7909SOL     OW24625   5.637   3.828   2.549
 7909SOL    HW124626   5.607   3.822   2.644
 7909SOL    HW224627   5.562   3.802   2.488
 7910SOL     OW24628   1.982   3.774   0.948
 7910SOL    HW124629   2.068   3.772   0.999
 7910SOL    HW224630   1.922   3.701   0.981
 7911SOL     OW24631   1.016   4.086   0.874
 7911SOL    HW124632   0.984   4.085   0.779
 7911SOL    HW224633   1.093   4.023   0.884
 7912SOL     OW24634   5.128   5.374   0.586
 7912SOL    HW124635   5.112   5.413   0.496
 7912SOL    HW224636   5.178   5.439   0.643
 7913SOL     OW24637   0.496   3.518   0.738
 7913SOL    HW124638   0.443   3.554   0.661
 7913SOL    HW224639   0.435   3.476   0.805
 7914SOL     OW24640   6.304   5.369   5.261
 7914SOL    HW124641   6.394   5.359   5.218
 7914SOL    HW224642   6.296   5.304   5.336
 7915SOL     OW24643   3.654   0.103   2.916
 7915SOL    HW124644   3.576   0.073   2.970
 7915SOL    HW224645   3.651   0.061   2.825
 7916SOL     OW24646   0.757   0.212   4.775
 7916SOL    HW124647   0.814   0.137   4.742
 7916SOL    HW224648   0.783   0.235   4.869
 7917SOL     OW24649   4.164   2.623   6.895
 7917SOL    HW124650   4.066   2.605   6.909
 7917SOL    HW224651   4.179   2.656   6.802
 7918SOL     OW24652   1.932   0.707   4.877
 7918SOL    HW124653   1.912   0.612   4.900
 7918SOL    HW224654   2.018   0.711   4.824
 7919SOL     OW24655   1.330   5.105   3.422
 7919SOL    HW124656   1.430   5.106   3.419
 7919SOL    HW224657   1.298   5.163   3.497
 7920SOL     OW24658   4.682   0.479   1.148
 7920SOL    HW124659   4.711   0.384   1.139
 7920SOL    HW224660   4.715   0.516   1.235
 7921SOL     OW24661   4.952   1.731   1.836
 7921SOL    HW124662   5.003   1.674   1.899
 7921SOL    HW224663   4.912   1.675   1.764
 7922SOL     OW24664   0.949   6.146   0.279
 7922SOL    HW124665   0.935   6.058   0.324
 7922SOL    HW224666   1.031   6.143   0.222
 7923SOL     OW24667   3.979   1.676   6.802
 7923SOL    HW124668   3.906   1.719   6.749
 7923SOL    HW224669   4.068   1.700   6.762
 7924SOL     OW24670   5.763   6.512   1.440
 7924SOL    HW124671   5.802   6.563   1.517
 7924SOL    HW224672   5.803   6.420   1.438
 7925SOL     OW24673   2.588   6.457   0.775
 7925SOL    HW124674   2.655   6.401   0.726
 7925SOL    HW224675   2.635   6.509   0.846
 7926SOL     OW24676   5.670   0.522   6.448
 7926SOL    HW124677   5.747   0.580   6.474
 7926SOL    HW224678   5.658   0.449   6.516
 7927SOL     OW24679   4.774   0.142   2.484
 7927SOL    HW124680   4.727   0.165   2.399
 7927SOL    HW224681   4.800   0.045   2.483
 7928SOL     OW24682   6.725   0.821   2.991
 7928SOL    HW124683   6.760   0.912   2.971
 7928SOL    HW224684   6.796   0.767   3.035
 7929SOL     OW24685   4.660   3.905   6.073
 7929SOL    HW124686   4.726   3.978   6.051
 7929SOL    HW224687   4.597   3.937   6.143
 7930SOL     OW24688   3.913   5.953   5.668
 7930SOL    HW124689   3.936   5.903   5.584
 7930SOL    HW224690   3.983   6.021   5.687
 7931SOL     OW24691   2.942   2.411   0.352
 7931SOL    HW124692   2.971   2.394   0.258
 7931SOL    HW224693   2.852   2.371   0.367
 7932SOL     OW24694   6.892   5.326   1.463
 7932SOL    HW124695   6.851   5.243   1.425
 7932SOL    HW224696   6.938   5.377   1.391
 7933SOL     OW24697   6.706   1.343   5.685
 7933SOL    HW124698   6.782   1.283   5.709
 7933SOL    HW224699   6.730   1.397   5.605
 7934SOL     OW24700   1.454   4.178   1.014
 7934SOL    HW124701   1.542   4.176   1.061
 7934SOL    HW224702   1.431   4.272   0.991
 7935SOL     OW24703   5.777   3.875   2.913
 7935SOL    HW124704   5.704   3.818   2.876
 7935SOL    HW224705   5.779   3.866   3.013
 7936SOL     OW24706   3.987   6.737   3.817
 7936SOL    HW124707   4.018   6.645   3.839
 7936SOL    HW224708   3.948   6.779   3.899
 7937SOL     OW24709   2.490   6.149   5.402
 7937SOL    HW124710   2.436   6.104   5.331
 7937SOL    HW224711   2.428   6.198   5.464
 7938SOL     OW24712   4.373   6.871   4.960
 7938SOL    HW124713   4.465   6.869   4.999
 7938SOL    HW224714   4.377   6.907   4.867
 7939SOL     OW24715   0.896   1.935   4.865
 7939SOL    HW124716   0.928   1.889   4.948
 7939SOL    HW224717   0.820   1.884   4.825
 7940SOL     OW24718   4.773   1.826   2.467
 7940SOL    HW124719   4.796   1.768   2.388
 7940SOL    HW224720   4.693   1.881   2.444
 7941SOL     OW24721   4.331   6.370   2.058
 7941SOL    HW124722   4.241   6.354   2.099
 7941SOL    HW224723   4.325   6.356   1.959
 7942SOL     OW24724   0.736   2.676   1.864
 7942SOL    HW124725   0.756   2.642   1.771
 7942SOL    HW224726   0.680   2.758   1.858
 7943SOL     OW24727   2.275   5.369   5.867
 7943SOL    HW124728   2.249   5.334   5.957
 7943SOL    HW224729   2.327   5.299   5.818
 7944SOL     OW24730   0.806   2.803   1.117
 7944SOL    HW124731   0.745   2.736   1.158
 7944SOL    HW224732   0.768   2.835   1.030
 7945SOL     OW24733   5.879   5.074   2.899
 7945SOL    HW124734   5.910   5.056   2.806
 7945SOL    HW224735   5.788   5.117   2.897
 7946SOL     OW24736   4.049   0.782   5.720
 7946SOL    HW124737   4.095   0.738   5.797
 7946SOL    HW224738   4.117   0.806   5.650
 7947SOL     OW24739   0.990   2.816   5.369
 7947SOL    HW124740   1.025   2.889   5.310
 7947SOL    HW224741   1.056   2.741   5.371
 7948SOL     OW24742   1.522   4.659   2.563
 7948SOL    HW124743   1.519   4.589   2.634
 7948SOL    HW224744   1.433   4.667   2.519
 7949SOL     OW24745   4.551   4.920   6.175
 7949SOL    HW124746   4.636   4.955   6.136
 7949SOL    HW224747   4.488   4.996   6.189
 7950SOL     OW24748   6.012   5.807   5.368
 7950SOL    HW124749   5.980   5.755   5.289
 7950SOL    HW224750   6.112   5.809   5.369
 7951SOL     OW24751   3.005   5.563   2.617
 7951SOL    HW124752   3.082   5.537   2.559
 7951SOL    HW224753   2.919   5.544   2.569
 7952SOL     OW24754   5.627   3.602   0.141
 7952SOL    HW124755   5.698   3.609   0.211
 7952SOL    HW224756   5.648   3.664   0.065
 7953SOL     OW24757   4.018   1.976   0.606
 7953SOL    HW124758   4.065   1.907   0.660
 7953SOL    HW224759   4.085   2.026   0.550
 7954SOL     OW24760   3.842   3.267   6.778
 7954SOL    HW124761   3.925   3.233   6.733
 7954SOL    HW224762   3.867   3.322   6.857
 7955SOL     OW24763   1.453   1.391   6.518
 7955SOL    HW124764   1.508   1.308   6.516
 7955SOL    HW224765   1.509   1.468   6.488
 7956SOL     OW24766   6.503   1.167   1.740
 7956SOL    HW124767   6.427   1.180   1.804
 7956SOL    HW224768   6.481   1.092   1.677
 7957SOL     OW24769   4.590   0.442   5.520
 7957SOL    HW124770   4.598   0.396   5.608
 7957SOL    HW224771   4.498   0.480   5.510
 7958SOL     OW24772   5.735   3.569   6.584
 7958SOL    HW124773   5.657   3.507   6.593
 7958SOL    HW224774   5.711   3.659   6.620
 7959SOL     OW24775   5.055   0.962   6.128
 7959SOL    HW124776   5.139   0.926   6.168
 7959SOL    HW224777   5.047   1.059   6.148
 7960SOL     OW24778   6.554   0.982   6.776
 7960SOL    HW124779   6.518   0.895   6.741
 7960SOL    HW224780   6.630   1.012   6.718
 7961SOL     OW24781   6.352   6.706   6.851
 7961SOL    HW124782   6.261   6.705   6.810
 7961SOL    HW224783   6.377   6.614   6.878
 7962SOL     OW24784   6.500   7.005   5.946
 7962SOL    HW124785   6.538   0.067   5.926
 7962SOL    HW224786   6.566   6.934   5.920
 7963SOL     OW24787   6.181   4.261   4.451
 7963SOL    HW124788   6.156   4.283   4.357
 7963SOL    HW224789   6.138   4.327   4.513
 7964SOL     OW24790   6.781   3.412   1.585
 7964SOL    HW124791   6.728   3.449   1.509
 7964SOL    HW224792   6.769   3.471   1.665
 7965SOL     OW24793   4.373   2.044   6.870
 7965SOL    HW124794   4.397   2.065   6.775
 7965SOL    HW224795   4.284   1.998   6.872
 7966SOL     OW24796   4.145   4.307   5.349
 7966SOL    HW124797   4.059   4.354   5.367
 7966SOL    HW224798   4.193   4.351   5.273
 7967SOL     OW24799   1.738   5.267   2.257
 7967SOL    HW124800   1.792   5.255   2.341
 7967SOL    HW224801   1.744   5.362   2.226
 7968SOL     OW24802   6.404   2.110   4.443
 7968SOL    HW124803   6.376   2.036   4.383
 7968SOL    HW224804   6.378   2.198   4.401
 7969SOL     OW24805   4.709   5.974   6.986
 7969SOL    HW124806   4.700   5.941   6.892
 7969SOL    HW224807   4.787   6.036   6.992
 7970SOL     OW24808   6.472   3.060   2.527
 7970SOL    HW124809   6.447   3.010   2.611
 7970SOL    HW224810   6.525   3.141   2.551
 7971SOL     OW24811   3.417   1.534   1.156
 7971SOL    HW124812   3.508   1.564   1.184
 7971SOL    HW224813   3.404   1.438   1.178
 7972SOL     OW24814   4.036   3.089   2.555
 7972SOL    HW124815   4.019   3.096   2.457
 7972SOL    HW224816   3.966   3.031   2.597
 7973SOL     OW24817   6.332   3.987   3.440
 7973SOL    HW124818   6.236   4.013   3.456
 7973SOL    HW224819   6.391   4.067   3.455
 7974SOL     OW24820   6.167   1.609   5.442
 7974SOL    HW124821   6.195   1.621   5.538
 7974SOL    HW224822   6.207   1.524   5.407
 7975SOL     OW24823   4.707   1.876   0.623
 7975SOL    HW124824   4.685   1.964   0.581
 7975SOL    HW224825   4.638   1.809   0.596
 7976SOL     OW24826   1.668   6.662   6.687
 7976SOL    HW124827   1.582   6.702   6.720
 7976SOL    HW224828   1.679   6.571   6.727
 7977SOL     OW24829   5.719   6.295   3.081
 7977SOL    HW124830   5.670   6.277   3.167
 7977SOL    HW224831   5.773   6.379   3.091
 7978SOL     OW24832   0.430   4.394   1.108
 7978SOL    HW124833   0.427   4.427   1.202
 7978SOL    HW224834   0.473   4.303   1.106
 7979SOL     OW24835   2.151   3.364   4.701
 7979SOL    HW124836   2.249   3.367   4.679
 7979SOL    HW224837   2.135   3.415   4.785
 7980SOL     OW24838   3.470   4.641   5.864
 7980SOL    HW124839   3.519   4.607   5.783
 7980SOL    HW224840   3.532   4.694   5.921
 7981SOL     OW24841   1.808   5.011   3.518
 7981SOL    HW124842   1.725   4.966   3.485
 7981SOL    HW224843   1.789   5.106   3.540
 7982SOL     OW24844   1.645   1.535   5.873
 7982SOL    HW124845   1.734   1.546   5.918
 7982SOL    HW224846   1.603   1.449   5.902
 7983SOL     OW24847   5.035   1.221   1.322
 7983SOL    HW124848   5.049   1.277   1.240
 7983SOL    HW224849   5.038   1.280   1.403
 7984SOL     OW24850   0.800   1.638   1.310
 7984SOL    HW124851   0.875   1.670   1.368
 7984SOL    HW224852   0.759   1.717   1.263
 7985SOL     OW24853   2.511   2.380   5.753
 7985SOL    HW124854   2.481   2.445   5.683
 7985SOL    HW224855   2.437   2.318   5.775
 7986SOL     OW24856   3.835   1.434   4.177
 7986SOL    HW124857   3.739   1.455   4.160
 7986SOL    HW224858   3.864   1.358   4.119
 7987SOL     OW24859   1.349   3.825   1.111
 7987SOL    HW124860   1.418   3.755   1.127
 7987SOL    HW224861   1.338   3.880   1.194
 7988SOL     OW24862   6.639   1.382   1.570
 7988SOL    HW124863   6.598   1.303   1.616
 7988SOL    HW224864   6.737   1.364   1.555
 7989SOL     OW24865   1.402   4.080   0.357
 7989SOL    HW124866   1.423   3.984   0.374
 7989SOL    HW224867   1.411   4.132   0.442
 7990SOL     OW24868   2.423   6.458   5.228
 7990SOL    HW124869   2.375   6.385   5.179
 7990SOL    HW224870   2.521   6.442   5.225
 7991SOL     OW24871   5.411   1.630   4.865
 7991SOL    HW124872   5.486   1.590   4.919
 7991SOL    HW224873   5.327   1.578   4.880
 7992SOL     OW24874   1.846   0.361   0.590
 7992SOL    HW124875   1.756   0.322   0.610
 7992SOL    HW224876   1.914   0.287   0.593
 7993SOL     OW24877   0.112   6.793   1.499
 7993SOL    HW124878   0.062   6.707   1.500
 7993SOL    HW224879   0.204   6.778   1.534
 7994SOL     OW24880   5.019   0.759   3.496
 7994SOL    HW124881   5.020   0.856   3.472
 7994SOL    HW224882   4.963   0.746   3.578
 7995SOL     OW24883   6.573   4.432   2.186
 7995SOL    HW124884   6.532   4.344   2.209
 7995SOL    HW224885   6.510   4.506   2.211
 7996SOL     OW24886   4.338   0.144   3.134
 7996SOL    HW124887   4.354   0.243   3.131
 7996SOL    HW224888   4.358   0.105   3.045
 7997SOL     OW24889   1.045   2.041   6.973
 7997SOL    HW124890   1.004   2.037   6.882
 7997SOL    HW224891   0.990   1.989   0.009
 7998SOL     OW24892   2.636   0.222   0.196
 7998SOL    HW124893   2.541   0.233   0.225
 7998SOL    HW224894   2.647   0.254   0.102
 7999SOL     OW24895   1.171   1.981   5.572
 7999SOL    HW124896   1.231   1.962   5.495
 7999SOL    HW224897   1.086   2.022   5.539
 8000SOL     OW24898   5.690   6.477   6.449
 8000SOL    HW124899   5.604   6.425   6.446
 8000SOL    HW224900   5.749   6.440   6.521
 8001SOL     OW24901   5.190   0.347   0.714
 8001SOL    HW124902   5.283   0.382   0.724
 8001SOL    HW224903   5.190   0.247   0.726
 8002SOL     OW24904   0.399   0.680   5.952
 8002SOL    HW124905   0.333   0.737   5.905
 8002SOL    HW224906   0.351   0.607   6.001
 8003SOL     OW24907   2.001   6.725   2.860
 8003SOL    HW124908   2.031   6.639   2.820
 8003SOL    HW224909   2.026   6.800   2.799
 8004SOL     OW24910   1.717   2.826   3.602
 8004SOL    HW124911   1.618   2.825   3.616
 8004SOL    HW224912   1.744   2.913   3.560
 8005SOL     OW24913   2.261   7.014   3.680
 8005SOL    HW124914   2.355   0.016   3.692
 8005SOL    HW224915   2.236   6.951   3.754
 8006SOL     OW24916   3.704   5.341   4.732
 8006SOL    HW124917   3.661   5.323   4.643
 8006SOL    HW224918   3.793   5.384   4.717
 8007SOL     OW24919   6.299   1.844   6.077
 8007SOL    HW124920   6.395   1.856   6.101
 8007SOL    HW224921   6.288   1.858   5.979
 8008SOL     OW24922   4.197   6.446   0.153
 8008SOL    HW124923   4.226   6.431   0.059
 8008SOL    HW224924   4.272   6.421   0.215
 8009SOL     OW24925   4.863   1.428   0.954
 8009SOL    HW124926   4.827   1.518   0.930
 8009SOL    HW224927   4.869   1.371   0.873
 8010SOL     OW24928   2.645   2.657   5.576
 8010SOL    HW124929   2.643   2.715   5.494
 8010SOL    HW224930   2.735   2.616   5.585
 8011SOL     OW24931   3.516   1.998   2.059
 8011SOL    HW124932   3.583   2.068   2.036
 8011SOL    HW224933   3.472   1.965   1.975
 8012SOL     OW24934   1.222   3.200   5.576
 8012SOL    HW124935   1.277   3.238   5.502
 8012SOL    HW224936   1.167   3.272   5.617
 8013SOL     OW24937   1.370   2.127   3.504
 8013SOL    HW124938   1.446   2.119   3.569
 8013SOL    HW224939   1.400   2.098   3.413
 8014SOL     OW24940   1.759   0.749   3.405
 8014SOL    HW124941   1.838   0.809   3.388
 8014SOL    HW224942   1.679   0.786   3.359
 8015SOL     OW24943   1.763   0.286   5.733
 8015SOL    HW124944   1.856   0.303   5.766
 8015SOL    HW224945   1.718   0.220   5.793
 8016SOL     OW24946   3.988   1.523   5.543
 8016SOL    HW124947   4.072   1.499   5.495
 8016SOL    HW224948   3.926   1.572   5.480
 8017SOL     OW24949   6.997   0.088   0.415
 8017SOL    HW124950   6.926   0.018   0.401
 8017SOL    HW224951   6.987   0.158   0.345
 8018SOL     OW24952   3.932   2.171   0.153
 8018SOL    HW124953   3.907   2.121   0.236
 8018SOL    HW224954   4.000   2.241   0.174
 8019SOL     OW24955   3.292   3.571   1.173
 8019SOL    HW124956   3.279   3.475   1.149
 8019SOL    HW224957   3.256   3.588   1.265
 8020SOL     OW24958   6.276   6.982   5.065
 8020SOL    HW124959   6.301   0.019   4.994
 8020SOL    HW224960   6.280   6.889   5.028
 8021SOL     OW24961   2.044   2.115   2.266
 8021SOL    HW124962   2.094   2.029   2.268
 8021SOL    HW224963   2.108   2.192   2.264
 8022SOL     OW24964   5.632   1.021   2.045
 8022SOL    HW124965   5.725   1.060   2.043
 8022SOL    HW224966   5.590   1.041   2.133
 8023SOL     OW24967   5.420   6.175   3.545
 8023SOL    HW124968   5.416   6.203   3.641
 8023SOL    HW224969   5.327   6.171   3.508
 8024SOL     OW24970   1.764   6.376   6.352
 8024SOL    HW124971   1.843   6.407   6.404
 8024SOL    HW224972   1.735   6.286   6.385
 8025SOL     OW24973   1.662   4.720   1.789
 8025SOL    HW124974   1.640   4.757   1.699
 8025SOL    HW224975   1.662   4.620   1.786
 8026SOL     OW24976   0.222   4.540   0.244
 8026SOL    HW124977   0.230   4.612   0.175
 8026SOL    HW224978   0.158   4.569   0.315
 8027SOL     OW24979   4.193   6.454   5.948
 8027SOL    HW124980   4.122   6.422   6.011
 8027SOL    HW224981   4.151   6.485   5.863
 8028SOL     OW24982   3.498   5.506   4.212
 8028SOL    HW124983   3.503   5.411   4.243
 8028SOL    HW224984   3.488   5.566   4.292
 8029SOL     OW24985   6.016   1.399   1.482
 8029SOL    HW124986   5.970   1.389   1.394
 8029SOL    HW224987   5.950   1.383   1.556
 8030SOL     OW24988   5.653   4.809   1.096
 8030SOL    HW124989   5.609   4.756   1.169
 8030SOL    HW224990   5.675   4.748   1.019
 8031SOL     OW24991   5.705   0.452   2.625
 8031SOL    HW124992   5.717   0.449   2.724
 8031SOL    HW224993   5.707   0.548   2.595
 8032SOL     OW24994   5.256   3.030   1.518
 8032SOL    HW124995   5.203   3.114   1.520
 8032SOL    HW224996   5.351   3.051   1.494
 8033SOL     OW24997   3.808   3.961   0.535
 8033SOL    HW124998   3.867   3.881   0.531
 8033SOL    HW224999   3.851   4.032   0.590
 8034SOL     OW25000   5.637   0.509   4.990
 8034SOL    HW125001   5.645   0.472   4.898
 8034SOL    HW225002   5.721   0.491   5.041
 8035SOL     OW25003   4.372   1.182   2.851
 8035SOL    HW125004   4.361   1.106   2.786
 8035SOL    HW225005   4.464   1.180   2.888
 8036SOL     OW25006   0.042   2.619   3.999
 8036SOL    HW125007   7.009   2.637   4.076
 8036SOL    HW225008   7.018   2.575   3.925
 8037SOL     OW25009   1.061   2.913   6.619
 8037SOL    HW125010   1.113   2.837   6.657
 8037SOL    HW225011   1.091   2.998   6.661
 8038SOL     OW25012   6.070   6.525   2.461
 8038SOL    HW125013   6.047   6.614   2.500
 8038SOL    HW225014   6.019   6.512   2.376
 8039SOL     OW25015   0.732   2.410   5.485
 8039SOL    HW125016   0.727   2.510   5.485
 8039SOL    HW225017   0.817   2.381   5.530
 8040SOL     OW25018   1.636   6.181   5.600
 8040SOL    HW125019   1.712   6.146   5.654
 8040SOL    HW225020   1.666   6.264   5.551
 8041SOL     OW25021   3.390   1.355   3.071
 8041SOL    HW125022   3.333   1.431   3.038
 8041SOL    HW225023   3.345   1.310   3.148
 8042SOL     OW25024   4.341   4.077   5.945
 8042SOL    HW125025   4.287   4.014   6.001
 8042SOL    HW225026   4.418   4.028   5.905
 8043SOL     OW25027   4.774   4.803   1.529
 8043SOL    HW125028   4.738   4.710   1.520
 8043SOL    HW225029   4.726   4.850   1.604
 8044SOL     OW25030   4.051   3.765   1.304
 8044SOL    HW125031   4.047   3.675   1.261
 8044SOL    HW225032   4.076   3.833   1.235
 8045SOL     OW25033   0.409   1.062   2.746
 8045SOL    HW125034   0.497   1.040   2.703
 8045SOL    HW225035   0.392   1.161   2.738
 8046SOL     OW25036   0.244   5.431   2.041
 8046SOL    HW125037   0.288   5.430   1.951
 8046SOL    HW225038   0.166   5.368   2.041
 8047SOL     OW25039   4.077   6.884   6.398
 8047SOL    HW125040   4.022   6.926   6.326
 8047SOL    HW225041   4.132   6.810   6.358
 8048SOL     OW25042   3.320   3.687   0.494
 8048SOL    HW125043   3.344   3.784   0.485
 8048SOL    HW225044   3.337   3.657   0.588
 8049SOL     OW25045   1.435   7.003   0.765
 8049SOL    HW125046   1.487   6.925   0.799
 8049SOL    HW225047   1.385   0.018   0.840
 8050SOL     OW25048   1.536   3.919   4.522
 8050SOL    HW125049   1.463   3.951   4.462
 8050SOL    HW225050   1.613   3.887   4.467
 8051SOL     OW25051   4.637   6.083   4.305
 8051SOL    HW125052   4.612   6.105   4.399
 8051SOL    HW225053   4.599   6.152   4.243
 8052SOL     OW25054   2.386   1.537   2.051
 8052SOL    HW125055   2.372   1.635   2.063
 8052SOL    HW225056   2.332   1.505   1.972
 8053SOL     OW25057   3.165   3.385   6.438
 8053SOL    HW125058   3.229   3.458   6.464
 8053SOL    HW225059   3.108   3.360   6.516
 8054SOL     OW25060   5.417   4.059   5.117
 8054SOL    HW125061   5.379   4.021   5.033
 8054SOL    HW225062   5.484   3.995   5.156
 8055SOL     OW25063   0.276   1.019   5.176
 8055SOL    HW125064   0.245   0.969   5.095
 8055SOL    HW225065   0.292   1.115   5.152
 8056SOL     OW25066   2.500   0.071   3.761
 8056SOL    HW125067   2.557   0.008   3.816
 8056SOL    HW225068   2.495   0.159   3.807
 8057SOL     OW25069   2.501   2.210   1.411
 8057SOL    HW125070   2.548   2.242   1.493
 8057SOL    HW225071   2.420   2.268   1.395
 8058SOL     OW25072   3.172   6.575   3.686
 8058SOL    HW125073   3.245   6.583   3.617
 8058SOL    HW225074   3.213   6.554   3.774
 8059SOL     OW25075   2.843   2.027   5.818
 8059SOL    HW125076   2.813   2.057   5.909
 8059SOL    HW225077   2.938   1.995   5.823
 8060SOL     OW25078   6.873   0.459   6.441
 8060SOL    HW125079   6.944   0.475   6.373
 8060SOL    HW225080   6.907   0.485   6.531
 8061SOL     OW25081   0.325   0.926   1.962
 8061SOL    HW125082   0.377   0.841   1.971
 8061SOL    HW225083   0.361   0.979   1.885
 8062SOL     OW25084   4.006   5.289   5.039
 8062SOL    HW125085   4.100   5.265   5.015
 8062SOL    HW225086   3.989   5.265   5.134
 8063SOL     OW25087   3.287   0.433   3.146
 8063SOL    HW125088   3.340   0.476   3.072
 8063SOL    HW225089   3.335   0.444   3.232
 8064SOL     OW25090   6.521   3.434   0.109
 8064SOL    HW125091   6.563   3.397   0.192
 8064SOL    HW225092   6.429   3.467   0.131
 8065SOL     OW25093   3.595   0.071   4.427
 8065SOL    HW125094   3.567   0.067   4.523
 8065SOL    HW225095   3.528   0.023   4.370
 8066SOL     OW25096   6.794   1.304   4.652
 8066SOL    HW125097   6.720   1.277   4.590
 8066SOL    HW225098   6.855   1.368   4.606
 8067SOL     OW25099   5.403   3.018   3.834
 8067SOL    HW125100   5.433   3.106   3.869
 8067SOL    HW225101   5.370   2.961   3.909
 8068SOL     OW25102   0.591   4.587   1.730
 8068SOL    HW125103   0.519   4.529   1.769
 8068SOL    HW225104   0.638   4.537   1.657
 8069SOL     OW25105   2.953   5.116   2.291
 8069SOL    HW125106   3.042   5.070   2.292
 8069SOL    HW225107   2.908   5.101   2.379
 8070SOL     OW25108   4.270   4.614   0.597
 8070SOL    HW125109   4.328   4.566   0.663
 8070SOL    HW225110   4.176   4.583   0.606
 8071SOL     OW25111   4.365   6.862   5.464
 8071SOL    HW125112   4.273   6.828   5.484
 8071SOL    HW225113   4.424   6.846   5.543
 8072SOL     OW25114   2.411   2.685   0.658
 8072SOL    HW125115   2.459   2.602   0.628
 8072SOL    HW225116   2.461   2.727   0.733
 8073SOL     OW25117   2.856   0.093   6.304
 8073SOL    HW125118   2.879   0.039   6.386
 8073SOL    HW225119   2.937   0.141   6.273
 8074SOL     OW25120   1.924   1.643   0.088
 8074SOL    HW125121   1.987   1.721   0.088
 8074SOL    HW225122   1.976   1.559   0.074
 8075SOL     OW25123   0.466   6.493   6.755
 8075SOL    HW125124   0.459   6.415   6.816
 8075SOL    HW225125   0.435   6.575   6.802
 8076SOL     OW25126   6.930   6.809   6.720
 8076SOL    HW125127   7.003   6.763   6.670
 8076SOL    HW225128   6.967   6.854   6.801
 8077SOL     OW25129   3.919   5.743   1.988
 8077SOL    HW125130   3.991   5.811   1.982
 8077SOL    HW225131   3.839   5.774   1.937
 8078SOL     OW25132   0.761   1.798   0.389
 8078SOL    HW125133   0.720   1.820   0.477
 8078SOL    HW225134   0.689   1.769   0.325
 8079SOL     OW25135   0.678   1.278   4.331
 8079SOL    HW125136   0.715   1.262   4.239
 8079SOL    HW225137   0.710   1.366   4.364
 8080SOL     OW25138   0.898   3.000   2.775
 8080SOL    HW125139   0.958   2.973   2.851
 8080SOL    HW225140   0.811   2.951   2.782
 8081SOL     OW25141   5.934   4.456   5.426
 8081SOL    HW125142   5.972   4.491   5.340
 8081SOL    HW225143   5.880   4.527   5.471
 8082SOL     OW25144   2.900   1.075   2.348
 8082SOL    HW125145   2.884   1.173   2.357
 8082SOL    HW225146   2.874   1.029   2.432
 8083SOL     OW25147   5.336   2.529   4.161
 8083SOL    HW125148   5.301   2.583   4.084
 8083SOL    HW225149   5.299   2.437   4.157
 8084SOL     OW25150   2.065   0.516   5.933
 8084SOL    HW125151   2.001   0.594   5.932
 8084SOL    HW225152   2.127   0.526   6.010
 8085SOL     OW25153   0.241   5.532   3.237
 8085SOL    HW125154   0.323   5.544   3.292
 8085SOL    HW225155   0.254   5.576   3.148
 8086SOL     OW25156   0.386   1.177   1.463
 8086SOL    HW125157   0.295   1.136   1.457
 8086SOL    HW225158   0.455   1.105   1.471
 8087SOL     OW25159   1.138   0.684   6.507
 8087SOL    HW125160   1.128   0.703   6.604
 8087SOL    HW225161   1.197   0.604   6.494
 8088SOL     OW25162   5.389   6.712   6.477
 8088SOL    HW125163   5.458   6.679   6.541
 8088SOL    HW225164   5.419   6.694   6.383
 8089SOL     OW25165   5.820   3.013   6.724
 8089SOL    HW125166   5.889   2.942   6.714
 8089SOL    HW225167   5.737   2.987   6.675
 8090SOL     OW25168   4.290   1.596   6.368
 8090SOL    HW125169   4.192   1.617   6.369
 8090SOL    HW225170   4.308   1.526   6.299
 8091SOL     OW25171   1.475   4.416   4.290
 8091SOL    HW125172   1.537   4.434   4.366
 8091SOL    HW225173   1.521   4.441   4.204
 8092SOL     OW25174   4.641   2.018   5.160
 8092SOL    HW125175   4.542   2.010   5.168
 8092SOL    HW225176   4.682   2.025   5.251
 8093SOL     OW25177   2.983   5.873   3.124
 8093SOL    HW125178   3.055   5.819   3.080
 8093SOL    HW225179   2.905   5.814   3.144
 8094SOL     OW25180   0.927   4.047   5.117
 8094SOL    HW125181   0.954   4.128   5.065
 8094SOL    HW225182   0.934   3.966   5.058
 8095SOL     OW25183   1.173   4.642   5.139
 8095SOL    HW125184   1.235   4.564   5.134
 8095SOL    HW225185   1.078   4.610   5.143
 8096SOL     OW25186   0.976   0.271   2.021
 8096SOL    HW125187   0.922   0.338   2.071
 8096SOL    HW225188   1.026   0.213   2.086
 8097SOL     OW25189   3.693   0.249   5.131
 8097SOL    HW125190   3.764   0.207   5.187
 8097SOL    HW225191   3.729   0.267   5.039
 8098SOL     OW25192   0.947   6.104   4.154
 8098SOL    HW125193   0.952   6.198   4.120
 8098SOL    HW225194   0.969   6.103   4.252
 8099SOL     OW25195   4.401   5.883   4.459
 8099SOL    HW125196   4.341   5.933   4.397
 8099SOL    HW225197   4.350   5.857   4.541
 8100SOL     OW25198   5.707   1.299   6.218
 8100SOL    HW125199   5.678   1.294   6.123
 8100SOL    HW225200   5.684   1.390   6.255
 8101SOL     OW25201   2.263   5.320   0.688
 8101SOL    HW125202   2.218   5.385   0.627
 8101SOL    HW225203   2.275   5.362   0.778
 8102SOL     OW25204   0.918   3.234   4.488
 8102SOL    HW125205   0.889   3.199   4.398
 8102SOL    HW225206   0.918   3.333   4.487
 8103SOL     OW25207   3.651   0.985   2.330
 8103SOL    HW125208   3.728   1.041   2.300
 8103SOL    HW225209   3.629   0.918   2.259
 8104SOL     OW25210   2.101   6.792   5.944
 8104SOL    HW125211   2.127   6.850   6.022
 8104SOL    HW225212   2.082   6.700   5.976
 8105SOL     OW25213   7.010   2.258   2.756
 8105SOL    HW125214   0.051   2.186   2.745
 8105SOL    HW225215   6.919   2.218   2.746
 8106SOL     OW25216   2.673   6.637   3.876
 8106SOL    HW125217   2.756   6.609   3.829
 8106SOL    HW225218   2.645   6.565   3.940
 8107SOL     OW25219   1.613   5.957   4.997
 8107SOL    HW125220   1.515   5.977   4.998
 8107SOL    HW225221   1.634   5.887   5.066
 8108SOL     OW25222   6.558   1.520   6.828
 8108SOL    HW125223   6.584   1.463   6.750
 8108SOL    HW225224   6.626   1.512   6.900
 8109SOL     OW25225   6.976   4.130   6.619
 8109SOL    HW125226   6.942   4.097   6.707
 8109SOL    HW225227   0.047   4.115   6.613
 8110SOL     OW25228   3.955   5.155   1.258
 8110SOL    HW125229   3.977   5.059   1.277
 8110SOL    HW225230   3.922   5.163   1.164
 8111SOL     OW25231   5.749   1.045   3.807
 8111SOL    HW125232   5.764   1.140   3.834
 8111SOL    HW225233   5.735   0.989   3.889
 8112SOL     OW25234   0.317   2.912   4.676
 8112SOL    HW125235   0.329   2.976   4.752
 8112SOL    HW225236   0.352   2.954   4.592
 8113SOL     OW25237   6.475   3.206   1.618
 8113SOL    HW125238   6.550   3.210   1.683
 8113SOL    HW225239   6.432   3.296   1.610
 8114SOL     OW25240   1.075   4.058   2.079
 8114SOL    HW125241   1.165   4.026   2.049
 8114SOL    HW225242   1.075   4.158   2.082
 8115SOL     OW25243   3.227   6.729   6.130
 8115SOL    HW125244   3.224   6.647   6.073
 8115SOL    HW225245   3.177   6.802   6.085
 8116SOL     OW25246   4.252   5.000   0.375
 8116SOL    HW125247   4.307   5.076   0.342
 8116SOL    HW225248   4.249   5.003   0.475
 8117SOL     OW25249   2.129   6.648   3.137
 8117SOL    HW125250   2.150   6.746   3.137
 8117SOL    HW225251   2.213   6.595   3.144
 8118SOL     OW25252   6.540   4.426   6.383
 8118SOL    HW125253   6.556   4.328   6.398
 8118SOL    HW225254   6.446   4.440   6.352
 8119SOL     OW25255   5.130   6.518   6.079
 8119SOL    HW125256   5.032   6.531   6.066
 8119SOL    HW225257   5.172   6.492   5.992
 8120SOL     OW25258   2.462   5.136   0.526
 8120SOL    HW125259   2.521   5.059   0.552
 8120SOL    HW225260   2.409   5.166   0.605
 8121SOL     OW25261   0.904   4.282   2.836
 8121SOL    HW125262   0.990   4.270   2.786
 8121SOL    HW225263   0.880   4.379   2.836
 8122SOL     OW25264   0.837   4.741   2.858
 8122SOL    HW125265   0.814   4.793   2.776
 8122SOL    HW225266   0.755   4.693   2.891
 8123SOL     OW25267   0.421   1.377   6.820
 8123SOL    HW125268   0.515   1.343   6.808
 8123SOL    HW225269   0.390   1.358   6.913
 8124SOL     OW25270   5.721   6.281   3.987
 8124SOL    HW125271   5.679   6.356   3.936
 8124SOL    HW225272   5.706   6.195   3.938
 8125SOL     OW25273   1.234   0.793   2.661
 8125SOL    HW125274   1.152   0.806   2.604
 8125SOL    HW225275   1.274   0.703   2.641
 8126SOL     OW25276   4.556   5.069   3.477
 8126SOL    HW125277   4.529   4.982   3.519
 8126SOL    HW225278   4.629   5.112   3.532
 8127SOL     OW25279   3.138   2.660   6.757
 8127SOL    HW125280   3.054   2.699   6.794
 8127SOL    HW225281   3.128   2.560   6.750
 8128SOL     OW25282   3.131   2.201   1.781
 8128SOL    HW125283   3.105   2.293   1.812
 8128SOL    HW225284   3.214   2.208   1.726
 8129SOL     OW25285   1.796   1.981   6.816
 8129SOL    HW125286   1.776   1.994   6.719
 8129SOL    HW225287   1.877   1.923   6.825
 8130SOL     OW25288   1.661   6.364   6.985
 8130SOL    HW125289   1.573   6.317   6.988
 8130SOL    HW225290   1.725   6.320   0.020
 8131SOL     OW25291   2.859   2.719   1.157
 8131SOL    HW125292   2.760   2.717   1.143
 8131SOL    HW225293   2.886   2.639   1.211
 8132SOL     OW25294   6.612   6.574   4.536
 8132SOL    HW125295   6.590   6.502   4.471
 8132SOL    HW225296   6.527   6.610   4.576
 8133SOL     OW25297   3.964   5.273   2.266
 8133SOL    HW125298   3.956   5.341   2.339
 8133SOL    HW225299   4.041   5.212   2.286
 8134SOL     OW25300   6.303   1.319   5.979
 8134SOL    HW125301   6.221   1.375   5.987
 8134SOL    HW225302   6.312   1.260   6.059
 8135SOL     OW25303   1.749   0.363   1.675
 8135SOL    HW125304   1.780   0.431   1.608
 8135SOL    HW225305   1.794   0.380   1.763
 8136SOL     OW25306   5.424   5.454   2.285
 8136SOL    HW125307   5.341   5.509   2.289
 8136SOL    HW225308   5.404   5.367   2.240
 8137SOL     OW25309   2.818   1.129   5.006
 8137SOL    HW125310   2.720   1.110   4.998
 8137SOL    HW225311   2.831   1.210   5.062
 8138SOL     OW25312   5.832   1.393   1.278
 8138SOL    HW125313   5.830   1.490   1.254
 8138SOL    HW225314   5.761   1.374   1.346
 8139SOL     OW25315   0.441   1.318   2.347
 8139SOL    HW125316   0.369   1.249   2.350
 8139SOL    HW225317   0.429   1.382   2.423
 8140SOL     OW25318   4.279   1.277   4.325
 8140SOL    HW125319   4.251   1.206   4.390
 8140SOL    HW225320   4.199   1.328   4.294
 8141SOL     OW25321   3.581   5.351   5.602
 8141SOL    HW125322   3.586   5.284   5.676
 8141SOL    HW225323   3.647   5.425   5.620
 8142SOL     OW25324   6.101   5.245   0.279
 8142SOL    HW125325   6.158   5.293   0.346
 8142SOL    HW225326   6.144   5.159   0.254
 8143SOL     OW25327   6.272   4.780   6.602
 8143SOL    HW125328   6.209   4.857   6.592
 8143SOL    HW225329   6.227   4.696   6.571
 8144SOL     OW25330   5.573   0.323   6.929
 8144SOL    HW125331   5.527   0.372   7.003
 8144SOL    HW225332   5.510   0.258   6.888
 8145SOL     OW25333   6.126   5.956   2.870
 8145SOL    HW125334   6.054   5.967   2.801
 8145SOL    HW225335   6.171   6.043   2.886
 8146SOL     OW25336   3.352   1.150   5.980
 8146SOL    HW125337   3.433   1.171   5.924
 8146SOL    HW225338   3.272   1.140   5.920
 8147SOL     OW25339   5.262   1.684   3.307
 8147SOL    HW125340   5.220   1.766   3.266
 8147SOL    HW225341   5.254   1.689   3.406
 8148SOL     OW25342   5.577   3.255   2.543
 8148SOL    HW125343   5.534   3.313   2.474
 8148SOL    HW225344   5.509   3.191   2.579
 8149SOL     OW25345   2.898   5.841   2.705
 8149SOL    HW125346   2.840   5.772   2.748
 8149SOL    HW225347   2.994   5.814   2.713
 8150SOL     OW25348   0.257   4.814   1.083
 8150SOL    HW125349   0.247   4.881   1.010
 8150SOL    HW225350   0.200   4.842   1.161
 8151SOL     OW25351   0.882   2.095   3.307
 8151SOL    HW125352   0.868   2.100   3.406
 8151SOL    HW225353   0.952   2.026   3.287
 8152SOL     OW25354   1.548   1.258   2.466
 8152SOL    HW125355   1.459   1.283   2.505
 8152SOL    HW225356   1.542   1.166   2.426
 8153SOL     OW25357   2.898   6.849   2.562
 8153SOL    HW125358   2.919   6.929   2.619
 8153SOL    HW225359   2.983   6.810   2.526
 8154SOL     OW25360   2.391   5.818   4.545
 8154SOL    HW125361   2.455   5.747   4.575
 8154SOL    HW225362   2.355   5.794   4.454
 8155SOL     OW25363   3.163   3.237   2.410
 8155SOL    HW125364   3.239   3.274   2.357
 8155SOL    HW225365   3.198   3.168   2.474
 8156SOL     OW25366   5.882   0.501   5.110
 8156SOL    HW125367   5.867   0.586   5.162
 8156SOL    HW225368   5.953   0.515   5.042
 8157SOL     OW25369   5.541   5.094   6.734
 8157SOL    HW125370   5.498   5.021   6.682
 8157SOL    HW225371   5.510   5.182   6.699
 8158SOL     OW25372   1.225   5.790   1.103
 8158SOL    HW125373   1.134   5.785   1.063
 8158SOL    HW225374   1.291   5.746   1.042
 8159SOL     OW25375   2.100   5.318   2.208
 8159SOL    HW125376   2.050   5.268   2.138
 8159SOL    HW225377   2.181   5.266   2.235
 8160SOL     OW25378   4.922   1.870   1.393
 8160SOL    HW125379   4.924   1.777   1.356
 8160SOL    HW225380   4.827   1.895   1.415
 8161SOL     OW25381   5.173   1.188   0.714
 8161SOL    HW125382   5.184   1.172   0.813
 8161SOL    HW225383   5.094   1.247   0.699
 8162SOL     OW25384   6.098   6.752   0.557
 8162SOL    HW125385   6.159   6.785   0.485
 8162SOL    HW225386   6.085   6.824   0.625
 8163SOL     OW25387   2.648   4.243   5.369
 8163SOL    HW125388   2.619   4.149   5.349
 8163SOL    HW225389   2.567   4.302   5.373
 8164SOL     OW25390   5.559   3.105   1.430
 8164SOL    HW125391   5.499   3.184   1.412
 8164SOL    HW225392   5.550   3.039   1.355
 8165SOL     OW25393   2.052   4.109   1.233
 8165SOL    HW125394   2.017   4.090   1.141
 8165SOL    HW225395   1.987   4.076   1.301
 8166SOL     OW25396   2.418   0.389   2.212
 8166SOL    HW125397   2.352   0.412   2.283
 8166SOL    HW225398   2.376   0.400   2.122
 8167SOL     OW25399   5.981   2.733   3.788
 8167SOL    HW125400   6.011   2.643   3.821
 8167SOL    HW225401   5.881   2.736   3.785
 8168SOL     OW25402   3.423   1.411   2.630
 8168SOL    HW125403   3.334   1.439   2.666
 8168SOL    HW225404   3.463   1.342   2.690
 8169SOL     OW25405   4.670   3.790   0.932
 8169SOL    HW125406   4.620   3.711   0.967
 8169SOL    HW225407   4.693   3.851   1.007
 8170SOL     OW25408   1.546   6.010   3.860
 8170SOL    HW125409   1.522   5.986   3.766
 8170SOL    HW225410   1.464   6.003   3.918
 8171SOL     OW25411   0.387   2.081   6.446
 8171SOL    HW125412   0.443   2.040   6.518
 8171SOL    HW225413   0.348   2.167   6.478
 8172SOL     OW25414   0.190   7.014   0.498
 8172SOL    HW125415   0.153   6.955   0.570
 8172SOL    HW225416   0.114   0.033   0.452
 8173SOL     OW25417   3.901   2.533   6.932
 8173SOL    HW125418   3.842   2.612   6.941
 8173SOL    HW225419   3.892   2.494   6.840
 8174SOL     OW25420   5.703   1.614   0.993
 8174SOL    HW125421   5.679   1.587   0.900
 8174SOL    HW225422   5.801   1.600   1.008
 8175SOL     OW25423   6.890   2.450   6.168
 8175SOL    HW125424   6.931   2.362   6.143
 8175SOL    HW225425   6.947   2.524   6.132
 8176SOL     OW25426   2.494   5.802   2.206
 8176SOL    HW125427   2.398   5.789   2.229
 8176SOL    HW225428   2.511   5.769   2.113
 8177SOL     OW25429   1.290   5.973   4.208
 8177SOL    HW125430   1.362   5.924   4.158
 8177SOL    HW225431   1.205   5.919   4.205
 8178SOL     OW25432   2.439   6.945   6.262
 8178SOL    HW125433   2.359   6.962   6.320
 8178SOL    HW225434   2.472   6.852   6.277
 8179SOL     OW25435   3.188   2.912   0.100
 8179SOL    HW125436   3.254   2.973   0.057
 8179SOL    HW225437   3.096   2.951   0.090
 8180SOL     OW25438   0.407   6.989   4.534
 8180SOL    HW125439   0.488   0.001   4.576
 8180SOL    HW225440   0.332   0.028   4.535
 8181SOL     OW25441   2.702   2.379   2.795
 8181SOL    HW125442   2.666   2.371   2.702
 8181SOL    HW225443   2.791   2.333   2.800
 8182SOL     OW25444   3.207   2.537   6.018
 8182SOL    HW125445   3.210   2.511   5.921
 8182SOL    HW225446   3.207   2.455   6.074
 8183SOL     OW25447   0.581   3.813   5.404
 8183SOL    HW125448   0.577   3.714   5.414
 8183SOL    HW225449   0.669   3.847   5.439
 8184SOL     OW25450   7.015   0.590   5.501
 8184SOL    HW125451   6.938   0.655   5.496
 8184SOL    HW225452   0.020   0.570   5.409
 8185SOL     OW25453   2.828   1.240   1.427
 8185SOL    HW125454   2.925   1.217   1.430
 8185SOL    HW225455   2.806   1.278   1.337
 8186SOL     OW25456   3.576   6.340   5.838
 8186SOL    HW125457   3.590   6.247   5.870
 8186SOL    HW225458   3.495   6.344   5.780
 8187SOL     OW25459   1.648   1.625   5.349
 8187SOL    HW125460   1.557   1.626   5.390
 8187SOL    HW225461   1.715   1.658   5.415
 8188SOL     OW25462   5.518   2.137   2.595
 8188SOL    HW125463   5.530   2.186   2.508
 8188SOL    HW225464   5.557   2.046   2.588
 8189SOL     OW25465   5.540   4.285   2.338
 8189SOL    HW125466   5.457   4.251   2.294
 8189SOL    HW225467   5.598   4.208   2.365
 8190SOL     OW25468   5.254   3.656   4.227
 8190SOL    HW125469   5.295   3.747   4.234
 8190SOL    HW225470   5.327   3.588   4.217
 8191SOL     OW25471   0.887   5.866   3.833
 8191SOL    HW125472   0.941   5.857   3.916
 8191SOL    HW225473   0.826   5.787   3.824
 8192SOL     OW25474   2.517   5.737   1.943
 8192SOL    HW125475   2.553   5.808   1.883
 8192SOL    HW225476   2.429   5.706   1.907
 8193SOL     OW25477   5.037   6.769   5.062
 8193SOL    HW125478   4.999   6.776   5.154
 8193SOL    HW225479   5.004   6.686   5.018
 8194SOL     OW25480   6.423   1.275   7.004
 8194SOL    HW125481   6.431   1.375   7.000
 8194SOL    HW225482   6.341   1.246   6.954
 8195SOL     OW25483   6.700   6.948   0.030
 8195SOL    HW125484   6.697   6.978   0.125
 8195SOL    HW225485   6.791   6.966   7.020
 8196SOL     OW25486   3.748   6.650   6.506
 8196SOL    HW125487   3.801   6.693   6.578
 8196SOL    HW225488   3.744   6.551   6.522
 8197SOL     OW25489   6.523   0.814   6.390
 8197SOL    HW125490   6.512   0.763   6.475
 8197SOL    HW225491   6.443   0.801   6.332
 8198SOL     OW25492   2.608   6.489   3.095
 8198SOL    HW125493   2.631   6.461   3.002
 8198SOL    HW225494   2.543   6.424   3.135
 8199SOL     OW25495   0.475   4.163   6.931
 8199SOL    HW125496   0.477   4.066   6.954
 8199SOL    HW225497   0.484   4.217   7.015
 8200SOL     OW25498   4.493   4.123   1.629
 8200SOL    HW125499   4.429   4.159   1.698
 8200SOL    HW225500   4.453   4.135   1.538
 8201SOL     OW25501   5.723   0.202   3.514
 8201SOL    HW125502   5.643   0.144   3.532
 8201SOL    HW225503   5.805   0.145   3.515
 8202SOL     OW25504   1.573   4.646   3.609
 8202SOL    HW125505   1.529   4.556   3.606
 8202SOL    HW225506   1.557   4.688   3.698
 8203SOL     OW25507   5.049   3.647   1.385
 8203SOL    HW125508   5.012   3.609   1.300
 8203SOL    HW225509   5.139   3.688   1.368
 8204SOL     OW25510   3.287   6.482   2.464
 8204SOL    HW125511   3.241   6.415   2.407
 8204SOL    HW225512   3.362   6.438   2.513
 8205SOL     OW25513   5.479   5.354   1.825
 8205SOL    HW125514   5.428   5.414   1.762
 8205SOL    HW225515   5.554   5.310   1.776
 8206SOL     OW25516   4.252   2.192   5.435
 8206SOL    HW125517   4.302   2.108   5.453
 8206SOL    HW225518   4.213   2.227   5.521
 8207SOL     OW25519   3.250   4.946   6.028
 8207SOL    HW125520   3.257   4.851   5.997
 8207SOL    HW225521   3.163   4.959   6.074
 8208SOL     OW25522   1.841   5.083   1.753
 8208SOL    HW125523   1.875   5.030   1.676
 8208SOL    HW225524   1.839   5.180   1.728
 8209SOL     OW25525   1.363   0.927   5.082
 8209SOL    HW125526   1.371   1.003   5.017
 8209SOL    HW225527   1.370   0.963   5.175
 8210SOL     OW25528   1.964   1.400   0.392
 8210SOL    HW125529   1.906   1.333   0.345
 8210SOL    HW225530   1.975   1.481   0.334
 8211SOL     OW25531   2.879   3.580   4.147
 8211SOL    HW125532   2.846   3.644   4.217
 8211SOL    HW225533   2.941   3.627   4.085
 8212SOL     OW25534   2.313   6.946   1.345
 8212SOL    HW125535   2.215   6.930   1.358
 8212SOL    HW225536   2.350   6.877   1.284
 8213SOL     OW25537   4.324   4.546   1.929
 8213SOL    HW125538   4.250   4.512   1.871
 8213SOL    HW225539   4.384   4.471   1.954
 8214SOL     OW25540   3.203   5.501   4.244
 8214SOL    HW125541   3.226   5.412   4.285
 8214SOL    HW225542   3.287   5.549   4.219
 8215SOL     OW25543   3.909   6.182   0.351
 8215SOL    HW125544   3.872   6.089   0.353
 8215SOL    HW225545   3.837   6.246   0.321
 8216SOL     OW25546   4.519   6.004   2.405
 8216SOL    HW125547   4.581   6.068   2.452
 8216SOL    HW225548   4.570   5.922   2.378
 8217SOL     OW25549   2.577   5.307   3.984
 8217SOL    HW125550   2.654   5.243   3.990
 8217SOL    HW225551   2.612   5.398   3.961
 8218SOL     OW25552   1.781   0.311   4.705
 8218SOL    HW125553   1.708   0.305   4.637
 8218SOL    HW225554   1.835   0.227   4.705
 8219SOL     OW25555   3.975   3.746   0.553
 8219SOL    HW125556   3.941   3.652   0.548
 8219SOL    HW225557   4.010   3.764   0.645
 8220SOL     OW25558   3.854   3.958   4.434
 8220SOL    HW125559   3.795   4.017   4.489
 8220SOL    HW225560   3.904   3.896   4.494
 8221SOL     OW25561   6.260   3.419   3.716
 8221SOL    HW125562   6.203   3.337   3.727
 8221SOL    HW225563   6.349   3.404   3.759
 8222SOL     OW25564   6.158   2.516   1.480
 8222SOL    HW125565   6.177   2.598   1.426
 8222SOL    HW225566   6.077   2.532   1.536
 8223SOL     OW25567   6.933   5.955   5.697
 8223SOL    HW125568   6.855   5.905   5.659
 8223SOL    HW225569   6.941   5.934   5.795
 8224SOL     OW25570   5.349   2.194   6.990
 8224SOL    HW125571   5.271   2.194   6.927
 8224SOL    HW225572   5.331   2.129   0.036
 8225SOL     OW25573   4.470   1.794   0.280
 8225SOL    HW125574   4.541   1.836   0.223
 8225SOL    HW225575   4.387   1.850   0.276
 8226SOL     OW25576   3.256   0.688   0.355
 8226SOL    HW125577   3.293   0.676   0.262
 8226SOL    HW225578   3.157   0.676   0.353
 8227SOL     OW25579   5.371   2.210   2.816
 8227SOL    HW125580   5.279   2.172   2.802
 8227SOL    HW225581   5.428   2.190   2.737
 8228SOL     OW25582   0.733   1.208   5.746
 8228SOL    HW125583   0.780   1.163   5.670
 8228SOL    HW225584   0.715   1.142   5.819
 8229SOL     OW25585   4.230   4.846   1.135
 8229SOL    HW125586   4.299   4.902   1.181
 8229SOL    HW225587   4.274   4.766   1.095
 8230SOL     OW25588   4.373   0.903   5.884
 8230SOL    HW125589   4.326   0.992   5.888
 8230SOL    HW225590   4.306   0.830   5.891
 8231SOL     OW25591   3.080   1.495   2.066
 8231SOL    HW125592   3.039   1.541   2.145
 8231SOL    HW225593   3.011   1.435   2.024
 8232SOL     OW25594   4.317   6.789   2.649
 8232SOL    HW125595   4.294   6.872   2.700
 8232SOL    HW225596   4.308   6.807   2.551
 8233SOL     OW25597   0.490   0.820   5.235
 8233SOL    HW125598   0.419   0.887   5.256
 8233SOL    HW225599   0.524   0.835   5.143
 8234SOL     OW25600   2.355   2.552   0.370
 8234SOL    HW125601   2.362   2.597   0.459
 8234SOL    HW225602   2.319   2.616   0.302
 8235SOL     OW25603   6.896   5.547   0.529
 8235SOL    HW125604   6.855   5.571   0.617
 8235SOL    HW225605   6.967   5.614   0.507
 8236SOL     OW25606   1.014   6.767   5.955
 8236SOL    HW125607   0.940   6.703   5.974
 8236SOL    HW225608   0.982   6.838   5.892
 8237SOL     OW25609   4.484   5.416   6.228
 8237SOL    HW125610   4.440   5.344   6.283
 8237SOL    HW225611   4.562   5.377   6.178
 8238SOL     OW25612   1.977   4.608   1.018
 8238SOL    HW125613   1.948   4.563   1.103
 8238SOL    HW225614   2.065   4.572   0.989
 8239SOL     OW25615   0.572   1.868   5.269
 8239SOL    HW125616   0.502   1.798   5.285
 8239SOL    HW225617   0.534   1.959   5.285
 8240SOL     OW25618   3.672   3.872   4.936
 8240SOL    HW125619   3.740   3.923   4.989
 8240SOL    HW225620   3.667   3.778   4.971
 8241SOL     OW25621   1.839   3.810   6.476
 8241SOL    HW125622   1.801   3.823   6.385
 8241SOL    HW225623   1.784   3.861   6.542
 8242SOL     OW25624   0.899   3.770   4.392
 8242SOL    HW125625   0.908   3.828   4.311
 8242SOL    HW225626   0.955   3.808   4.466
 8243SOL     OW25627   0.698   4.736   4.777
 8243SOL    HW125628   0.741   4.788   4.850
 8243SOL    HW225629   0.600   4.756   4.774
 8244SOL     OW25630   1.459   0.406   3.497
 8244SOL    HW125631   1.505   0.483   3.540
 8244SOL    HW225632   1.505   0.321   3.523
 8245SOL     OW25633   5.491   1.335   4.004
 8245SOL    HW125634   5.513   1.395   4.081
 8245SOL    HW225635   5.576   1.300   3.965
 8246SOL     OW25636   1.428   4.403   6.529
 8246SOL    HW125637   1.413   4.410   6.627
 8246SOL    HW225638   1.403   4.489   6.485
 8247SOL     OW25639   3.420   5.600   3.344
 8247SOL    HW125640   3.398   5.637   3.253
 8247SOL    HW225641   3.463   5.511   3.334
 8248SOL     OW25642   0.714   5.264   3.070
 8248SOL    HW125643   0.727   5.190   3.136
 8248SOL    HW225644   0.765   5.345   3.099
 8249SOL     OW25645   2.453   2.238   6.071
 8249SOL    HW125646   2.377   2.297   6.045
 8249SOL    HW225647   2.420   2.144   6.082
 8250SOL     OW25648   1.633   1.593   6.327
 8250SOL    HW125649   1.719   1.543   6.313
 8250SOL    HW225650   1.612   1.595   6.425
 8251SOL     OW25651   7.020   2.503   4.854
 8251SOL    HW125652   0.041   2.546   4.930
 8251SOL    HW225653   0.051   2.434   4.811
 8252SOL     OW25654   1.817   2.343   6.614
 8252SOL    HW125655   1.825   2.358   6.713
 8252SOL    HW225656   1.745   2.402   6.578
 8253SOL     OW25657   4.049   5.834   0.276
 8253SOL    HW125658   3.961   5.881   0.281
 8253SOL    HW225659   4.054   5.782   0.191
 8254SOL     OW25660   5.224   5.124   0.632
 8254SOL    HW125661   5.173   5.210   0.626
 8254SOL    HW225662   5.322   5.143   0.626
 8255SOL     OW25663   0.494   6.454   6.329
 8255SOL    HW125664   0.453   6.398   6.256
 8255SOL    HW225665   0.592   6.435   6.334
 8256SOL     OW25666   1.688   5.766   2.743
 8256SOL    HW125667   1.596   5.728   2.756
 8256SOL    HW225668   1.753   5.718   2.802
 8257SOL     OW25669   4.792   4.088   4.094
 8257SOL    HW125670   4.879   4.131   4.068
 8257SOL    HW225671   4.810   3.996   4.128
 8258SOL     OW25672   6.684   3.169   1.773
 8258SOL    HW125673   6.725   3.084   1.805
 8258SOL    HW225674   6.729   3.247   1.817
 8259SOL     OW25675   4.282   1.501   3.897
 8259SOL    HW125676   4.301   1.537   3.805
 8259SOL    HW225677   4.361   1.447   3.928
 8260SOL     OW25678   3.254   0.739   1.056
 8260SOL    HW125679   3.157   0.722   1.041
 8260SOL    HW225680   3.303   0.732   0.968
 8261SOL     OW25681   5.164   0.382   3.173
 8261SOL    HW125682   5.157   0.287   3.202
 8261SOL    HW225683   5.260   0.405   3.156
 8262SOL     OW25684   0.008   3.995   1.880
 8262SOL    HW125685   6.951   3.993   1.827
 8262SOL    HW225686   0.086   3.997   1.818
 8263SOL     OW25687   0.025   2.625   6.029
 8263SOL    HW125688   0.093   2.559   5.997
 8263SOL    HW225689   0.070   2.697   6.082
 8264SOL     OW25690   1.934   6.476   3.072
 8264SOL    HW125691   2.014   6.537   3.068
 8264SOL    HW225692   1.921   6.433   2.983
 8265SOL     OW25693   5.625   0.863   0.773
 8265SOL    HW125694   5.580   0.904   0.693
 8265SOL    HW225695   5.657   0.935   0.834
 8266SOL     OW25696   2.062   0.393   3.694
 8266SOL    HW125697   2.121   0.440   3.759
 8266SOL    HW225698   2.021   0.460   3.632
 8267SOL     OW25699   1.622   3.985   3.053
 8267SOL    HW125700   1.585   4.078   3.055
 8267SOL    HW225701   1.581   3.935   2.976
 8268SOL     OW25702   3.226   4.436   6.737
 8268SOL    HW125703   3.266   4.383   6.812
 8268SOL    HW225704   3.134   4.402   6.717
 8269SOL     OW25705   4.908   2.122   3.443
 8269SOL    HW125706   4.824   2.068   3.444
 8269SOL    HW225707   4.886   2.218   3.459
 8270SOL     OW25708   3.957   6.974   6.174
 8270SOL    HW125709   4.029   6.943   6.112
 8270SOL    HW225710   3.921   0.034   6.142
 8271SOL     OW25711   4.142   6.524   5.297
 8271SOL    HW125712   4.101   6.458   5.360
 8271SOL    HW225713   4.105   6.615   5.315
 8272SOL     OW25714   0.832   6.914   1.618
 8272SOL    HW125715   0.915   6.968   1.633
 8272SOL    HW225716   0.785   6.947   1.536
 8273SOL     OW25717   2.786   6.523   6.933
 8273SOL    HW125718   2.869   6.577   6.947
 8273SOL    HW225719   2.792   6.439   6.986
 8274SOL     OW25720   5.300   6.437   6.556
 8274SOL    HW125721   5.210   6.396   6.571
 8274SOL    HW225722   5.289   6.532   6.524
 8275SOL     OW25723   5.594   0.970   4.519
 8275SOL    HW125724   5.580   0.990   4.616
 8275SOL    HW225725   5.506   0.952   4.475
 8276SOL     OW25726   6.618   3.271   6.669
 8276SOL    HW125727   6.572   3.256   6.757
 8276SOL    HW225728   6.619   3.185   6.618
 8277SOL     OW25729   1.316   5.610   6.228
 8277SOL    HW125730   1.389   5.639   6.167
 8277SOL    HW225731   1.345   5.530   6.281
 8278SOL     OW25732   3.671   1.316   0.078
 8278SOL    HW125733   3.622   1.328   0.165
 8278SOL    HW225734   3.760   1.274   0.096
 8279SOL     OW25735   4.829   5.636   5.807
 8279SOL    HW125736   4.926   5.631   5.785
 8279SOL    HW225737   4.775   5.616   5.726
 8280SOL     OW25738   5.398   3.102   0.015
 8280SOL    HW125739   5.357   3.013   0.036
 8280SOL    HW225740   5.459   3.129   0.089
 8281SOL     OW25741   2.120   4.713   6.937
 8281SOL    HW125742   2.149   4.621   6.911
 8281SOL    HW225743   2.141   4.729   0.006
 8282SOL     OW25744   2.952   2.588   0.653
 8282SOL    HW125745   3.008   2.506   0.636
 8282SOL    HW225746   3.011   2.668   0.657
 8283SOL     OW25747   0.103   5.045   2.902
 8283SOL    HW125748   0.193   5.002   2.894
 8283SOL    HW225749   0.114   5.137   2.942
 8284SOL     OW25750   2.182   2.355   2.297
 8284SOL    HW125751   2.268   2.406   2.300
 8284SOL    HW225752   2.106   2.417   2.316
 8285SOL     OW25753   3.176   4.296   6.044
 8285SOL    HW125754   3.261   4.349   6.046
 8285SOL    HW225755   3.106   4.343   6.099
 8286SOL     OW25756   5.254   0.909   4.974
 8286SOL    HW125757   5.285   0.999   5.002
 8286SOL    HW225758   5.252   0.904   4.874
 8287SOL     OW25759   1.573   0.663   3.591
 8287SOL    HW125760   1.624   0.675   3.677
 8287SOL    HW225761   1.633   0.682   3.514
 8288SOL     OW25762   1.332   1.325   2.598
 8288SOL    HW125763   1.286   1.354   2.682
 8288SOL    HW225764   1.270   1.267   2.544
 8289SOL     OW25765   6.494   1.561   5.481
 8289SOL    HW125766   6.535   1.649   5.505
 8289SOL    HW225767   6.445   1.525   5.560
 8290SOL     OW25768   3.844   2.522   1.514
 8290SOL    HW125769   3.928   2.484   1.551
 8290SOL    HW225770   3.795   2.451   1.463
 8291SOL     OW25771   5.983   5.978   6.067
 8291SOL    HW125772   6.025   5.931   6.144
 8291SOL    HW225773   5.926   5.914   6.015
 8292SOL     OW25774   1.200   3.740   4.345
 8292SOL    HW125775   1.102   3.755   4.332
 8292SOL    HW225776   1.222   3.753   4.442
 8293SOL     OW25777   3.255   5.229   3.311
 8293SOL    HW125778   3.272   5.286   3.230
 8293SOL    HW225779   3.166   5.184   3.302
 8294SOL     OW25780   6.300   4.172   6.105
 8294SOL    HW125781   6.364   4.120   6.162
 8294SOL    HW225782   6.285   4.124   6.019
 8295SOL     OW25783   4.662   4.338   2.360
 8295SOL    HW125784   4.650   4.241   2.339
 8295SOL    HW225785   4.586   4.390   2.320
 8296SOL     OW25786   3.550   6.812   1.513
 8296SOL    HW125787   3.540   6.904   1.475
 8296SOL    HW225788   3.531   6.745   1.442
 8297SOL     OW25789   5.810   4.798   2.766
 8297SOL    HW125790   5.776   4.784   2.859
 8297SOL    HW225791   5.866   4.881   2.763
 8298SOL     OW25792   6.381   0.287   6.333
 8298SOL    HW125793   6.312   0.214   6.336
 8298SOL    HW225794   6.457   0.258   6.274
 8299SOL     OW25795   0.836   3.973   1.382
 8299SOL    HW125796   0.877   3.895   1.430
 8299SOL    HW225797   0.836   3.954   1.284
 8300SOL     OW25798   5.805   5.403   3.305
 8300SOL    HW125799   5.722   5.358   3.338
 8300SOL    HW225800   5.875   5.400   3.376
 8301SOL     OW25801   4.392   6.395   0.401
 8301SOL    HW125802   4.380   6.492   0.422
 8301SOL    HW225803   4.454   6.354   0.467
 8302SOL     OW25804   3.989   6.839   5.313
 8302SOL    HW125805   4.013   6.841   5.216
 8302SOL    HW225806   3.922   6.766   5.329
 8303SOL     OW25807   6.675   6.271   2.981
 8303SOL    HW125808   6.608   6.345   2.986
 8303SOL    HW225809   6.766   6.306   3.004
 8304SOL     OW25810   5.534   3.889   3.487
 8304SOL    HW125811   5.520   3.911   3.390
 8304SOL    HW225812   5.495   3.799   3.506
 8305SOL     OW25813   5.282   5.654   4.492
 8305SOL    HW125814   5.305   5.686   4.584
 8305SOL    HW225815   5.336   5.705   4.425
 8306SOL     OW25816   6.180   0.977   2.146
 8306SOL    HW125817   6.167   0.924   2.062
 8306SOL    HW225818   6.199   0.915   2.222
 8307SOL     OW25819   2.428   4.783   2.792
 8307SOL    HW125820   2.422   4.705   2.855
 8307SOL    HW225821   2.388   4.757   2.704
 8308SOL     OW25822   1.148   5.058   6.804
 8308SOL    HW125823   1.191   5.127   6.862
 8308SOL    HW225824   1.063   5.026   6.847
 8309SOL     OW25825   6.086   4.276   4.194
 8309SOL    HW125826   6.140   4.348   4.150
 8309SOL    HW225827   6.018   4.241   4.130
 8310SOL     OW25828   0.859   6.567   0.002
 8310SOL    HW125829   0.839   6.469   0.005
 8310SOL    HW225830   0.805   6.610   6.957
 8311SOL     OW25831   5.342   0.410   3.872
 8311SOL    HW125832   5.295   0.487   3.916
 8311SOL    HW225833   5.291   0.326   3.887
 8312SOL     OW25834   5.467   1.748   6.618
 8312SOL    HW125835   5.451   1.740   6.519
 8312SOL    HW225836   5.431   1.667   6.664
 8313SOL     OW25837   4.123   1.543   5.132
 8313SOL    HW125838   4.156   1.503   5.217
 8313SOL    HW225839   4.194   1.602   5.093
 8314SOL     OW25840   4.959   6.054   5.731
 8314SOL    HW125841   5.046   6.016   5.698
 8314SOL    HW225842   4.912   6.099   5.655
 8315SOL     OW25843   3.575   3.595   4.898
 8315SOL    HW125844   3.606   3.523   4.835
 8315SOL    HW225845   3.475   3.596   4.900
 8316SOL     OW25846   1.568   2.277   6.916
 8316SOL    HW125847   1.483   2.286   6.968
 8316SOL    HW225848   1.556   2.211   6.843
 8317SOL     OW25849   1.752   1.415   3.375
 8317SOL    HW125850   1.669   1.414   3.319
 8317SOL    HW225851   1.729   1.390   3.469
 8318SOL     OW25852   4.099   0.123   7.003
 8318SOL    HW125853   4.107   0.182   6.922
 8318SOL    HW225854   4.142   0.035   6.985
 8319SOL     OW25855   1.905   6.821   6.161
 8319SOL    HW125856   1.842   6.787   6.092
 8319SOL    HW225857   1.868   6.904   6.203
 8320SOL     OW25858   3.007   3.877   4.478
 8320SOL    HW125859   3.042   3.784   4.466
 8320SOL    HW225860   2.930   3.892   4.417
 8321SOL     OW25861   6.381   6.465   0.494
 8321SOL    HW125862   6.441   6.432   0.567
 8321SOL    HW225863   6.291   6.488   0.532
 8322SOL     OW25864   6.834   0.776   6.820
 8322SOL    HW125865   6.854   0.868   6.853
 8322SOL    HW225866   6.829   0.777   6.720
 8323SOL     OW25867   4.493   4.935   1.181
 8323SOL    HW125868   4.487   4.984   1.095
 8323SOL    HW225869   4.582   4.952   1.224
 8324SOL     OW25870   5.838   6.856   6.677
 8324SOL    HW125871   5.932   6.821   6.676
 8324SOL    HW225872   5.837   6.945   6.721
 8325SOL     OW25873   1.052   5.644   5.574
 8325SOL    HW125874   1.137   5.696   5.577
 8325SOL    HW225875   1.033   5.606   5.664
 8326SOL     OW25876   1.732   3.907   1.909
 8326SOL    HW125877   1.681   3.900   1.823
 8326SOL    HW225878   1.715   3.826   1.965
 8327SOL     OW25879   1.139   6.871   4.519
 8327SOL    HW125880   1.202   6.939   4.481
 8327SOL    HW225881   1.174   6.780   4.500
 8328SOL     OW25882   1.820   0.450   6.808
 8328SOL    HW125883   1.915   0.469   6.783
 8328SOL    HW225884   1.759   0.507   6.752
 8329SOL     OW25885   1.441   2.379   4.877
 8329SOL    HW125886   1.480   2.363   4.967
 8329SOL    HW225887   1.393   2.296   4.847
 8330SOL     OW25888   3.012   1.456   6.696
 8330SOL    HW125889   3.067   1.488   6.619
 8330SOL    HW225890   3.073   1.422   6.769
 8331SOL     OW25891   1.856   2.257   6.880
 8331SOL    HW125892   1.798   2.273   6.960
 8331SOL    HW225893   1.841   2.165   6.846
 8332SOL     OW25894   6.035   5.097   2.121
 8332SOL    HW125895   5.987   5.067   2.038
 8332SOL    HW225896   5.972   5.093   2.199
 8333SOL     OW25897   2.604   4.684   1.271
 8333SOL    HW125898   2.625   4.721   1.181
 8333SOL    HW225899   2.684   4.692   1.330
 8334SOL     OW25900   3.733   1.937   6.467
 8334SOL    HW125901   3.637   1.940   6.495
 8334SOL    HW225902   3.743   1.985   6.379
 8335SOL     OW25903   5.208   3.736   5.589
 8335SOL    HW125904   5.215   3.821   5.642
 8335SOL    HW225905   5.160   3.667   5.643
 8336SOL     OW25906   1.022   3.728   3.372
 8336SOL    HW125907   0.933   3.718   3.415
 8336SOL    HW225908   1.022   3.681   3.283
 8337SOL     OW25909   0.576   1.419   3.970
 8337SOL    HW125910   0.595   1.399   3.874
 8337SOL    HW225911   0.658   1.400   4.024
 8338SOL     OW25912   4.296   5.227   2.734
 8338SOL    HW125913   4.359   5.299   2.760
 8338SOL    HW225914   4.209   5.239   2.782
 8339SOL     OW25915   6.420   0.056   0.510
 8339SOL    HW125916   6.376   0.018   0.592
 8339SOL    HW225917   6.354   0.062   0.436
 8340SOL     OW25918   5.787   2.677   0.335
 8340SOL    HW125919   5.800   2.619   0.415
 8340SOL    HW225920   5.690   2.675   0.309
 8341SOL     OW25921   2.915   1.134   0.417
 8341SOL    HW125922   2.872   1.073   0.484
 8341SOL    HW225923   2.996   1.089   0.378
 8342SOL     OW25924   4.528   0.477   0.067
 8342SOL    HW125925   4.573   0.544   0.008
 8342SOL    HW225926   4.435   0.508   0.088
 8343SOL     OW25927   6.016   3.911   3.728
 8343SOL    HW125928   6.066   3.833   3.765
 8343SOL    HW225929   5.929   3.879   3.689
 8344SOL     OW25930   1.258   5.305   5.405
 8344SOL    HW125931   1.314   5.296   5.487
 8344SOL    HW225932   1.308   5.358   5.336
 8345SOL     OW25933   4.512   0.665   2.520
 8345SOL    HW125934   4.589   0.634   2.464
 8345SOL    HW225935   4.543   0.680   2.614
 8346SOL     OW25936   4.810   3.267   5.529
 8346SOL    HW125937   4.803   3.348   5.471
 8346SOL    HW225938   4.723   3.218   5.530
 8347SOL     OW25939   2.582   0.150   6.196
 8347SOL    HW125940   2.536   0.065   6.222
 8347SOL    HW225941   2.672   0.154   6.239
 8348SOL     OW25942   3.492   6.929   2.231
 8348SOL    HW125943   3.562   6.996   2.206
 8348SOL    HW225944   3.478   6.866   2.155
 8349SOL     OW25945   1.066   6.379   2.192
 8349SOL    HW125946   1.021   6.426   2.116
 8349SOL    HW225947   1.132   6.313   2.156
 8350SOL     OW25948   2.408   6.854   6.813
 8350SOL    HW125949   2.469   6.807   6.875
 8350SOL    HW225950   2.368   6.934   6.859
 8351SOL     OW25951   6.897   4.090   3.600
 8351SOL    HW125952   6.987   4.063   3.564
 8351SOL    HW225953   6.853   4.152   3.535
 8352SOL     OW25954   2.790   5.430   1.509
 8352SOL    HW125955   2.796   5.509   1.571
 8352SOL    HW225956   2.809   5.459   1.415
 8353SOL     OW25957   1.939   4.064   2.496
 8353SOL    HW125958   2.020   4.009   2.516
 8353SOL    HW225959   1.940   4.146   2.554
 8354SOL     OW25960   3.294   0.191   3.935
 8354SOL    HW125961   3.261   0.279   3.904
 8354SOL    HW225962   3.338   0.143   3.858
 8355SOL     OW25963   1.905   6.230   5.761
 8355SOL    HW125964   1.905   6.329   5.751
 8355SOL    HW225965   1.862   6.205   5.848
 8356SOL     OW25966   1.657   5.425   0.968
 8356SOL    HW125967   1.626   5.362   0.897
 8356SOL    HW225968   1.665   5.375   1.055
 8357SOL     OW25969   4.728   6.391   5.920
 8357SOL    HW125970   4.677   6.363   5.839
 8357SOL    HW225971   4.671   6.380   6.001
 8358SOL     OW25972   1.072   2.381   4.678
 8358SOL    HW125973   1.045   2.475   4.695
 8358SOL    HW225974   1.074   2.331   4.765
 8359SOL     OW25975   3.036   1.905   5.423
 8359SOL    HW125976   3.091   1.824   5.444
 8359SOL    HW225977   3.074   1.951   5.342
 8360SOL     OW25978   4.873   0.366   0.940
 8360SOL    HW125979   4.935   0.411   0.876
 8360SOL    HW225980   4.883   0.407   1.031
 8361SOL     OW25981   3.394   0.150   0.260
 8361SOL    HW125982   3.444   0.093   0.195
 8361SOL    HW225983   3.430   0.135   0.353
 8362SOL     OW25984   6.843   3.743   1.623
 8362SOL    HW125985   6.924   3.702   1.579
 8362SOL    HW225986   6.811   3.682   1.696
 8363SOL     OW25987   2.854   2.455   6.946
 8363SOL    HW125988   2.768   2.443   6.996
 8363SOL    HW225989   2.885   2.549   6.956
 8364SOL     OW25990   0.005   2.286   4.073
 8364SOL    HW125991   7.027   2.386   4.074
 8364SOL    HW225992   0.050   2.257   3.988
 8365SOL     OW25993   2.119   2.590   2.901
 8365SOL    HW125994   2.094   2.658   2.832
 8365SOL    HW225995   2.145   2.504   2.855
 8366SOL     OW25996   5.062   5.981   1.179
 8366SOL    HW125997   5.138   5.950   1.235
 8366SOL    HW225998   5.003   5.903   1.157
 8367SOL     OW25999   4.176   5.340   4.630
 8367SOL    HW126000   4.189   5.259   4.573
 8367SOL    HW226001   4.205   5.421   4.579
 8368SOL     OW26002   0.561   5.962   0.512
 8368SOL    HW126003   0.516   5.930   0.429
 8368SOL    HW226004   0.584   6.059   0.502
 8369SOL     OW26005   1.560   1.398   0.109
 8369SOL    HW126006   1.586   1.406   0.013
 8369SOL    HW226007   1.575   1.485   0.155
 8370SOL     OW26008   3.333   2.287   0.204
 8370SOL    HW126009   3.429   2.286   0.178
 8370SOL    HW226010   3.322   2.336   0.290
 8371SOL     OW26011   2.189   4.572   5.920
 8371SOL    HW126012   2.153   4.595   6.010
 8371SOL    HW226013   2.113   4.560   5.856
 8372SOL     OW26014   1.721   5.811   2.484
 8372SOL    HW126015   1.628   5.821   2.447
 8372SOL    HW226016   1.719   5.820   2.583
 8373SOL     OW26017   7.013   1.006   4.265
 8373SOL    HW126018   6.934   1.017   4.326
 8373SOL    HW226019   0.069   1.026   4.316
 8374SOL     OW26020   1.502   0.714   4.984
 8374SOL    HW126021   1.452   0.789   5.028
 8374SOL    HW226022   1.494   0.631   5.039
 8375SOL     OW26023   3.921   1.527   4.921
 8375SOL    HW126024   3.861   1.459   4.962
 8375SOL    HW226025   3.991   1.555   4.988
 8376SOL     OW26026   2.003   0.425   3.009
 8376SOL    HW126027   1.934   0.361   2.976
 8376SOL    HW226028   1.966   0.477   3.086
 8377SOL     OW26029   5.170   5.630   6.553
 8377SOL    HW126030   5.215   5.578   6.625
 8377SOL    HW226031   5.198   5.725   6.556
 8378SOL     OW26032   6.351   5.833   3.631
 8378SOL    HW126033   6.305   5.886   3.702
 8378SOL    HW226034   6.312   5.855   3.542
 8379SOL     OW26035   5.899   0.982   2.255
 8379SOL    HW126036   5.909   1.066   2.201
 8379SOL    HW226037   5.954   0.990   2.339
 8380SOL     OW26038   6.639   5.467   0.502
 8380SOL    HW126039   6.642   5.371   0.474
 8380SOL    HW226040   6.725   5.511   0.478
 8381SOL     OW26041   0.053   1.500   2.598
 8381SOL    HW126042   0.027   1.511   2.694
 8381SOL    HW226043   0.111   1.577   2.570
 8382SOL     OW26044   2.405   0.480   0.400
 8382SOL    HW126045   2.382   0.388   0.368
 8382SOL    HW226046   2.423   0.540   0.322
 8383SOL     OW26047   3.045   6.444   5.248
 8383SOL    HW126048   3.111   6.514   5.275
 8383SOL    HW226049   2.953   6.480   5.260
 8384SOL     OW26050   0.623   2.717   0.648
 8384SOL    HW126051   0.566   2.784   0.602
 8384SOL    HW226052   0.621   2.630   0.598
 8385SOL     OW26053   4.327   3.620   0.764
 8385SOL    HW126054   4.398   3.553   0.789
 8385SOL    HW226055   4.313   3.618   0.666
 8386SOL     OW26056   1.505   5.399   1.794
 8386SOL    HW126057   1.559   5.369   1.716
 8386SOL    HW226058   1.520   5.337   1.871
 8387SOL     OW26059   1.702   1.165   1.792
 8387SOL    HW126060   1.794   1.159   1.831
 8387SOL    HW226061   1.709   1.179   1.693
 8388SOL     OW26062   3.280   6.560   0.799
 8388SOL    HW126063   3.303   6.615   0.879
 8388SOL    HW226064   3.182   6.562   0.784
 8389SOL     OW26065   1.242   2.506   4.424
 8389SOL    HW126066   1.193   2.446   4.488
 8389SOL    HW226067   1.325   2.460   4.392
 8390SOL     OW26068   2.065   0.454   5.523
 8390SOL    HW126069   1.977   0.409   5.534
 8390SOL    HW226070   2.124   0.433   5.601
 8391SOL     OW26071   4.801   5.382   1.612
 8391SOL    HW126072   4.889   5.368   1.567
 8391SOL    HW226073   4.779   5.301   1.667
 8392SOL     OW26074   5.781   6.627   5.262
 8392SOL    HW126075   5.804   6.581   5.177
 8392SOL    HW226076   5.758   6.560   5.332
 8393SOL     OW26077   0.540   6.016   3.103
 8393SOL    HW126078   0.550   5.918   3.084
 8393SOL    HW226079   0.508   6.029   3.197
 8394SOL     OW26080   1.019   1.569   3.468
 8394SOL    HW126081   0.974   1.495   3.418
 8394SOL    HW226082   0.956   1.646   3.477
 8395SOL     OW26083   7.024   6.479   4.768
 8395SOL    HW126084   0.056   6.400   4.783
 8395SOL    HW226085   7.016   6.496   4.669
 8396SOL     OW26086   4.861   3.898   2.750
 8396SOL    HW126087   4.849   3.878   2.847
 8396SOL    HW226088   4.893   3.815   2.703
 8397SOL     OW26089   1.701   6.030   2.849
 8397SOL    HW126090   1.712   5.936   2.814
 8397SOL    HW226091   1.651   6.084   2.782
 8398SOL     OW26092   4.405   1.506   0.211
 8398SOL    HW126093   4.307   1.484   0.218
 8398SOL    HW226094   4.419   1.603   0.229
 8399SOL     OW26095   5.200   6.150   0.170
 8399SOL    HW126096   5.207   6.093   0.088
 8399SOL    HW226097   5.275   6.217   0.171
 8400SOL     OW26098   0.188   0.232   2.570
 8400SOL    HW126099   0.136   0.184   2.499
 8400SOL    HW226100   0.211   0.324   2.538
 8401SOL     OW26101   3.730   4.066   5.994
 8401SOL    HW126102   3.810   4.078   6.054
 8401SOL    HW226103   3.718   3.969   5.974
 8402SOL     OW26104   4.077   1.985   6.249
 8402SOL    HW126105   4.026   1.995   6.163
 8402SOL    HW226106   4.049   2.057   6.312
 8403SOL     OW26107   1.767   1.429   4.330
 8403SOL    HW126108   1.838   1.493   4.360
 8403SOL    HW226109   1.689   1.480   4.294
 8404SOL     OW26110   4.713   5.901   5.811
 8404SOL    HW126111   4.796   5.956   5.816
 8404SOL    HW226112   4.734   5.806   5.833
 8405SOL     OW26113   0.330   2.268   6.167
 8405SOL    HW126114   0.304   2.179   6.205
 8405SOL    HW226115   0.412   2.302   6.214
 8406SOL     OW26116   4.922   2.215   1.219
 8406SOL    HW126117   4.827   2.186   1.230
 8406SOL    HW226118   4.979   2.134   1.202
 8407SOL     OW26119   5.448   4.261   4.042
 8407SOL    HW126120   5.419   4.257   3.947
 8407SOL    HW226121   5.534   4.211   4.053
 8408SOL     OW26122   4.993   1.366   4.001
 8408SOL    HW126123   4.998   1.452   3.951
 8408SOL    HW226124   4.980   1.385   4.099
 8409SOL     OW26125   1.567   1.369   4.032
 8409SOL    HW126126   1.654   1.402   3.995
 8409SOL    HW226127   1.540   1.285   3.985
 8410SOL     OW26128   3.966   6.833   1.465
 8410SOL    HW126129   3.968   6.919   1.414
 8410SOL    HW226130   4.059   6.809   1.493
 8411SOL     OW26131   1.929   4.029   4.335
 8411SOL    HW126132   1.957   3.936   4.357
 8411SOL    HW226133   2.009   4.083   4.308
 8412SOL     OW26134   4.461   2.213   1.933
 8412SOL    HW126135   4.442   2.311   1.925
 8412SOL    HW226136   4.380   2.167   1.971
 8413SOL     OW26137   3.600   5.045   0.527
 8413SOL    HW126138   3.550   5.100   0.461
 8413SOL    HW226139   3.697   5.047   0.506
 8414SOL     OW26140   4.057   6.130   3.351
 8414SOL    HW126141   4.075   6.032   3.354
 8414SOL    HW226142   4.036   6.164   3.443
 8415SOL     OW26143   0.030   4.084   3.274
 8415SOL    HW126144   0.108   4.114   3.329
 8415SOL    HW226145   6.988   4.156   3.274
 8416SOL     OW26146   5.268   3.809   2.373
 8416SOL    HW126147   5.360   3.831   2.341
 8416SOL    HW226148   5.228   3.889   2.418
 8417SOL     OW26149   2.128   6.232   6.491
 8417SOL    HW126150   2.162   6.176   6.416
 8417SOL    HW226151   2.038   6.198   6.520
 8418SOL     OW26152   6.338   5.918   2.666
 8418SOL    HW126153   6.417   5.978   2.674
 8418SOL    HW226154   6.329   5.864   2.750
 8419SOL     OW26155   4.329   0.408   2.311
 8419SOL    HW126156   4.346   0.502   2.339
 8419SOL    HW226157   4.416   0.359   2.305
 8420SOL     OW26158   4.001   0.613   6.341
 8420SOL    HW126159   3.981   0.524   6.300
 8420SOL    HW226160   3.942   0.627   6.420
 8421SOL     OW26161   1.851   6.413   2.234
 8421SOL    HW126162   1.882   6.372   2.319
 8421SOL    HW226163   1.920   6.476   2.200
 8422SOL     OW26164   4.641   6.563   0.285
 8422SOL    HW126165   4.639   6.530   0.380
 8422SOL    HW226166   4.663   6.660   0.285
 8423SOL     OW26167   3.377   4.706   0.411
 8423SOL    HW126168   3.294   4.704   0.356
 8423SOL    HW226169   3.451   4.748   0.358
 8424SOL     OW26170   3.382   1.767   3.055
 8424SOL    HW126171   3.454   1.729   2.997
 8424SOL    HW226172   3.401   1.864   3.071
 8425SOL     OW26173   6.099   5.146   1.624
 8425SOL    HW126174   6.045   5.067   1.652
 8425SOL    HW226175   6.149   5.182   1.703
 8426SOL     OW26176   3.728   3.494   3.689
 8426SOL    HW126177   3.684   3.561   3.629
 8426SOL    HW226178   3.686   3.404   3.675
 8427SOL     OW26179   2.080   3.745   6.795
 8427SOL    HW126180   2.046   3.727   6.888
 8427SOL    HW226181   2.175   3.776   6.800
 8428SOL     OW26182   0.571   4.257   2.443
 8428SOL    HW126183   0.531   4.214   2.362
 8428SOL    HW226184   0.500   4.306   2.494
 8429SOL     OW26185   2.127   5.502   3.849
 8429SOL    HW126186   2.181   5.418   3.855
 8429SOL    HW226187   2.176   5.570   3.796
 8430SOL     OW26188   4.586   4.716   2.970
 8430SOL    HW126189   4.680   4.723   3.004
 8430SOL    HW226190   4.567   4.794   2.911
 8431SOL     OW26191   3.491   4.573   1.214
 8431SOL    HW126192   3.489   4.488   1.160
 8431SOL    HW226193   3.490   4.651   1.152
 8432SOL     OW26194   4.170   5.652   6.138
 8432SOL    HW126195   4.087   5.608   6.103
 8432SOL    HW226196   4.245   5.640   6.073
 8433SOL     OW26197   1.093   2.935   6.343
 8433SOL    HW126198   1.127   2.854   6.296
 8433SOL    HW226199   1.103   2.923   6.442
 8434SOL     OW26200   4.921   6.641   5.963
 8434SOL    HW126201   4.929   6.677   5.870
 8434SOL    HW226202   4.847   6.574   5.966
 8435SOL     OW26203   4.644   1.993   1.427
 8435SOL    HW126204   4.655   2.023   1.332
 8435SOL    HW226205   4.568   2.042   1.468
 8436SOL     OW26206   4.216   4.655   2.586
 8436SOL    HW126207   4.188   4.662   2.491
 8436SOL    HW226208   4.164   4.719   2.642
 8437SOL     OW26209   0.537   1.011   0.935
 8437SOL    HW126210   0.496   1.101   0.921
 8437SOL    HW226211   0.573   0.977   0.848
 8438SOL     OW26212   2.763   4.668   2.549
 8438SOL    HW126213   2.857   4.698   2.533
 8438SOL    HW226214   2.714   4.662   2.462
 8439SOL     OW26215   7.006   5.189   2.264
 8439SOL    HW126216   6.977   5.252   2.336
 8439SOL    HW226217   0.045   5.124   2.302
 8440SOL     OW26218   0.110   0.818   1.412
 8440SOL    HW126219   0.073   0.903   1.448
 8440SOL    HW226220   0.100   0.745   1.479
 8441SOL     OW26221   5.640   5.826   6.523
 8441SOL    HW126222   5.719   5.863   6.474
 8441SOL    HW226223   5.566   5.807   6.458
 8442SOL     OW26224   2.703   4.374   0.010
 8442SOL    HW126225   2.743   4.406   6.951
 8442SOL    HW226226   2.666   4.452   0.060
 8443SOL     OW26227   1.111   0.578   3.077
 8443SOL    HW126228   1.025   0.623   3.103
 8443SOL    HW226229   1.144   0.522   3.152
 8444SOL     OW26230   4.039   6.490   3.961
 8444SOL    HW126231   4.062   6.411   3.904
 8444SOL    HW226232   3.972   6.463   4.030
 8445SOL     OW26233   3.587   5.328   3.026
 8445SOL    HW126234   3.550   5.321   2.933
 8445SOL    HW226235   3.652   5.254   3.042
 8446SOL     OW26236   5.360   5.319   2.760
 8446SOL    HW126237   5.344   5.381   2.683
 8446SOL    HW226238   5.456   5.321   2.785
 8447SOL     OW26239   5.157   2.195   1.915
 8447SOL    HW126240   5.068   2.240   1.906
 8447SOL    HW226241   5.229   2.258   1.883
 8448SOL     OW26242   0.207   3.912   6.477
 8448SOL    HW126243   0.242   3.999   6.443
 8448SOL    HW226244   0.282   3.846   6.483
 8449SOL     OW26245   0.549   3.484   4.951
 8449SOL    HW126246   0.558   3.485   4.851
 8449SOL    HW226247   0.534   3.390   4.982
 8450SOL     OW26248   1.439   6.180   2.778
 8450SOL    HW126249   1.485   6.265   2.805
 8450SOL    HW226250   1.383   6.148   2.854
 8451SOL     OW26251   3.750   3.497   1.372
 8451SOL    HW126252   3.716   3.554   1.447
 8451SOL    HW226253   3.846   3.475   1.388
 8452SOL     OW26254   6.624   0.527   1.007
 8452SOL    HW126255   6.614   0.591   1.082
 8452SOL    HW226256   6.538   0.521   0.956
 8453SOL     OW26257   6.206   4.721   6.911
 8453SOL    HW126258   6.262   4.677   6.981
 8453SOL    HW226259   6.264   4.753   6.836
 8454SOL     OW26260   1.328   6.597   2.820
 8454SOL    HW126261   1.249   6.545   2.788
 8454SOL    HW226262   1.412   6.553   2.789
 8455SOL     OW26263   4.618   1.728   1.095
 8455SOL    HW126264   4.616   1.644   1.039
 8455SOL    HW226265   4.576   1.710   1.184
 8456SOL     OW26266   5.527   5.357   4.004
 8456SOL    HW126267   5.447   5.317   3.960
 8456SOL    HW226268   5.610   5.330   3.955
 8457SOL     OW26269   6.969   0.341   5.595
 8457SOL    HW126270   6.912   0.334   5.677
 8457SOL    HW226271   6.958   0.431   5.554
 8458SOL     OW26272   1.848   2.038   0.125
 8458SOL    HW126273   1.779   2.002   0.189
 8458SOL    HW226274   1.833   1.997   0.035
 8459SOL     OW26275   3.433   5.660   2.344
 8459SOL    HW126276   3.362   5.660   2.414
 8459SOL    HW226277   3.426   5.744   2.290
 8460SOL     OW26278   4.596   2.381   6.898
 8460SOL    HW126279   4.656   2.339   6.830
 8460SOL    HW226280   4.514   2.325   6.910
 8461SOL     OW26281   0.649   3.857   1.622
 8461SOL    HW126282   0.670   3.951   1.596
 8461SOL    HW226283   0.724   3.821   1.677
 8462SOL     OW26284   3.721   4.211   6.937
 8462SOL    HW126285   3.765   4.156   6.866
 8462SOL    HW226286   3.652   4.156   6.984
 8463SOL     OW26287   6.901   2.258   0.180
 8463SOL    HW126288   6.957   2.259   0.097
 8463SOL    HW226289   6.812   2.298   0.161
 8464SOL     OW26290   0.504   3.475   6.753
 8464SOL    HW126291   0.573   3.444   6.689
 8464SOL    HW226292   0.420   3.423   6.740
 8465SOL     OW26293   3.454   2.227   1.167
 8465SOL    HW126294   3.509   2.278   1.233
 8465SOL    HW226295   3.362   2.265   1.164
 8466SOL     OW26296   5.496   0.713   5.503
 8466SOL    HW126297   5.460   0.629   5.463
 8466SOL    HW226298   5.595   0.707   5.509
 8467SOL     OW26299   3.377   0.924   0.418
 8467SOL    HW126300   3.364   0.828   0.396
 8467SOL    HW226301   3.350   0.940   0.514
 8468SOL     OW26302   6.263   3.823   6.743
 8468SOL    HW126303   6.350   3.792   6.704
 8468SOL    HW226304   6.214   3.745   6.781
 8469SOL     OW26305   4.230   2.754   5.543
 8469SOL    HW126306   4.220   2.849   5.511
 8469SOL    HW226307   4.193   2.747   5.636
 8470SOL     OW26308   0.752   4.769   1.086
 8470SOL    HW126309   0.669   4.743   1.036
 8470SOL    HW226310   0.727   4.799   1.178
 8471SOL     OW26311   2.903   0.649   4.945
 8471SOL    HW126312   2.959   0.689   5.017
 8471SOL    HW226313   2.961   0.623   4.868
 8472SOL     OW26314   5.590   1.512   6.312
 8472SOL    HW126315   5.661   1.580   6.330
 8472SOL    HW226316   5.558   1.474   6.399
 8473SOL     OW26317   4.884   4.854   0.008
 8473SOL    HW126318   4.925   4.909   6.963
 8473SOL    HW226319   4.828   4.782   6.995
 8474SOL     OW26320   3.035   3.102   3.024
 8474SOL    HW126321   3.003   3.009   3.042
 8474SOL    HW226322   3.030   3.120   2.925
 8475SOL     OW26323   0.434   3.497   1.101
 8475SOL    HW126324   0.488   3.450   1.170
 8475SOL    HW226325   0.389   3.430   1.042
 8476SOL     OW26326   6.303   0.313   1.514
 8476SOL    HW126327   6.333   0.276   1.603
 8476SOL    HW226328   6.264   0.239   1.459
 8477SOL     OW26329   4.698   6.885   1.441
 8477SOL    HW126330   4.728   6.856   1.532
 8477SOL    HW226331   4.772   6.935   1.396
 8478SOL     OW26332   0.836   0.396   5.625
 8478SOL    HW126333   0.784   0.381   5.709
 8478SOL    HW226334   0.927   0.354   5.634
 8479SOL     OW26335   1.984   2.413   1.149
 8479SOL    HW126336   2.008   2.441   1.056
 8479SOL    HW226337   1.984   2.313   1.154
 8480SOL     OW26338   4.407   2.956   0.345
 8480SOL    HW126339   4.491   2.941   0.293
 8480SOL    HW226340   4.397   2.885   0.414
 8481SOL     OW26341   3.669   2.011   4.463
 8481SOL    HW126342   3.596   2.057   4.513
 8481SOL    HW226343   3.745   2.074   4.448
 8482SOL     OW26344   4.682   1.189   6.873
 8482SOL    HW126345   4.589   1.189   6.910
 8482SOL    HW226346   4.746   1.161   6.945
 8483SOL     OW26347   3.485   6.072   3.684
 8483SOL    HW126348   3.579   6.093   3.657
 8483SOL    HW226349   3.425   6.081   3.605
 8484SOL     OW26350   6.327   6.018   5.127
 8484SOL    HW126351   6.268   6.095   5.104
 8484SOL    HW226352   6.413   6.026   5.076
 8485SOL     OW26353   3.593   2.162   0.189
 8485SOL    HW126354   3.613   2.069   0.158
 8485SOL    HW226355   3.626   2.175   0.282
 8486SOL     OW26356   1.708   1.316   2.214
 8486SOL    HW126357   1.798   1.273   2.222
 8486SOL    HW226358   1.649   1.286   2.289
 8487SOL     OW26359   5.566   2.049   5.903
 8487SOL    HW126360   5.615   2.098   5.975
 8487SOL    HW226361   5.566   2.105   5.819
 8488SOL     OW26362   5.883   5.689   2.561
 8488SOL    HW126363   5.854   5.625   2.632
 8488SOL    HW226364   5.917   5.773   2.603
 8489SOL     OW26365   5.533   1.107   1.287
 8489SOL    HW126366   5.610   1.091   1.349
 8489SOL    HW226367   5.482   1.188   1.316
 8490SOL     OW26368   2.588   6.664   6.324
 8490SOL    HW126369   2.681   6.679   6.290
 8490SOL    HW226370   2.592   6.623   6.415
 8491SOL     OW26371   2.034   5.815   2.731
 8491SOL    HW126372   1.977   5.770   2.799
 8491SOL    HW226373   2.016   5.776   2.641
 8492SOL     OW26374   6.050   3.614   4.594
 8492SOL    HW126375   5.952   3.634   4.596
 8492SOL    HW226376   6.101   3.700   4.598
 8493SOL     OW26377   3.125   1.326   0.436
 8493SOL    HW126378   3.053   1.259   0.421
 8493SOL    HW226379   3.194   1.288   0.497
 8494SOL     OW26380   5.958   4.945   1.919
 8494SOL    HW126381   5.882   4.966   1.857
 8494SOL    HW226382   5.923   4.902   2.002
 8495SOL     OW26383   5.948   5.270   0.748
 8495SOL    HW126384   5.943   5.171   0.760
 8495SOL    HW226385   6.039   5.302   0.777
 8496SOL     OW26386   5.547   1.248   1.908
 8496SOL    HW126387   5.595   1.309   1.971
 8496SOL    HW226388   5.589   1.158   1.911
 8497SOL     OW26389   0.121   0.190   3.627
 8497SOL    HW126390   0.212   0.149   3.633
 8497SOL    HW226391   0.098   0.234   3.714
 8498SOL     OW26392   5.142   6.986   3.732
 8498SOL    HW126393   5.083   6.949   3.804
 8498SOL    HW226394   5.236   6.957   3.748
 8499SOL     OW26395   0.292   5.697   0.563
 8499SOL    HW126396   0.211   5.706   0.505
 8499SOL    HW226397   0.282   5.757   0.642
 8500SOL     OW26398   1.794   0.802   5.703
 8500SOL    HW126399   1.711   0.764   5.660
 8500SOL    HW226400   1.875   0.764   5.657
 8501SOL     OW26401   0.555   1.996   6.910
 8501SOL    HW126402   0.619   2.071   6.895
 8501SOL    HW226403   0.487   2.023   6.978
 8502SOL     OW26404   0.427   3.111   6.733
 8502SOL    HW126405   0.465   3.090   6.823
 8502SOL    HW226406   0.365   3.189   6.740
 8503SOL     OW26407   6.426   6.287   4.725
 8503SOL    HW126408   6.327   6.290   4.738
 8503SOL    HW226409   6.446   6.249   4.635
 8504SOL     OW26410   2.153   5.493   2.577
 8504SOL    HW126411   2.220   5.503   2.504
 8504SOL    HW226412   2.072   5.547   2.556
 8505SOL     OW26413   5.485   3.506   2.942
 8505SOL    HW126414   5.540   3.448   2.882
 8505SOL    HW226415   5.391   3.474   2.943
 8506SOL     OW26416   1.821   0.903   6.791
 8506SOL    HW126417   1.822   1.003   6.786
 8506SOL    HW226418   1.826   0.874   6.886
 8507SOL     OW26419   4.445   0.209   5.117
 8507SOL    HW126420   4.443   0.169   5.208
 8507SOL    HW226421   4.434   0.308   5.123
 8508SOL     OW26422   4.136   2.144   6.497
 8508SOL    HW126423   4.063   2.088   6.537
 8508SOL    HW226424   4.224   2.103   6.520
 8509SOL     OW26425   5.631   0.105   3.236
 8509SOL    HW126426   5.708   0.161   3.267
 8509SOL    HW226427   5.547   0.157   3.244
 8510SOL     OW26428   5.361   2.814   4.321
 8510SOL    HW126429   5.367   2.801   4.420
 8510SOL    HW226430   5.363   2.725   4.275
 8511SOL     OW26431   5.729   2.989   2.488
 8511SOL    HW126432   5.826   3.004   2.508
 8511SOL    HW226433   5.673   3.040   2.553
 8512SOL     OW26434   2.207   0.162   3.418
 8512SOL    HW126435   2.212   0.247   3.366
 8512SOL    HW226436   2.299   0.134   3.446
 8513SOL     OW26437   5.997   6.128   7.003
 8513SOL    HW126438   5.969   6.222   7.021
 8513SOL    HW226439   5.952   6.067   0.041
 8514SOL     OW26440   3.358   6.678   3.391
 8514SOL    HW126441   3.424   6.603   3.393
 8514SOL    HW226442   3.378   6.738   3.314
 8515SOL     OW26443   5.564   2.475   0.907
 8515SOL    HW126444   5.576   2.383   0.944
 8515SOL    HW226445   5.649   2.506   0.866
 8516SOL     OW26446   6.704   2.101   2.217
 8516SOL    HW126447   6.630   2.157   2.255
 8516SOL    HW226448   6.750   2.051   2.290
 8517SOL     OW26449   1.200   2.693   6.206
 8517SOL    HW126450   1.134   2.626   6.239
 8517SOL    HW226451   1.284   2.687   6.260
 8518SOL     OW26452   3.185   5.568   0.186
 8518SOL    HW126453   3.256   5.528   0.244
 8518SOL    HW226454   3.105   5.508   0.183
 8519SOL     OW26455   1.450   5.824   2.343
 8519SOL    HW126456   1.479   5.879   2.265
 8519SOL    HW226457   1.380   5.873   2.394
 8520SOL     OW26458   3.933   1.191   0.063
 8520SOL    HW126459   3.889   1.182   7.002
 8520SOL    HW226460   3.954   1.100   0.099
 8521SOL     OW26461   0.456   6.562   6.033
 8521SOL    HW126462   0.392   6.637   6.015
 8521SOL    HW226463   0.418   6.477   5.998
 8522SOL     OW26464   0.999   6.359   4.086
 8522SOL    HW126465   1.081   6.412   4.107
 8522SOL    HW226466   0.960   6.390   3.999
 8523SOL     OW26467   2.708   6.852   6.069
 8523SOL    HW126468   2.660   6.912   6.133
 8523SOL    HW226469   2.717   6.899   5.981
 8524SOL     OW26470   1.235   3.737   5.468
 8524SOL    HW126471   1.288   3.705   5.547
 8524SOL    HW226472   1.152   3.781   5.500
 8525SOL     OW26473   5.751   3.609   3.124
 8525SOL    HW126474   5.655   3.623   3.150
 8525SOL    HW226475   5.756   3.536   3.055
 8526SOL     OW26476   2.583   2.878   1.751
 8526SOL    HW126477   2.503   2.910   1.701
 8526SOL    HW226478   2.664   2.928   1.721
 8527SOL     OW26479   4.641   0.422   4.371
 8527SOL    HW126480   4.635   0.492   4.442
 8527SOL    HW226481   4.697   0.346   4.404
 8528SOL     OW26482   4.833   3.338   6.085
 8528SOL    HW126483   4.750   3.344   6.139
 8528SOL    HW226484   4.894   3.413   6.109
 8529SOL     OW26485   1.673   5.017   6.986
 8529SOL    HW126486   1.692   5.107   6.948
 8529SOL    HW226487   1.637   4.957   6.915
 8530SOL     OW26488   1.237   4.278   5.456
 8530SOL    HW126489   1.303   4.206   5.434
 8530SOL    HW226490   1.286   4.361   5.484
 8531SOL     OW26491   5.212   5.003   2.613
 8531SOL    HW126492   5.135   4.943   2.633
 8531SOL    HW226493   5.284   4.989   2.680
 8532SOL     OW26494   3.561   4.998   5.447
 8532SOL    HW126495   3.475   5.033   5.410
 8532SOL    HW226496   3.594   4.923   5.390
 8533SOL     OW26497   2.960   1.091   4.446
 8533SOL    HW126498   2.985   1.118   4.539
 8533SOL    HW226499   2.864   1.114   4.429
 8534SOL     OW26500   1.380   3.356   2.942
 8534SOL    HW126501   1.303   3.293   2.950
 8534SOL    HW226502   1.442   3.343   3.019
 8535SOL     OW26503   0.637   2.025   4.329
 8535SOL    HW126504   0.626   1.931   4.296
 8535SOL    HW226505   0.595   2.089   4.265
 8536SOL     OW26506   6.598   1.818   5.612
 8536SOL    HW126507   6.577   1.907   5.570
 8536SOL    HW226508   6.682   1.782   5.572
 8537SOL     OW26509   5.699   0.783   1.194
 8537SOL    HW126510   5.706   0.838   1.277
 8537SOL    HW226511   5.631   0.824   1.133
 8538SOL     OW26512   0.009   0.515   4.646
 8538SOL    HW126513   6.965   0.542   4.582
 8538SOL    HW226514   7.016   0.424   4.682
 8539SOL     OW26515   0.614   2.506   2.033
 8539SOL    HW126516   0.520   2.496   2.001
 8539SOL    HW226517   0.664   2.567   1.972
 8540SOL     OW26518   3.134   0.678   0.690
 8540SOL    HW126519   3.069   0.606   0.714
 8540SOL    HW226520   3.190   0.648   0.612
 8541SOL     OW26521   3.071   1.502   4.614
 8541SOL    HW126522   2.993   1.555   4.578
 8541SOL    HW226523   3.050   1.405   4.608
 8542SOL     OW26524   1.759   4.239   6.728
 8542SOL    HW126525   1.770   4.325   6.679
 8542SOL    HW226526   1.735   4.258   6.823
 8543SOL     OW26527   2.209   2.309   5.342
 8543SOL    HW126528   2.203   2.346   5.249
 8543SOL    HW226529   2.275   2.363   5.395
 8544SOL     OW26530   5.111   4.048   5.383
 8544SOL    HW126531   5.193   4.102   5.404
 8544SOL    HW226532   5.064   4.025   5.468
 8545SOL     OW26533   3.504   6.787   5.984
 8545SOL    HW126534   3.488   6.833   6.072
 8545SOL    HW226535   3.509   6.689   5.999
 8546SOL     OW26536   5.271   0.951   1.848
 8546SOL    HW126537   5.236   0.859   1.868
 8546SOL    HW226538   5.295   0.997   1.934
 8547SOL     OW26539   6.424   6.706   5.811
 8547SOL    HW126540   6.371   6.693   5.895
 8547SOL    HW226541   6.382   6.654   5.737
 8548SOL     OW26542   0.996   3.350   6.098
 8548SOL    HW126543   1.087   3.373   6.134
 8548SOL    HW226544   1.002   3.266   6.043
 8549SOL     OW26545   2.097   0.694   3.155
 8549SOL    HW126546   2.058   0.780   3.187
 8549SOL    HW226547   2.038   0.618   3.183
 8550SOL     OW26548   0.847   4.572   0.009
 8550SOL    HW126549   0.826   4.548   0.104
 8550SOL    HW226550   0.946   4.577   7.025
 8551SOL     OW26551   2.074   1.926   6.185
 8551SOL    HW126552   2.104   1.837   6.150
 8551SOL    HW226553   1.975   1.924   6.201
 8552SOL     OW26554   2.726   1.417   2.812
 8552SOL    HW126555   2.821   1.448   2.822
 8552SOL    HW226556   2.665   1.484   2.855
 8553SOL     OW26557   4.896   3.085   1.024
 8553SOL    HW126558   4.847   3.119   0.945
 8553SOL    HW226559   4.944   3.000   1.000
 8554SOL     OW26560   0.837   6.341   0.609
 8554SOL    HW126561   0.821   6.379   0.700
 8554SOL    HW226562   0.920   6.382   0.570
 8555SOL     OW26563   4.547   1.323   3.630
 8555SOL    HW126564   4.624   1.353   3.686
 8555SOL    HW226565   4.472   1.390   3.637
 8556SOL     OW26566   1.882   6.232   0.149
 8556SOL    HW126567   1.847   6.282   0.228
 8556SOL    HW226568   1.948   6.290   0.100
 8557SOL     OW26569   0.020   0.860   0.084
 8557SOL    HW126570   0.120   0.858   0.086
 8557SOL    HW226571   7.017   0.929   0.019
 8558SOL     OW26572   3.085   4.827   3.271
 8558SOL    HW126573   3.179   4.802   3.297
 8558SOL    HW226574   3.037   4.863   3.351
 8559SOL     OW26575   0.963   5.162   2.723
 8559SOL    HW126576   0.882   5.111   2.695
 8559SOL    HW226577   1.028   5.099   2.766
 8560SOL     OW26578   2.232   4.696   1.599
 8560SOL    HW126579   2.260   4.616   1.546
 8560SOL    HW226580   2.181   4.759   1.540
 8561SOL     OW26581   3.889   0.146   2.208
 8561SOL    HW126582   3.931   0.130   2.118
 8561SOL    HW226583   3.947   0.207   2.261
 8562SOL     OW26584   4.030   1.326   6.719
 8562SOL    HW126585   3.941   1.362   6.746
 8562SOL    HW226586   4.049   1.352   6.625
 8563SOL     OW26587   1.549   5.531   3.411
 8563SOL    HW126588   1.498   5.453   3.374
 8563SOL    HW226589   1.603   5.574   3.339
 8564SOL     OW26590   3.922   0.272   6.799
 8564SOL    HW126591   3.984   0.350   6.792
 8564SOL    HW226592   3.855   0.276   6.725
 8565SOL     OW26593   2.892   5.441   1.246
 8565SOL    HW126594   2.925   5.350   1.271
 8565SOL    HW226595   2.971   5.500   1.229
 8566SOL     OW26596   3.219   1.223   3.272
 8566SOL    HW126597   3.225   1.267   3.362
 8566SOL    HW226598   3.136   1.166   3.269
 8567SOL     OW26599   1.635   1.921   1.593
 8567SOL    HW126600   1.656   2.015   1.621
 8567SOL    HW226601   1.702   1.859   1.634
 8568SOL     OW26602   6.978   1.609   6.853
 8568SOL    HW126603   6.969   1.665   6.771
 8568SOL    HW226604   0.042   1.619   6.892
 8569SOL     OW26605   5.579   2.445   6.200
 8569SOL    HW126606   5.594   2.539   6.230
 8569SOL    HW226607   5.522   2.398   6.267
 8570SOL     OW26608   1.218   2.664   4.180
 8570SOL    HW126609   1.238   2.614   4.264
 8570SOL    HW226610   1.124   2.644   4.151
 8571SOL     OW26611   2.151   0.954   3.902
 8571SOL    HW126612   2.095   1.010   3.964
 8571SOL    HW226613   2.124   0.858   3.910
 8572SOL     OW26614   3.179   4.163   5.804
 8572SOL    HW126615   3.170   4.212   5.891
 8572SOL    HW226616   3.092   4.118   5.783
 8573SOL     OW26617   3.596   6.075   0.917
 8573SOL    HW126618   3.567   6.132   0.840
 8573SOL    HW226619   3.695   6.076   0.923
 8574SOL     OW26620   6.892   6.717   5.699
 8574SOL    HW126621   6.830   6.655   5.652
 8574SOL    HW226622   6.980   6.671   5.714
 8575SOL     OW26623   3.026   6.192   2.596
 8575SOL    HW126624   2.934   6.191   2.637
 8575SOL    HW226625   3.088   6.244   2.654
 8576SOL     OW26626   0.667   3.602   3.714
 8576SOL    HW126627   0.658   3.689   3.763
 8576SOL    HW226628   0.760   3.568   3.723
 8577SOL     OW26629   1.890   1.320   6.575
 8577SOL    HW126630   1.867   1.310   6.672
 8577SOL    HW226631   1.889   1.417   6.551
 8578SOL     OW26632   6.369   0.108   5.281
 8578SOL    HW126633   6.462   0.143   5.269
 8578SOL    HW226634   6.345   0.049   5.204
 8579SOL     OW26635   2.685   6.253   2.578
 8579SOL    HW126636   2.740   6.192   2.636
 8579SOL    HW226637   2.648   6.201   2.501
 8580SOL     OW26638   1.654   6.637   1.164
 8580SOL    HW126639   1.621   6.566   1.102
 8580SOL    HW226640   1.683   6.596   1.250
 8581SOL     OW26641   3.578   4.945   1.339
 8581SOL    HW126642   3.621   4.932   1.249
 8581SOL    HW226643   3.484   4.975   1.327
 8582SOL     OW26644   4.079   4.666   5.609
 8582SOL    HW126645   4.041   4.611   5.683
 8582SOL    HW226646   4.100   4.607   5.531
 8583SOL     OW26647   4.053   0.647   2.600
 8583SOL    HW126648   4.094   0.734   2.629
 8583SOL    HW226649   3.989   0.664   2.525
 8584SOL     OW26650   6.790   1.025   4.433
 8584SOL    HW126651   6.715   1.089   4.452
 8584SOL    HW226652   6.859   1.032   4.505
 8585SOL     OW26653   5.654   2.005   1.390
 8585SOL    HW126654   5.582   2.067   1.419
 8585SOL    HW226655   5.640   1.980   1.294
 8586SOL     OW26656   5.373   6.258   1.247
 8586SOL    HW126657   5.277   6.245   1.219
 8586SOL    HW226658   5.376   6.284   1.343
 8587SOL     OW26659   1.326   1.240   5.663
 8587SOL    HW126660   1.230   1.220   5.643
 8587SOL    HW226661   1.382   1.161   5.639
 8588SOL     OW26662   2.993   1.852   0.198
 8588SOL    HW126663   3.077   1.902   0.218
 8588SOL    HW226664   2.918   1.916   0.184
 8589SOL     OW26665   0.748   3.125   5.926
 8589SOL    HW126666   0.798   3.080   6.001
 8589SOL    HW226667   0.703   3.208   5.961
 8590SOL     OW26668   0.334   1.834   2.859
 8590SOL    HW126669   0.357   1.874   2.947
 8590SOL    HW226670   0.350   1.901   2.786
 8591SOL     OW26671   6.663   5.062   0.165
 8591SOL    HW126672   6.723   4.982   0.177
 8591SOL    HW226673   6.658   5.113   0.251
 8592SOL     OW26674   0.863   2.724   6.510
 8592SOL    HW126675   0.839   2.670   6.591
 8592SOL    HW226676   0.913   2.806   6.538
 8593SOL     OW26677   2.721   0.419   6.778
 8593SOL    HW126678   2.718   0.487   6.705
 8593SOL    HW226679   2.659   0.344   6.755
 8594SOL     OW26680   6.235   2.716   6.147
 8594SOL    HW126681   6.195   2.797   6.106
 8594SOL    HW226682   6.164   2.663   6.193
 8595SOL     OW26683   4.886   6.788   2.211
 8595SOL    HW126684   4.966   6.746   2.254
 8595SOL    HW226685   4.836   6.720   2.158
 8596SOL     OW26686   1.220   3.195   3.341
 8596SOL    HW126687   1.148   3.263   3.327
 8596SOL    HW226688   1.235   3.145   3.255
 8597SOL     OW26689   5.980   3.642   1.216
 8597SOL    HW126690   5.935   3.663   1.302
 8597SOL    HW226691   5.943   3.556   1.179
 8598SOL     OW26692   5.654   0.355   4.740
 8598SOL    HW126693   5.726   0.286   4.750
 8598SOL    HW226694   5.569   0.310   4.714
 8599SOL     OW26695   1.462   2.540   3.510
 8599SOL    HW126696   1.505   2.487   3.583
 8599SOL    HW226697   1.444   2.633   3.542
 8600SOL     OW26698   4.445   3.320   1.217
 8600SOL    HW126699   4.446   3.410   1.260
 8600SOL    HW226700   4.424   3.250   1.285
 8601SOL     OW26701   0.770   0.437   3.509
 8601SOL    HW126702   0.788   0.494   3.589
 8601SOL    HW226703   0.671   0.428   3.497
 8602SOL     OW26704   2.510   6.908   4.381
 8602SOL    HW126705   2.448   6.842   4.338
 8602SOL    HW226706   2.600   6.866   4.395
 8603SOL     OW26707   6.985   0.535   0.265
 8603SOL    HW126708   6.938   0.611   0.310
 8603SOL    HW226709   6.991   0.553   0.167
 8604SOL     OW26710   1.298   4.289   5.815
 8604SOL    HW126711   1.238   4.250   5.745
 8604SOL    HW226712   1.256   4.280   5.905
 8605SOL     OW26713   6.816   4.943   4.474
 8605SOL    HW126714   6.727   4.966   4.436
 8605SOL    HW226715   6.880   5.019   4.458
 8606SOL     OW26716   1.986   2.454   6.430
 8606SOL    HW126717   1.937   2.402   6.500
 8606SOL    HW226718   1.954   2.426   6.339
 8607SOL     OW26719   1.996   4.937   1.571
 8607SOL    HW126720   1.956   4.850   1.542
 8607SOL    HW226721   2.065   4.966   1.506
 8608SOL     OW26722   2.629   4.873   3.402
 8608SOL    HW126723   2.623   4.805   3.330
 8608SOL    HW226724   2.554   4.938   3.393
 8609SOL     OW26725   5.027   1.358   3.393
 8609SOL    HW126726   5.118   1.381   3.427
 8609SOL    HW226727   5.029   1.268   3.351
 8610SOL     OW26728   0.154   6.454   3.264
 8610SOL    HW126729   0.149   6.536   3.322
 8610SOL    HW226730   0.205   6.383   3.311
 8611SOL     OW26731   3.002   1.608   3.865
 8611SOL    HW126732   2.979   1.670   3.939
 8611SOL    HW226733   2.919   1.577   3.819
 8612SOL     OW26734   4.088   3.239   3.262
 8612SOL    HW126735   4.050   3.189   3.184
 8612SOL    HW226736   4.133   3.321   3.230
 8613SOL     OW26737   3.170   2.400   1.512
 8613SOL    HW126738   3.251   2.456   1.526
 8613SOL    HW226739   3.194   2.303   1.520
 8614SOL     OW26740   1.136   1.899   1.254
 8614SOL    HW126741   1.166   1.976   1.198
 8614SOL    HW226742   1.211   1.835   1.267
 8615SOL     OW26743   4.526   1.796   3.614
 8615SOL    HW126744   4.592   1.829   3.682
 8615SOL    HW226745   4.506   1.868   3.548
 8616SOL     OW26746   4.277   4.917   2.439
 8616SOL    HW126747   4.312   4.828   2.411
 8616SOL    HW226748   4.317   4.941   2.528
 8617SOL     OW26749   4.835   0.115   4.080
 8617SOL    HW126750   4.934   0.126   4.091
 8617SOL    HW226751   4.798   0.195   4.032
 8618SOL     OW26752   5.475   4.064   1.422
 8618SOL    HW126753   5.499   4.017   1.337
 8618SOL    HW226754   5.479   3.999   1.498
 8619SOL     OW26755   5.233   4.745   2.178
 8619SOL    HW126756   5.301   4.672   2.188
 8619SOL    HW226757   5.159   4.730   2.244
 8620SOL     OW26758   2.169   0.944   4.655
 8620SOL    HW126759   2.206   0.869   4.710
 8620SOL    HW226760   2.171   1.029   4.707
 8621SOL     OW26761   4.973   2.636   1.913
 8621SOL    HW126762   4.961   2.549   1.960
 8621SOL    HW226763   4.888   2.689   1.919
 8622SOL     OW26764   6.484   5.246   2.536
 8622SOL    HW126765   6.503   5.149   2.548
 8622SOL    HW226766   6.570   5.297   2.535
 8623SOL     OW26767   6.834   2.961   5.347
 8623SOL    HW126768   6.798   2.884   5.293
 8623SOL    HW226769   6.866   2.927   5.435
 8624SOL     OW26770   3.603   3.676   6.304
 8624SOL    HW126771   3.553   3.759   6.278
 8624SOL    HW226772   3.562   3.637   6.386
 8625SOL     OW26773   3.506   1.644   5.478
 8625SOL    HW126774   3.532   1.739   5.495
 8625SOL    HW226775   3.463   1.637   5.387
 8626SOL     OW26776   4.607   3.348   0.304
 8626SOL    HW126777   4.539   3.362   0.375
 8626SOL    HW226778   4.697   3.335   0.345
 8627SOL     OW26779   1.829   1.109   2.360
 8627SOL    HW126780   1.848   1.158   2.445
 8627SOL    HW226781   1.848   1.012   2.372
 8628SOL     OW26782   0.458   6.348   0.247
 8628SOL    HW126783   0.511   6.379   0.167
 8628SOL    HW226784   0.520   6.323   0.321
 8629SOL     OW26785   0.395   7.021   4.249
 8629SOL    HW126786   0.386   0.021   4.344
 8629SOL    HW226787   0.396   6.921   4.243
 8630SOL     OW26788   4.917   3.163   3.467
 8630SOL    HW126789   4.886   3.189   3.375
 8630SOL    HW226790   4.916   3.064   3.476
 8631SOL     OW26791   2.551   6.591   6.835
 8631SOL    HW126792   2.492   6.533   6.891
 8631SOL    HW226793   2.640   6.546   6.823
 8632SOL     OW26794   4.485   4.701   5.180
 8632SOL    HW126795   4.441   4.664   5.098
 8632SOL    HW226796   4.428   4.775   5.217
 8633SOL     OW26797   5.415   4.190   5.848
 8633SOL    HW126798   5.335   4.249   5.842
 8633SOL    HW226799   5.411   4.137   5.933
 8634SOL     OW26800   5.410   5.222   1.007
 8634SOL    HW126801   5.464   5.303   0.982
 8634SOL    HW226802   5.456   5.174   1.082
 8635SOL     OW26803   6.207   3.222   6.837
 8635SOL    HW126804   6.197   3.123   6.824
 8635SOL    HW226805   6.290   3.241   6.889
 8636SOL     OW26806   4.176   6.016   0.955
 8636SOL    HW126807   4.170   5.976   0.864
 8636SOL    HW226808   4.241   6.092   0.955
 8637SOL     OW26809   2.200   1.752   6.411
 8637SOL    HW126810   2.120   1.795   6.453
 8637SOL    HW226811   2.174   1.712   6.323
 8638SOL     OW26812   4.289   2.990   5.388
 8638SOL    HW126813   4.384   2.968   5.368
 8638SOL    HW226814   4.280   3.086   5.413
 8639SOL     OW26815   4.354   3.179   6.703
 8639SOL    HW126816   4.370   3.102   6.640
 8639SOL    HW226817   4.421   3.251   6.685
 8640SOL     OW26818   3.092   3.345   1.300
 8640SOL    HW126819   3.177   3.334   1.249
 8640SOL    HW226820   3.053   3.256   1.322
 8641SOL     OW26821   4.440   5.444   2.821
 8641SOL    HW126822   4.477   5.452   2.914
 8641SOL    HW226823   4.451   5.531   2.773
 8642SOL     OW26824   0.944   6.449   4.495
 8642SOL    HW126825   0.994   6.401   4.566
 8642SOL    HW226826   0.878   6.511   4.536
 8643SOL     OW26827   3.370   6.797   0.989
 8643SOL    HW126828   3.308   6.865   1.030
 8643SOL    HW226829   3.452   6.789   1.045
 8644SOL     OW26830   6.229   2.189   6.655
 8644SOL    HW126831   6.288   2.157   6.581
 8644SOL    HW226832   6.198   2.282   6.635
 8645SOL     OW26833   6.066   4.107   1.937
 8645SOL    HW126834   6.092   4.030   1.996
 8645SOL    HW226835   5.971   4.132   1.953
 8646SOL     OW26836   0.251   2.204   5.552
 8646SOL    HW126837   0.350   2.198   5.542
 8646SOL    HW226838   0.228   2.276   5.617
 8647SOL     OW26839   2.163   4.785   1.364
 8647SOL    HW126840   2.208   4.867   1.328
 8647SOL    HW226841   2.203   4.704   1.322
 8648SOL     OW26842   5.623   6.066   1.290
 8648SOL    HW126843   5.558   6.142   1.289
 8648SOL    HW226844   5.688   6.077   1.215
 8649SOL     OW26845   4.304   6.980   0.569
 8649SOL    HW126846   4.396   6.998   0.603
 8649SOL    HW226847   4.238   0.010   0.616
 8650SOL     OW26848   2.195   0.091   4.594
 8650SOL    HW126849   2.143   0.021   4.545
 8650SOL    HW226850   2.223   0.055   4.684
 8651SOL     OW26851   2.326   1.481   0.687
 8651SOL    HW126852   2.235   1.470   0.649
 8651SOL    HW226853   2.320   1.525   0.777
 8652SOL     OW26854   1.283   4.478   4.044
 8652SOL    HW126855   1.363   4.423   4.066
 8652SOL    HW226856   1.276   4.488   3.945
 8653SOL     OW26857   6.865   1.696   5.892
 8653SOL    HW126858   6.837   1.603   5.916
 8653SOL    HW226859   6.784   1.756   5.891
 8654SOL     OW26860   0.716   4.525   2.543
 8654SOL    HW126861   0.789   4.500   2.480
 8654SOL    HW226862   0.686   4.443   2.593
 8655SOL     OW26863   6.808   1.433   5.437
 8655SOL    HW126864   6.740   1.421   5.365
 8655SOL    HW226865   6.895   1.461   5.396
 8656SOL     OW26866   4.799   6.803   1.691
 8656SOL    HW126867   4.797   6.703   1.691
 8656SOL    HW226868   4.834   6.835   1.779
 8657SOL     OW26869   5.416   0.395   2.232
 8657SOL    HW126870   5.425   0.495   2.239
 8657SOL    HW226871   5.482   0.352   2.293
 8658SOL     OW26872   6.307   4.785   1.515
 8658SOL    HW126873   6.262   4.769   1.603
 8658SOL    HW226874   6.250   4.845   1.459
 8659SOL     OW26875   4.950   1.430   2.420
 8659SOL    HW126876   4.901   1.510   2.455
 8659SOL    HW226877   4.991   1.380   2.497
 8660SOL     OW26878   0.781   2.548   1.392
 8660SOL    HW126879   0.750   2.568   1.299
 8660SOL    HW226880   0.839   2.467   1.391
 8661SOL     OW26881   5.866   2.908   3.014
 8661SOL    HW126882   5.931   2.888   3.088
 8661SOL    HW226883   5.856   2.827   2.956
 8662SOL     OW26884   3.380   5.507   2.606
 8662SOL    HW126885   3.309   5.466   2.550
 8662SOL    HW226886   3.406   5.444   2.679
 8663SOL     OW26887   3.563   5.374   3.285
 8663SOL    HW126888   3.546   5.349   3.189
 8663SOL    HW226889   3.599   5.295   3.334
 8664SOL     OW26890   2.536   5.998   3.458
 8664SOL    HW126891   2.492   5.911   3.437
 8664SOL    HW226892   2.466   6.066   3.480
 8665SOL     OW26893   6.134   4.612   6.073
 8665SOL    HW126894   6.175   4.642   5.987
 8665SOL    HW226895   6.149   4.682   6.143
 8666SOL     OW26896   5.443   0.496   3.383
 8666SOL    HW126897   5.381   0.468   3.456
 8666SOL    HW226898   5.537   0.487   3.414
 8667SOL     OW26899   5.009   1.642   3.909
 8667SOL    HW126900   4.978   1.675   3.820
 8667SOL    HW226901   5.003   1.716   3.976
 8668SOL     OW26902   5.480   2.744   5.266
 8668SOL    HW126903   5.407   2.750   5.198
 8668SOL    HW226904   5.440   2.731   5.357
 8669SOL     OW26905   5.953   6.370   6.042
 8669SOL    HW126906   5.958   6.419   6.129
 8669SOL    HW226907   6.045   6.365   6.002
 8670SOL     OW26908   6.173   4.874   5.768
 8670SOL    HW126909   6.134   4.923   5.846
 8670SOL    HW226910   6.128   4.785   5.759
 8671SOL     OW26911   0.393   2.283   2.675
 8671SOL    HW126912   0.429   2.321   2.590
 8671SOL    HW226913   0.396   2.353   2.747
 8672SOL     OW26914   0.214   0.386   3.421
 8672SOL    HW126915   0.202   0.323   3.498
 8672SOL    HW226916   0.173   0.347   3.339
 8673SOL     OW26917   0.580   1.661   0.184
 8673SOL    HW126918   0.634   1.642   0.102
 8673SOL    HW226919   0.522   1.741   0.168
 8674SOL     OW26920   0.535   4.420   3.170
 8674SOL    HW126921   0.515   4.463   3.259
 8674SOL    HW226922   0.559   4.324   3.184
 8675SOL     OW26923   3.433   1.777   6.139
 8675SOL    HW126924   3.525   1.770   6.101
 8675SOL    HW226925   3.368   1.736   6.074
 8676SOL     OW26926   5.500   1.266   0.907
 8676SOL    HW126927   5.590   1.231   0.933
 8676SOL    HW226928   5.505   1.365   0.895
 8677SOL     OW26929   1.336   6.740   5.517
 8677SOL    HW126930   1.247   6.735   5.561
 8677SOL    HW226931   1.400   6.679   5.564
 8678SOL     OW26932   1.180   0.561   0.711
 8678SOL    HW126933   1.241   0.512   0.649
 8678SOL    HW226934   1.120   0.621   0.658
 8679SOL     OW26935   2.539   0.976   4.029
 8679SOL    HW126936   2.447   0.949   4.057
 8679SOL    HW226937   2.604   0.958   4.103
 8680SOL     OW26938   6.438   2.737   6.318
 8680SOL    HW126939   6.351   2.744   6.269
 8680SOL    HW226940   6.500   2.810   6.289
 8681SOL     OW26941   5.291   6.036   0.965
 8681SOL    HW126942   5.341   6.035   1.052
 8681SOL    HW226943   5.242   6.122   0.956
 8682SOL     OW26944   0.135   0.082   1.174
 8682SOL    HW126945   0.084   0.101   1.091
 8682SOL    HW226946   0.074   0.084   1.253
 8683SOL     OW26947   1.826   3.855   4.968
 8683SOL    HW126948   1.821   3.761   5.002
 8683SOL    HW226949   1.887   3.909   5.026
 8684SOL     OW26950   0.749   4.316   4.604
 8684SOL    HW126951   0.752   4.241   4.538
 8684SOL    HW226952   0.842   4.350   4.620
 8685SOL     OW26953   4.974   2.239   6.117
 8685SOL    HW126954   5.011   2.226   6.209
 8685SOL    HW226955   4.948   2.335   6.105
 8686SOL     OW26956   6.521   6.409   2.294
 8686SOL    HW126957   6.507   6.450   2.384
 8686SOL    HW226958   6.606   6.443   2.254
 8687SOL     OW26959   6.257   3.012   3.272
 8687SOL    HW126960   6.164   2.978   3.287
 8687SOL    HW226961   6.307   3.010   3.358
 8688SOL     OW26962   1.432   4.351   6.169
 8688SOL    HW126963   1.477   4.286   6.108
 8688SOL    HW226964   1.497   4.421   6.198
 8689SOL     OW26965   4.280   3.083   0.647
 8689SOL    HW126966   4.337   3.153   0.603
 8689SOL    HW226967   4.216   3.127   0.710
 8690SOL     OW26968   1.416   1.789   3.217
 8690SOL    HW126969   1.463   1.866   3.260
 8690SOL    HW226970   1.478   1.743   3.154
 8691SOL     OW26971   2.739   2.139   4.824
 8691SOL    HW126972   2.702   2.069   4.763
 8691SOL    HW226973   2.701   2.228   4.799
 8692SOL     OW26974   4.493   2.335   5.706
 8692SOL    HW126975   4.402   2.305   5.737
 8692SOL    HW226976   4.557   2.329   5.782
 8693SOL     OW26977   6.510   0.724   6.652
 8693SOL    HW126978   6.576   0.648   6.656
 8693SOL    HW226979   6.417   0.687   6.650
 8694SOL     OW26980   5.893   3.088   4.019
 8694SOL    HW126981   5.867   3.066   3.925
 8694SOL    HW226982   5.840   3.167   4.051
 8695SOL     OW26983   4.404   3.517   6.784
 8695SOL    HW126984   4.306   3.513   6.768
 8695SOL    HW226985   4.422   3.536   6.881
 8696SOL     OW26986   2.895   5.869   5.936
 8696SOL    HW126987   2.952   5.916   5.868
 8696SOL    HW226988   2.799   5.881   5.913
 8697SOL     OW26989   1.715   4.111   5.589
 8697SOL    HW126990   1.669   4.142   5.507
 8697SOL    HW226991   1.814   4.116   5.576
 8698SOL     OW26992   5.154   6.233   5.343
 8698SOL    HW126993   5.200   6.151   5.377
 8698SOL    HW226994   5.109   6.212   5.256
 8699SOL     OW26995   2.505   2.750   6.925
 8699SOL    HW126996   2.468   2.657   6.927
 8699SOL    HW226997   2.578   2.755   6.857
 8700SOL     OW26998   0.457   0.326   5.268
 8700SOL    HW126999   0.555   0.338   5.282
 8700SOL    HW227000   0.411   0.414   5.273
 8701SOL     OW27001   0.833   1.994   6.509
 8701SOL    HW127002   0.870   2.080   6.475
 8701SOL    HW227003   0.809   1.935   6.432
 8702SOL     OW27004   4.992   4.634   1.733
 8702SOL    HW127005   4.937   4.695   1.676
 8702SOL    HW227006   5.071   4.684   1.770
 8703SOL     OW27007   2.334   4.283   0.943
 8703SOL    HW127008   2.391   4.201   0.938
 8703SOL    HW227009   2.298   4.294   1.035
 8704SOL     OW27010   0.817   2.344   3.934
 8704SOL    HW127011   0.854   2.253   3.949
 8704SOL    HW227012   0.867   2.389   3.860
 8705SOL     OW27013   4.577   2.868   6.989
 8705SOL    HW127014   4.518   2.787   6.991
 8705SOL    HW227015   4.652   2.855   0.026
 8706SOL     OW27016   5.077   3.584   6.635
 8706SOL    HW127017   5.085   3.555   6.731
 8706SOL    HW227018   5.159   3.634   6.608
 8707SOL     OW27019   1.436   1.732   4.441
 8707SOL    HW127020   1.460   1.648   4.393
 8707SOL    HW227021   1.368   1.782   4.388
 8708SOL     OW27022   5.860   2.132   2.896
 8708SOL    HW127023   5.841   2.041   2.858
 8708SOL    HW227024   5.949   2.131   2.942
 8709SOL     OW27025   6.298   0.409   5.625
 8709SOL    HW127026   6.348   0.344   5.567
 8709SOL    HW227027   6.233   0.359   5.682
 8710SOL     OW27028   2.044   0.802   2.912
 8710SOL    HW127029   2.072   0.751   2.993
 8710SOL    HW227030   1.979   0.873   2.938
 8711SOL     OW27031   1.442   0.743   1.511
 8711SOL    HW127032   1.441   0.673   1.438
 8711SOL    HW227033   1.444   0.697   1.600
 8712SOL     OW27034   2.239   2.720   5.495
 8712SOL    HW127035   2.292   2.640   5.464
 8712SOL    HW227036   2.271   2.801   5.446
 8713SOL     OW27037   0.991   4.533   2.348
 8713SOL    HW127038   1.012   4.621   2.306
 8713SOL    HW227039   1.073   4.475   2.348
 8714SOL     OW27040   0.002   5.982   6.866
 8714SOL    HW127041   0.074   6.045   6.838
 8714SOL    HW227042   6.989   6.012   6.952
 8715SOL     OW27043   2.798   2.082   0.470
 8715SOL    HW127044   2.878   2.055   0.524
 8715SOL    HW227045   2.717   2.081   0.529
 8716SOL     OW27046   6.839   6.692   1.255
 8716SOL    HW127047   6.879   6.644   1.333
 8716SOL    HW227048   6.787   6.627   1.200
 8717SOL     OW27049   2.219   4.359   0.104
 8717SOL    HW127050   2.156   4.301   0.052
 8717SOL    HW227051   2.307   4.365   0.055
 8718SOL     OW27052   2.085   3.899   6.413
 8718SOL    HW127053   2.147   3.821   6.414
 8718SOL    HW227054   1.990   3.865   6.409
 8719SOL     OW27055   3.683   0.859   5.963
 8719SOL    HW127056   3.778   0.887   5.949
 8719SOL    HW227057   3.641   0.919   6.031
 8720SOL     OW27058   6.362   4.014   5.128
 8720SOL    HW127059   6.382   3.944   5.197
 8720SOL    HW227060   6.447   4.058   5.100
 8721SOL     OW27061   0.055   6.626   6.619
 8721SOL    HW127062   0.004   6.554   6.666
 8721SOL    HW227063   0.117   6.585   6.552
 8722SOL     OW27064   3.971   0.747   1.086
 8722SOL    HW127065   3.955   0.699   1.172
 8722SOL    HW227066   4.058   0.794   1.089
 8723SOL     OW27067   5.024   0.117   2.215
 8723SOL    HW127068   5.046   0.025   2.183
 8723SOL    HW227069   5.109   0.168   2.230
 8724SOL     OW27070   4.153   0.240   4.448
 8724SOL    HW127071   4.241   0.278   4.419
 8724SOL    HW227072   4.093   0.230   4.369
 8725SOL     OW27073   0.544   6.512   4.659
 8725SOL    HW127074   0.544   6.425   4.709
 8725SOL    HW227075   0.467   6.512   4.594
 8726SOL     OW27076   0.813   0.749   0.335
 8726SOL    HW127077   0.824   0.654   0.364
 8726SOL    HW227078   0.735   0.789   0.382
 8727SOL     OW27079   5.832   5.972   6.385
 8727SOL    HW127080   5.903   6.041   6.399
 8727SOL    HW227081   5.869   5.898   6.329
 8728SOL     OW27082   5.476   0.482   3.102
 8728SOL    HW127083   5.490   0.574   3.067
 8728SOL    HW227084   5.444   0.486   3.196
 8729SOL     OW27085   3.708   5.417   6.315
 8729SOL    HW127086   3.793   5.457   6.348
 8729SOL    HW227087   3.704   5.424   6.215
 8730SOL     OW27088   5.675   4.937   2.518
 8730SOL    HW127089   5.736   4.876   2.567
 8730SOL    HW227090   5.638   5.005   2.582
 8731SOL     OW27091   0.417   2.069   3.428
 8731SOL    HW127092   0.377   2.082   3.337
 8731SOL    HW227093   0.470   1.984   3.430
 8732SOL     OW27094   5.126   5.648   1.119
 8732SOL    HW127095   5.137   5.708   1.040
 8732SOL    HW227096   5.031   5.652   1.150
 8733SOL     OW27097   0.701   4.655   2.033
 8733SOL    HW127098   0.686   4.673   1.935
 8733SOL    HW227099   0.719   4.741   2.080
 8734SOL     OW27100   7.003   3.554   1.909
 8734SOL    HW127101   0.013   3.537   1.819
 8734SOL    HW227102   6.904   3.570   1.901
 8735SOL     OW27103   1.976   4.166   5.282
 8735SOL    HW127104   1.977   4.141   5.379
 8735SOL    HW227105   2.056   4.224   5.262
 8736SOL     OW27106   0.475   5.400   2.745
 8736SOL    HW127107   0.484   5.498   2.726
 8736SOL    HW227108   0.441   5.353   2.663
 8737SOL     OW27109   1.595   5.607   6.466
 8737SOL    HW127110   1.620   5.643   6.556
 8737SOL    HW227111   1.522   5.540   6.477
 8738SOL     OW27112   1.170   3.970   3.842
 8738SOL    HW127113   1.086   4.025   3.842
 8738SOL    HW227114   1.240   4.016   3.787
 8739SOL     OW27115   5.479   4.296   5.182
 8739SOL    HW127116   5.472   4.201   5.154
 8739SOL    HW227117   5.439   4.354   5.110
 8740SOL     OW27118   3.609   1.624   3.593
 8740SOL    HW127119   3.517   1.646   3.560
 8740SOL    HW227120   3.622   1.661   3.685
 8741SOL     OW27121   1.468   7.002   2.373
 8741SOL    HW127122   1.416   6.976   2.292
 8741SOL    HW227123   1.417   0.042   2.425
 8742SOL     OW27124   3.364   1.382   2.366
 8742SOL    HW127125   3.309   1.302   2.387
 8742SOL    HW227126   3.369   1.441   2.447
 8743SOL     OW27127   1.970   0.615   1.889
 8743SOL    HW127128   1.973   0.515   1.892
 8743SOL    HW227129   1.906   0.649   1.957
 8744SOL     OW27130   3.840   3.821   6.939
 8744SOL    HW127131   3.767   3.753   6.934
 8744SOL    HW227132   3.899   3.813   6.859
 8745SOL     OW27133   6.609   1.701   6.443
 8745SOL    HW127134   6.589   1.707   6.541
 8745SOL    HW227135   6.536   1.745   6.391
 8746SOL     OW27136   5.088   5.508   4.336
 8746SOL    HW127137   5.143   5.457   4.269
 8746SOL    HW227138   5.142   5.584   4.373
 8747SOL     OW27139   6.698   0.658   1.912
 8747SOL    HW127140   6.738   0.711   1.987
 8747SOL    HW227141   6.624   0.601   1.948
 8748SOL     OW27142   0.554   2.204   3.625
 8748SOL    HW127143   0.483   2.152   3.578
 8748SOL    HW227144   0.525   2.298   3.636
 8749SOL     OW27145   2.986   1.491   5.629
 8749SOL    HW127146   2.951   1.398   5.630
 8749SOL    HW227147   2.936   1.545   5.561
 8750SOL     OW27148   4.511   2.659   6.016
 8750SOL    HW127149   4.566   2.577   6.033
 8750SOL    HW227150   4.539   2.731   6.080
 8751SOL     OW27151   0.393   6.335   1.542
 8751SOL    HW127152   0.441   6.251   1.567
 8751SOL    HW227153   0.379   6.391   1.624
 8752SOL     OW27154   4.584   3.075   0.574
 8752SOL    HW127155   4.532   3.125   0.504
 8752SOL    HW227156   4.556   2.979   0.573
 8753SOL     OW27157   1.655   2.936   0.133
 8753SOL    HW127158   1.691   2.880   0.059
 8753SOL    HW227159   1.716   2.931   0.213
 8754SOL     OW27160   2.705   4.886   6.883
 8754SOL    HW127161   2.646   4.849   6.955
 8754SOL    HW227162   2.679   4.846   6.795
 8755SOL     OW27163   0.603   1.378   2.037
 8755SOL    HW127164   0.523   1.321   2.053
 8755SOL    HW227165   0.578   1.457   1.982
 8756SOL     OW27166   2.287   2.582   3.827
 8756SOL    HW127167   2.192   2.611   3.842
 8756SOL    HW227168   2.348   2.635   3.886
 8757SOL     OW27169   5.026   6.764   5.747
 8757SOL    HW127170   5.016   6.795   5.653
 8757SOL    HW227171   5.123   6.759   5.771
 8758SOL     OW27172   3.555   6.548   3.661
 8758SOL    HW127173   3.603   6.635   3.650
 8758SOL    HW227174   3.615   6.483   3.707
 8759SOL     OW27175   5.992   0.957   6.866
 8759SOL    HW127176   6.087   0.948   6.897
 8759SOL    HW227177   5.989   0.963   6.767
 8760SOL     OW27178   2.089   1.879   4.237
 8760SOL    HW127179   2.149   1.840   4.167
 8760SOL    HW227180   2.002   1.905   4.195
 8761SOL     OW27181   4.682   1.124   1.951
 8761SOL    HW127182   4.585   1.103   1.953
 8761SOL    HW227183   4.706   1.183   2.029
 8762SOL     OW27184   1.575   5.054   3.945
 8762SOL    HW127185   1.555   5.000   4.027
 8762SOL    HW227186   1.647   5.008   3.892
 8763SOL     OW27187   0.173   0.814   5.880
 8763SOL    HW127188   0.090   0.763   5.900
 8763SOL    HW227189   0.174   0.839   5.783
 8764SOL     OW27190   4.003   5.047   5.515
 8764SOL    HW127191   3.923   5.041   5.574
 8764SOL    HW227192   4.071   4.978   5.543
 8765SOL     OW27193   5.085   0.385   5.369
 8765SOL    HW127194   5.115   0.392   5.464
 8765SOL    HW227195   5.143   0.442   5.311
 8766SOL     OW27196   5.042   4.572   5.987
 8766SOL    HW127197   5.025   4.635   6.062
 8766SOL    HW227198   4.966   4.575   5.922
 8767SOL     OW27199   2.982   0.492   3.695
 8767SOL    HW127200   2.939   0.582   3.707
 8767SOL    HW227201   3.082   0.503   3.698
 8768SOL     OW27202   6.685   2.970   0.342
 8768SOL    HW127203   6.624   3.035   0.297
 8768SOL    HW227204   6.636   2.925   0.417
 8769SOL     OW27205   6.568   1.113   1.358
 8769SOL    HW127206   6.662   1.084   1.338
 8769SOL    HW227207   6.523   1.042   1.411
 8770SOL     OW27208   4.910   3.427   2.413
 8770SOL    HW127209   4.998   3.467   2.441
 8770SOL    HW227210   4.850   3.419   2.492
 8771SOL     OW27211   0.596   3.780   6.368
 8771SOL    HW127212   0.634   3.842   6.299
 8771SOL    HW227213   0.590   3.688   6.329
 8772SOL     OW27214   5.708   0.366   4.149
 8772SOL    HW127215   5.768   0.297   4.189
 8772SOL    HW227216   5.664   0.418   4.223
 8773SOL     OW27217   6.701   2.036   4.174
 8773SOL    HW127218   6.758   2.021   4.094
 8773SOL    HW227219   6.680   1.948   4.217
 8774SOL     OW27220   1.214   7.012   0.168
 8774SOL    HW127221   1.183   0.051   0.236
 8774SOL    HW227222   1.188   0.015   0.076
 8775SOL     OW27223   5.608   1.813   4.144
 8775SOL    HW127224   5.581   1.889   4.204
 8775SOL    HW227225   5.527   1.763   4.116
 8776SOL     OW27226   4.910   2.964   0.349
 8776SOL    HW127227   4.919   2.884   0.408
 8776SOL    HW227228   4.969   3.038   0.384
 8777SOL     OW27229   1.462   2.800   2.962
 8777SOL    HW127230   1.534   2.859   2.996
 8777SOL    HW227231   1.489   2.704   2.972
 8778SOL     OW27232   4.576   4.551   5.718
 8778SOL    HW127233   4.554   4.627   5.778
 8778SOL    HW227234   4.556   4.576   5.623
 8779SOL     OW27235   3.187   4.928   2.746
 8779SOL    HW127236   3.176   5.009   2.687
 8779SOL    HW227237   3.121   4.932   2.821
 8780SOL     OW27238   0.020   5.543   2.570
 8780SOL    HW127239   6.978   5.570   2.503
 8780SOL    HW227240   7.020   5.458   2.614
 8781SOL     OW27241   3.711   6.346   2.007
 8781SOL    HW127242   3.755   6.406   1.939
 8781SOL    HW227243   3.680   6.401   2.084
 8782SOL     OW27244   4.950   0.857   1.698
 8782SOL    HW127245   4.973   0.929   1.764
 8782SOL    HW227246   4.854   0.833   1.707
 8783SOL     OW27247   4.894   3.440   4.760
 8783SOL    HW127248   4.853   3.491   4.835
 8783SOL    HW227249   4.993   3.432   4.774
 8784SOL     OW27250   5.631   6.328   0.853
 8784SOL    HW127251   5.666   6.253   0.908
 8784SOL    HW227252   5.649   6.415   0.900
 8785SOL     OW27253   0.541   5.516   6.247
 8785SOL    HW127254   0.472   5.553   6.310
 8785SOL    HW227255   0.590   5.441   6.293
 8786SOL     OW27256   4.208   2.170   2.099
 8786SOL    HW127257   4.221   2.149   2.196
 8786SOL    HW227258   4.111   2.172   2.078
 8787SOL     OW27259   3.740   0.687   1.840
 8787SOL    HW127260   3.655   0.691   1.789
 8787SOL    HW227261   3.757   0.593   1.870
 8788SOL     OW27262   0.353   0.397   4.835
 8788SOL    HW127263   0.439   0.446   4.821
 8788SOL    HW227264   0.373   0.300   4.849
 8789SOL     OW27265   0.603   3.995   4.942
 8789SOL    HW127266   0.669   3.996   4.867
 8789SOL    HW227267   0.517   4.036   4.912
 8790SOL     OW27268   5.971   3.048   0.014
 8790SOL    HW127269   5.961   2.975   6.974
 8790SOL    HW227270   6.012   3.010   0.098
 8791SOL     OW27271   4.664   5.764   5.426
 8791SOL    HW127272   4.707   5.695   5.366
 8791SOL    HW227273   4.723   5.844   5.431
 8792SOL     OW27274   4.796   5.092   1.657
 8792SOL    HW127275   4.888   5.083   1.621
 8792SOL    HW227276   4.800   5.097   1.757
 8793SOL     OW27277   0.763   5.023   4.421
 8793SOL    HW127278   0.734   5.082   4.496
 8793SOL    HW227279   0.799   4.937   4.458
 8794SOL     OW27280   0.102   0.346   1.967
 8794SOL    HW127281   0.149   0.260   1.946
 8794SOL    HW227282   0.024   0.327   2.028
 8795SOL     OW27283   1.683   5.231   5.279
 8795SOL    HW127284   1.685   5.329   5.300
 8795SOL    HW227285   1.676   5.218   5.180
 8796SOL     OW27286   6.521   3.422   3.782
 8796SOL    HW127287   6.543   3.516   3.756
 8796SOL    HW227288   6.532   3.362   3.703
 8797SOL     OW27289   6.198   0.247   3.597
 8797SOL    HW127290   6.242   0.240   3.686
 8797SOL    HW227291   6.198   0.342   3.566
 8798SOL     OW27292   4.503   6.776   5.701
 8798SOL    HW127293   4.593   6.817   5.716
 8798SOL    HW227294   4.475   6.726   5.783
 8799SOL     OW27295   2.224   4.905   2.072
 8799SOL    HW127296   2.152   4.836   2.076
 8799SOL    HW227297   2.267   4.903   1.982
 8800SOL     OW27298   6.961   5.768   5.342
 8800SOL    HW127299   6.889   5.826   5.304
 8800SOL    HW227300   0.019   5.820   5.346
 8801SOL     OW27301   6.194   2.161   4.823
 8801SOL    HW127302   6.246   2.229   4.771
 8801SOL    HW227303   6.256   2.086   4.850
 8802SOL     OW27304   0.983   6.099   5.765
 8802SOL    HW127305   1.033   6.024   5.809
 8802SOL    HW227306   1.044   6.147   5.702
 8803SOL     OW27307   6.218   0.748   6.674
 8803SOL    HW127308   6.125   0.718   6.654
 8803SOL    HW227309   6.226   0.771   6.771
 8804SOL     OW27310   1.701   5.834   1.777
 8804SOL    HW127311   1.790   5.799   1.751
 8804SOL    HW227312   1.689   5.926   1.738
 8805SOL     OW27313   4.140   5.785   2.412
 8805SOL    HW127314   4.068   5.784   2.343
 8805SOL    HW227315   4.116   5.850   2.484
 8806SOL     OW27316   2.188   6.609   0.298
 8806SOL    HW127317   2.114   6.660   0.341
 8806SOL    HW227318   2.195   6.634   0.201
 8807SOL     OW27319   4.866   1.879   1.098
 8807SOL    HW127320   4.909   1.912   1.181
 8807SOL    HW227321   4.783   1.828   1.122
 8808SOL     OW27322   2.197   2.298   0.374
 8808SOL    HW127323   2.249   2.245   0.441
 8808SOL    HW227324   2.244   2.384   0.355
 8809SOL     OW27325   1.725   4.045   3.767
 8809SOL    HW127326   1.715   4.059   3.866
 8809SOL    HW227327   1.634   4.029   3.727
 8810SOL     OW27328   6.789   1.906   5.363
 8810SOL    HW127329   6.840   1.881   5.445
 8810SOL    HW227330   6.804   1.839   5.291
 8811SOL     OW27331   4.165   6.121   2.135
 8811SOL    HW127332   4.110   6.167   2.205
 8811SOL    HW227333   4.244   6.079   2.178
 8812SOL     OW27334   3.392   1.571   6.745
 8812SOL    HW127335   3.422   1.645   6.804
 8812SOL    HW227336   3.350   1.609   6.662
 8813SOL     OW27337   2.497   4.630   3.535
 8813SOL    HW127338   2.409   4.651   3.493
 8813SOL    HW227339   2.568   4.688   3.495
 8814SOL     OW27340   5.885   0.400   0.232
 8814SOL    HW127341   5.928   0.358   0.152
 8814SOL    HW227342   5.955   0.440   0.291
 8815SOL     OW27343   5.265   1.488   0.589
 8815SOL    HW127344   5.268   1.396   0.553
 8815SOL    HW227345   5.174   1.506   0.628
 8816SOL     OW27346   0.479   6.488   5.639
 8816SOL    HW127347   0.458   6.401   5.593
 8816SOL    HW227348   0.459   6.479   5.737
 8817SOL     OW27349   1.099   3.490   4.277
 8817SOL    HW127350   1.121   3.587   4.287
 8817SOL    HW227351   1.136   3.439   4.354
 8818SOL     OW27352   2.416   0.005   4.037
 8818SOL    HW127353   2.489   6.992   3.983
 8818SOL    HW227354   2.455   0.057   4.113
 8819SOL     OW27355   4.915   4.229   5.692
 8819SOL    HW127356   4.972   4.254   5.771
 8819SOL    HW227357   4.822   4.212   5.722
 8820SOL     OW27358   3.094   0.858   4.465
 8820SOL    HW127359   3.038   0.934   4.433
 8820SOL    HW227360   3.133   0.881   4.555
 8821SOL     OW27361   1.365   4.841   0.289
 8821SOL    HW127362   1.417   4.926   0.292
 8821SOL    HW227363   1.271   4.859   0.321
 8822SOL     OW27364   6.489   6.619   3.825
 8822SOL    HW127365   6.433   6.551   3.778
 8822SOL    HW227366   6.585   6.609   3.797
 8823SOL     OW27367   3.622   1.043   3.143
 8823SOL    HW127368   3.631   1.085   3.233
 8823SOL    HW227369   3.595   1.112   3.076
 8824SOL     OW27370   1.764   0.801   1.001
 8824SOL    HW127371   1.853   0.842   0.980
 8824SOL    HW227372   1.702   0.815   0.924
 8825SOL     OW27373   0.307   6.885   0.110
 8825SOL    HW127374   0.219   6.859   0.149
 8825SOL    HW227375   0.319   6.984   0.118
 8826SOL     OW27376   1.195   3.471   1.179
 8826SOL    HW127377   1.289   3.485   1.208
 8826SOL    HW227378   1.147   3.559   1.176
 8827SOL     OW27379   3.826   6.997   2.398
 8827SOL    HW127380   3.839   0.033   2.321
 8827SOL    HW227381   3.887   6.918   2.386
 8828SOL     OW27382   4.232   3.616   6.414
 8828SOL    HW127383   4.205   3.712   6.403
 8828SOL    HW227384   4.165   3.557   6.368
 8829SOL     OW27385   7.015   2.013   1.936
 8829SOL    HW127386   6.982   1.943   1.873
 8829SOL    HW227387   0.086   2.022   1.926
 8830SOL     OW27388   2.405   2.034   3.021
 8830SOL    HW127389   2.455   2.119   3.004
 8830SOL    HW227390   2.384   2.027   3.119
 8831SOL     OW27391   0.651   1.769   2.152
 8831SOL    HW127392   0.699   1.689   2.187
 8831SOL    HW227393   0.717   1.838   2.123
 8832SOL     OW27394   6.999   6.720   3.985
 8832SOL    HW127395   0.059   6.677   4.001
 8832SOL    HW227396   7.002   6.772   3.899
 8833SOL     OW27397   3.554   2.642   1.189
 8833SOL    HW127398   3.460   2.675   1.180
 8833SOL    HW227399   3.595   2.636   1.099
 8834SOL     OW27400   5.821   3.669   5.515
 8834SOL    HW127401   5.832   3.755   5.565
 8834SOL    HW227402   5.856   3.594   5.570
 8835SOL     OW27403   6.556   0.804   5.545
 8835SOL    HW127404   6.485   0.835   5.481
 8835SOL    HW227405   6.558   0.865   5.624
 8836SOL     OW27406   4.983   2.533   6.224
 8836SOL    HW127407   5.056   2.533   6.156
 8836SOL    HW227408   4.926   2.614   6.211
 8837SOL     OW27409   5.808   7.014   1.951
 8837SOL    HW127410   5.779   0.079   1.976
 8837SOL    HW227411   5.905   7.014   1.929
 8838SOL     OW27412   6.830   4.397   2.790
 8838SOL    HW127413   6.839   4.306   2.749
 8838SOL    HW227414   6.863   4.466   2.726
 8839SOL     OW27415   5.558   6.232   2.882
 8839SOL    HW127416   5.625   6.234   2.956
 8839SOL    HW227417   5.480   6.290   2.907
 8840SOL     OW27418   0.150   1.130   1.267
 8840SOL    HW127419   0.100   1.199   1.215
 8840SOL    HW227420   0.235   1.109   1.220
 8841SOL     OW27421   3.466   1.084   2.509
 8841SOL    HW127422   3.386   1.108   2.453
 8841SOL    HW227423   3.539   1.051   2.450
 8842SOL     OW27424   3.123   3.150   3.919
 8842SOL    HW127425   3.203   3.208   3.905
 8842SOL    HW227426   3.052   3.201   3.968
 8843SOL     OW27427   2.008   3.662   5.317
 8843SOL    HW127428   2.102   3.685   5.292
 8843SOL    HW227429   2.007   3.578   5.371
 8844SOL     OW27430   5.310   1.902   4.973
 8844SOL    HW127431   5.311   1.802   4.966
 8844SOL    HW227432   5.305   1.941   4.881
 8845SOL     OW27433   1.098   4.991   1.443
 8845SOL    HW127434   1.170   5.056   1.418
 8845SOL    HW227435   1.073   4.937   1.362
 8846SOL     OW27436   5.280   4.556   3.604
 8846SOL    HW127437   5.272   4.654   3.622
 8846SOL    HW227438   5.212   4.529   3.536
 8847SOL     OW27439   2.490   2.557   2.889
 8847SOL    HW127440   2.572   2.514   2.853
 8847SOL    HW227441   2.410   2.503   2.862
 8848SOL     OW27442   3.176   1.639   1.053
 8848SOL    HW127443   3.142   1.696   1.128
 8848SOL    HW227444   3.276   1.642   1.052
 8849SOL     OW27445   3.416   5.955   4.612
 8849SOL    HW127446   3.353   5.893   4.565
 8849SOL    HW227447   3.440   5.918   4.702
 8850SOL     OW27448   2.982   2.067   0.652
 8850SOL    HW127449   2.963   2.115   0.738
 8850SOL    HW227450   3.066   2.102   0.612
 8851SOL     OW27451   1.193   4.489   3.389
 8851SOL    HW127452   1.283   4.446   3.385
 8851SOL    HW227453   1.203   4.586   3.407
 8852SOL     OW27454   5.364   3.052   5.677
 8852SOL    HW127455   5.329   3.112   5.749
 8852SOL    HW227456   5.288   3.006   5.632
 8853SOL     OW27457   4.011   1.973   5.305
 8853SOL    HW127458   3.921   1.935   5.284
 8853SOL    HW227459   3.999   2.062   5.349
 8854SOL     OW27460   1.559   1.057   5.700
 8854SOL    HW127461   1.566   1.115   5.781
 8854SOL    HW227462   1.614   1.096   5.626
 8855SOL     OW27463   6.296   5.943   6.666
 8855SOL    HW127464   6.375   5.976   6.717
 8855SOL    HW227465   6.216   5.939   6.726
 8856SOL     OW27466   5.808   0.918   5.112
 8856SOL    HW127467   5.740   0.893   5.044
 8856SOL    HW227468   5.805   1.017   5.127
 8857SOL     OW27469   6.315   2.331   3.584
 8857SOL    HW127470   6.270   2.251   3.544
 8857SOL    HW227471   6.335   2.314   3.680
 8858SOL     OW27472   0.789   3.788   5.665
 8858SOL    HW127473   0.785   3.837   5.752
 8858SOL    HW227474   0.751   3.696   5.677
 8859SOL     OW27475   1.250   6.412   4.859
 8859SOL    HW127476   1.253   6.486   4.793
 8859SOL    HW227477   1.231   6.449   4.950
 8860SOL     OW27478   1.513   2.092   2.727
 8860SOL    HW127479   1.563   2.121   2.646
 8860SOL    HW227480   1.571   2.100   2.808
 8861SOL     OW27481   3.738   3.258   0.188
 8861SOL    HW127482   3.769   3.350   0.164
 8861SOL    HW227483   3.816   3.195   0.189
 8862SOL     OW27484   5.985   1.427   5.128
 8862SOL    HW127485   6.065   1.400   5.182
 8862SOL    HW227486   6.015   1.460   5.038
 8863SOL     OW27487   2.063   5.908   5.009
 8863SOL    HW127488   2.109   5.977   4.954
 8863SOL    HW227489   2.103   5.818   4.989
 8864SOL     OW27490   2.327   3.466   6.601
 8864SOL    HW127491   2.372   3.395   6.549
 8864SOL    HW227492   2.341   3.555   6.557
 8865SOL     OW27493   2.559   2.022   5.298
 8865SOL    HW127494   2.658   2.015   5.296
 8865SOL    HW227495   2.519   1.941   5.256
 8866SOL     OW27496   3.791   6.690   3.192
 8866SOL    HW127497   3.823   6.695   3.098
 8866SOL    HW227498   3.699   6.652   3.194
 8867SOL     OW27499   5.848   1.869   2.815
 8867SOL    HW127500   5.803   1.846   2.729
 8867SOL    HW227501   5.926   1.808   2.829
 8868SOL     OW27502   4.745   3.864   0.552
 8868SOL    HW127503   4.679   3.924   0.598
 8868SOL    HW227504   4.747   3.775   0.599
 8869SOL     OW27505   4.931   3.799   3.574
 8869SOL    HW127506   4.910   3.734   3.647
 8869SOL    HW227507   4.993   3.870   3.609
 8870SOL     OW27508   3.810   0.936   0.799
 8870SOL    HW127509   3.828   1.022   0.847
 8870SOL    HW227510   3.897   0.890   0.780
 8871SOL     OW27511   1.702   1.357   3.638
 8871SOL    HW127512   1.759   1.377   3.718
 8871SOL    HW227513   1.694   1.257   3.628
 8872SOL     OW27514   1.924   4.268   4.033
 8872SOL    HW127515   2.008   4.311   4.064
 8872SOL    HW227516   1.882   4.325   3.962
 8873SOL     OW27517   0.699   5.661   3.899
 8873SOL    HW127518   0.650   5.733   3.947
 8873SOL    HW227519   0.724   5.588   3.963
 8874SOL     OW27520   2.251   0.826   0.928
 8874SOL    HW127521   2.279   0.796   0.837
 8874SOL    HW227522   2.179   0.766   0.963
 8875SOL     OW27523   1.558   2.989   4.160
 8875SOL    HW127524   1.651   3.024   4.147
 8875SOL    HW227525   1.558   2.890   4.153
 8876SOL     OW27526   0.558   1.319   5.014
 8876SOL    HW127527   0.575   1.298   4.918
 8876SOL    HW227528   0.465   1.356   5.024
 8877SOL     OW27529   2.966   0.774   4.246
 8877SOL    HW127530   3.047   0.807   4.197
 8877SOL    HW227531   2.982   0.778   4.345
 8878SOL     OW27532   6.761   4.562   0.585
 8878SOL    HW127533   6.766   4.650   0.538
 8878SOL    HW227534   6.694   4.567   0.660
 8879SOL     OW27535   5.093   6.106   0.418
 8879SOL    HW127536   5.115   6.120   0.321
 8879SOL    HW227537   5.137   6.022   0.449
 8880SOL     OW27538   6.457   5.302   4.420
 8880SOL    HW127539   6.401   5.375   4.379
 8880SOL    HW227540   6.543   5.294   4.369
 8881SOL     OW27541   6.914   1.349   1.652
 8881SOL    HW127542   6.892   1.404   1.733
 8881SOL    HW227543   7.006   1.373   1.621
 8882SOL     OW27544   5.486   2.289   6.795
 8882SOL    HW127545   5.409   2.305   6.732
 8882SOL    HW227546   5.451   2.247   6.879
 8883SOL     OW27547   6.272   1.118   6.188
 8883SOL    HW127548   6.276   1.136   6.287
 8883SOL    HW227549   6.206   1.045   6.170
 8884SOL     OW27550   5.674   0.133   6.249
 8884SOL    HW127551   5.626   0.108   6.333
 8884SOL    HW227552   5.679   0.054   6.189
 8885SOL     OW27553   6.002   3.849   1.805
 8885SOL    HW127554   6.008   3.856   1.706
 8885SOL    HW227555   6.095   3.841   1.844
 8886SOL     OW27556   2.948   6.407   5.995
 8886SOL    HW127557   2.877   6.476   5.982
 8886SOL    HW227558   2.939   6.337   5.925
 8887SOL     OW27559   2.453   1.464   1.058
 8887SOL    HW127560   2.445   1.470   1.158
 8887SOL    HW227561   2.536   1.512   1.028
 8888SOL     OW27562   1.621   1.318   1.096
 8888SOL    HW127563   1.627   1.220   1.117
 8888SOL    HW227564   1.652   1.371   1.174
 8889SOL     OW27565   4.732   0.143   4.764
 8889SOL    HW127566   4.711   0.141   4.861
 8889SOL    HW227567   4.827   0.169   4.750
 8890SOL     OW27568   7.018   5.739   4.615
 8890SOL    HW127569   6.982   5.647   4.602
 8890SOL    HW227570   0.090   5.736   4.613
 8891SOL     OW27571   5.594   3.261   6.565
 8891SOL    HW127572   5.566   3.173   6.602
 8891SOL    HW227573   5.546   3.277   6.478
 8892SOL     OW27574   1.729   0.300   3.259
 8892SOL    HW127575   1.730   0.276   3.356
 8892SOL    HW227576   1.774   0.228   3.206
 8893SOL     OW27577   6.992   1.233   1.083
 8893SOL    HW127578   6.982   1.320   1.034
 8893SOL    HW227579   6.902   1.201   1.113
 8894SOL     OW27580   4.250   2.586   5.932
 8894SOL    HW127581   4.338   2.628   5.955
 8894SOL    HW227582   4.197   2.649   5.876
 8895SOL     OW27583   0.428   6.653   1.316
 8895SOL    HW127584   0.519   6.629   1.281
 8895SOL    HW227585   0.383   6.715   1.251
 8896SOL     OW27586   1.585   4.051   5.125
 8896SOL    HW127587   1.596   3.955   5.152
 8896SOL    HW227588   1.602   4.060   5.027
 8897SOL     OW27589   1.448   1.250   1.889
 8897SOL    HW127590   1.536   1.232   1.846
 8897SOL    HW227591   1.433   1.186   1.964
 8898SOL     OW27592   5.963   3.423   4.091
 8898SOL    HW127593   6.029   3.351   4.111
 8898SOL    HW227594   5.997   3.510   4.125
 8899SOL     OW27595   1.993   4.418   6.787
 8899SOL    HW127596   1.902   4.458   6.770
 8899SOL    HW227597   1.989   4.360   6.868
 8900SOL     OW27598   4.682   2.492   3.140
 8900SOL    HW127599   4.604   2.462   3.085
 8900SOL    HW227600   4.665   2.583   3.177
 8901SOL     OW27601   1.366   0.529   2.636
 8901SOL    HW127602   1.444   0.584   2.666
 8901SOL    HW227603   1.399   0.445   2.594
 8902SOL     OW27604   1.769   5.338   6.369
 8902SOL    HW127605   1.761   5.433   6.340
 8902SOL    HW227606   1.710   5.322   6.449
 8903SOL     OW27607   2.347   1.576   3.930
 8903SOL    HW127608   2.318   1.546   3.839
 8903SOL    HW227609   2.446   1.589   3.932
 8904SOL     OW27610   0.082   5.716   4.086
 8904SOL    HW127611   0.116   5.790   4.028
 8904SOL    HW227612   7.014   5.697   4.064
 8905SOL     OW27613   2.111   3.439   5.497
 8905SOL    HW127614   2.118   3.397   5.406
 8905SOL    HW227615   2.067   3.375   5.560
 8906SOL     OW27616   6.742   6.397   6.203
 8906SOL    HW127617   6.646   6.370   6.199
 8906SOL    HW227618   6.781   6.396   6.111
 8907SOL     OW27619   3.283   2.650   5.277
 8907SOL    HW127620   3.240   2.567   5.241
 8907SOL    HW227621   3.236   2.731   5.242
 8908SOL     OW27622   1.525   2.136   1.249
 8908SOL    HW127623   1.592   2.078   1.296
 8908SOL    HW227624   1.565   2.171   1.164
 8909SOL     OW27625   3.026   0.747   6.011
 8909SOL    HW127626   3.080   0.696   5.944
 8909SOL    HW227627   2.930   0.719   6.006
 8910SOL     OW27628   2.979   3.327   6.624
 8910SOL    HW127629   2.911   3.279   6.568
 8910SOL    HW227630   2.932   3.383   6.692
 8911SOL     OW27631   3.060   2.131   4.557
 8911SOL    HW127632   3.060   2.123   4.657
 8911SOL    HW227633   3.153   2.151   4.526
 8912SOL     OW27634   4.666   1.817   5.929
 8912SOL    HW127635   4.632   1.780   6.016
 8912SOL    HW227636   4.591   1.860   5.879
 8913SOL     OW27637   5.132   4.479   1.982
 8913SOL    HW127638   5.110   4.532   1.900
 8913SOL    HW227639   5.072   4.507   2.057
 8914SOL     OW27640   3.759   1.714   4.856
 8914SOL    HW127641   3.818   1.636   4.877
 8914SOL    HW227642   3.812   1.785   4.810
 8915SOL     OW27643   2.041   3.172   3.644
 8915SOL    HW127644   2.126   3.160   3.695
 8915SOL    HW227645   1.963   3.155   3.705
 8916SOL     OW27646   6.938   4.569   2.622
 8916SOL    HW127647   6.981   4.602   2.705
 8916SOL    HW227648   6.994   4.594   2.543
 8917SOL     OW27649   6.180   5.857   6.245
 8917SOL    HW127650   6.238   5.920   6.296
 8917SOL    HW227651   6.154   5.780   6.304
 8918SOL     OW27652   5.553   6.378   6.981
 8918SOL    HW127653   5.651   6.374   6.998
 8918SOL    HW227654   5.530   6.462   6.933
 8919SOL     OW27655   3.446   4.326   0.859
 8919SOL    HW127656   3.370   4.265   0.839
 8919SOL    HW227657   3.471   4.377   0.777
 8920SOL     OW27658   6.111   5.526   6.173
 8920SOL    HW127659   6.113   5.549   6.271
 8920SOL    HW227660   6.045   5.585   6.127
 8921SOL     OW27661   1.583   0.960   3.714
 8921SOL    HW127662   1.493   0.928   3.684
 8921SOL    HW227663   1.629   1.005   3.638
 8922SOL     OW27664   1.872   4.791   0.858
 8922SOL    HW127665   1.923   4.714   0.898
 8922SOL    HW227666   1.898   4.800   0.762
 8923SOL     OW27667   1.901   3.606   6.634
 8923SOL    HW127668   1.882   3.667   6.557
 8923SOL    HW227669   1.975   3.645   6.690
 8924SOL     OW27670   3.132   5.066   5.486
 8924SOL    HW127671   3.033   5.067   5.503
 8924SOL    HW227672   3.178   5.014   5.558
 8925SOL     OW27673   6.664   6.901   2.218
 8925SOL    HW127674   6.707   6.845   2.289
 8925SOL    HW227675   6.583   6.946   2.255
 8926SOL     OW27676   5.472   1.893   1.806
 8926SOL    HW127677   5.512   1.984   1.819
 8926SOL    HW227678   5.519   1.846   1.731
 8927SOL     OW27679   2.512   2.719   5.247
 8927SOL    HW127680   2.570   2.800   5.261
 8927SOL    HW227681   2.440   2.740   5.181
 8928SOL     OW27682   0.479   0.777   5.639
 8928SOL    HW127683   0.427   0.862   5.628
 8928SOL    HW227684   0.415   0.701   5.652
 8929SOL     OW27685   6.783   3.859   4.457
 8929SOL    HW127686   6.862   3.798   4.469
 8929SOL    HW227687   6.815   3.947   4.422
 8930SOL     OW27688   1.352   5.671   4.749
 8930SOL    HW127689   1.265   5.720   4.762
 8930SOL    HW227690   1.338   5.594   4.687
 8931SOL     OW27691   5.122   1.569   1.551
 8931SOL    HW127692   5.165   1.568   1.461
 8931SOL    HW227693   5.027   1.538   1.542
 8932SOL     OW27694   6.142   0.428   6.537
 8932SOL    HW127695   6.057   0.379   6.559
 8932SOL    HW227696   6.191   0.448   6.621
 8933SOL     OW27697   1.157   1.175   4.902
 8933SOL    HW127698   1.084   1.158   4.835
 8933SOL    HW227699   1.243   1.136   4.868
 8934SOL     OW27700   3.841   5.520   3.207
 8934SOL    HW127701   3.851   5.557   3.300
 8934SOL    HW227702   3.750   5.480   3.197
 8935SOL     OW27703   4.686   2.635   2.692
 8935SOL    HW127704   4.734   2.658   2.607
 8935SOL    HW227705   4.607   2.577   2.671
 8936SOL     OW27706   0.486   4.648   1.017
 8936SOL    HW127707   0.404   4.706   1.023
 8936SOL    HW227708   0.486   4.583   1.093
 8937SOL     OW27709   0.441   6.739   4.262
 8937SOL    HW127710   0.439   6.672   4.336
 8937SOL    HW227711   0.373   6.714   4.193
 8938SOL     OW27712   6.149   0.888   0.469
 8938SOL    HW127713   6.220   0.831   0.509
 8938SOL    HW227714   6.091   0.925   0.541
 8939SOL     OW27715   0.089   2.887   4.275
 8939SOL    HW127716   0.103   2.790   4.295
 8939SOL    HW227717   0.147   2.914   4.198
 8940SOL     OW27718   0.328   3.363   0.884
 8940SOL    HW127719   0.367   3.292   0.826
 8940SOL    HW227720   0.232   3.343   0.902
 8941SOL     OW27721   5.302   2.448   2.117
 8941SOL    HW127722   5.311   2.526   2.179
 8941SOL    HW227723   5.294   2.481   2.023
 8942SOL     OW27724   6.286   4.702   3.941
 8942SOL    HW127725   6.211   4.761   3.912
 8942SOL    HW227726   6.295   4.706   4.041
 8943SOL     OW27727   4.300   3.600   0.492
 8943SOL    HW127728   4.202   3.590   0.477
 8943SOL    HW227729   4.342   3.644   0.413
 8944SOL     OW27730   4.291   5.520   4.468
 8944SOL    HW127731   4.223   5.592   4.484
 8944SOL    HW227732   4.312   5.515   4.370
 8945SOL     OW27733   6.197   3.456   4.791
 8945SOL    HW127734   6.129   3.497   4.730
 8945SOL    HW227735   6.151   3.408   4.866
 8946SOL     OW27736   5.234   1.177   4.314
 8946SOL    HW127737   5.199   1.109   4.250
 8946SOL    HW227738   5.332   1.191   4.298
 8947SOL     OW27739   1.408   4.651   6.011
 8947SOL    HW127740   1.382   4.650   5.915
 8947SOL    HW227741   1.362   4.726   6.058
 8948SOL     OW27742   6.658   0.243   3.516
 8948SOL    HW127743   6.632   0.307   3.588
 8948SOL    HW227744   6.740   0.277   3.468
 8949SOL     OW27745   3.348   6.216   0.202
 8949SOL    HW127746   3.263   6.210   0.255
 8949SOL    HW227747   3.423   6.240   0.263
 8950SOL     OW27748   4.498   4.641   1.666
 8950SOL    HW127749   4.511   4.739   1.681
 8950SOL    HW227750   4.504   4.620   1.569
 8951SOL     OW27751   2.410   1.227   4.357
 8951SOL    HW127752   2.410   1.295   4.284
 8951SOL    HW227753   2.380   1.139   4.321
 8952SOL     OW27754   2.275   4.747   3.385
 8952SOL    HW127755   2.272   4.826   3.324
 8952SOL    HW227756   2.213   4.761   3.462
 8953SOL     OW27757   2.553   4.896   2.280
 8953SOL    HW127758   2.611   4.955   2.225
 8953SOL    HW227759   2.458   4.929   2.275
 8954SOL     OW27760   0.919   5.526   5.093
 8954SOL    HW127761   0.858   5.452   5.121
 8954SOL    HW227762   0.996   5.531   5.157
 8955SOL     OW27763   5.260   2.593   3.677
 8955SOL    HW127764   5.279   2.508   3.628
 8955SOL    HW227765   5.334   2.658   3.660
 8956SOL     OW27766   0.971   5.927   6.115
 8956SOL    HW127767   1.005   5.905   6.024
 8956SOL    HW227768   0.910   6.007   6.110
 8957SOL     OW27769   1.167   5.345   2.044
 8957SOL    HW127770   1.088   5.391   2.083
 8957SOL    HW227771   1.241   5.343   2.111
 8958SOL     OW27772   1.617   3.517   5.395
 8958SOL    HW127773   1.673   3.446   5.437
 8958SOL    HW227774   1.672   3.600   5.384
 8959SOL     OW27775   0.704   3.222   2.317
 8959SOL    HW127776   0.795   3.184   2.336
 8959SOL    HW227777   0.634   3.154   2.337
 8960SOL     OW27778   5.638   3.974   4.144
 8960SOL    HW127779   5.667   3.977   4.049
 8960SOL    HW227780   5.703   3.918   4.196
 8961SOL     OW27781   3.366   6.842   4.900
 8961SOL    HW127782   3.395   6.748   4.882
 8961SOL    HW227783   3.268   6.844   4.918
 8962SOL     OW27784   0.815   5.690   1.492
 8962SOL    HW127785   0.906   5.707   1.530
 8962SOL    HW227786   0.824   5.636   1.408
 8963SOL     OW27787   3.391   6.209   4.540
 8963SOL    HW127788   3.441   6.260   4.610
 8963SOL    HW227789   3.374   6.116   4.571
 8964SOL     OW27790   6.977   3.678   4.180
 8964SOL    HW127791   0.013   3.671   4.257
 8964SOL    HW227792   7.010   3.746   4.115
 8965SOL     OW27793   4.196   4.880   0.053
 8965SOL    HW127794   4.158   4.796   0.091
 8965SOL    HW227795   4.169   4.958   0.110
 8966SOL     OW27796   5.207   5.717   6.271
 8966SOL    HW127797   5.116   5.759   6.270
 8966SOL    HW227798   5.223   5.676   6.360
 8967SOL     OW27799   3.576   0.626   3.221
 8967SOL    HW127800   3.639   0.549   3.218
 8967SOL    HW227801   3.535   0.639   3.131
 8968SOL     OW27802   3.553   5.082   1.918
 8968SOL    HW127803   3.453   5.080   1.928
 8968SOL    HW227804   3.582   5.174   1.895
 8969SOL     OW27805   0.040   0.814   2.818
 8969SOL    HW127806   6.979   0.861   2.811
 8969SOL    HW227807   0.109   0.878   2.852
 8970SOL     OW27808   1.505   1.220   6.260
 8970SOL    HW127809   1.494   1.318   6.247
 8970SOL    HW227810   1.574   1.204   6.330
 8971SOL     OW27811   4.346   5.639   0.529
 8971SOL    HW127812   4.364   5.582   0.609
 8971SOL    HW227813   4.335   5.581   0.448
 8972SOL     OW27814   5.713   4.650   0.875
 8972SOL    HW127815   5.754   4.558   0.877
 8972SOL    HW227816   5.735   4.694   0.788
 8973SOL     OW27817   0.557   2.239   2.238
 8973SOL    HW127818   0.487   2.310   2.230
 8973SOL    HW227819   0.613   2.238   2.156
 8974SOL     OW27820   2.313   4.273   4.415
 8974SOL    HW127821   2.328   4.178   4.388
 8974SOL    HW227822   2.224   4.282   4.459
 8975SOL     OW27823   0.475   0.661   6.361
 8975SOL    HW127824   0.569   0.628   6.367
 8975SOL    HW227825   0.464   0.717   6.279
 8976SOL     OW27826   6.806   6.959   1.359
 8976SOL    HW127827   6.806   6.865   1.325
 8976SOL    HW227828   6.895   6.980   1.399
 8977SOL     OW27829   6.946   5.009   6.202
 8977SOL    HW127830   6.886   4.936   6.236
 8977SOL    HW227831   6.893   5.093   6.190
 8978SOL     OW27832   6.052   5.615   5.796
 8978SOL    HW127833   6.112   5.594   5.873
 8978SOL    HW227834   6.020   5.530   5.755
 8979SOL     OW27835   0.996   5.474   5.814
 8979SOL    HW127836   1.021   5.377   5.806
 8979SOL    HW227837   1.004   5.502   5.909
 8980SOL     OW27838   3.739   1.179   4.857
 8980SOL    HW127839   3.788   1.165   4.771
 8980SOL    HW227840   3.701   1.271   4.859
 8981SOL     OW27841   4.365   2.791   6.343
 8981SOL    HW127842   4.282   2.791   6.288
 8981SOL    HW227843   4.443   2.819   6.286
 8982SOL     OW27844   6.802   1.431   1.270
 8982SOL    HW127845   6.749   1.491   1.330
 8982SOL    HW227846   6.822   1.345   1.318
 8983SOL     OW27847   0.929   5.939   2.941
 8983SOL    HW127848   0.893   6.028   2.913
 8983SOL    HW227849   1.025   5.932   2.913
 8984SOL     OW27850   5.954   0.496   4.137
 8984SOL    HW127851   5.883   0.427   4.124
 8984SOL    HW227852   6.011   0.471   4.215
 8985SOL     OW27853   4.869   2.152   0.609
 8985SOL    HW127854   4.969   2.158   0.612
 8985SOL    HW227855   4.834   2.211   0.537
 8986SOL     OW27856   6.549   4.629   1.484
 8986SOL    HW127857   6.467   4.686   1.476
 8986SOL    HW227858   6.591   4.644   1.574
 8987SOL     OW27859   2.414   6.761   1.124
 8987SOL    HW127860   2.331   6.789   1.075
 8987SOL    HW227861   2.426   6.662   1.116
 8988SOL     OW27862   1.663   4.900   1.293
 8988SOL    HW127863   1.749   4.851   1.278
 8988SOL    HW227864   1.624   4.925   1.204
 8989SOL     OW27865   5.683   1.829   1.603
 8989SOL    HW127866   5.677   1.882   1.519
 8989SOL    HW227867   5.752   1.870   1.663
 8990SOL     OW27868   3.138   6.737   1.683
 8990SOL    HW127869   3.056   6.758   1.629
 8990SOL    HW227870   3.207   6.807   1.666
 8991SOL     OW27871   1.847   2.274   0.776
 8991SOL    HW127872   1.892   2.253   0.689
 8991SOL    HW227873   1.805   2.365   0.771
 8992SOL     OW27874   0.561   3.989   6.609
 8992SOL    HW127875   0.562   3.889   6.609
 8992SOL    HW227876   0.533   4.022   6.519
 8993SOL     OW27877   5.703   2.428   3.292
 8993SOL    HW127878   5.629   2.363   3.310
 8993SOL    HW227879   5.711   2.491   3.369
 8994SOL     OW27880   1.076   5.032   3.894
 8994SOL    HW127881   0.999   5.011   3.833
 8994SOL    HW227882   1.162   5.023   3.844
 8995SOL     OW27883   1.814   3.617   5.128
 8995SOL    HW127884   1.785   3.525   5.155
 8995SOL    HW227885   1.887   3.648   5.188
 8996SOL     OW27886   0.561   3.898   2.531
 8996SOL    HW127887   0.638   3.836   2.515
 8996SOL    HW227888   0.596   3.984   2.568
 8997SOL     OW27889   4.317   1.182   4.956
 8997SOL    HW127890   4.341   1.091   4.990
 8997SOL    HW227891   4.218   1.186   4.942
 8998SOL     OW27892   1.586   2.493   5.652
 8998SOL    HW127893   1.639   2.456   5.576
 8998SOL    HW227894   1.590   2.593   5.649
 8999SOL     OW27895   5.632   1.308   5.366
 8999SOL    HW127896   5.578   1.372   5.312
 8999SOL    HW227897   5.698   1.358   5.422
 9000SOL     OW27898   3.389   4.187   0.502
 9000SOL    HW127899   3.456   4.137   0.555
 9000SOL    HW227900   3.311   4.210   0.560
 9001SOL     OW27901   2.075   4.676   4.031
 9001SOL    HW127902   2.096   4.762   3.984
 9001SOL    HW227903   2.150   4.654   4.094
 9002SOL     OW27904   5.874   4.691   6.203
 9002SOL    HW127905   5.940   4.677   6.129
 9002SOL    HW227906   5.781   4.682   6.168
 9003SOL     OW27907   6.492   3.005   6.953
 9003SOL    HW127908   6.485   3.105   6.942
 9003SOL    HW227909   6.413   2.962   6.910
 9004SOL     OW27910   4.690   6.328   1.348
 9004SOL    HW127911   4.593   6.325   1.324
 9004SOL    HW227912   4.704   6.283   1.435
 9005SOL     OW27913   5.146   1.990   3.485
 9005SOL    HW127914   5.207   2.012   3.409
 9005SOL    HW227915   5.055   2.026   3.466
 9006SOL     OW27916   1.279   5.232   1.185
 9006SOL    HW127917   1.321   5.205   1.272
 9006SOL    HW227918   1.256   5.329   1.188
 9007SOL     OW27919   3.357   5.618   3.969
 9007SOL    HW127920   3.393   5.703   3.930
 9007SOL    HW227921   3.414   5.590   4.046
 9008SOL     OW27922   0.014   4.180   2.076
 9008SOL    HW127923   0.010   4.107   2.008
 9008SOL    HW227924   6.966   4.243   2.063
 9009SOL     OW27925   2.603   6.011   0.614
 9009SOL    HW127926   2.645   6.102   0.603
 9009SOL    HW227927   2.668   5.951   0.660
 9010SOL     OW27928   0.227   6.349   5.143
 9010SOL    HW127929   0.130   6.363   5.120
 9010SOL    HW227930   0.284   6.386   5.069
 9011SOL     OW27931   4.249   1.822   1.011
 9011SOL    HW127932   4.299   1.850   0.929
 9011SOL    HW227933   4.222   1.903   1.062
 9012SOL     OW27934   0.697   5.341   1.799
 9012SOL    HW127935   0.693   5.364   1.896
 9012SOL    HW227936   0.741   5.416   1.749
 9013SOL     OW27937   6.499   5.907   3.265
 9013SOL    HW127938   6.571   5.943   3.324
 9013SOL    HW227939   6.486   5.969   3.187
 9014SOL     OW27940   1.402   0.554   0.910
 9014SOL    HW127941   1.483   0.496   0.900
 9014SOL    HW227942   1.319   0.499   0.895
 9015SOL     OW27943   0.404   1.163   6.044
 9015SOL    HW127944   0.320   1.216   6.038
 9015SOL    HW227945   0.386   1.068   6.018
 9016SOL     OW27946   6.499   6.013   6.167
 9016SOL    HW127947   6.448   5.927   6.159
 9016SOL    HW227948   6.503   6.042   6.262
 9017SOL     OW27949   6.284   2.253   3.850
 9017SOL    HW127950   6.215   2.324   3.860
 9017SOL    HW227951   6.245   2.164   3.872
 9018SOL     OW27952   3.483   2.055   5.200
 9018SOL    HW127953   3.534   1.972   5.221
 9018SOL    HW227954   3.471   2.064   5.102
 9019SOL     OW27955   2.558   6.207   0.359
 9019SOL    HW127956   2.510   6.130   0.316
 9019SOL    HW227957   2.490   6.274   0.389
 9020SOL     OW27958   1.750   4.579   2.788
 9020SOL    HW127959   1.760   4.610   2.694
 9020SOL    HW227960   1.663   4.530   2.798
 9021SOL     OW27961   6.939   5.473   4.538
 9021SOL    HW127962   6.972   5.403   4.601
 9021SOL    HW227963   6.944   5.438   4.444
 9022SOL     OW27964   2.681   0.761   0.506
 9022SOL    HW127965   2.618   0.757   0.428
 9022SOL    HW227966   2.635   0.724   0.587
 9023SOL     OW27967   3.294   3.360   3.843
 9023SOL    HW127968   3.389   3.342   3.819
 9023SOL    HW227969   3.279   3.459   3.845
 9024SOL     OW27970   1.581   6.400   5.869
 9024SOL    HW127971   1.676   6.423   5.892
 9024SOL    HW227972   1.521   6.432   5.943
 9025SOL     OW27973   6.211   4.692   1.768
 9025SOL    HW127974   6.243   4.786   1.780
 9025SOL    HW227975   6.163   4.663   1.851
 9026SOL     OW27976   3.687   2.866   4.799
 9026SOL    HW127977   3.764   2.802   4.798
 9026SOL    HW227978   3.694   2.926   4.879
 9027SOL     OW27979   2.780   2.278   3.136
 9027SOL    HW127980   2.753   2.337   3.212
 9027SOL    HW227981   2.699   2.248   3.086
 9028SOL     OW27982   2.715   4.700   5.279
 9028SOL    HW127983   2.796   4.645   5.259
 9028SOL    HW227984   2.667   4.720   5.194
 9029SOL     OW27985   4.899   5.883   3.368
 9029SOL    HW127986   4.890   5.785   3.387
 9029SOL    HW227987   4.912   5.897   3.270
 9030SOL     OW27988   2.327   0.837   2.477
 9030SOL    HW127989   2.311   0.924   2.430
 9030SOL    HW227990   2.254   0.822   2.544
 9031SOL     OW27991   2.396   6.288   5.661
 9031SOL    HW127992   2.328   6.339   5.609
 9031SOL    HW227993   2.373   6.291   5.759
 9032SOL     OW27994   2.875   2.111   1.577
 9032SOL    HW127995   2.968   2.134   1.608
 9032SOL    HW227996   2.864   2.012   1.576
 9033SOL     OW27997   1.596   3.428   3.541
 9033SOL    HW127998   1.689   3.422   3.578
 9033SOL    HW227999   1.597   3.482   3.457
 9034SOL     OW28000   2.890   6.243   5.718
 9034SOL    HW128001   2.872   6.337   5.688
 9034SOL    HW228002   2.809   6.187   5.701
 9035SOL     OW28003   6.956   1.099   4.003
 9035SOL    HW128004   6.976   1.065   4.095
 9035SOL    HW228005   7.006   1.045   3.935
 9036SOL     OW28006   1.118   2.919   5.594
 9036SOL    HW128007   1.058   2.884   5.522
 9036SOL    HW228008   1.120   3.019   5.589
 9037SOL     OW28009   2.621   4.287   6.587
 9037SOL    HW128010   2.683   4.217   6.551
 9037SOL    HW228011   2.544   4.299   6.524
 9038SOL     OW28012   4.619   6.479   4.983
 9038SOL    HW128013   4.589   6.384   4.991
 9038SOL    HW228014   4.562   6.526   4.916
 9039SOL     OW28015   2.111   4.936   4.838
 9039SOL    HW128016   2.104   4.971   4.745
 9039SOL    HW228017   2.140   5.009   4.900
 9040SOL     OW28018   2.235   1.917   2.372
 9040SOL    HW128019   2.226   1.827   2.415
 9040SOL    HW228020   2.232   1.988   2.442
 9041SOL     OW28021   1.074   2.707   1.059
 9041SOL    HW128022   1.013   2.783   1.080
 9041SOL    HW228023   1.023   2.637   1.008
 9042SOL     OW28024   2.809   5.208   3.128
 9042SOL    HW128025   2.796   5.272   3.053
 9042SOL    HW228026   2.805   5.114   3.094
 9043SOL     OW28027   0.875   2.776   5.937
 9043SOL    HW128028   0.970   2.784   5.905
 9043SOL    HW228029   0.865   2.827   6.023
 9044SOL     OW28030   6.198   0.382   0.697
 9044SOL    HW128031   6.190   0.434   0.782
 9044SOL    HW228032   6.287   0.401   0.655
 9045SOL     OW28033   3.069   0.189   3.327
 9045SOL    HW128034   2.983   0.230   3.298
 9045SOL    HW228035   3.059   0.089   3.329
 9046SOL     OW28036   3.342   4.319   5.606
 9046SOL    HW128037   3.295   4.331   5.694
 9046SOL    HW228038   3.291   4.365   5.534
 9047SOL     OW28039   1.343   4.010   4.366
 9047SOL    HW128040   1.255   4.027   4.410
 9047SOL    HW228041   1.329   3.955   4.284
 9048SOL     OW28042   1.411   3.613   5.066
 9048SOL    HW128043   1.486   3.673   5.092
 9048SOL    HW228044   1.374   3.567   5.147
 9049SOL     OW28045   5.716   6.205   6.024
 9049SOL    HW128046   5.717   6.109   5.994
 9049SOL    HW228047   5.809   6.241   6.025
 9050SOL     OW28048   0.104   4.973   0.119
 9050SOL    HW128049   0.169   4.930   0.182
 9050SOL    HW228050   0.103   4.922   0.033
 9051SOL     OW28051   5.508   5.943   0.136
 9051SOL    HW128052   5.499   5.892   0.221
 9051SOL    HW228053   5.547   5.884   0.065
 9052SOL     OW28054   2.677   4.891   4.610
 9052SOL    HW128055   2.583   4.885   4.642
 9052SOL    HW228056   2.681   4.866   4.513
 9053SOL     OW28057   2.433   2.713   4.025
 9053SOL    HW128058   2.484   2.630   4.044
 9053SOL    HW228059   2.420   2.765   4.109
 9054SOL     OW28060   1.906   0.218   2.208
 9054SOL    HW128061   1.846   0.275   2.264
 9054SOL    HW228062   1.997   0.261   2.202
 9055SOL     OW28063   0.668   2.459   4.153
 9055SOL    HW128064   0.725   2.425   4.079
 9055SOL    HW228065   0.722   2.466   4.237
 9056SOL     OW28066   4.956   0.292   2.644
 9056SOL    HW128067   5.034   0.233   2.665
 9056SOL    HW228068   4.892   0.243   2.585
 9057SOL     OW28069   6.228   5.780   0.115
 9057SOL    HW128070   6.220   5.750   0.210
 9057SOL    HW228071   6.216   5.701   0.054
 9058SOL     OW28072   1.908   2.891   5.170
 9058SOL    HW128073   1.918   2.846   5.259
 9058SOL    HW228074   1.997   2.922   5.138
 9059SOL     OW28075   6.574   1.911   3.019
 9059SOL    HW128076   6.585   2.010   3.020
 9059SOL    HW228077   6.478   1.888   3.003
 9060SOL     OW28078   0.158   3.260   1.850
 9060SOL    HW128079   0.100   3.181   1.832
 9060SOL    HW228080   0.136   3.332   1.784
 9061SOL     OW28081   4.654   5.779   2.367
 9061SOL    HW128082   4.715   5.790   2.446
 9061SOL    HW228083   4.682   5.698   2.315
 9062SOL     OW28084   0.982   4.395   3.508
 9062SOL    HW128085   0.985   4.422   3.604
 9062SOL    HW228086   1.073   4.404   3.468
 9063SOL     OW28087   2.898   0.901   2.792
 9063SOL    HW128088   2.917   0.809   2.827
 9063SOL    HW228089   2.936   0.969   2.856
 9064SOL     OW28090   0.601   4.303   3.514
 9064SOL    HW128091   0.517   4.261   3.480
 9064SOL    HW228092   0.678   4.243   3.495
 9065SOL     OW28093   2.996   6.272   4.997
 9065SOL    HW128094   3.077   6.303   4.949
 9065SOL    HW228095   3.007   6.290   5.095
 9066SOL     OW28096   5.876   5.718   6.208
 9066SOL    HW128097   5.821   5.651   6.258
 9066SOL    HW228098   5.841   5.727   6.115
 9067SOL     OW28099   6.382   0.294   4.366
 9067SOL    HW128100   6.448   0.311   4.440
 9067SOL    HW228101   6.330   0.212   4.386
 9068SOL     OW28102   5.148   0.417   5.037
 9068SOL    HW128103   5.129   0.511   5.065
 9068SOL    HW228104   5.234   0.387   5.079
 9069SOL     OW28105   4.870   2.136   2.141
 9069SOL    HW128106   4.829   2.170   2.225
 9069SOL    HW228107   4.925   2.055   2.161
 9070SOL     OW28108   1.186   2.226   5.820
 9070SOL    HW128109   1.259   2.271   5.769
 9070SOL    HW228110   1.110   2.205   5.759
 9071SOL     OW28111   4.454   1.220   5.807
 9071SOL    HW128112   4.466   1.213   5.906
 9071SOL    HW228113   4.534   1.265   5.767
 9072SOL     OW28114   4.992   0.190   1.599
 9072SOL    HW128115   4.940   0.266   1.560
 9072SOL    HW228116   5.063   0.162   1.534
 9073SOL     OW28117   4.023   0.550   6.752
 9073SOL    HW128118   4.057   0.595   6.834
 9073SOL    HW228119   4.100   0.533   6.690
 9074SOL     OW28120   1.294   6.883   1.058
 9074SOL    HW128121   1.304   6.836   0.971
 9074SOL    HW228122   1.274   6.979   1.043
 9075SOL     OW28123   6.725   0.723   1.426
 9075SOL    HW128124   6.758   0.698   1.517
 9075SOL    HW228125   6.800   0.765   1.374
 9076SOL     OW28126   5.158   0.133   2.503
 9076SOL    HW128127   5.109   0.197   2.444
 9076SOL    HW228128   5.233   0.180   2.549
 9077SOL     OW28129   5.134   1.210   5.808
 9077SOL    HW128130   5.157   1.257   5.722
 9077SOL    HW228131   5.186   1.251   5.883
 9078SOL     OW28132   5.000   5.615   6.993
 9078SOL    HW128133   4.964   5.641   0.055
 9078SOL    HW228134   4.934   5.557   6.946
 9079SOL     OW28135   1.306   0.472   5.583
 9079SOL    HW128136   1.405   0.481   5.588
 9079SOL    HW228137   1.266   0.556   5.547
 9080SOL     OW28138   6.798   3.658   0.695
 9080SOL    HW128139   6.749   3.649   0.609
 9080SOL    HW228140   6.825   3.567   0.727
 9081SOL     OW28141   3.603   1.774   1.830
 9081SOL    HW128142   3.624   1.697   1.890
 9081SOL    HW228143   3.510   1.805   1.848
 9082SOL     OW28144   3.425   5.770   6.164
 9082SOL    HW128145   3.379   5.701   6.219
 9082SOL    HW228146   3.382   5.859   6.179
 9083SOL     OW28147   4.852   5.047   6.128
 9083SOL    HW128148   4.841   5.125   6.066
 9083SOL    HW228149   4.897   4.972   6.079
 9084SOL     OW28150   0.820   2.697   5.664
 9084SOL    HW128151   0.912   2.696   5.625
 9084SOL    HW228152   0.824   2.737   5.756
 9085SOL     OW28153   2.864   4.820   0.071
 9085SOL    HW128154   2.818   4.849   7.015
 9085SOL    HW228155   2.962   4.811   0.054
 9086SOL     OW28156   6.760   4.318   0.831
 9086SOL    HW128157   6.835   4.258   0.802
 9086SOL    HW228158   6.674   4.267   0.830
 9087SOL     OW28159   6.039   2.377   2.162
 9087SOL    HW128160   5.984   2.460   2.173
 9087SOL    HW228161   6.093   2.384   2.078
 9088SOL     OW28162   6.220   0.492   1.687
 9088SOL    HW128163   6.271   0.434   1.624
 9088SOL    HW228164   6.168   0.435   1.750
 9089SOL     OW28165   4.374   5.407   3.805
 9089SOL    HW128166   4.313   5.477   3.843
 9089SOL    HW228167   4.455   5.451   3.767
 9090SOL     OW28168   5.561   6.279   4.536
 9090SOL    HW128169   5.609   6.287   4.449
 9090SOL    HW228170   5.628   6.275   4.611
 9091SOL     OW28171   3.628   2.172   0.490
 9091SOL    HW128172   3.676   2.119   0.560
 9091SOL    HW228173   3.543   2.208   0.529
 9092SOL     OW28174   1.176   6.946   5.756
 9092SOL    HW128175   1.136   6.895   5.679
 9092SOL    HW228176   1.225   6.883   5.816
 9093SOL     OW28177   1.414   5.980   0.308
 9093SOL    HW128178   1.467   5.902   0.275
 9093SOL    HW228179   1.334   5.993   0.248
 9094SOL     OW28180   0.138   5.890   2.022
 9094SOL    HW128181   0.127   5.839   1.937
 9094SOL    HW228182   0.183   5.977   2.003
 9095SOL     OW28183   5.232   3.293   6.641
 9095SOL    HW128184   5.196   3.386   6.625
 9095SOL    HW228185   5.176   3.248   6.710
 9096SOL     OW28186   5.479   3.160   2.895
 9096SOL    HW128187   5.516   3.124   2.981
 9096SOL    HW228188   5.533   3.240   2.868
 9097SOL     OW28189   1.040   3.738   6.880
 9097SOL    HW128190   0.954   3.734   6.828
 9097SOL    HW228191   1.114   3.766   6.819
 9098SOL     OW28192   3.675   3.917   1.827
 9098SOL    HW128193   3.710   3.943   1.737
 9098SOL    HW228194   3.715   3.977   1.897
 9099SOL     OW28195   3.273   3.304   1.106
 9099SOL    HW128196   3.288   3.212   1.141
 9099SOL    HW228197   3.258   3.301   1.007
 9100SOL     OW28198   0.576   2.885   1.731
 9100SOL    HW128199   0.478   2.867   1.723
 9100SOL    HW228200   0.591   2.960   1.795
 9101SOL     OW28201   2.197   3.045   2.888
 9101SOL    HW128202   2.249   2.964   2.917
 9101SOL    HW228203   2.186   3.044   2.789
 9102SOL     OW28204   3.628   5.691   2.666
 9102SOL    HW128205   3.661   5.763   2.605
 9102SOL    HW228206   3.565   5.631   2.617
 9103SOL     OW28207   0.291   3.669   0.891
 9103SOL    HW128208   0.213   3.626   0.846
 9103SOL    HW228209   0.372   3.613   0.877
 9104SOL     OW28210   3.635   6.126   1.733
 9104SOL    HW128211   3.689   6.206   1.759
 9104SOL    HW228212   3.613   6.131   1.636
 9105SOL     OW28213   1.694   0.662   6.685
 9105SOL    HW128214   1.720   0.750   6.645
 9105SOL    HW228215   1.603   0.636   6.653
 9106SOL     OW28216   5.831   4.326   0.560
 9106SOL    HW128217   5.909   4.263   0.568
 9106SOL    HW228218   5.755   4.279   0.515
 9107SOL     OW28219   4.197   6.965   6.820
 9107SOL    HW128220   4.265   7.020   6.770
 9107SOL    HW228221   4.151   6.904   6.755
 9108SOL     OW28222   4.825   4.467   5.160
 9108SOL    HW128223   4.829   4.402   5.236
 9108SOL    HW228224   4.918   4.491   5.132
 9109SOL     OW28225   2.098   1.778   2.988
 9109SOL    HW128226   2.116   1.846   2.916
 9109SOL    HW228227   2.136   1.690   2.960
 9110SOL     OW28228   2.407   4.639   3.798
 9110SOL    HW128229   2.459   4.616   3.715
 9110SOL    HW228230   2.336   4.705   3.775
 9111SOL     OW28231   3.661   3.810   1.181
 9111SOL    HW128232   3.680   3.716   1.152
 9111SOL    HW228233   3.682   3.820   1.278
 9112SOL     OW28234   0.488   3.823   3.356
 9112SOL    HW128235   0.496   3.835   3.257
 9112SOL    HW228236   0.455   3.731   3.377
 9113SOL     OW28237   4.555   0.839   7.015
 9113SOL    HW128238   4.571   0.925   0.037
 9113SOL    HW228239   4.461   0.809   0.003
 9114SOL     OW28240   1.985   4.846   2.596
 9114SOL    HW128241   2.073   4.877   2.560
 9114SOL    HW228242   1.975   4.878   2.690
 9115SOL     OW28243   1.312   5.032   4.983
 9115SOL    HW128244   1.272   5.118   5.015
 9115SOL    HW228245   1.381   5.052   4.912
 9116SOL     OW28246   6.863   1.946   0.084
 9116SOL    HW128247   6.841   2.043   0.094
 9116SOL    HW228248   6.852   1.919   7.016
 9117SOL     OW28249   6.037   3.356   6.655
 9117SOL    HW128250   5.982   3.424   6.703
 9117SOL    HW228251   6.102   3.315   6.719
 9118SOL     OW28252   5.826   6.882   0.584
 9118SOL    HW128253   5.905   6.928   0.624
 9118SOL    HW228254   5.839   6.783   0.588
 9119SOL     OW28255   5.961   1.413   2.561
 9119SOL    HW128256   5.931   1.379   2.472
 9119SOL    HW228257   5.978   1.337   2.622
 9120SOL     OW28258   5.816   2.768   5.987
 9120SOL    HW128259   5.902   2.750   5.940
 9120SOL    HW228260   5.740   2.743   5.927
 9121SOL     OW28261   0.902   3.223   5.425
 9121SOL    HW128262   0.898   3.318   5.393
 9121SOL    HW228263   0.956   3.218   5.509
 9122SOL     OW28264   2.227   2.606   1.662
 9122SOL    HW128265   2.210   2.693   1.616
 9122SOL    HW228266   2.186   2.608   1.753
 9123SOL     OW28267   3.516   6.818   5.181
 9123SOL    HW128268   3.473   6.803   5.093
 9123SOL    HW228269   3.609   6.779   5.180
 9124SOL     OW28270   5.773   6.178   5.384
 9124SOL    HW128271   5.742   6.086   5.364
 9124SOL    HW228272   5.844   6.174   5.455
 9125SOL     OW28273   4.466   4.728   3.903
 9125SOL    HW128274   4.474   4.677   3.817
 9125SOL    HW228275   4.551   4.779   3.919
 9126SOL     OW28276   5.928   1.357   2.290
 9126SOL    HW128277   5.859   1.330   2.223
 9126SOL    HW228278   6.012   1.306   2.273
 9127SOL     OW28279   6.064   0.368   5.312
 9127SOL    HW128280   5.999   0.442   5.331
 9127SOL    HW228281   6.096   0.328   5.398
 9128SOL     OW28282   3.745   1.921   5.242
 9128SOL    HW128283   3.693   1.881   5.166
 9128SOL    HW228284   3.758   2.018   5.224
 9129SOL     OW28285   1.770   3.289   0.928
 9129SOL    HW128286   1.800   3.256   1.018
 9129SOL    HW228287   1.791   3.386   0.920
 9130SOL     OW28288   0.112   4.246   0.015
 9130SOL    HW128289   0.167   4.239   0.098
 9130SOL    HW228290   0.171   4.231   6.963
 9131SOL     OW28291   0.395   4.144   4.843
 9131SOL    HW128292   0.357   4.178   4.929
 9131SOL    HW228293   0.321   4.121   4.780
 9132SOL     OW28294   0.212   4.306   3.758
 9132SOL    HW128295   0.240   4.362   3.681
 9132SOL    HW228296   0.124   4.339   3.794
 9133SOL     OW28297   3.224   5.384   0.913
 9133SOL    HW128298   3.236   5.301   0.859
 9133SOL    HW228299   3.257   5.368   1.006
 9134SOL     OW28300   3.457   0.134   0.800
 9134SOL    HW128301   3.455   0.225   0.843
 9134SOL    HW228302   3.471   0.144   0.702
 9135SOL     OW28303   6.861   6.291   1.732
 9135SOL    HW128304   6.859   6.389   1.755
 9135SOL    HW228305   6.801   6.274   1.653
 9136SOL     OW28306   4.929   5.387   5.430
 9136SOL    HW128307   5.025   5.408   5.450
 9136SOL    HW228308   4.922   5.291   5.401
 9137SOL     OW28309   5.076   1.632   0.920
 9137SOL    HW128310   5.149   1.699   0.934
 9137SOL    HW228311   4.990   1.680   0.902
 9138SOL     OW28312   6.623   5.015   6.278
 9138SOL    HW128313   6.524   5.027   6.286
 9138SOL    HW228314   6.654   5.052   6.190
 9139SOL     OW28315   2.322   1.397   4.601
 9139SOL    HW128316   2.301   1.328   4.670
 9139SOL    HW228317   2.334   1.353   4.512
 9140SOL     OW28318   6.445   2.868   2.754
 9140SOL    HW128319   6.516   2.799   2.739
 9140SOL    HW228320   6.440   2.889   2.852
 9141SOL     OW28321   5.664   0.269   6.567
 9141SOL    HW128322   5.617   0.207   6.505
 9141SOL    HW228323   5.626   0.259   6.659
 9142SOL     OW28324   0.429   2.663   6.049
 9142SOL    HW128325   0.402   2.585   5.992
 9142SOL    HW228326   0.526   2.655   6.074
 9143SOL     OW28327   4.921   4.102   7.021
 9143SOL    HW128328   4.983   4.068   0.064
 9143SOL    HW228329   4.910   4.033   6.950
 9144SOL     OW28330   2.385   5.551   6.110
 9144SOL    HW128331   2.379   5.482   6.038
 9144SOL    HW228332   2.370   5.509   6.199
 9145SOL     OW28333   6.806   5.109   1.270
 9145SOL    HW128334   6.872   5.033   1.263
 9145SOL    HW228335   6.725   5.078   1.319
 9146SOL     OW28336   5.126   1.958   2.025
 9146SOL    HW128337   5.145   2.045   1.980
 9146SOL    HW228338   5.106   1.888   1.957
 9147SOL     OW28339   5.878   0.159   4.199
 9147SOL    HW128340   5.926   0.140   4.113
 9147SOL    HW228341   5.821   0.081   4.223
 9148SOL     OW28342   5.523   0.146   0.949
 9148SOL    HW128343   5.495   0.069   0.892
 9148SOL    HW228344   5.487   0.231   0.910
 9149SOL     OW28345   5.005   2.652   3.729
 9149SOL    HW128346   5.093   2.646   3.681
 9149SOL    HW228347   5.003   2.585   3.803
 9150SOL     OW28348   3.627   5.184   3.444
 9150SOL    HW128349   3.612   5.095   3.402
 9150SOL    HW228350   3.716   5.186   3.489
 9151SOL     OW28351   1.249   4.185   3.158
 9151SOL    HW128352   1.278   4.121   3.228
 9151SOL    HW228353   1.152   4.171   3.137
 9152SOL     OW28354   3.104   5.377   4.588
 9152SOL    HW128355   3.071   5.337   4.503
 9152SOL    HW228356   3.176   5.319   4.626
 9153SOL     OW28357   1.574   3.459   1.373
 9153SOL    HW128358   1.640   3.425   1.439
 9153SOL    HW228359   1.523   3.382   1.333
 9154SOL     OW28360   3.032   4.993   0.230
 9154SOL    HW128361   2.964   4.931   0.191
 9154SOL    HW228362   2.992   5.041   0.308
 9155SOL     OW28363   2.003   3.351   0.495
 9155SOL    HW128364   1.906   3.327   0.491
 9155SOL    HW228365   2.029   3.366   0.590
 9156SOL     OW28366   3.082   2.870   1.060
 9156SOL    HW128367   2.994   2.827   1.076
 9156SOL    HW228368   3.074   2.937   0.986
 9157SOL     OW28369   5.906   4.970   6.252
 9157SOL    HW128370   5.897   5.018   6.339
 9157SOL    HW228371   5.884   4.873   6.266
 9158SOL     OW28372   6.026   3.331   4.979
 9158SOL    HW128373   5.974   3.263   5.032
 9158SOL    HW228374   6.029   3.417   5.029
 9159SOL     OW28375   1.260   6.745   3.575
 9159SOL    HW128376   1.168   6.785   3.573
 9159SOL    HW228377   1.256   6.657   3.624
 9160SOL     OW28378   6.459   0.496   5.237
 9160SOL    HW128379   6.490   0.591   5.241
 9160SOL    HW228380   6.526   0.438   5.282
 9161SOL     OW28381   4.619   4.312   4.346
 9161SOL    HW128382   4.581   4.364   4.423
 9161SOL    HW228383   4.544   4.276   4.290
 9162SOL     OW28384   4.789   1.627   3.707
 9162SOL    HW128385   4.766   1.541   3.752
 9162SOL    HW228386   4.881   1.622   3.668
 9163SOL     OW28387   1.985   3.386   4.064
 9163SOL    HW128388   2.030   3.431   4.141
 9163SOL    HW228389   1.928   3.452   4.015
 9164SOL     OW28390   2.458   0.430   0.053
 9164SOL    HW128391   2.525   0.472   7.019
 9164SOL    HW228392   2.401   0.366   0.002
 9165SOL     OW28393   5.876   1.628   5.457
 9165SOL    HW128394   5.975   1.618   5.442
 9165SOL    HW228395   5.841   1.548   5.505
 9166SOL     OW28396   4.546   6.099   0.935
 9166SOL    HW128397   4.505   6.167   0.874
 9166SOL    HW228398   4.506   6.107   1.026
 9167SOL     OW28399   1.582   2.647   6.927
 9167SOL    HW128400   1.674   2.682   6.947
 9167SOL    HW228401   1.587   2.547   6.914
 9168SOL     OW28402   0.709   0.371   6.052
 9168SOL    HW128403   0.687   0.442   5.984
 9168SOL    HW228404   0.795   0.395   6.098
 9169SOL     OW28405   6.397   1.482   4.973
 9169SOL    HW128406   6.344   1.551   5.022
 9169SOL    HW228407   6.403   1.399   5.029
 9170SOL     OW28408   0.380   4.901   0.731
 9170SOL    HW128409   0.387   4.824   0.667
 9170SOL    HW228410   0.463   4.907   0.785
 9171SOL     OW28411   3.302   4.997   1.197
 9171SOL    HW128412   3.279   5.083   1.244
 9171SOL    HW228413   3.388   5.007   1.148
 9172SOL     OW28414   3.371   0.312   4.993
 9172SOL    HW128415   3.289   0.256   4.988
 9172SOL    HW228416   3.452   0.255   4.984
 9173SOL     OW28417   5.913   4.108   4.778
 9173SOL    HW128418   5.866   4.048   4.713
 9173SOL    HW228419   6.005   4.073   4.795
 9174SOL     OW28420   5.836   4.686   1.403
 9174SOL    HW128421   5.886   4.643   1.328
 9174SOL    HW228422   5.744   4.710   1.371
 9175SOL     OW28423   1.224   6.657   4.728
 9175SOL    HW128424   1.294   6.694   4.788
 9175SOL    HW228425   1.134   6.678   4.765
 9176SOL     OW28426   2.937   0.971   4.834
 9176SOL    HW128427   2.890   1.035   4.895
 9176SOL    HW228428   2.871   0.905   4.798
 9177SOL     OW28429   1.481   4.550   4.917
 9177SOL    HW128430   1.493   4.639   4.872
 9177SOL    HW228431   1.532   4.480   4.868
 9178SOL     OW28432   2.227   5.843   0.131
 9178SOL    HW128433   2.246   5.935   0.164
 9178SOL    HW228434   2.289   5.822   0.055
 9179SOL     OW28435   3.303   5.171   3.806
 9179SOL    HW128436   3.355   5.087   3.823
 9179SOL    HW228437   3.350   5.226   3.737
 9180SOL     OW28438   5.516   1.961   3.124
 9180SOL    HW128439   5.445   2.029   3.144
 9180SOL    HW228440   5.606   2.005   3.126
 9181SOL     OW28441   3.830   1.917   3.755
 9181SOL    HW128442   3.859   1.945   3.847
 9181SOL    HW228443   3.730   1.909   3.753
 9182SOL     OW28444   2.169   6.370   2.326
 9182SOL    HW128445   2.185   6.457   2.374
 9182SOL    HW228446   2.113   6.310   2.384
 9183SOL     OW28447   5.143   6.463   0.530
 9183SOL    HW128448   5.117   6.553   0.496
 9183SOL    HW228449   5.232   6.470   0.577
 9184SOL     OW28450   5.211   2.155   0.223
 9184SOL    HW128451   5.135   2.094   0.199
 9184SOL    HW228452   5.179   2.249   0.222
 9185SOL     OW28453   4.160   0.146   5.206
 9185SOL    HW128454   4.230   0.137   5.277
 9185SOL    HW228455   4.176   0.078   5.134
 9186SOL     OW28456   5.817   0.304   3.801
 9186SOL    HW128457   5.814   0.271   3.707
 9186SOL    HW228458   5.725   0.300   3.840
 9187SOL     OW28459   2.503   1.199   1.028
 9187SOL    HW128460   2.495   1.295   1.054
 9187SOL    HW228461   2.578   1.190   0.962
 9188SOL     OW28462   1.915   6.365   1.881
 9188SOL    HW128463   1.967   6.449   1.895
 9188SOL    HW228464   1.962   6.289   1.928
 9189SOL     OW28465   4.800   5.643   0.932
 9189SOL    HW128466   4.753   5.713   0.879
 9189SOL    HW228467   4.777   5.552   0.897
 9190SOL     OW28468   1.800   4.256   0.169
 9190SOL    HW128469   1.897   4.280   0.176
 9190SOL    HW228470   1.756   4.267   0.258
 9191SOL     OW28471   6.002   1.116   5.884
 9191SOL    HW128472   5.919   1.141   5.834
 9191SOL    HW228473   6.078   1.106   5.819
 9192SOL     OW28474   0.639   3.950   6.123
 9192SOL    HW128475   0.552   3.984   6.089
 9192SOL    HW228476   0.685   4.022   6.176
 9193SOL     OW28477   4.464   4.073   0.429
 9193SOL    HW128478   4.541   4.097   0.370
 9193SOL    HW228479   4.497   4.047   0.520
 9194SOL     OW28480   2.762   0.274   3.322
 9194SOL    HW128481   2.761   0.358   3.268
 9194SOL    HW228482   2.696   0.209   3.286
 9195SOL     OW28483   1.879   2.186   4.605
 9195SOL    HW128484   1.930   2.135   4.536
 9195SOL    HW228485   1.781   2.176   4.588
 9196SOL     OW28486   4.439   0.329   3.922
 9196SOL    HW128487   4.392   0.247   3.888
 9196SOL    HW228488   4.398   0.357   4.010
 9197SOL     OW28489   2.081   4.676   2.329
 9197SOL    HW128490   2.107   4.718   2.415
 9197SOL    HW228491   2.149   4.608   2.302
 9198SOL     OW28492   6.700   4.899   6.542
 9198SOL    HW128493   6.662   4.978   6.495
 9198SOL    HW228494   6.632   4.826   6.544
 9199SOL     OW28495   1.716   3.905   5.783
 9199SOL    HW128496   1.812   3.911   5.813
 9199SOL    HW228497   1.694   3.985   5.727
 9200SOL     OW28498   2.927   0.105   0.653
 9200SOL    HW128499   2.999   0.044   0.619
 9200SOL    HW228500   2.877   0.144   0.576
 9201SOL     OW28501   0.259   2.593   0.446
 9201SOL    HW128502   0.216   2.552   0.527
 9201SOL    HW228503   0.198   2.661   0.406
 9202SOL     OW28504   1.548   6.417   2.868
 9202SOL    HW128505   1.646   6.436   2.858
 9202SOL    HW228506   1.519   6.441   2.960
 9203SOL     OW28507   0.472   5.036   0.069
 9203SOL    HW128508   0.499   4.949   0.028
 9203SOL    HW228509   0.542   5.065   0.135
 9204SOL     OW28510   4.107   3.042   6.168
 9204SOL    HW128511   4.123   2.946   6.190
 9204SOL    HW228512   4.182   3.077   6.113
 9205SOL     OW28513   6.388   4.833   2.717
 9205SOL    HW128514   6.419   4.752   2.667
 9205SOL    HW228515   6.395   4.815   2.816
 9206SOL     OW28516   4.257   5.409   1.906
 9206SOL    HW128517   4.245   5.310   1.916
 9206SOL    HW228518   4.217   5.455   1.986
 9207SOL     OW28519   4.464   5.277   6.489
 9207SOL    HW128520   4.465   5.186   6.531
 9207SOL    HW228521   4.497   5.345   6.555
 9208SOL     OW28522   5.962   3.970   4.018
 9208SOL    HW128523   5.978   3.989   3.921
 9208SOL    HW228524   6.035   4.011   4.073
 9209SOL     OW28525   2.894   0.549   6.932
 9209SOL    HW128526   2.812   0.527   6.880
 9209SOL    HW228527   2.872   0.619   7.000
 9210SOL     OW28528   0.369   0.700   2.930
 9210SOL    HW128529   0.299   0.741   2.870
 9210SOL    HW228530   0.419   0.772   2.977
 9211SOL     OW28531   6.971   2.866   4.763
 9211SOL    HW128532   6.906   2.845   4.836
 9211SOL    HW228533   7.012   2.780   4.730
 9212SOL     OW28534   4.453   5.470   4.702
 9212SOL    HW128535   4.376   5.482   4.639
 9212SOL    HW228536   4.538   5.492   4.654
 9213SOL     OW28537   5.510   3.786   5.698
 9213SOL    HW128538   5.440   3.856   5.712
 9213SOL    HW228539   5.493   3.740   5.611
 9214SOL     OW28540   0.258   5.077   5.896
 9214SOL    HW128541   0.171   5.039   5.927
 9214SOL    HW228542   0.243   5.132   5.814
 9215SOL     OW28543   1.229   2.166   0.285
 9215SOL    HW128544   1.329   2.164   0.285
 9215SOL    HW228545   1.195   2.096   0.223
 9216SOL     OW28546   2.811   0.447   2.486
 9216SOL    HW128547   2.717   0.460   2.519
 9216SOL    HW228548   2.813   0.457   2.386
 9217SOL     OW28549   0.480   1.149   6.372
 9217SOL    HW128550   0.473   1.127   6.275
 9217SOL    HW228551   0.458   1.068   6.426
 9218SOL     OW28552   2.812   6.814   0.786
 9218SOL    HW128553   2.877   6.738   0.776
 9218SOL    HW228554   2.787   6.824   0.882
 9219SOL     OW28555   0.076   2.484   1.447
 9219SOL    HW128556   0.074   2.419   1.523
 9219SOL    HW228557   0.061   2.435   1.361
 9220SOL     OW28558   1.990   6.520   0.517
 9220SOL    HW128559   2.028   6.598   0.567
 9220SOL    HW228560   2.010   6.436   0.567
 9221SOL     OW28561   2.679   1.163   4.435
 9221SOL    HW128562   2.595   1.212   4.412
 9221SOL    HW228563   2.657   1.069   4.462
 9222SOL     OW28564   2.209   6.976   6.454
 9222SOL    HW128565   2.200   0.047   6.446
 9222SOL    HW228566   2.285   6.954   6.516
 9223SOL     OW28567   1.839   1.361   3.878
 9223SOL    HW128568   1.869   1.267   3.890
 9223SOL    HW228569   1.912   1.423   3.909
 9224SOL     OW28570   2.185   5.074   5.087
 9224SOL    HW128571   2.120   5.072   5.163
 9224SOL    HW228572   2.278   5.088   5.123
 9225SOL     OW28573   3.773   6.596   6.243
 9225SOL    HW128574   3.791   6.670   6.178
 9225SOL    HW228575   3.766   6.635   6.335
 9226SOL     OW28576   5.277   6.827   1.817
 9226SOL    HW128577   5.246   6.736   1.846
 9226SOL    HW228578   5.285   6.886   1.898
 9227SOL     OW28579   0.902   5.111   1.241
 9227SOL    HW128580   0.978   5.056   1.207
 9227SOL    HW228581   0.906   5.116   1.340
 9228SOL     OW28582   1.796   0.990   6.149
 9228SOL    HW128583   1.709   0.941   6.161
 9228SOL    HW228584   1.778   1.085   6.124
 9229SOL     OW28585   1.451   5.226   4.733
 9229SOL    HW128586   1.429   5.305   4.675
 9229SOL    HW228587   1.548   5.204   4.725
 9230SOL     OW28588   6.003   0.946   3.391
 9230SOL    HW128589   5.972   1.020   3.451
 9230SOL    HW228590   6.014   0.862   3.445
 9231SOL     OW28591   1.124   4.857   4.947
 9231SOL    HW128592   1.196   4.925   4.958
 9231SOL    HW228593   1.126   4.794   5.026
 9232SOL     OW28594   3.541   5.367   0.288
 9232SOL    HW128595   3.476   5.432   0.327
 9232SOL    HW228596   3.618   5.355   0.351
 9233SOL     OW28597   5.424   4.999   1.760
 9233SOL    HW128598   5.489   5.050   1.816
 9233SOL    HW228599   5.384   5.060   1.691
 9234SOL     OW28600   3.554   5.514   5.053
 9234SOL    HW128601   3.593   5.586   5.111
 9234SOL    HW228602   3.476   5.472   5.099
 9235SOL     OW28603   1.095   2.779   3.547
 9235SOL    HW128604   1.181   2.825   3.524
 9235SOL    HW228605   1.077   2.708   3.478
 9236SOL     OW28606   3.055   4.174   5.542
 9236SOL    HW128607   3.152   4.154   5.550
 9236SOL    HW228608   3.032   4.191   5.446
 9237SOL     OW28609   2.007   5.285   5.056
 9237SOL    HW128610   2.095   5.244   5.032
 9237SOL    HW228611   2.022   5.369   5.107
 9238SOL     OW28612   3.812   1.625   6.470
 9238SOL    HW128613   3.759   1.704   6.500
 9238SOL    HW228614   3.760   1.573   6.402
 9239SOL     OW28615   0.382   3.848   0.415
 9239SOL    HW128616   0.444   3.864   0.492
 9239SOL    HW228617   0.422   3.885   0.332
 9240SOL     OW28618   5.159   1.870   0.670
 9240SOL    HW128619   5.075   1.834   0.709
 9240SOL    HW228620   5.146   1.888   0.573
 9241SOL     OW28621   0.894   5.170   6.169
 9241SOL    HW128622   0.909   5.080   6.209
 9241SOL    HW228623   0.975   5.227   6.185
 9242SOL     OW28624   6.912   5.256   0.636
 9242SOL    HW128625   6.993   5.261   0.694
 9242SOL    HW228626   6.889   5.347   0.602
 9243SOL     OW28627   5.618   6.934   2.589
 9243SOL    HW128628   5.527   6.945   2.629
 9243SOL    HW228629   5.626   6.992   2.508
 9244SOL     OW28630   4.656   5.191   6.263
 9244SOL    HW128631   4.642   5.186   6.362
 9244SOL    HW228632   4.744   5.148   6.240
 9245SOL     OW28633   1.574   5.360   3.635
 9245SOL    HW128634   1.611   5.375   3.543
 9245SOL    HW228635   1.482   5.320   3.627
 9246SOL     OW28636   0.083   4.355   2.983
 9246SOL    HW128637   0.171   4.308   2.991
 9246SOL    HW228638   0.009   4.290   3.003
 9247SOL     OW28639   1.391   0.003   3.244
 9247SOL    HW128640   1.400   0.093   3.202
 9247SOL    HW228641   1.310   6.985   3.209
 9248SOL     OW28642   1.829   2.887   6.328
 9248SOL    HW128643   1.821   2.964   6.392
 9248SOL    HW228644   1.865   2.808   6.377
 9249SOL     OW28645   5.127   3.557   6.350
 9249SOL    HW128646   5.074   3.548   6.435
 9249SOL    HW228647   5.197   3.627   6.362
 9250SOL     OW28648   5.200   3.417   4.852
 9250SOL    HW128649   5.243   3.329   4.831
 9250SOL    HW228650   5.237   3.488   4.792
 9251SOL     OW28651   3.836   2.058   3.053
 9251SOL    HW128652   3.801   2.149   3.030
 9251SOL    HW228653   3.805   1.992   2.985
 9252SOL     OW28654   6.218   0.231   3.883
 9252SOL    HW128655   6.293   0.221   3.948
 9252SOL    HW228656   6.202   0.327   3.864
 9253SOL     OW28657   5.479   6.294   6.395
 9253SOL    HW128658   5.545   6.225   6.424
 9253SOL    HW228659   5.413   6.311   6.469
 9254SOL     OW28660   6.168   4.324   2.143
 9254SOL    HW128661   6.136   4.283   2.058
 9254SOL    HW228662   6.264   4.299   2.158
 9255SOL     OW28663   5.209   3.735   0.514
 9255SOL    HW128664   5.211   3.655   0.453
 9255SOL    HW228665   5.297   3.783   0.508
 9256SOL     OW28666   4.047   5.237   2.853
 9256SOL    HW128667   3.963   5.201   2.813
 9256SOL    HW228668   4.025   5.313   2.914
 9257SOL     OW28669   0.834   3.466   2.236
 9257SOL    HW128670   0.769   3.391   2.245
 9257SOL    HW228671   0.788   3.547   2.200
 9258SOL     OW28672   3.706   3.119   3.539
 9258SOL    HW128673   3.632   3.174   3.577
 9258SOL    HW228674   3.676   3.025   3.529
 9259SOL     OW28675   1.607   1.842   1.075
 9259SOL    HW128676   1.584   1.855   1.171
 9259SOL    HW228677   1.609   1.931   1.029
 9260SOL     OW28678   4.992   1.617   5.188
 9260SOL    HW128679   4.910   1.656   5.146
 9260SOL    HW228680   4.974   1.523   5.216
 9261SOL     OW28681   4.960   0.939   6.429
 9261SOL    HW128682   4.994   0.965   6.338
 9261SOL    HW228683   4.860   0.950   6.431
 9262SOL     OW28684   6.709   3.283   5.423
 9262SOL    HW128685   6.779   3.310   5.357
 9262SOL    HW228686   6.650   3.362   5.443
 9263SOL     OW28687   6.282   4.476   1.310
 9263SOL    HW128688   6.378   4.485   1.282
 9263SOL    HW228689   6.277   4.471   1.410
 9264SOL     OW28690   5.489   4.202   0.348
 9264SOL    HW128691   5.489   4.224   0.445
 9264SOL    HW228692   5.398   4.220   0.309
 9265SOL     OW28693   2.659   1.875   0.291
 9265SOL    HW128694   2.701   1.793   0.330
 9265SOL    HW228695   2.701   1.957   0.333
 9266SOL     OW28696   2.069   6.196   2.501
 9266SOL    HW128697   2.120   6.174   2.584
 9266SOL    HW228698   2.038   6.112   2.456
 9267SOL     OW28699   6.865   4.751   5.787
 9267SOL    HW128700   6.925   4.701   5.724
 9267SOL    HW228701   6.917   4.823   5.832
 9268SOL     OW28702   1.699   5.692   0.999
 9268SOL    HW128703   1.673   5.595   1.005
 9268SOL    HW228704   1.720   5.714   0.904
 9269SOL     OW28705   3.341   2.773   5.995
 9269SOL    HW128706   3.289   2.696   6.031
 9269SOL    HW228707   3.279   2.850   5.978
 9270SOL     OW28708   5.350   0.225   5.743
 9270SOL    HW128709   5.285   0.158   5.779
 9270SOL    HW228710   5.396   0.270   5.818
 9271SOL     OW28711   1.477   5.167   6.243
 9271SOL    HW128712   1.567   5.179   6.201
 9271SOL    HW228713   1.418   5.115   6.181
 9272SOL     OW28714   2.635   5.694   5.693
 9272SOL    HW128715   2.657   5.611   5.744
 9272SOL    HW228716   2.657   5.774   5.748
 9273SOL     OW28717   5.689   6.245   4.297
 9273SOL    HW128718   5.700   6.250   4.198
 9273SOL    HW228719   5.734   6.163   4.332
 9274SOL     OW28720   6.547   3.136   0.194
 9274SOL    HW128721   6.472   3.133   0.260
 9274SOL    HW228722   6.515   3.107   0.104
 9275SOL     OW28723   0.448   2.312   6.654
 9275SOL    HW128724   0.352   2.293   6.636
 9275SOL    HW228725   0.458   2.346   6.748
 9276SOL     OW28726   2.625   4.771   4.163
 9276SOL    HW128727   2.625   4.685   4.113
 9276SOL    HW228728   2.551   4.829   4.129
 9277SOL     OW28729   4.499   3.408   0.699
 9277SOL    HW128730   4.586   3.419   0.652
 9277SOL    HW228731   4.425   3.401   0.631
 9278SOL     OW28732   1.685   0.826   4.448
 9278SOL    HW128733   1.769   0.840   4.500
 9278SOL    HW228734   1.698   0.753   4.381
 9279SOL     OW28735   4.230   0.526   1.481
 9279SOL    HW128736   4.228   0.434   1.440
 9279SOL    HW228737   4.303   0.580   1.439
 9280SOL     OW28738   1.409   0.717   3.040
 9280SOL    HW128739   1.416   0.638   3.101
 9280SOL    HW228740   1.321   0.715   2.993
 9281SOL     OW28741   3.315   4.414   1.604
 9281SOL    HW128742   3.293   4.322   1.637
 9281SOL    HW228743   3.232   4.469   1.601
 9282SOL     OW28744   4.421   2.149   4.513
 9282SOL    HW128745   4.350   2.101   4.565
 9282SOL    HW228746   4.509   2.136   4.558
 9283SOL     OW28747   5.484   0.999   3.448
 9283SOL    HW128748   5.464   0.916   3.397
 9283SOL    HW228749   5.474   1.078   3.387
 9284SOL     OW28750   3.424   5.337   6.334
 9284SOL    HW128751   3.520   5.358   6.318
 9284SOL    HW228752   3.416   5.251   6.385
 9285SOL     OW28753   5.093   3.143   0.451
 9285SOL    HW128754   5.108   3.126   0.548
 9285SOL    HW228755   5.179   3.169   0.407
 9286SOL     OW28756   5.449   0.212   6.090
 9286SOL    HW128757   5.378   0.147   6.118
 9286SOL    HW228758   5.508   0.233   6.168
 9287SOL     OW28759   2.881   5.167   0.387
 9287SOL    HW128760   2.789   5.199   0.367
 9287SOL    HW228761   2.883   5.127   0.479
 9288SOL     OW28762   2.851   1.334   5.182
 9288SOL    HW128763   2.797   1.412   5.213
 9288SOL    HW228764   2.848   1.262   5.252
 9289SOL     OW28765   3.785   1.787   2.291
 9289SOL    HW128766   3.780   1.730   2.373
 9289SOL    HW228767   3.813   1.880   2.317
 9290SOL     OW28768   5.247   1.525   3.855
 9290SOL    HW128769   5.262   1.495   3.761
 9290SOL    HW228770   5.175   1.595   3.857
 9291SOL     OW28771   2.798   0.024   5.581
 9291SOL    HW128772   2.892   0.050   5.561
 9291SOL    HW228773   2.746   0.019   5.495
 9292SOL     OW28774   7.024   3.374   6.165
 9292SOL    HW128775   0.051   3.327   6.096
 9292SOL    HW228776   0.037   3.462   6.187
 9293SOL     OW28777   6.267   3.909   0.813
 9293SOL    HW128778   6.332   3.903   0.889
 9293SOL    HW228779   6.215   3.994   0.821
 9294SOL     OW28780   3.522   6.714   5.683
 9294SOL    HW128781   3.529   6.814   5.677
 9294SOL    HW228782   3.428   6.689   5.707
 9295SOL     OW28783   5.758   2.303   3.828
 9295SOL    HW128784   5.716   2.212   3.825
 9295SOL    HW228785   5.755   2.338   3.921
 9296SOL     OW28786   0.477   6.197   6.597
 9296SOL    HW128787   0.481   6.295   6.615
 9296SOL    HW228788   0.438   6.180   6.507
 9297SOL     OW28789   6.857   0.706   0.960
 9297SOL    HW128790   6.786   0.763   0.919
 9297SOL    HW228791   6.888   0.639   0.893
 9298SOL     OW28792   1.342   0.352   5.254
 9298SOL    HW128793   1.309   0.400   5.173
 9298SOL    HW228794   1.331   0.410   5.334
 9299SOL     OW28795   1.175   2.984   4.257
 9299SOL    HW128796   1.125   2.946   4.335
 9299SOL    HW228797   1.202   2.911   4.195
 9300SOL     OW28798   0.239   4.739   5.100
 9300SOL    HW128799   0.154   4.711   5.056
 9300SOL    HW228800   0.227   4.830   5.141
 9301SOL     OW28801   4.702   4.235   3.473
 9301SOL    HW128802   4.713   4.150   3.523
 9301SOL    HW228803   4.692   4.215   3.375
 9302SOL     OW28804   2.207   3.072   4.263
 9302SOL    HW128805   2.138   3.001   4.249
 9302SOL    HW228806   2.170   3.142   4.325
 9303SOL     OW28807   3.822   6.483   0.676
 9303SOL    HW128808   3.857   6.573   0.650
 9303SOL    HW228809   3.754   6.493   0.748
 9304SOL     OW28810   4.555   4.229   0.911
 9304SOL    HW128811   4.650   4.258   0.925
 9304SOL    HW228812   4.498   4.308   0.889
 9305SOL     OW28813   3.738   1.576   1.983
 9305SOL    HW128814   3.691   1.516   2.049
 9305SOL    HW228815   3.812   1.625   2.029
 9306SOL     OW28816   0.544   4.452   5.051
 9306SOL    HW128817   0.588   4.408   5.130
 9306SOL    HW228818   0.610   4.460   4.977
 9307SOL     OW28819   1.017   3.435   2.023
 9307SOL    HW128820   1.101   3.489   2.026
 9307SOL    HW228821   0.960   3.458   2.101
 9308SOL     OW28822   1.224   3.865   0.860
 9308SOL    HW128823   1.270   3.906   0.781
 9308SOL    HW228824   1.291   3.853   0.934
 9309SOL     OW28825   3.350   5.104   5.301
 9309SOL    HW128826   3.269   5.104   5.360
 9309SOL    HW228827   3.322   5.099   5.205
 9310SOL     OW28828   4.708   5.694   6.461
 9310SOL    HW128829   4.790   5.715   6.408
 9310SOL    HW228830   4.628   5.695   6.401
 9311SOL     OW28831   5.404   4.767   1.946
 9311SOL    HW128832   5.323   4.730   1.991
 9311SOL    HW228833   5.378   4.843   1.887
 9312SOL     OW28834   0.855   3.808   1.783
 9312SOL    HW128835   0.851   3.907   1.792
 9312SOL    HW228836   0.943   3.775   1.816
 9313SOL     OW28837   0.116   0.827   0.754
 9313SOL    HW128838   0.124   0.870   0.844
 9313SOL    HW228839   0.066   0.741   0.764
 9314SOL     OW28840   4.355   5.651   5.926
 9314SOL    HW128841   4.431   5.668   5.989
 9314SOL    HW228842   4.317   5.739   5.896
 9315SOL     OW28843   6.634   0.731   5.208
 9315SOL    HW128844   6.650   0.671   5.130
 9315SOL    HW228845   6.697   0.808   5.205
 9316SOL     OW28846   3.813   5.674   5.488
 9316SOL    HW128847   3.775   5.669   5.580
 9316SOL    HW228848   3.816   5.581   5.449
 9317SOL     OW28849   6.452   5.629   3.266
 9317SOL    HW128850   6.486   5.722   3.258
 9317SOL    HW228851   6.526   5.564   3.247
 9318SOL     OW28852   6.229   1.071   5.012
 9318SOL    HW128853   6.179   1.024   4.939
 9318SOL    HW228854   6.182   1.056   5.099
 9319SOL     OW28855   0.721   2.441   5.805
 9319SOL    HW128856   0.772   2.516   5.763
 9319SOL    HW228857   0.714   2.456   5.903
 9320SOL     OW28858   4.531   1.696   6.119
 9320SOL    HW128859   4.541   1.718   6.216
 9320SOL    HW228860   4.438   1.717   6.089
 9321SOL     OW28861   6.259   0.024   2.689
 9321SOL    HW128862   6.291   0.089   2.758
 9321SOL    HW228863   6.176   0.060   2.646
 9322SOL     OW28864   0.167   5.396   6.751
 9322SOL    HW128865   0.246   5.345   6.716
 9322SOL    HW228866   0.101   5.332   6.791
 9323SOL     OW28867   1.627   0.209   5.186
 9323SOL    HW128868   1.572   0.207   5.270
 9323SOL    HW228869   1.649   0.304   5.163
 9324SOL     OW28870   2.176   5.120   0.371
 9324SOL    HW128871   2.210   5.035   0.330
 9324SOL    HW228872   2.249   5.163   0.424
 9325SOL     OW28873   4.784   1.728   6.955
 9325SOL    HW128874   4.746   1.648   6.909
 9325SOL    HW228875   4.737   1.811   6.923
 9326SOL     OW28876   2.195   0.046   0.949
 9326SOL    HW128877   2.198   0.063   0.850
 9326SOL    HW228878   2.195   6.975   0.966
 9327SOL     OW28879   4.926   6.663   2.515
 9327SOL    HW128880   5.013   6.622   2.486
 9327SOL    HW228881   4.871   6.595   2.563
 9328SOL     OW28882   3.540   0.985   6.179
 9328SOL    HW128883   3.473   1.019   6.112
 9328SOL    HW228884   3.493   0.927   6.246
 9329SOL     OW28885   0.056   4.025   2.327
 9329SOL    HW128886   0.140   3.972   2.327
 9329SOL    HW228887   0.053   4.084   2.246
 9330SOL     OW28888   0.577   6.539   0.090
 9330SOL    HW128889   0.501   6.580   0.039
 9330SOL    HW228890   0.664   6.563   0.046
 9331SOL     OW28891   1.606   1.771   5.705
 9331SOL    HW128892   1.604   1.679   5.745
 9331SOL    HW228893   1.628   1.838   5.776
 9332SOL     OW28894   3.602   4.090   2.598
 9332SOL    HW128895   3.701   4.078   2.601
 9332SOL    HW228896   3.573   4.144   2.678
 9333SOL     OW28897   4.566   3.963   1.138
 9333SOL    HW128898   4.529   3.956   1.045
 9333SOL    HW228899   4.544   4.052   1.176
 9334SOL     OW28900   4.350   6.554   3.787
 9334SOL    HW128901   4.322   6.560   3.883
 9334SOL    HW228902   4.384   6.642   3.756
 9335SOL     OW28903   1.004   1.367   5.821
 9335SOL    HW128904   0.951   1.442   5.780
 9335SOL    HW228905   0.976   1.354   5.916
 9336SOL     OW28906   3.427   5.397   5.949
 9336SOL    HW128907   3.402   5.301   5.935
 9336SOL    HW228908   3.345   5.454   5.945
 9337SOL     OW28909   5.153   0.990   3.697
 9337SOL    HW128910   5.110   0.961   3.782
 9337SOL    HW228911   5.248   1.016   3.714
 9338SOL     OW28912   4.124   0.698   1.919
 9338SOL    HW128913   4.146   0.679   2.014
 9338SOL    HW228914   4.085   0.616   1.877
 9339SOL     OW28915   4.987   0.077   0.787
 9339SOL    HW128916   4.914   0.143   0.805
 9339SOL    HW228917   5.002   0.020   0.868
 9340SOL     OW28918   5.417   3.699   5.010
 9340SOL    HW128919   5.392   3.642   4.931
 9340SOL    HW228920   5.413   3.645   5.093
 9341SOL     OW28921   0.456   5.921   6.646
 9341SOL    HW128922   0.482   6.014   6.619
 9341SOL    HW228923   0.356   5.917   6.658
 9342SOL     OW28924   2.255   0.890   3.618
 9342SOL    HW128925   2.234   0.931   3.707
 9342SOL    HW228926   2.257   0.790   3.626
 9343SOL     OW28927   5.965   4.362   3.112
 9343SOL    HW128928   6.052   4.327   3.075
 9343SOL    HW228929   5.904   4.384   3.037
 9344SOL     OW28930   4.708   6.092   1.613
 9344SOL    HW128931   4.790   6.147   1.602
 9344SOL    HW228932   4.731   6.005   1.656
 9345SOL     OW28933   6.659   3.830   2.091
 9345SOL    HW128934   6.615   3.754   2.138
 9345SOL    HW228935   6.748   3.848   2.133
 9346SOL     OW28936   6.445   0.899   0.887
 9346SOL    HW128937   6.386   0.878   0.965
 9346SOL    HW228938   6.426   0.992   0.855
 9347SOL     OW28939   0.949   5.459   0.806
 9347SOL    HW128940   0.885   5.453   0.730
 9347SOL    HW228941   1.030   5.512   0.779
 9348SOL     OW28942   3.798   5.589   1.762
 9348SOL    HW128943   3.751   5.676   1.773
 9348SOL    HW228944   3.823   5.576   1.666
 9349SOL     OW28945   0.762   6.599   2.232
 9349SOL    HW128946   0.706   6.529   2.276
 9349SOL    HW228947   0.813   6.558   2.156
 9350SOL     OW28948   0.557   3.556   5.506
 9350SOL    HW128949   0.533   3.461   5.487
 9350SOL    HW228950   0.634   3.558   5.570
 9351SOL     OW28951   3.285   1.391   6.101
 9351SOL    HW128952   3.231   1.396   6.185
 9351SOL    HW228953   3.305   1.295   6.080
 9352SOL     OW28954   2.681   2.663   0.304
 9352SOL    HW128955   2.773   2.655   0.266
 9352SOL    HW228956   2.678   2.619   0.394
 9353SOL     OW28957   0.627   5.386   1.409
 9353SOL    HW128958   0.673   5.472   1.384
 9353SOL    HW228959   0.538   5.407   1.450
 9354SOL     OW28960   6.609   2.197   6.773
 9354SOL    HW128961   6.610   2.245   6.685
 9354SOL    HW228962   6.514   2.192   6.806
 9355SOL     OW28963   0.629   2.589   4.797
 9355SOL    HW128964   0.653   2.526   4.871
 9355SOL    HW228965   0.541   2.633   4.818
 9356SOL     OW28966   3.694   0.051   0.961
 9356SOL    HW128967   3.633   0.125   0.988
 9356SOL    HW228968   3.640   7.000   0.932
 9357SOL     OW28969   1.462   3.453   6.102
 9357SOL    HW128970   1.456   3.525   6.033
 9357SOL    HW228971   1.530   3.385   6.073
 9358SOL     OW28972   0.396   4.120   2.291
 9358SOL    HW128973   0.363   4.094   2.381
 9358SOL    HW228974   0.401   4.039   2.233
 9359SOL     OW28975   1.766   4.504   6.618
 9359SOL    HW128976   1.795   4.594   6.648
 9359SOL    HW228977   1.668   4.492   6.636
 9360SOL     OW28978   1.619   6.085   6.365
 9360SOL    HW128979   1.557   6.008   6.380
 9360SOL    HW228980   1.672   6.070   6.282
 9361SOL     OW28981   2.070   5.598   3.235
 9361SOL    HW128982   2.070   5.623   3.331
 9361SOL    HW228983   2.162   5.605   3.198
 9362SOL     OW28984   1.458   1.670   2.279
 9362SOL    HW128985   1.395   1.630   2.344
 9362SOL    HW228986   1.471   1.767   2.300
 9363SOL     OW28987   3.489   5.629   1.585
 9363SOL    HW128988   3.460   5.664   1.674
 9363SOL    HW228989   3.506   5.705   1.523
 9364SOL     OW28990   2.515   1.715   1.321
 9364SOL    HW128991   2.511   1.800   1.374
 9364SOL    HW228992   2.520   1.637   1.384
 9365SOL     OW28993   2.947   2.212   3.814
 9365SOL    HW128994   2.883   2.263   3.871
 9365SOL    HW228995   2.997   2.146   3.870
 9366SOL     OW28996   3.322   5.803   0.171
 9366SOL    HW128997   3.257   5.728   0.157
 9366SOL    HW228998   3.309   5.872   0.100
 9367SOL     OW28999   5.993   6.974   1.182
 9367SOL    HW129000   6.006   0.045   1.183
 9367SOL    HW229001   5.895   6.954   1.188
 9368SOL     OW29002   3.598   6.750   2.421
 9368SOL    HW129003   3.628   6.816   2.490
 9368SOL    HW229004   3.532   6.794   2.359
 9369SOL     OW29005   0.475   6.109   4.953
 9369SOL    HW129006   0.376   6.100   4.941
 9369SOL    HW229007   0.513   6.020   4.981
 9370SOL     OW29008   5.172   1.020   3.423
 9370SOL    HW129009   5.270   1.034   3.408
 9370SOL    HW229010   5.157   0.989   3.517
 9371SOL     OW29011   3.134   5.544   1.186
 9371SOL    HW129012   3.204   5.610   1.210
 9371SOL    HW229013   3.151   5.457   1.232
 9372SOL     OW29014   4.055   6.752   1.817
 9372SOL    HW129015   4.090   6.823   1.755
 9372SOL    HW229016   3.965   6.779   1.851
 9373SOL     OW29017   6.103   2.684   0.488
 9373SOL    HW129018   6.120   2.678   0.389
 9373SOL    HW229019   6.066   2.597   0.521
 9374SOL     OW29020   0.442   3.810   5.924
 9374SOL    HW129021   0.422   3.879   5.994
 9374SOL    HW229022   0.489   3.853   5.847
 9375SOL     OW29023   0.121   1.911   0.601
 9375SOL    HW129024   0.123   1.853   0.682
 9375SOL    HW229025   0.099   2.005   0.628
 9376SOL     OW29026   2.072   3.181   2.227
 9376SOL    HW129027   2.103   3.214   2.138
 9376SOL    HW229028   2.150   3.146   2.279
 9377SOL     OW29029   3.110   5.362   3.120
 9377SOL    HW129030   3.088   5.432   3.053
 9377SOL    HW229031   3.039   5.291   3.118
 9378SOL     OW29032   3.645   1.259   3.757
 9378SOL    HW129033   3.584   1.188   3.723
 9378SOL    HW229034   3.682   1.310   3.679
 9379SOL     OW29035   4.518   0.091   4.627
 9379SOL    HW129036   4.613   0.110   4.651
 9379SOL    HW229037   4.458   0.121   4.702
 9380SOL     OW29038   3.452   5.827   5.727
 9380SOL    HW129039   3.470   5.737   5.765
 9380SOL    HW229040   3.535   5.882   5.730
 9381SOL     OW29041   5.238   2.026   4.419
 9381SOL    HW129042   5.214   1.934   4.449
 9381SOL    HW229043   5.175   2.092   4.462
 9382SOL     OW29044   3.905   0.480   4.004
 9382SOL    HW129045   3.882   0.481   3.906
 9382SOL    HW229046   3.822   0.495   4.058
 9383SOL     OW29047   4.607   4.312   3.989
 9383SOL    HW129048   4.653   4.226   4.010
 9383SOL    HW229049   4.601   4.324   3.890
 9384SOL     OW29050   2.198   6.888   1.829
 9384SOL    HW129051   2.258   6.887   1.909
 9384SOL    HW229052   2.164   6.795   1.812
 9385SOL     OW29053   3.804   1.736   4.145
 9385SOL    HW129054   3.893   1.697   4.123
 9385SOL    HW229055   3.735   1.698   4.083
 9386SOL     OW29056   3.268   6.202   5.496
 9386SOL    HW129057   3.249   6.104   5.502
 9386SOL    HW229058   3.263   6.232   5.401
 9387SOL     OW29059   3.681   1.862   0.142
 9387SOL    HW129060   3.679   1.764   0.123
 9387SOL    HW229061   3.736   1.879   0.224
 9388SOL     OW29062   1.477   6.436   3.994
 9388SOL    HW129063   1.543   6.370   3.958
 9388SOL    HW229064   1.520   6.488   4.069
 9389SOL     OW29065   2.954   5.257   2.568
 9389SOL    HW129066   2.976   5.259   2.665
 9389SOL    HW229067   2.875   5.316   2.550
 9390SOL     OW29068   5.415   4.611   5.686
 9390SOL    HW129069   5.417   4.528   5.632
 9390SOL    HW229070   5.386   4.590   5.780
 9391SOL     OW29071   0.490   0.187   5.028
 9391SOL    HW129072   0.459   0.260   5.090
 9391SOL    HW229073   0.493   0.100   5.078
 9392SOL     OW29074   4.782   4.496   3.514
 9392SOL    HW129075   4.747   4.404   3.495
 9392SOL    HW229076   4.720   4.564   3.475
 9393SOL     OW29077   3.361   6.252   6.102
 9393SOL    HW129078   3.324   6.341   6.077
 9393SOL    HW229079   3.445   6.235   6.050
 9394SOL     OW29080   5.444   0.766   1.661
 9394SOL    HW129081   5.369   0.832   1.654
 9394SOL    HW229082   5.495   0.782   1.746
 9395SOL     OW29083   2.497   1.728   0.843
 9395SOL    HW129084   2.561   1.685   0.907
 9395SOL    HW229085   2.444   1.798   0.890
 9396SOL     OW29086   1.812   6.188   6.031
 9396SOL    HW129087   1.799   6.280   6.066
 9396SOL    HW229088   1.889   6.144   6.078
 9397SOL     OW29089   3.458   6.711   6.477
 9397SOL    HW129090   3.550   6.700   6.515
 9397SOL    HW229091   3.445   6.648   6.401
 9398SOL     OW29092   6.095   1.402   6.240
 9398SOL    HW129093   6.030   1.347   6.293
 9398SOL    HW229094   6.070   1.399   6.143
 9399SOL     OW29095   1.463   2.683   4.069
 9399SOL    HW129096   1.369   2.683   4.102
 9399SOL    HW229097   1.523   2.645   4.140
 9400SOL     OW29098   5.101   1.617   0.253
 9400SOL    HW129099   5.072   1.706   0.220
 9400SOL    HW229100   5.064   1.545   0.194
 9401SOL     OW29101   0.527   3.009   2.370
 9401SOL    HW129102   0.599   2.969   2.427
 9401SOL    HW229103   0.493   2.940   2.306
 9402SOL     OW29104   1.870   5.587   3.825
 9402SOL    HW129105   1.901   5.676   3.793
 9402SOL    HW229106   1.947   5.523   3.824
 9403SOL     OW29107   0.054   1.136   2.058
 9403SOL    HW129108   0.039   1.041   2.085
 9403SOL    HW229109   0.000   1.196   2.117
 9404SOL     OW29110   0.923   2.948   1.577
 9404SOL    HW129111   0.827   2.974   1.587
 9404SOL    HW229112   0.937   2.905   1.488
 9405SOL     OW29113   0.425   4.666   4.912
 9405SOL    HW129114   0.484   4.608   4.969
 9405SOL    HW229115   0.365   4.720   4.970
 9406SOL     OW29116   0.585   3.104   6.496
 9406SOL    HW129117   0.546   3.109   6.589
 9406SOL    HW229118   0.529   3.043   6.440
 9407SOL     OW29119   3.008   5.162   4.940
 9407SOL    HW129120   3.050   5.074   4.964
 9407SOL    HW229121   2.945   5.149   4.864
 9408SOL     OW29122   6.591   3.720   5.537
 9408SOL    HW129123   6.514   3.777   5.566
 9408SOL    HW229124   6.561   3.625   5.531
 9409SOL     OW29125   6.538   5.998   2.378
 9409SOL    HW129126   6.566   5.936   2.452
 9409SOL    HW229127   6.607   5.996   2.305
 9410SOL     OW29128   4.443   0.719   2.011
 9410SOL    HW129129   4.542   0.716   1.999
 9410SOL    HW229130   4.422   0.761   2.099
 9411SOL     OW29131   3.524   3.263   3.684
 9411SOL    HW129132   3.542   3.184   3.742
 9411SOL    HW229133   3.435   3.251   3.640
 9412SOL     OW29134   0.550   0.620   0.924
 9412SOL    HW129135   0.581   0.685   0.854
 9412SOL    HW229136   0.456   0.642   0.951
 9413SOL     OW29137   4.449   5.001   4.579
 9413SOL    HW129138   4.375   4.936   4.560
 9413SOL    HW229139   4.533   4.969   4.536
 9414SOL     OW29140   2.202   2.481   5.119
 9414SOL    HW129141   2.239   2.574   5.124
 9414SOL    HW229142   2.256   2.427   5.056
 9415SOL     OW29143   3.357   0.505   2.525
 9415SOL    HW129144   3.388   0.555   2.444
 9415SOL    HW229145   3.315   0.569   2.590
 9416SOL     OW29146   0.587   6.968   5.903
 9416SOL    HW129147   0.557   6.920   5.821
 9416SOL    HW229148   0.584   6.906   5.981
 9417SOL     OW29149   3.462   6.658   1.263
 9417SOL    HW129150   3.483   6.608   1.178
 9417SOL    HW229151   3.365   6.647   1.284
 9418SOL     OW29152   3.010   2.024   4.017
 9418SOL    HW129153   3.080   1.973   3.967
 9418SOL    HW229154   3.049   2.060   4.102
 9419SOL     OW29155   2.796   2.561   6.559
 9419SOL    HW129156   2.836   2.579   6.469
 9419SOL    HW229157   2.824   2.470   6.590
 9420SOL     OW29158   5.596   3.965   0.265
 9420SOL    HW129159   5.683   3.940   0.309
 9420SOL    HW229160   5.573   4.059   0.289
 9421SOL     OW29161   3.793   6.403   5.188
 9421SOL    HW129162   3.867   6.336   5.176
 9421SOL    HW229163   3.730   6.397   5.111
 9422SOL     OW29164   2.643   5.674   4.507
 9422SOL    HW129165   2.698   5.712   4.433
 9422SOL    HW229166   2.702   5.636   4.578
 9423SOL     OW29167   4.033   5.873   3.404
 9423SOL    HW129168   4.048   5.829   3.492
 9423SOL    HW229169   4.064   5.812   3.331
 9424SOL     OW29170   5.353   1.580   4.406
 9424SOL    HW129171   5.358   1.660   4.466
 9424SOL    HW229172   5.291   1.513   4.446
 9425SOL     OW29173   6.256   4.499   1.593
 9425SOL    HW129174   6.260   4.570   1.664
 9425SOL    HW229175   6.170   4.449   1.601
 9426SOL     OW29176   0.648   2.195   6.043
 9426SOL    HW129177   0.733   2.247   6.043
 9426SOL    HW229178   0.603   2.205   6.132
 9427SOL     OW29179   3.419   5.630   3.068
 9427SOL    HW129180   3.470   5.549   3.038
 9427SOL    HW229181   3.475   5.712   3.054
 9428SOL     OW29182   6.295   6.335   6.705
 9428SOL    HW129183   6.383   6.292   6.727
 9428SOL    HW229184   6.304   6.387   6.620
 9429SOL     OW29185   1.669   2.518   3.864
 9429SOL    HW129186   1.684   2.591   3.931
 9429SOL    HW229187   1.735   2.445   3.879
 9430SOL     OW29188   0.543   2.162   4.105
 9430SOL    HW129189   0.549   2.114   4.018
 9430SOL    HW229190   0.588   2.251   4.098
 9431SOL     OW29191   0.112   4.401   0.589
 9431SOL    HW129192   0.034   4.350   0.552
 9431SOL    HW229193   0.105   4.405   0.689
 9432SOL     OW29194   0.010   1.460   3.574
 9432SOL    HW129195   0.018   1.382   3.512
 9432SOL    HW229196   6.944   1.466   3.609
 9433SOL     OW29197   4.122   5.961   2.963
 9433SOL    HW129198   4.061   5.890   2.927
 9433SOL    HW229199   4.156   6.017   2.888
 9434SOL     OW29200   5.484   5.647   4.070
 9434SOL    HW129201   5.547   5.667   3.995
 9434SOL    HW229202   5.485   5.549   4.089
 9435SOL     OW29203   0.751   2.944   2.515
 9435SOL    HW129204   0.723   2.917   2.607
 9435SOL    HW229205   0.842   2.907   2.495
 9436SOL     OW29206   0.589   1.117   2.520
 9436SOL    HW129207   0.498   1.149   2.493
 9436SOL    HW229208   0.656   1.188   2.503
 9437SOL     OW29209   0.164   5.342   3.853
 9437SOL    HW129210   0.100   5.368   3.926
 9437SOL    HW229211   0.244   5.402   3.857
 9438SOL     OW29212   2.202   6.224   1.701
 9438SOL    HW129213   2.201   6.313   1.656
 9438SOL    HW229214   2.122   6.171   1.672
 9439SOL     OW29215   1.181   2.974   0.504
 9439SOL    HW129216   1.088   2.941   0.487
 9439SOL    HW229217   1.200   3.050   0.442
 9440SOL     OW29218   3.335   4.893   3.361
 9440SOL    HW129219   3.427   4.859   3.383
 9440SOL    HW229220   3.288   4.919   3.446
 9441SOL     OW29221   6.698   5.638   4.512
 9441SOL    HW129222   6.618   5.627   4.571
 9441SOL    HW229223   6.760   5.560   4.525
 9442SOL     OW29224   5.137   3.506   1.077
 9442SOL    HW129225   5.064   3.441   1.098
 9442SOL    HW229226   5.123   3.544   0.986
 9443SOL     OW29227   3.276   5.080   1.949
 9443SOL    HW129228   3.197   5.052   1.895
 9443SOL    HW229229   3.272   5.038   2.039
 9444SOL     OW29230   2.268   3.658   0.346
 9444SOL    HW129231   2.201   3.707   0.402
 9444SOL    HW229232   2.289   3.712   0.265
 9445SOL     OW29233   0.714   1.624   3.761
 9445SOL    HW129234   0.656   1.703   3.780
 9445SOL    HW229235   0.794   1.626   3.822
 9446SOL     OW29236   6.306   4.854   3.637
 9446SOL    HW129237   6.385   4.908   3.607
 9446SOL    HW229238   6.255   4.822   3.557
 9447SOL     OW29239   5.615   5.469   2.485
 9447SOL    HW129240   5.540   5.456   2.420
 9447SOL    HW229241   5.698   5.426   2.449
 9448SOL     OW29242   5.910   0.005   5.968
 9448SOL    HW129243   5.959   0.090   5.989
 9448SOL    HW229244   5.960   6.955   6.007
 9449SOL     OW29245   5.132   0.101   0.546
 9449SOL    HW129246   5.106   0.179   0.490
 9449SOL    HW229247   5.064   0.087   0.618
 9450SOL     OW29248   1.631   5.919   4.607
 9450SOL    HW129249   1.538   5.927   4.571
 9450SOL    HW229250   1.628   5.882   4.700
 9451SOL     OW29251   3.916   5.581   6.058
 9451SOL    HW129252   3.843   5.514   6.046
 9451SOL    HW229253   3.924   5.636   5.975
 9452SOL     OW29254   0.593   4.394   0.854
 9452SOL    HW129255   0.640   4.474   0.893
 9452SOL    HW229256   0.511   4.425   0.805
 9453SOL     OW29257   3.584   4.952   3.176
 9453SOL    HW129258   3.597   4.938   3.274
 9453SOL    HW229259   3.487   4.938   3.153
 9454SOL     OW29260   4.375   4.462   0.810
 9454SOL    HW129261   4.362   4.497   0.903
 9454SOL    HW229262   4.471   4.470   0.784
 9455SOL     OW29263   2.917   2.241   2.314
 9455SOL    HW129264   2.924   2.283   2.224
 9455SOL    HW229265   2.996   2.181   2.329
 9456SOL     OW29266   6.468   3.456   2.176
 9456SOL    HW129267   6.401   3.383   2.161
 9456SOL    HW229268   6.425   3.529   2.230
 9457SOL     OW29269   1.539   4.854   4.147
 9457SOL    HW129270   1.615   4.792   4.167
 9457SOL    HW229271   1.513   4.902   4.231
 9458SOL     OW29272   6.881   4.308   0.486
 9458SOL    HW129273   6.875   4.262   0.575
 9458SOL    HW229274   6.824   4.390   0.488
 9459SOL     OW29275   5.000   4.739   4.798
 9459SOL    HW129276   5.016   4.730   4.700
 9459SOL    HW229277   4.968   4.831   4.819
 9460SOL     OW29278   1.239   3.018   3.577
 9460SOL    HW129279   1.215   3.074   3.656
 9460SOL    HW229280   1.263   3.079   3.500
 9461SOL     OW29281   1.212   2.344   1.040
 9461SOL    HW129282   1.221   2.361   0.942
 9461SOL    HW229283   1.130   2.390   1.074
 9462SOL     OW29284   1.833   1.697   3.993
 9462SOL    HW129285   1.905   1.628   4.001
 9462SOL    HW229286   1.862   1.780   4.040
 9463SOL     OW29287   5.014   6.720   1.245
 9463SOL    HW129288   5.077   6.643   1.243
 9463SOL    HW229289   5.054   6.795   1.297
 9464SOL     OW29290   7.026   0.630   1.611
 9464SOL    HW129291   0.065   0.609   1.682
 9464SOL    HW229292   6.949   0.680   1.652
 9465SOL     OW29293   0.235   4.183   1.155
 9465SOL    HW129294   0.285   4.219   1.076
 9465SOL    HW229295   0.193   4.259   1.206
 9466SOL     OW29296   4.007   5.425   6.667
 9466SOL    HW129297   4.105   5.443   6.674
 9466SOL    HW229298   3.975   5.450   6.576
 9467SOL     OW29299   1.824   2.849   1.085
 9467SOL    HW129300   1.774   2.764   1.099
 9467SOL    HW229301   1.762   2.920   1.054
 9468SOL     OW29302   6.705   3.853   0.134
 9468SOL    HW129303   6.741   3.917   0.202
 9468SOL    HW229304   6.776   3.786   0.112
 9469SOL     OW29305   0.048   6.202   0.691
 9469SOL    HW129306   0.015   6.108   0.680
 9469SOL    HW229307   0.123   6.203   0.757
 9470SOL     OW29308   4.982   3.823   0.136
 9470SOL    HW129309   4.964   3.898   0.200
 9470SOL    HW229310   4.897   3.775   0.116
 9471SOL     OW29311   6.172   2.182   5.263
 9471SOL    HW129312   6.183   2.085   5.283
 9471SOL    HW229313   6.090   2.217   5.309
 9472SOL     OW29314   1.574   4.476   5.882
 9472SOL    HW129315   1.508   4.525   5.938
 9472SOL    HW229316   1.556   4.378   5.888
 9473SOL     OW29317   2.876   4.187   0.073
 9473SOL    HW129318   2.807   4.254   0.045
 9473SOL    HW229319   2.875   4.179   0.173
 9474SOL     OW29320   6.041   3.521   1.525
 9474SOL    HW129321   5.966   3.458   1.505
 9474SOL    HW229322   6.010   3.615   1.513
 9475SOL     OW29323   4.829   3.588   5.617
 9475SOL    HW129324   4.787   3.678   5.618
 9475SOL    HW229325   4.915   3.590   5.668
 9476SOL     OW29326   3.808   4.387   5.674
 9476SOL    HW129327   3.722   4.422   5.637
 9476SOL    HW229328   3.794   4.353   5.767
 9477SOL     OW29329   1.952   3.564   1.993
 9477SOL    HW129330   1.938   3.640   2.057
 9477SOL    HW229331   2.040   3.521   2.011
 9478SOL     OW29332   4.737   2.837   0.662
 9478SOL    HW129333   4.713   2.928   0.696
 9478SOL    HW229334   4.832   2.837   0.630
 9479SOL     OW29335   4.661   0.916   1.379
 9479SOL    HW129336   4.605   0.999   1.382
 9479SOL    HW229337   4.679   0.885   1.472
 9480SOL     OW29338   5.990   5.649   6.764
 9480SOL    HW129339   6.090   5.649   6.765
 9480SOL    HW229340   5.956   5.733   6.806
 9481SOL     OW29341   4.719   1.649   3.422
 9481SOL    HW129342   4.646   1.717   3.427
 9481SOL    HW229343   4.740   1.616   3.514
 9482SOL     OW29344   5.535   1.285   0.539
 9482SOL    HW129345   5.499   1.255   0.627
 9482SOL    HW229346   5.511   1.218   0.468
 9483SOL     OW29347   0.631   0.671   6.982
 9483SOL    HW129348   0.630   0.766   7.014
 9483SOL    HW229349   0.687   0.616   0.016
 9484SOL     OW29350   2.548   6.440   4.767
 9484SOL    HW129351   2.591   6.487   4.844
 9484SOL    HW229352   2.451   6.425   4.787
 9485SOL     OW29353   6.469   1.457   0.416
 9485SOL    HW129354   6.450   1.369   0.372
 9485SOL    HW229355   6.382   1.504   0.433
 9486SOL     OW29356   4.652   5.651   0.385
 9486SOL    HW129357   4.713   5.680   0.458
 9486SOL    HW229358   4.672   5.704   0.302
 9487SOL     OW29359   3.175   4.061   4.086
 9487SOL    HW129360   3.085   4.096   4.110
 9487SOL    HW229361   3.216   4.015   4.164
 9488SOL     OW29362   1.585   1.390   1.450
 9488SOL    HW129363   1.593   1.456   1.525
 9488SOL    HW229364   1.489   1.376   1.428
 9489SOL     OW29365   5.158   4.342   1.125
 9489SOL    HW129366   5.147   4.399   1.043
 9489SOL    HW229367   5.082   4.360   1.188
 9490SOL     OW29368   6.093   4.875   3.799
 9490SOL    HW129369   6.043   4.962   3.801
 9490SOL    HW229370   6.156   4.875   3.721
 9491SOL     OW29371   5.219   6.452   3.658
 9491SOL    HW129372   5.168   6.395   3.594
 9491SOL    HW229373   5.267   6.394   3.724
 9492SOL     OW29374   4.744   2.953   4.864
 9492SOL    HW129375   4.659   2.977   4.817
 9492SOL    HW229376   4.802   3.034   4.873
 9493SOL     OW29377   3.951   6.342   4.246
 9493SOL    HW129378   3.870   6.290   4.273
 9493SOL    HW229379   3.986   6.393   4.325
 9494SOL     OW29380   5.107   2.918   2.273
 9494SOL    HW129381   5.016   2.956   2.290
 9494SOL    HW229382   5.131   2.931   2.177
 9495SOL     OW29383   0.055   0.800   1.913
 9495SOL    HW129384   0.110   0.717   1.908
 9495SOL    HW229385   0.115   0.880   1.907
 9496SOL     OW29386   4.524   2.063   2.508
 9496SOL    HW129387   4.449   2.121   2.475
 9496SOL    HW229388   4.486   1.983   2.555
 9497SOL     OW29389   5.730   5.651   5.097
 9497SOL    HW129390   5.651   5.632   5.156
 9497SOL    HW229391   5.812   5.612   5.137
 9498SOL     OW29392   6.536   5.062   4.498
 9498SOL    HW129393   6.544   5.076   4.597
 9498SOL    HW229394   6.492   5.141   4.457
 9499SOL     OW29395   6.517   5.308   5.093
 9499SOL    HW129396   6.464   5.233   5.052
 9499SOL    HW229397   6.512   5.388   5.033
 9500SOL     OW29398   4.136   0.534   0.657
 9500SOL    HW129399   4.159   0.464   0.725
 9500SOL    HW229400   4.082   0.606   0.701
 9501SOL     OW29401   1.948   1.618   4.426
 9501SOL    HW129402   2.035   1.651   4.388
 9501SOL    HW229403   1.962   1.592   4.522
 9502SOL     OW29404   5.292   4.910   5.157
 9502SOL    HW129405   5.201   4.929   5.192
 9502SOL    HW229406   5.316   4.976   5.086
 9503SOL     OW29407   0.740   2.187   6.912
 9503SOL    HW129408   0.730   2.281   6.945
 9503SOL    HW229409   0.826   2.178   6.862
 9504SOL     OW29410   0.219   4.218   1.555
 9504SOL    HW129411   0.189   4.263   1.471
 9504SOL    HW229412   0.278   4.280   1.607
 9505SOL     OW29413   4.281   4.847   5.595
 9505SOL    HW129414   4.355   4.783   5.576
 9505SOL    HW229415   4.198   4.795   5.617
 9506SOL     OW29416   2.332   2.298   1.095
 9506SOL    HW129417   2.288   2.299   1.185
 9506SOL    HW229418   2.337   2.204   1.061
 9507SOL     OW29419   5.847   0.520   1.473
 9507SOL    HW129420   5.939   0.556   1.490
 9507SOL    HW229421   5.808   0.564   1.392
 9508SOL     OW29422   4.897   1.588   2.143
 9508SOL    HW129423   4.838   1.508   2.150
 9508SOL    HW229424   4.841   1.669   2.126
 9509SOL     OW29425   6.644   0.714   2.759
 9509SOL    HW129426   6.676   0.767   2.837
 9509SOL    HW229427   6.688   0.625   2.758
 9510SOL     OW29428   0.578   3.525   3.404
 9510SOL    HW129429   0.670   3.491   3.426
 9510SOL    HW229430   0.520   3.519   3.485
 9511SOL     OW29431   1.364   1.031   0.874
 9511SOL    HW129432   1.360   1.108   0.937
 9511SOL    HW229433   1.344   1.062   0.781
 9512SOL     OW29434   6.371   3.375   1.152
 9512SOL    HW129435   6.417   3.401   1.067
 9512SOL    HW229436   6.440   3.357   1.222
 9513SOL     OW29437   4.091   4.973   6.434
 9513SOL    HW129438   4.104   4.876   6.416
 9513SOL    HW229439   4.003   4.986   6.480
 9514SOL     OW29440   3.341   3.095   6.968
 9514SOL    HW129441   3.434   3.109   6.935
 9514SOL    HW229442   3.279   3.083   6.890
 9515SOL     OW29443   2.832   5.160   4.045
 9515SOL    HW129444   2.916   5.208   4.020
 9515SOL    HW229445   2.834   5.136   4.142
 9516SOL     OW29446   6.455   4.497   0.579
 9516SOL    HW129447   6.488   4.533   0.491
 9516SOL    HW229448   6.405   4.412   0.563
 9517SOL     OW29449   0.963   4.609   1.094
 9517SOL    HW129450   1.017   4.594   1.176
 9517SOL    HW229451   0.874   4.648   1.119
 9518SOL     OW29452   2.314   1.168   0.563
 9518SOL    HW129453   2.338   1.265   0.553
 9518SOL    HW229454   2.358   1.131   0.645
 9519SOL     OW29455   1.293   2.209   5.315
 9519SOL    HW129456   1.259   2.155   5.392
 9519SOL    HW229457   1.393   2.200   5.309
 9520SOL     OW29458   2.365   0.108   2.918
 9520SOL    HW129459   2.357   0.196   2.872
 9520SOL    HW229460   2.274   0.078   2.947
 9521SOL     OW29461   5.973   6.062   3.827
 9521SOL    HW129462   5.951   6.122   3.750
 9521SOL    HW229463   5.891   6.043   3.880
 9522SOL     OW29464   3.200   6.192   1.089
 9522SOL    HW129465   3.297   6.198   1.112
 9522SOL    HW229466   3.156   6.125   1.149
 9523SOL     OW29467   3.711   5.038   4.190
 9523SOL    HW129468   3.794   4.987   4.211
 9523SOL    HW229469   3.641   5.018   4.259
 9524SOL     OW29470   3.572   3.051   1.380
 9524SOL    HW129471   3.570   3.097   1.469
 9524SOL    HW229472   3.601   2.956   1.392
 9525SOL     OW29473   2.134   1.444   6.345
 9525SOL    HW129474   2.233   1.445   6.358
 9525SOL    HW229475   2.104   1.353   6.317
 9526SOL     OW29476   4.888   6.240   3.035
 9526SOL    HW129477   4.824   6.247   3.111
 9526SOL    HW229478   4.959   6.310   3.045
 9527SOL     OW29479   0.799   0.931   2.279
 9527SOL    HW129480   0.896   0.948   2.296
 9527SOL    HW229481   0.752   1.019   2.267
 9528SOL     OW29482   6.415   6.764   1.171
 9528SOL    HW129483   6.434   6.691   1.105
 9528SOL    HW229484   6.475   6.842   1.153
 9529SOL     OW29485   1.204   3.371   6.468
 9529SOL    HW129486   1.291   3.368   6.517
 9529SOL    HW229487   1.143   3.302   6.506
 9530SOL     OW29488   1.733   2.636   2.645
 9530SOL    HW129489   1.733   2.684   2.557
 9530SOL    HW229490   1.688   2.693   2.713
 9531SOL     OW29491   3.905   6.496   3.346
 9531SOL    HW129492   3.927   6.425   3.280
 9531SOL    HW229493   3.859   6.572   3.300
 9532SOL     OW29494   1.778   6.469   0.851
 9532SOL    HW129495   1.793   6.467   0.949
 9532SOL    HW229496   1.786   6.563   0.818
 9533SOL     OW29497   0.808   0.961   5.361
 9533SOL    HW129498   0.726   1.011   5.332
 9533SOL    HW229499   0.846   0.912   5.283
 9534SOL     OW29500   5.393   1.764   4.612
 9534SOL    HW129501   5.408   1.719   4.700
 9534SOL    HW229502   5.456   1.841   4.603
 9535SOL     OW29503   2.754   1.095   6.032
 9535SOL    HW129504   2.844   1.063   5.999
 9535SOL    HW229505   2.727   1.175   5.978
 9536SOL     OW29506   1.673   5.884   5.555
 9536SOL    HW129507   1.635   5.792   5.558
 9536SOL    HW229508   1.632   5.940   5.627
 9537SOL     OW29509   3.364   0.221   2.128
 9537SOL    HW129510   3.446   0.185   2.172
 9537SOL    HW229511   3.391   0.283   2.053
 9538SOL     OW29512   6.384   2.362   4.357
 9538SOL    HW129513   6.406   2.386   4.262
 9538SOL    HW229514   6.413   2.437   4.417
 9539SOL     OW29515   1.419   5.468   6.809
 9539SOL    HW129516   1.389   5.561   6.791
 9539SOL    HW229517   1.360   5.404   6.760
 9540SOL     OW29518   4.506   4.982   5.357
 9540SOL    HW129519   4.412   4.953   5.370
 9540SOL    HW229520   4.560   4.960   5.438
 9541SOL     OW29521   2.021   2.777   4.242
 9541SOL    HW129522   2.046   2.740   4.332
 9541SOL    HW229523   1.958   2.854   4.254
 9542SOL     OW29524   4.861   3.182   4.885
 9542SOL    HW129525   4.854   3.242   4.965
 9542SOL    HW229526   4.824   3.228   4.805
 9543SOL     OW29527   4.459   0.942   3.839
 9543SOL    HW129528   4.531   0.981   3.896
 9543SOL    HW229529   4.464   0.842   3.843
 9544SOL     OW29530   5.614   0.803   1.887
 9544SOL    HW129531   5.638   0.879   1.947
 9544SOL    HW229532   5.649   0.717   1.926
 9545SOL     OW29533   6.452   0.296   3.301
 9545SOL    HW129534   6.534   0.245   3.328
 9545SOL    HW229535   6.434   0.368   3.367
 9546SOL     OW29536   2.679   5.570   6.644
 9546SOL    HW129537   2.693   5.472   6.628
 9546SOL    HW229538   2.609   5.605   6.581
 9547SOL     OW29539   0.994   6.168   4.415
 9547SOL    HW129540   1.090   6.195   4.406
 9547SOL    HW229541   0.948   6.229   4.480
 9548SOL     OW29542   5.852   6.007   4.505
 9548SOL    HW129543   5.918   5.950   4.457
 9548SOL    HW229544   5.760   5.968   4.495
 9549SOL     OW29545   3.133   5.317   0.398
 9549SOL    HW129546   3.044   5.272   0.389
 9549SOL    HW229547   3.202   5.265   0.348
 9550SOL     OW29548   0.727   1.102   0.324
 9550SOL    HW129549   0.646   1.109   0.265
 9550SOL    HW229550   0.809   1.118   0.270
 9551SOL     OW29551   0.406   0.033   4.812
 9551SOL    HW129552   0.434   0.086   4.732
 9551SOL    HW229553   0.454   0.066   4.893
 9552SOL     OW29554   1.435   6.302   3.696
 9552SOL    HW129555   1.363   6.242   3.731
 9552SOL    HW229556   1.440   6.295   3.596
 9553SOL     OW29557   5.823   5.048   6.504
 9553SOL    HW129558   5.791   5.140   6.485
 9553SOL    HW229559   5.745   4.990   6.528
 9554SOL     OW29560   2.661   1.158   2.136
 9554SOL    HW129561   2.738   1.140   2.197
 9554SOL    HW229562   2.609   1.074   2.122
 9555SOL     OW29563   6.580   2.571   0.854
 9555SOL    HW129564   6.543   2.548   0.944
 9555SOL    HW229565   6.538   2.511   0.785
 9556SOL     OW29566   2.217   0.881   1.243
 9556SOL    HW129567   2.249   0.839   1.158
 9556SOL    HW229568   2.117   0.879   1.245
 9557SOL     OW29569   5.898   0.254   2.087
 9557SOL    HW129570   5.922   0.188   2.159
 9557SOL    HW229571   5.802   0.244   2.064
 9558SOL     OW29572   6.312   4.837   3.155
 9558SOL    HW129573   6.272   4.919   3.115
 9558SOL    HW229574   6.375   4.795   3.089
 9559SOL     OW29575   6.976   3.400   2.152
 9559SOL    HW129576   6.995   3.453   2.069
 9559SOL    HW229577   0.031   3.353   2.182
 9560SOL     OW29578   2.690   1.201   3.235
 9560SOL    HW129579   2.646   1.224   3.322
 9560SOL    HW229580   2.786   1.177   3.252
 9561SOL     OW29581   4.014   6.691   0.636
 9561SOL    HW129582   4.067   6.731   0.561
 9561SOL    HW229583   4.066   6.617   0.678
 9562SOL     OW29584   4.584   5.432   2.398
 9562SOL    HW129585   4.680   5.437   2.370
 9562SOL    HW229586   4.526   5.442   2.317
 9563SOL     OW29587   6.873   5.899   6.166
 9563SOL    HW129588   6.861   5.993   6.133
 9563SOL    HW229589   6.785   5.862   6.196
 9564SOL     OW29590   2.960   6.823   6.862
 9564SOL    HW129591   2.996   6.878   6.938
 9564SOL    HW229592   3.035   6.800   6.800
 9565SOL     OW29593   3.557   6.490   4.503
 9565SOL    HW129594   3.502   6.437   4.439
 9565SOL    HW229595   3.633   6.534   4.454
 9566SOL     OW29596   2.936   4.609   5.859
 9566SOL    HW129597   2.984   4.560   5.786
 9566SOL    HW229598   2.858   4.554   5.890
 9567SOL     OW29599   6.301   5.551   6.696
 9567SOL    HW129600   6.397   5.580   6.705
 9567SOL    HW229601   6.297   5.455   6.669
 9568SOL     OW29602   4.888   3.769   6.332
 9568SOL    HW129603   4.837   3.840   6.380
 9568SOL    HW229604   4.825   3.708   6.286
 9569SOL     OW29605   6.624   0.649   0.284
 9569SOL    HW129606   6.677   0.724   0.324
 9569SOL    HW229607   6.615   0.664   0.185
 9570SOL     OW29608   0.712   1.577   6.937
 9570SOL    HW129609   0.727   1.636   6.858
 9570SOL    HW229610   0.713   1.481   6.907
 9571SOL     OW29611   1.878   3.257   0.112
 9571SOL    HW129612   1.967   3.301   0.114
 9571SOL    HW229613   1.877   3.178   0.174
 9572SOL     OW29614   1.428   4.250   1.942
 9572SOL    HW129615   1.405   4.326   1.882
 9572SOL    HW229616   1.463   4.285   2.029
 9573SOL     OW29617   1.812   1.548   6.801
 9573SOL    HW129618   1.802   1.455   6.838
 9573SOL    HW229619   1.903   1.583   6.822
 9574SOL     OW29620   3.372   3.229   5.869
 9574SOL    HW129621   3.361   3.310   5.928
 9574SOL    HW229622   3.303   3.161   5.892
 9575SOL     OW29623   5.320   1.115   2.102
 9575SOL    HW129624   5.249   1.141   2.036
 9575SOL    HW229625   5.389   1.187   2.107
 9576SOL     OW29626   3.320   1.406   4.501
 9576SOL    HW129627   3.320   1.322   4.447
 9576SOL    HW229628   3.230   1.449   4.496
 9577SOL     OW29629   1.006   6.138   2.745
 9577SOL    HW129630   1.057   6.072   2.691
 9577SOL    HW229631   1.068   6.186   2.807
 9578SOL     OW29632   6.717   2.927   2.149
 9578SOL    HW129633   6.657   3.002   2.177
 9578SOL    HW229634   6.668   2.840   2.160
 9579SOL     OW29635   1.439   6.810   2.587
 9579SOL    HW129636   1.351   6.828   2.632
 9579SOL    HW229637   1.452   6.875   2.512
 9580SOL     OW29638   4.416   3.560   0.035
 9580SOL    HW129639   4.442   3.476   0.083
 9580SOL    HW229640   4.423   3.638   0.098
 9581SOL     OW29641   0.937   4.333   6.249
 9581SOL    HW129642   0.996   4.325   6.330
 9581SOL    HW229643   0.988   4.380   6.176
 9582SOL     OW29644   4.225   4.781   4.226
 9582SOL    HW129645   4.275   4.734   4.298
 9582SOL    HW229646   4.256   4.876   4.220
 9583SOL     OW29647   2.146   3.649   2.208
 9583SOL    HW129648   2.161   3.593   2.290
 9583SOL    HW229649   2.182   3.601   2.128
 9584SOL     OW29650   6.004   5.418   0.074
 9584SOL    HW129651   6.053   5.474   0.008
 9584SOL    HW229652   6.069   5.372   0.135
 9585SOL     OW29653   6.252   0.515   3.722
 9585SOL    HW129654   6.304   0.574   3.783
 9585SOL    HW229655   6.162   0.497   3.762
 9586SOL     OW29656   5.449   3.634   3.546
 9586SOL    HW129657   5.381   3.569   3.513
 9586SOL    HW229658   5.490   3.600   3.631
 9587SOL     OW29659   5.026   0.523   2.332
 9587SOL    HW129660   5.005   0.549   2.426
 9587SOL    HW229661   5.084   0.593   2.290
 9588SOL     OW29662   0.262   0.793   1.178
 9588SOL    HW129663   0.214   0.772   1.263
 9588SOL    HW229664   0.292   0.889   1.179
 9589SOL     OW29665   2.633   0.737   6.316
 9589SOL    HW129666   2.625   0.762   6.220
 9589SOL    HW229667   2.659   0.817   6.370
 9590SOL     OW29668   6.880   4.326   3.222
 9590SOL    HW129669   6.923   4.404   3.268
 9590SOL    HW229670   6.822   4.360   3.147
 9591SOL     OW29671   1.471   5.020   0.585
 9591SOL    HW129672   1.558   5.009   0.537
 9591SOL    HW229673   1.470   4.961   0.666
 9592SOL     OW29674   4.589   5.681   1.942
 9592SOL    HW129675   4.527   5.757   1.960
 9592SOL    HW229676   4.548   5.618   1.877
 9593SOL     OW29677   0.011   2.411   4.428
 9593SOL    HW129678   6.978   2.441   4.502
 9593SOL    HW229679   7.001   2.329   4.386
 9594SOL     OW29680   6.467   0.048   2.307
 9594SOL    HW129681   6.458   0.058   2.406
 9594SOL    HW229682   6.389   0.091   2.261
 9595SOL     OW29683   1.953   5.625   4.546
 9595SOL    HW129684   1.913   5.571   4.620
 9595SOL    HW229685   1.985   5.713   4.581
 9596SOL     OW29686   5.868   6.063   5.023
 9596SOL    HW129687   5.837   5.988   4.963
 9596SOL    HW229688   5.804   6.139   5.017
 9597SOL     OW29689   1.762   4.141   1.658
 9597SOL    HW129690   1.786   4.179   1.747
 9597SOL    HW229691   1.669   4.168   1.634
 9598SOL     OW29692   0.237   5.598   6.160
 9598SOL    HW129693   0.250   5.499   6.171
 9598SOL    HW229694   0.141   5.617   6.143
 9599SOL     OW29695   4.546   1.299   5.364
 9599SOL    HW129696   4.601   1.377   5.396
 9599SOL    HW229697   4.486   1.268   5.439
 9600SOL     OW29698   1.548   0.458   6.486
 9600SOL    HW129699   1.509   0.380   6.534
 9600SOL    HW229700   1.497   0.541   6.511
 9601SOL     OW29701   0.407   5.434   5.713
 9601SOL    HW129702   0.492   5.400   5.672
 9601SOL    HW229703   0.426   5.467   5.806
 9602SOL     OW29704   0.954   5.383   6.698
 9602SOL    HW129705   0.877   5.448   6.695
 9602SOL    HW229706   0.942   5.321   6.776
 9603SOL     OW29707   1.624   6.190   4.542
 9603SOL    HW129708   1.591   6.197   4.448
 9603SOL    HW229709   1.631   6.094   4.568
 9604SOL     OW29710   5.882   1.781   6.708
 9604SOL    HW129711   5.922   1.872   6.695
 9604SOL    HW229712   5.789   1.790   6.742
 9605SOL     OW29713   1.851   5.883   6.389
 9605SOL    HW129714   1.876   5.823   6.465
 9605SOL    HW229715   1.833   5.828   6.308
 9606SOL     OW29716   0.292   6.667   4.066
 9606SOL    HW129717   0.316   6.696   3.973
 9606SOL    HW229718   0.354   6.594   4.095
 9607SOL     OW29719   1.386   1.890   1.858
 9607SOL    HW129720   1.332   1.868   1.777
 9607SOL    HW229721   1.372   1.819   1.927
 9608SOL     OW29722   0.662   0.130   2.191
 9608SOL    HW129723   0.617   0.174   2.114
 9608SOL    HW229724   0.606   0.055   2.225
 9609SOL     OW29725   1.790   4.201   4.481
 9609SOL    HW129726   1.815   4.151   4.398
 9609SOL    HW229727   1.697   4.177   4.508
 9610SOL     OW29728   2.191   1.985   5.638
 9610SOL    HW129729   2.238   1.996   5.550
 9610SOL    HW229730   2.229   2.049   5.704
 9611SOL     OW29731   6.054   7.015   0.770
 9611SOL    HW129732   5.965   0.027   0.793
 9611SOL    HW229733   6.121   0.060   0.756
 9612SOL     OW29734   6.090   2.572   1.930
 9612SOL    HW129735   6.050   2.598   1.841
 9612SOL    HW229736   6.042   2.621   2.003
 9613SOL     OW29737   6.127   6.619   5.114
 9613SOL    HW129738   6.187   6.573   5.180
 9613SOL    HW229739   6.183   6.661   5.043
 9614SOL     OW29740   3.688   3.677   2.474
 9614SOL    HW129741   3.611   3.735   2.500
 9614SOL    HW229742   3.669   3.582   2.498
 9615SOL     OW29743   0.944   5.908   2.423
 9615SOL    HW129744   1.021   5.857   2.461
 9615SOL    HW229745   0.969   6.004   2.413
 9616SOL     OW29746   3.904   3.094   1.158
 9616SOL    HW129747   3.836   3.165   1.177
 9616SOL    HW229748   3.865   3.028   1.093
 9617SOL     OW29749   0.889   3.157   3.843
 9617SOL    HW129750   0.858   3.104   3.921
 9617SOL    HW229751   0.813   3.210   3.805
 9618SOL     OW29752   3.957   6.209   6.479
 9618SOL    HW129753   4.020   6.140   6.515
 9618SOL    HW229754   3.886   6.165   6.424
 9619SOL     OW29755   2.776   6.301   0.685
 9619SOL    HW129756   2.863   6.274   0.725
 9619SOL    HW229757   2.791   6.333   0.591
 9620SOL     OW29758   3.224   1.645   6.543
 9620SOL    HW129759   3.293   1.665   6.474
 9620SOL    HW229760   3.136   1.680   6.513
 9621SOL     OW29761   0.530   0.410   1.156
 9621SOL    HW129762   0.536   0.462   1.071
 9621SOL    HW229763   0.481   0.325   1.139
 9622SOL     OW29764   5.997   0.700   6.123
 9622SOL    HW129765   5.951   0.618   6.090
 9622SOL    HW229766   6.017   0.690   6.221
 9623SOL     OW29767   4.773   6.040   6.201
 9623SOL    HW129768   4.837   6.067   6.273
 9623SOL    HW229769   4.805   6.077   6.114
 9624SOL     OW29770   4.241   5.146   5.325
 9624SOL    HW129771   4.161   5.201   5.302
 9624SOL    HW229772   4.230   5.054   5.286
 9625SOL     OW29773   5.013   4.524   6.342
 9625SOL    HW129774   4.983   4.611   6.303
 9625SOL    HW229775   4.970   4.510   6.431
 9626SOL     OW29776   1.837   4.166   6.024
 9626SOL    HW129777   1.758   4.182   5.965
 9626SOL    HW229778   1.810   4.181   6.119
 9627SOL     OW29779   0.934   4.966   6.997
 9627SOL    HW129780   0.944   4.934   0.064
 9627SOL    HW229781   0.897   4.892   6.941
 9628SOL     OW29782   5.348   3.601   0.098
 9628SOL    HW129783   5.444   3.609   0.124
 9628SOL    HW229784   5.339   3.531   0.027
 9629SOL     OW29785   0.341   5.664   3.529
 9629SOL    HW129786   0.416   5.603   3.504
 9629SOL    HW229787   0.355   5.697   3.623
 9630SOL     OW29788   6.684   5.988   5.877
 9630SOL    HW129789   6.759   6.048   5.904
 9630SOL    HW229790   6.610   5.995   5.944
 9631SOL     OW29791   4.394   1.255   0.395
 9631SOL    HW129792   4.420   1.214   0.483
 9631SOL    HW229793   4.476   1.287   0.348
 9632SOL     OW29794   3.453   6.448   1.089
 9632SOL    HW129795   3.488   6.357   1.113
 9632SOL    HW229796   3.353   6.445   1.088
 9633SOL     OW29797   3.633   2.906   2.925
 9633SOL    HW129798   3.676   2.842   2.988
 9633SOL    HW229799   3.639   2.999   2.962
 9634SOL     OW29800   5.354   4.476   2.411
 9634SOL    HW129801   5.419   4.402   2.394
 9634SOL    HW229802   5.405   4.560   2.429
 9635SOL     OW29803   0.763   3.751   3.486
 9635SOL    HW129804   0.741   3.700   3.569
 9635SOL    HW229805   0.679   3.773   3.437
 9636SOL     OW29806   4.489   2.477   4.629
 9636SOL    HW129807   4.475   2.448   4.724
 9636SOL    HW229808   4.586   2.500   4.615
 9637SOL     OW29809   2.846   3.030   1.048
 9637SOL    HW129810   2.893   2.976   1.119
 9637SOL    HW229811   2.801   2.968   0.983
 9638SOL     OW29812   7.000   4.558   5.669
 9638SOL    HW129813   7.009   4.537   5.572
 9638SOL    HW229814   6.999   4.473   5.721
 9639SOL     OW29815   4.571   1.536   1.932
 9639SOL    HW129816   4.586   1.483   2.016
 9639SOL    HW229817   4.642   1.606   1.925
 9640SOL     OW29818   3.404   0.211   2.725
 9640SOL    HW129819   3.403   0.179   2.630
 9640SOL    HW229820   3.481   0.274   2.738
 9641SOL     OW29821   6.161   4.140   2.435
 9641SOL    HW129822   6.103   4.181   2.364
 9641SOL    HW229823   6.118   4.152   2.525
 9642SOL     OW29824   2.424   0.437   3.406
 9642SOL    HW129825   2.402   0.504   3.335
 9642SOL    HW229826   2.391   0.347   3.378
 9643SOL     OW29827   5.093   4.558   4.366
 9643SOL    HW129828   5.007   4.512   4.344
 9643SOL    HW229829   5.149   4.567   4.284
 9644SOL     OW29830   1.535   5.385   4.928
 9644SOL    HW129831   1.470   5.338   4.868
 9644SOL    HW229832   1.603   5.319   4.961
 9645SOL     OW29833   1.340   5.727   6.737
 9645SOL    HW129834   1.255   5.761   6.697
 9645SOL    HW229835   1.417   5.774   6.695
 9646SOL     OW29836   3.566   6.216   5.546
 9646SOL    HW129837   3.471   6.209   5.516
 9646SOL    HW229838   3.595   6.311   5.545
 9647SOL     OW29839   6.220   6.400   3.371
 9647SOL    HW129840   6.227   6.500   3.379
 9647SOL    HW229841   6.139   6.369   3.422
 9648SOL     OW29842   4.733   2.352   0.767
 9648SOL    HW129843   4.792   2.318   0.694
 9648SOL    HW229844   4.788   2.404   0.832
 9649SOL     OW29845   2.609   3.480   0.565
 9649SOL    HW129846   2.680   3.527   0.512
 9649SOL    HW229847   2.519   3.508   0.532
 9650SOL     OW29848   6.790   4.652   4.463
 9650SOL    HW129849   6.816   4.748   4.472
 9650SOL    HW229850   6.695   4.640   4.490
 9651SOL     OW29851   3.156   1.408   0.183
 9651SOL    HW129852   3.155   1.370   0.275
 9651SOL    HW229853   3.064   1.437   0.157
 9652SOL     OW29854   0.225   4.063   0.528
 9652SOL    HW129855   0.235   4.043   0.626
 9652SOL    HW229856   0.258   3.985   0.474
 9653SOL     OW29857   4.882   4.092   5.969
 9653SOL    HW129858   4.959   4.037   5.936
 9653SOL    HW229859   4.910   4.142   6.051
 9654SOL     OW29860   3.519   3.366   4.282
 9654SOL    HW129861   3.581   3.316   4.221
 9654SOL    HW229862   3.568   3.393   4.365
 9655SOL     OW29863   5.409   0.914   2.258
 9655SOL    HW129864   5.382   0.991   2.201
 9655SOL    HW229865   5.492   0.939   2.310
 9656SOL     OW29866   5.288   4.355   1.442
 9656SOL    HW129867   5.388   4.346   1.443
 9656SOL    HW229868   5.256   4.361   1.347
 9657SOL     OW29869   6.254   3.558   3.425
 9657SOL    HW129870   6.230   3.540   3.521
 9657SOL    HW229871   6.241   3.475   3.371
 9658SOL     OW29872   5.064   1.792   2.230
 9658SOL    HW129873   5.074   1.869   2.167
 9658SOL    HW229874   5.005   1.723   2.189
 9659SOL     OW29875   3.303   2.740   1.216
 9659SOL    HW129876   3.223   2.772   1.166
 9659SOL    HW229877   3.298   2.771   1.311
 9660SOL     OW29878   0.678   5.919   1.142
 9660SOL    HW129879   0.772   5.934   1.172
 9660SOL    HW229880   0.628   5.869   1.213
 9661SOL     OW29881   4.835   4.585   1.040
 9661SOL    HW129882   4.832   4.641   0.957
 9661SOL    HW229883   4.826   4.643   1.120
 9662SOL     OW29884   5.114   4.128   6.539
 9662SOL    HW129885   5.162   4.127   6.627
 9662SOL    HW229886   5.016   4.123   6.555
 9663SOL     OW29887   0.818   4.666   3.534
 9663SOL    HW129888   0.885   4.595   3.513
 9663SOL    HW229889   0.740   4.626   3.582
 9664SOL     OW29890   5.426   4.302   3.505
 9664SOL    HW129891   5.367   4.371   3.546
 9664SOL    HW229892   5.521   4.318   3.534
 9665SOL     OW29893   5.805   6.428   6.687
 9665SOL    HW129894   5.834   6.484   6.764
 9665SOL    HW229895   5.869   6.351   6.676
 9666SOL     OW29896   6.252   4.240   1.162
 9666SOL    HW129897   6.235   4.329   1.205
 9666SOL    HW229898   6.338   4.243   1.111
 9667SOL     OW29899   4.924   5.257   1.023
 9667SOL    HW129900   5.018   5.284   1.002
 9667SOL    HW229901   4.898   5.295   1.113
 9668SOL     OW29902   0.964   6.280   5.956
 9668SOL    HW129903   0.984   6.221   5.877
 9668SOL    HW229904   1.034   6.352   5.962
 9669SOL     OW29905   3.320   6.757   0.530
 9669SOL    HW129906   3.381   6.730   0.605
 9669SOL    HW229907   3.374   6.799   0.457
 9670SOL     OW29908   0.038   0.068   6.144
 9670SOL    HW129909   6.991   0.002   6.148
 9670SOL    HW229910   0.109   0.034   6.082
 9671SOL     OW29911   1.164   4.860   6.611
 9671SOL    HW129912   1.157   4.937   6.675
 9671SOL    HW229913   1.129   4.887   6.522
 9672SOL     OW29914   0.590   4.358   4.109
 9672SOL    HW129915   0.609   4.267   4.146
 9672SOL    HW229916   0.630   4.428   4.169
 9673SOL     OW29917   2.447   3.800   1.342
 9673SOL    HW129918   2.479   3.873   1.282
 9673SOL    HW229919   2.470   3.823   1.437
 9674SOL     OW29920   3.152   5.888   3.350
 9674SOL    HW129921   3.230   5.920   3.295
 9674SOL    HW229922   3.068   5.898   3.298
 9675SOL     OW29923   4.770   4.216   1.405
 9675SOL    HW129924   4.845   4.150   1.403
 9675SOL    HW229925   4.770   4.264   1.493
 9676SOL     OW29926   1.469   2.983   5.642
 9676SOL    HW129927   1.497   2.889   5.662
 9676SOL    HW229928   1.371   2.984   5.621
 9677SOL     OW29929   6.255   5.111   0.543
 9677SOL    HW129930   6.217   5.202   0.532
 9677SOL    HW229931   6.235   5.055   0.463
 9678SOL     OW29932   3.440   3.966   5.110
 9678SOL    HW129933   3.501   3.945   5.034
 9678SOL    HW229934   3.494   4.000   5.188
 9679SOL     OW29935   1.996   1.261   4.865
 9679SOL    HW129936   1.927   1.328   4.891
 9679SOL    HW229937   1.956   1.195   4.802
 9680SOL     OW29938   4.702   6.253   2.830
 9680SOL    HW129939   4.767   6.244   2.905
 9680SOL    HW229940   4.722   6.337   2.779
 9681SOL     OW29941   1.835   0.557   1.504
 9681SOL    HW129942   1.816   0.641   1.555
 9681SOL    HW229943   1.801   0.567   1.410
 9682SOL     OW29944   5.730   5.875   4.879
 9682SOL    HW129945   5.646   5.927   4.892
 9682SOL    HW229946   5.708   5.782   4.849
 9683SOL     OW29947   2.193   0.309   1.041
 9683SOL    HW129948   2.286   0.322   1.075
 9683SOL    HW229949   2.187   0.222   0.992
 9684SOL     OW29950   1.578   4.436   5.330
 9684SOL    HW129951   1.521   4.434   5.412
 9684SOL    HW229952   1.636   4.354   5.328
 9685SOL     OW29953   3.865   4.206   0.648
 9685SOL    HW129954   3.836   4.256   0.566
 9685SOL    HW229955   3.918   4.267   0.707
 9686SOL     OW29956   6.140   2.208   6.039
 9686SOL    HW129957   6.200   2.288   6.036
 9686SOL    HW229958   6.149   2.157   5.953
 9687SOL     OW29959   6.207   0.189   2.216
 9687SOL    HW129960   6.152   0.264   2.254
 9687SOL    HW229961   6.254   0.221   2.134
 9688SOL     OW29962   1.617   4.828   1.550
 9688SOL    HW129963   1.625   4.845   1.452
 9688SOL    HW229964   1.582   4.910   1.595
 9689SOL     OW29965   1.226   6.187   0.216
 9689SOL    HW129966   1.228   6.149   0.124
 9689SOL    HW229967   1.279   6.272   0.218
 9690SOL     OW29968   5.723   5.908   5.218
 9690SOL    HW129969   5.790   5.970   5.178
 9690SOL    HW229970   5.725   5.820   5.170
 9691SOL     OW29971   3.299   3.757   1.898
 9691SOL    HW129972   3.309   3.853   1.925
 9691SOL    HW229973   3.202   3.737   1.883
 9692SOL     OW29974   4.523   4.932   0.170
 9692SOL    HW129975   4.428   4.947   0.198
 9692SOL    HW229976   4.568   4.872   0.236
 9693SOL     OW29977   5.668   4.050   3.864
 9693SOL    HW129978   5.677   3.978   3.796
 9693SOL    HW229979   5.713   4.133   3.832
 9694SOL     OW29980   2.937   6.711   1.935
 9694SOL    HW129981   2.938   6.779   1.863
 9694SOL    HW229982   2.846   6.708   1.978
 9695SOL     OW29983   0.320   3.318   4.413
 9695SOL    HW129984   0.418   3.335   4.403
 9695SOL    HW229985   0.275   3.331   4.325
 9696SOL     OW29986   6.093   2.058   3.085
 9696SOL    HW129987   6.030   1.985   3.110
 9696SOL    HW229988   6.086   2.133   3.151
 9697SOL     OW29989   0.053   5.775   0.433
 9697SOL    HW129990   0.077   5.777   0.336
 9697SOL    HW229991   0.040   5.869   0.465
 9698SOL     OW29992   4.947   3.588   0.385
 9698SOL    HW129993   4.892   3.580   0.303
 9698SOL    HW229994   5.043   3.566   0.364
 9699SOL     OW29995   1.140   4.955   0.339
 9699SOL    HW129996   1.158   5.021   0.412
 9699SOL    HW229997   1.041   4.946   0.325
 9700SOL     OW29998   5.934   6.514   3.989
 9700SOL    HW129999   5.932   6.501   4.088
 9700SOL    HW230000   5.846   6.486   3.949
 9701SOL     OW30001   4.968   2.974   6.578
 9701SOL    HW130002   4.942   3.061   6.621
 9701SOL    HW230003   4.959   2.900   6.645
 9702SOL     OW30004   3.642   3.049   0.923
 9702SOL    HW130005   3.628   3.148   0.920
 9702SOL    HW230006   3.566   3.005   0.972
 9703SOL     OW30007   6.154   3.821   5.108
 9703SOL    HW130008   6.228   3.887   5.125
 9703SOL    HW230009   6.102   3.807   5.193
 9704SOL     OW30010   2.692   4.708   2.818
 9704SOL    HW130011   2.598   4.738   2.804
 9704SOL    HW230012   2.728   4.671   2.732
 9705SOL     OW30013   6.179   4.367   5.473
 9705SOL    HW130014   6.223   4.347   5.386
 9705SOL    HW230015   6.083   4.392   5.457
 9706SOL     OW30016   1.053   1.420   1.989
 9706SOL    HW130017   0.998   1.337   1.979
 9706SOL    HW230018   1.143   1.397   2.025
 9707SOL     OW30019   6.045   4.872   2.492
 9707SOL    HW130020   6.074   4.786   2.534
 9707SOL    HW230021   6.008   4.854   2.401
 9708SOL     OW30022   1.484   0.756   2.378
 9708SOL    HW130023   1.501   0.745   2.476
 9708SOL    HW230024   1.391   0.726   2.356
 9709SOL     OW30025   5.946   3.095   2.267
 9709SOL    HW130026   5.883   3.018   2.252
 9709SOL    HW230027   6.022   3.089   2.203
 9710SOL     OW30028   5.954   6.238   5.580
 9710SOL    HW130029   5.965   6.333   5.611
 9710SOL    HW230030   5.976   6.176   5.654
 9711SOL     OW30031   4.325   6.554   6.872
 9711SOL    HW130032   4.419   6.522   6.859
 9711SOL    HW230033   4.316   6.646   6.834
 9712SOL     OW30034   5.913   2.888   0.474
 9712SOL    HW130035   5.981   2.816   0.474
 9712SOL    HW230036   5.824   2.850   0.450
 9713SOL     OW30037   1.927   6.065   3.588
 9713SOL    HW130038   1.839   6.108   3.569
 9713SOL    HW230039   1.980   6.124   3.650
 9714SOL     OW30040   4.106   5.056   4.495
 9714SOL    HW130041   4.155   5.047   4.408
 9714SOL    HW230042   4.036   5.127   4.486
 9715SOL     OW30043   6.130   4.808   1.124
 9715SOL    HW130044   6.220   4.771   1.102
 9715SOL    HW230045   6.073   4.736   1.165
 9716SOL     OW30046   3.687   4.716   6.992
 9716SOL    HW130047   3.766   4.775   6.975
 9716SOL    HW230048   3.697   4.631   6.940
 9717SOL     OW30049   4.664   0.919   5.817
 9717SOL    HW130050   4.577   0.924   5.866
 9717SOL    HW230051   4.653   0.866   5.733
 9718SOL     OW30052   3.253   2.100   0.505
 9718SOL    HW130053   3.245   2.086   0.407
 9718SOL    HW230054   3.284   2.194   0.524
 9719SOL     OW30055   4.555   6.202   5.022
 9719SOL    HW130056   4.595   6.193   5.113
 9719SOL    HW230057   4.542   6.111   4.982
 9720SOL     OW30058   1.669   4.291   3.041
 9720SOL    HW130059   1.717   4.345   3.110
 9720SOL    HW230060   1.731   4.221   3.005
 9721SOL     OW30061   0.914   1.875   0.131
 9721SOL    HW130062   1.004   1.842   0.160
 9721SOL    HW230063   0.843   1.823   0.179
 9722SOL     OW30064   3.695   2.690   5.559
 9722SOL    HW130065   3.736   2.780   5.547
 9722SOL    HW230066   3.635   2.670   5.482
 9723SOL     OW30067   6.105   4.505   4.620
 9723SOL    HW130068   6.011   4.515   4.651
 9723SOL    HW230069   6.138   4.593   4.585
 9724SOL     OW30070   1.570   5.317   6.973
 9724SOL    HW130071   1.667   5.341   6.965
 9724SOL    HW230072   1.515   5.385   6.924
 9725SOL     OW30073   3.330   5.416   5.180
 9725SOL    HW130074   3.258   5.348   5.169
 9725SOL    HW230075   3.394   5.387   5.250
 9726SOL     OW30076   6.089   0.691   4.007
 9726SOL    HW130077   6.032   0.644   4.075
 9726SOL    HW230078   6.071   0.790   4.011
 9727SOL     OW30079   0.713   2.309   6.553
 9727SOL    HW130080   0.767   2.383   6.594
 9727SOL    HW230081   0.635   2.288   6.612
 9728SOL     OW30082   5.793   0.467   5.954
 9728SOL    HW130083   5.812   0.384   5.901
 9728SOL    HW230084   5.781   0.443   6.050
 9729SOL     OW30085   0.836   4.178   3.490
 9729SOL    HW130086   0.889   4.263   3.481
 9729SOL    HW230087   0.894   4.100   3.467
 9730SOL     OW30088   0.290   4.573   3.067
 9730SOL    HW130089   0.203   4.524   3.073
 9730SOL    HW230090   0.363   4.517   3.107
 9731SOL     OW30091   5.131   3.672   2.838
 9731SOL    HW130092   5.070   3.678   2.758
 9731SOL    HW230093   5.204   3.740   2.829
 9732SOL     OW30094   1.774   2.727   2.386
 9732SOL    HW130095   1.803   2.652   2.326
 9732SOL    HW230096   1.840   2.802   2.381
 9733SOL     OW30097   6.160   5.611   2.711
 9733SOL    HW130098   6.249   5.620   2.755
 9733SOL    HW230099   6.126   5.517   2.722
 9734SOL     OW30100   6.308   6.526   6.491
 9734SOL    HW130101   6.227   6.508   6.435
 9734SOL    HW230102   6.298   6.615   6.536
 9735SOL     OW30103   1.303   1.603   2.483
 9735SOL    HW130104   1.236   1.670   2.514
 9735SOL    HW230105   1.286   1.515   2.529
 9736SOL     OW30106   5.085   2.172   5.148
 9736SOL    HW130107   5.063   2.191   5.053
 9736SOL    HW230108   5.040   2.088   5.177
 9737SOL     OW30109   6.096   1.598   2.391
 9737SOL    HW130110   6.030   1.555   2.329
 9737SOL    HW230111   6.088   1.558   2.482
 9738SOL     OW30112   2.326   5.934   1.011
 9738SOL    HW130113   2.398   5.876   0.973
 9738SOL    HW230114   2.258   5.878   1.059
 9739SOL     OW30115   4.705   6.909   6.973
 9739SOL    HW130116   4.696   6.857   6.888
 9739SOL    HW230117   4.795   6.951   6.977
 9740SOL     OW30118   6.263   0.943   2.483
 9740SOL    HW130119   6.282   1.033   2.522
 9740SOL    HW230120   6.321   0.874   2.528
 9741SOL     OW30121   3.070   1.802   4.813
 9741SOL    HW130122   3.026   1.721   4.853
 9741SOL    HW230123   3.024   1.884   4.847
 9742SOL     OW30124   4.331   1.318   6.545
 9742SOL    HW130125   4.243   1.333   6.500
 9742SOL    HW230126   4.390   1.397   6.530
 9743SOL     OW30127   6.695   3.042   3.489
 9743SOL    HW130128   6.782   3.071   3.451
 9743SOL    HW230129   6.635   3.012   3.414
 9744SOL     OW30130   1.973   6.677   3.668
 9744SOL    HW130131   1.978   6.613   3.591
 9744SOL    HW230132   1.951   6.626   3.751
 9745SOL     OW30133   5.813   1.377   5.566
 9745SOL    HW130134   5.865   1.313   5.509
 9745SOL    HW230135   5.818   1.348   5.662
 9746SOL     OW30136   5.131   6.150   6.623
 9746SOL    HW130137   5.087   6.239   6.632
 9746SOL    HW230138   5.226   6.157   6.655
 9747SOL     OW30139   2.251   2.008   1.986
 9747SOL    HW130140   2.305   1.950   2.047
 9747SOL    HW230141   2.313   2.059   1.926
 9748SOL     OW30142   0.565   0.549   3.227
 9748SOL    HW130143   0.539   0.513   3.316
 9748SOL    HW230144   0.486   0.592   3.183
 9749SOL     OW30145   0.722   1.548   2.286
 9749SOL    HW130146   0.673   1.477   2.236
 9749SOL    HW230147   0.680   1.560   2.376
 9750SOL     OW30148   5.981   4.866   4.316
 9750SOL    HW130149   5.886   4.849   4.344
 9750SOL    HW230150   6.013   4.790   4.259
 9751SOL     OW30151   2.459   0.340   1.706
 9751SOL    HW130152   2.518   0.295   1.772
 9751SOL    HW230153   2.515   0.379   1.633
 9752SOL     OW30154   4.557   2.448   0.370
 9752SOL    HW130155   4.482   2.436   0.435
 9752SOL    HW230156   4.550   2.539   0.328
 9753SOL     OW30157   0.117   5.921   6.360
 9753SOL    HW130158   0.033   5.958   6.398
 9753SOL    HW230159   0.116   5.821   6.369
 9754SOL     OW30160   4.164   0.803   0.519
 9754SOL    HW130161   4.080   0.748   0.516
 9754SOL    HW230162   4.243   0.743   0.523
 9755SOL     OW30163   3.405   4.127   5.445
 9755SOL    HW130164   3.485   4.141   5.387
 9755SOL    HW230165   3.405   4.195   5.519
 9756SOL     OW30166   5.459   1.542   6.074
 9756SOL    HW130167   5.516   1.604   6.019
 9756SOL    HW230168   5.501   1.528   6.164
 9757SOL     OW30169   5.657   4.117   4.388
 9757SOL    HW130170   5.577   4.149   4.439
 9757SOL    HW230171   5.631   4.097   4.293
 9758SOL     OW30172   1.085   0.740   0.455
 9758SOL    HW130173   1.085   0.641   0.445
 9758SOL    HW230174   0.993   0.776   0.439
 9759SOL     OW30175   0.721   1.391   0.505
 9759SOL    HW130176   0.804   1.342   0.534
 9759SOL    HW230177   0.644   1.327   0.503
 9760SOL     OW30178   4.811   2.555   6.943
 9760SOL    HW130179   4.717   2.522   6.943
 9760SOL    HW230180   4.874   2.478   6.945
 9761SOL     OW30181   1.236   0.900   1.910
 9761SOL    HW130182   1.143   0.930   1.935
 9761SOL    HW230183   1.265   0.949   1.828
 9762SOL     OW30184   3.013   1.528   4.863
 9762SOL    HW130185   3.038   1.507   4.768
 9762SOL    HW230186   2.917   1.502   4.878
 9763SOL     OW30187   6.475   1.752   1.839
 9763SOL    HW130188   6.533   1.804   1.902
 9763SOL    HW230189   6.379   1.766   1.863
 9764SOL     OW30190   5.866   2.239   2.338
 9764SOL    HW130191   5.950   2.264   2.290
 9764SOL    HW230192   5.804   2.192   2.275
 9765SOL     OW30193   6.384   1.374   1.942
 9765SOL    HW130194   6.317   1.419   2.001
 9765SOL    HW230195   6.428   1.443   1.883
 9766SOL     OW30196   2.648   0.420   3.599
 9766SOL    HW130197   2.566   0.428   3.543
 9766SOL    HW230198   2.698   0.337   3.573
 9767SOL     OW30199   2.277   3.335   5.818
 9767SOL    HW130200   2.180   3.333   5.793
 9767SOL    HW230201   2.293   3.411   5.882
 9768SOL     OW30202   5.981   2.431   0.588
 9768SOL    HW130203   6.011   2.395   0.676
 9768SOL    HW230204   5.884   2.455   0.592
 9769SOL     OW30205   3.272   1.368   5.369
 9769SOL    HW130206   3.218   1.419   5.436
 9769SOL    HW230207   3.240   1.273   5.365
 9770SOL     OW30208   3.680   2.412   6.269
 9770SOL    HW130209   3.746   2.388   6.198
 9770SOL    HW230210   3.683   2.511   6.284
 9771SOL     OW30211   2.493   6.414   2.303
 9771SOL    HW130212   2.585   6.378   2.285
 9771SOL    HW230213   2.484   6.436   2.400
 9772SOL     OW30214   1.526   5.940   2.111
 9772SOL    HW130215   1.554   6.030   2.077
 9772SOL    HW230216   1.429   5.925   2.089
 9773SOL     OW30217   5.280   5.838   2.671
 9773SOL    HW130218   5.224   5.794   2.740
 9773SOL    HW230219   5.223   5.897   2.614
 9774SOL     OW30220   0.780   5.460   3.725
 9774SOL    HW130221   0.839   5.531   3.765
 9774SOL    HW230222   0.696   5.453   3.779
 9775SOL     OW30223   2.783   0.681   3.564
 9775SOL    HW130224   2.727   0.698   3.645
 9775SOL    HW230225   2.777   0.585   3.537
 9776SOL     OW30226   1.661   5.068   5.815
 9776SOL    HW130227   1.733   5.028   5.871
 9776SOL    HW230228   1.572   5.045   5.854
 9777SOL     OW30229   5.408   6.901   6.677
 9777SOL    HW130230   5.410   6.804   6.652
 9777SOL    HW230231   5.358   6.913   6.763
 9778SOL     OW30232   0.567   1.979   4.583
 9778SOL    HW130233   0.600   2.011   4.494
 9778SOL    HW230234   0.511   2.050   4.625
 9779SOL     OW30235   0.685   2.050   3.142
 9779SOL    HW130236   0.755   2.093   3.200
 9779SOL    HW230237   0.697   1.951   3.145
 9780SOL     OW30238   1.544   1.833   1.336
 9780SOL    HW130239   1.584   1.871   1.419
 9780SOL    HW230240   1.493   1.750   1.359
 9781SOL     OW30241   1.442   3.712   3.714
 9781SOL    HW130242   1.393   3.671   3.791
 9781SOL    HW230243   1.382   3.714   3.634
 9782SOL     OW30244   0.486   2.499   0.301
 9782SOL    HW130245   0.430   2.572   0.339
 9782SOL    HW230246   0.427   2.427   0.264
 9783SOL     OW30247   4.079   1.646   3.289
 9783SOL    HW130248   4.000   1.661   3.348
 9783SOL    HW230249   4.069   1.559   3.241
 9784SOL     OW30250   2.955   1.244   6.995
 9784SOL    HW130251   3.051   1.225   6.971
 9784SOL    HW230252   2.933   1.339   6.973
 9785SOL     OW30253   6.903   2.569   4.637
 9785SOL    HW130254   6.934   2.547   4.729
 9785SOL    HW230255   6.964   2.637   4.597
 9786SOL     OW30256   3.141   4.273   0.582
 9786SOL    HW130257   3.080   4.225   0.645
 9786SOL    HW230258   3.156   4.367   0.613
 9787SOL     OW30259   3.796   3.919   3.615
 9787SOL    HW130260   3.884   3.877   3.636
 9787SOL    HW230261   3.722   3.855   3.636
 9788SOL     OW30262   0.620   5.925   1.683
 9788SOL    HW130263   0.545   5.931   1.749
 9788SOL    HW230264   0.702   5.891   1.729
 9789SOL     OW30265   2.985   6.950   6.510
 9789SOL    HW130266   2.902   6.895   6.511
 9789SOL    HW230267   3.063   6.894   6.538
 9790SOL     OW30268   6.609   4.134   5.041
 9790SOL    HW130269   6.679   4.063   5.038
 9790SOL    HW230270   6.554   4.130   4.957
 9791SOL     OW30271   0.689   6.223   0.416
 9791SOL    HW130272   0.754   6.191   0.347
 9791SOL    HW230273   0.738   6.275   0.486
 9792SOL     OW30274   3.181   5.231   0.673
 9792SOL    HW130275   3.249   5.158   0.677
 9792SOL    HW230276   3.166   5.258   0.578
 9793SOL     OW30277   4.513   1.140   1.634
 9793SOL    HW130278   4.611   1.125   1.642
 9793SOL    HW230279   4.480   1.099   1.549
 9794SOL     OW30280   4.771   4.431   4.723
 9794SOL    HW130281   4.864   4.410   4.753
 9794SOL    HW230282   4.770   4.520   4.676
 9795SOL     OW30283   0.834   3.380   4.223
 9795SOL    HW130284   0.882   3.296   4.199
 9795SOL    HW230285   0.897   3.442   4.270
 9796SOL     OW30286   3.860   3.707   3.392
 9796SOL    HW130287   3.797   3.713   3.470
 9796SOL    HW230288   3.859   3.613   3.357
 9797SOL     OW30289   3.274   6.272   6.664
 9797SOL    HW130290   3.270   6.207   6.589
 9797SOL    HW230291   3.182   6.304   6.685
 9798SOL     OW30292   2.330   2.708   1.320
 9798SOL    HW130293   2.232   2.697   1.308
 9798SOL    HW230294   2.369   2.625   1.360
 9799SOL     OW30295   2.770   5.305   6.522
 9799SOL    HW130296   2.813   5.250   6.593
 9799SOL    HW230297   2.830   5.309   6.442
 9800SOL     OW30298   5.850   2.904   4.202
 9800SOL    HW130299   5.856   2.971   4.128
 9800SOL    HW230300   5.832   2.814   4.163
 9801SOL     OW30301   5.290   4.872   6.826
 9801SOL    HW130302   5.296   4.877   6.926
 9801SOL    HW230303   5.376   4.835   6.790
 9802SOL     OW30304   4.036   5.197   0.566
 9802SOL    HW130305   4.033   5.296   0.565
 9802SOL    HW230306   4.129   5.166   0.582
 9803SOL     OW30307   1.768   3.075   6.536
 9803SOL    HW130308   1.684   3.129   6.538
 9803SOL    HW230309   1.832   3.110   6.605
 9804SOL     OW30310   6.599   5.840   2.945
 9804SOL    HW130311   6.541   5.764   2.975
 9804SOL    HW230312   6.655   5.871   3.021
 9805SOL     OW30313   0.583   6.617   3.377
 9805SOL    HW130314   0.559   6.714   3.375
 9805SOL    HW230315   0.681   6.606   3.360
 9806SOL     OW30316   3.940   1.985   6.024
 9806SOL    HW130317   3.997   1.975   5.943
 9806SOL    HW230318   3.856   2.033   6.001
 9807SOL     OW30319   3.194   3.011   2.558
 9807SOL    HW130320   3.190   2.932   2.497
 9807SOL    HW230321   3.268   2.998   2.624
 9808SOL     OW30322   4.217   6.028   4.025
 9808SOL    HW130323   4.213   6.123   3.995
 9808SOL    HW230324   4.288   5.979   3.973
 9809SOL     OW30325   0.406   2.831   0.485
 9809SOL    HW130326   0.405   2.888   0.403
 9809SOL    HW230327   0.378   2.738   0.460
 9810SOL     OW30328   2.502   1.792   5.125
 9810SOL    HW130329   2.572   1.729   5.158
 9810SOL    HW230330   2.502   1.793   5.025
 9811SOL     OW30331   6.584   3.724   4.329
 9811SOL    HW130332   6.660   3.751   4.388
 9811SOL    HW230333   6.525   3.658   4.377
 9812SOL     OW30334   2.637   6.845   4.795
 9812SOL    HW130335   2.716   6.785   4.786
 9812SOL    HW230336   2.600   6.837   4.888
 9813SOL     OW30337   5.230   2.723   0.645
 9813SOL    HW130338   5.191   2.648   0.697
 9813SOL    HW230339   5.289   2.778   0.705
 9814SOL     OW30340   5.733   1.930   0.200
 9814SOL    HW130341   5.751   1.996   0.273
 9814SOL    HW230342   5.647   1.953   0.154
 9815SOL     OW30343   4.743   2.623   4.363
 9815SOL    HW130344   4.759   2.721   4.357
 9815SOL    HW230345   4.655   2.600   4.322
 9816SOL     OW30346   1.240   6.950   6.057
 9816SOL    HW130347   1.166   6.884   6.074
 9816SOL    HW230348   1.209   0.014   6.082
 9817SOL     OW30349   0.815   6.843   3.145
 9817SOL    HW130350   0.782   6.762   3.096
 9817SOL    HW230351   0.862   6.815   3.228
 9818SOL     OW30352   5.827   1.687   5.165
 9818SOL    HW130353   5.808   1.685   5.263
 9818SOL    HW230354   5.867   1.600   5.137
 9819SOL     OW30355   4.207   2.287   3.197
 9819SOL    HW130356   4.262   2.315   3.275
 9819SOL    HW230357   4.266   2.278   3.116
 9820SOL     OW30358   3.123   4.365   6.392
 9820SOL    HW130359   3.198   4.430   6.396
 9820SOL    HW230360   3.068   4.382   6.310
 9821SOL     OW30361   5.876   6.605   6.892
 9821SOL    HW130362   5.826   6.676   6.942
 9821SOL    HW230363   5.965   6.640   6.863
 9822SOL     OW30364   0.941   6.700   2.873
 9822SOL    HW130365   0.970   6.680   2.780
 9822SOL    HW230366   0.929   6.798   2.885
 9823SOL     OW30367   3.346   0.770   1.498
 9823SOL    HW130368   3.350   0.677   1.461
 9823SOL    HW230369   3.269   0.777   1.562
 9824SOL     OW30370   1.105   4.103   6.062
 9824SOL    HW130371   1.128   4.200   6.056
 9824SOL    HW230372   1.099   4.075   6.158
 9825SOL     OW30373   3.659   6.028   5.720
 9825SOL    HW130374   3.744   5.980   5.697
 9825SOL    HW230375   3.641   6.098   5.650
 9826SOL     OW30376   4.893   6.152   5.963
 9826SOL    HW130377   4.860   6.246   5.956
 9826SOL    HW230378   4.909   6.115   5.871
 9827SOL     OW30379   1.557   4.164   4.666
 9827SOL    HW130380   1.619   4.132   4.738
 9827SOL    HW230381   1.530   4.086   4.609
 9828SOL     OW30382   3.564   2.891   6.400
 9828SOL    HW130383   3.517   2.934   6.323
 9828SOL    HW230384   3.498   2.841   6.456
 9829SOL     OW30385   3.476   6.474   0.630
 9829SOL    HW130386   3.406   6.520   0.685
 9829SOL    HW230387   3.559   6.530   0.629
 9830SOL     OW30388   6.083   1.915   1.509
 9830SOL    HW130389   6.118   1.920   1.416
 9830SOL    HW230390   6.093   1.822   1.544
 9831SOL     OW30391   1.365   6.018   0.977
 9831SOL    HW130392   1.439   6.083   0.962
 9831SOL    HW230393   1.369   5.947   0.907
 9832SOL     OW30394   4.688   4.981   2.563
 9832SOL    HW130395   4.604   5.036   2.565
 9832SOL    HW230396   4.700   4.944   2.471
 9833SOL     OW30397   3.247   3.142   5.043
 9833SOL    HW130398   3.318   3.102   5.102
 9833SOL    HW230399   3.229   3.081   4.966
 9834SOL     OW30400   2.774   3.861   5.954
 9834SOL    HW130401   2.804   3.924   6.026
 9834SOL    HW230402   2.800   3.897   5.865
 9835SOL     OW30403   4.605   2.182   4.899
 9835SOL    HW130404   4.603   2.149   4.805
 9835SOL    HW230405   4.599   2.104   4.962
 9836SOL     OW30406   6.458   3.750   3.407
 9836SOL    HW130407   6.375   3.695   3.419
 9836SOL    HW230408   6.434   3.846   3.394
 9837SOL     OW30409   1.551   6.776   3.214
 9837SOL    HW130410   1.604   6.741   3.137
 9837SOL    HW230411   1.516   6.867   3.192
 9838SOL     OW30412   0.427   0.099   5.662
 9838SOL    HW130413   0.342   0.121   5.710
 9838SOL    HW230414   0.438   7.028   5.658
 9839SOL     OW30415   6.722   1.392   2.561
 9839SOL    HW130416   6.794   1.449   2.599
 9839SOL    HW230417   6.762   1.314   2.514
 9840SOL     OW30418   0.365   0.336   0.833
 9840SOL    HW130419   0.393   0.420   0.788
 9840SOL    HW230420   0.270   0.345   0.864
 9841SOL     OW30421   1.536   4.448   4.581
 9841SOL    HW130422   1.565   4.540   4.604
 9841SOL    HW230423   1.590   4.382   4.632
 9842SOL     OW30424   3.320   3.614   3.438
 9842SOL    HW130425   3.314   3.531   3.494
 9842SOL    HW230426   3.230   3.637   3.401
 9843SOL     OW30427   6.531   1.946   1.573
 9843SOL    HW130428   6.450   1.892   1.550
 9843SOL    HW230429   6.611   1.909   1.524
 9844SOL     OW30430   4.744   6.851   3.264
 9844SOL    HW130431   4.706   6.918   3.201
 9844SOL    HW230432   4.671   6.792   3.299
 9845SOL     OW30433   2.045   1.194   5.227
 9845SOL    HW130434   2.025   1.234   5.317
 9845SOL    HW230435   1.959   1.172   5.181
 9846SOL     OW30436   3.602   4.051   3.138
 9846SOL    HW130437   3.693   4.065   3.178
 9846SOL    HW230438   3.567   3.961   3.163
 9847SOL     OW30439   2.308   2.685   6.138
 9847SOL    HW130440   2.385   2.643   6.091
 9847SOL    HW230441   2.297   2.643   6.228
 9848SOL     OW30442   3.609   2.416   6.607
 9848SOL    HW130443   3.544   2.394   6.680
 9848SOL    HW230444   3.599   2.512   6.581
 9849SOL     OW30445   5.855   0.538   6.710
 9849SOL    HW130446   5.925   0.582   6.766
 9849SOL    HW230447   5.768   0.586   6.722
 9850SOL     OW30448   4.972   5.925   2.295
 9850SOL    HW130449   4.880   5.902   2.325
 9850SOL    HW230450   4.967   5.999   2.227
 9851SOL     OW30451   4.378   1.971   5.209
 9851SOL    HW130452   4.383   1.923   5.296
 9851SOL    HW230453   4.288   2.014   5.200
 9852SOL     OW30454   4.005   1.917   3.260
 9852SOL    HW130455   3.942   1.937   3.186
 9852SOL    HW230456   4.065   1.841   3.233
 9853SOL     OW30457   4.653   4.191   3.198
 9853SOL    HW130458   4.587   4.212   3.126
 9853SOL    HW230459   4.738   4.159   3.158
 9854SOL     OW30460   6.087   5.213   5.023
 9854SOL    HW130461   6.032   5.161   4.957
 9854SOL    HW230462   6.064   5.183   5.116
 9855SOL     OW30463   1.495   4.278   1.497
 9855SOL    HW130464   1.570   4.338   1.467
 9855SOL    HW230465   1.433   4.262   1.421
 9856SOL     OW30466   4.390   3.742   0.242
 9856SOL    HW130467   4.480   3.757   0.283
 9856SOL    HW230468   4.352   3.830   0.211
 9857SOL     OW30469   5.480   2.284   3.358
 9857SOL    HW130470   5.426   2.231   3.293
 9857SOL    HW230471   5.420   2.333   3.420
 9858SOL     OW30472   5.915   0.234   1.124
 9858SOL    HW130473   5.837   0.181   1.158
 9858SOL    HW230474   5.940   0.304   1.191
 9859SOL     OW30475   6.703   6.486   1.131
 9859SOL    HW130476   6.782   6.457   1.077
 9859SOL    HW230477   6.652   6.556   1.080
 9860SOL     OW30478   0.512   0.923   1.652
 9860SOL    HW130479   0.520   1.008   1.705
 9860SOL    HW230480   0.550   0.938   1.561
 9861SOL     OW30481   3.311   6.857   4.044
 9861SOL    HW130482   3.394   6.893   4.086
 9861SOL    HW230483   3.278   6.922   3.976
 9862SOL     OW30484   2.697   3.683   0.820
 9862SOL    HW130485   2.680   3.607   0.883
 9862SOL    HW230486   2.665   3.658   0.729
 9863SOL     OW30487   3.206   6.580   3.189
 9863SOL    HW130488   3.175   6.665   3.146
 9863SOL    HW230489   3.256   6.601   3.272
 9864SOL     OW30490   3.963   6.070   3.818
 9864SOL    HW130491   4.039   6.112   3.768
 9864SOL    HW230492   3.922   6.139   3.878
 9865SOL     OW30493   0.957   0.778   4.271
 9865SOL    HW130494   0.975   0.756   4.175
 9865SOL    HW230495   0.906   0.863   4.277
 9866SOL     OW30496   5.158   4.349   4.536
 9866SOL    HW130497   5.149   4.267   4.480
 9866SOL    HW230498   5.118   4.427   4.487
 9867SOL     OW30499   4.728   0.611   1.388
 9867SOL    HW130500   4.634   0.635   1.414
 9867SOL    HW230501   4.766   0.682   1.329
 9868SOL     OW30502   1.835   4.615   5.848
 9868SOL    HW130503   1.895   4.569   5.783
 9868SOL    HW230504   1.746   4.570   5.848
 9869SOL     OW30505   2.079   3.821   2.774
 9869SOL    HW130506   2.046   3.729   2.752
 9869SOL    HW230507   2.043   3.849   2.863
 9870SOL     OW30508   3.795   5.868   2.503
 9870SOL    HW130509   3.892   5.877   2.525
 9870SOL    HW230510   3.745   5.949   2.534
 9871SOL     OW30511   0.799   6.519   5.942
 9871SOL    HW130512   0.703   6.490   5.935
 9871SOL    HW230513   0.858   6.440   5.923
 9872SOL     OW30514   2.965   5.194   3.362
 9872SOL    HW130515   2.925   5.111   3.402
 9872SOL    HW230516   2.903   5.231   3.293
 9873SOL     OW30517   2.072   2.622   1.332
 9873SOL    HW130518   2.001   2.589   1.270
 9873SOL    HW230519   2.029   2.675   1.406
 9874SOL     OW30520   0.905   2.745   4.053
 9874SOL    HW130521   0.834   2.813   4.033
 9874SOL    HW230522   0.903   2.724   4.151
 9875SOL     OW30523   0.377   6.506   2.115
 9875SOL    HW130524   0.336   6.573   2.053
 9875SOL    HW230525   0.421   6.433   2.062
 9876SOL     OW30526   0.150   1.128   1.750
 9876SOL    HW130527   0.123   1.152   1.843
 9876SOL    HW230528   0.236   1.173   1.727
 9877SOL     OW30529   1.154   5.737   2.957
 9877SOL    HW130530   1.135   5.771   3.049
 9877SOL    HW230531   1.233   5.785   2.920
 9878SOL     OW30532   2.406   5.204   4.825
 9878SOL    HW130533   2.462   5.287   4.828
 9878SOL    HW230534   2.442   5.136   4.889
 9879SOL     OW30535   5.955   5.063   4.804
 9879SOL    HW130536   5.858   5.062   4.778
 9879SOL    HW230537   5.986   4.969   4.820
 9880SOL     OW30538   1.777   1.999   5.319
 9880SOL    HW130539   1.843   1.996   5.394
 9880SOL    HW230540   1.817   2.048   5.241
 9881SOL     OW30541   1.807   1.432   4.926
 9881SOL    HW130542   1.783   1.402   5.018
 9881SOL    HW230543   1.725   1.435   4.869
 9882SOL     OW30544   0.812   2.117   3.577
 9882SOL    HW130545   0.861   2.167   3.648
 9882SOL    HW230546   0.714   2.121   3.595
 9883SOL     OW30547   1.542   5.512   0.204
 9883SOL    HW130548   1.483   5.463   0.269
 9883SOL    HW230549   1.537   5.467   0.115
 9884SOL     OW30550   4.387   1.641   3.205
 9884SOL    HW130551   4.420   1.548   3.186
 9884SOL    HW230552   4.288   1.639   3.220
 9885SOL     OW30553   0.280   3.221   5.584
 9885SOL    HW130554   0.274   3.219   5.484
 9885SOL    HW230555   0.376   3.213   5.611
 9886SOL     OW30556   0.847   4.049   1.925
 9886SOL    HW130557   0.781   4.085   1.990
 9886SOL    HW230558   0.927   4.014   1.974
 9887SOL     OW30559   3.015   1.789   6.447
 9887SOL    HW130560   2.935   1.776   6.388
 9887SOL    HW230561   3.048   1.883   6.439
 9888SOL     OW30562   6.943   4.175   1.593
 9888SOL    HW130563   0.005   4.219   1.596
 9888SOL    HW230564   6.948   4.093   1.536
 9889SOL     OW30565   6.462   5.033   1.406
 9889SOL    HW130566   6.395   4.992   1.468
 9889SOL    HW230567   6.420   5.108   1.356
 9890SOL     OW30568   1.641   2.333   0.425
 9890SOL    HW130569   1.722   2.376   0.464
 9890SOL    HW230570   1.565   2.399   0.424
 9891SOL     OW30571   5.903   3.333   1.259
 9891SOL    HW130572   5.848   3.350   1.341
 9891SOL    HW230573   5.952   3.246   1.269
 9892SOL     OW30574   6.675   5.177   0.439
 9892SOL    HW130575   6.611   5.134   0.501
 9892SOL    HW230576   6.768   5.168   0.475
 9893SOL     OW30577   1.230   0.148   0.993
 9893SOL    HW130578   1.256   0.149   1.089
 9893SOL    HW230579   1.150   0.206   0.978
 9894SOL     OW30580   1.976   2.078   1.746
 9894SOL    HW130581   1.964   1.980   1.760
 9894SOL    HW230582   2.014   2.120   1.828
 9895SOL     OW30583   6.053   3.457   5.580
 9895SOL    HW130584   6.026   3.420   5.491
 9895SOL    HW230585   5.989   3.424   5.650
 9896SOL     OW30586   6.127   0.201   6.315
 9896SOL    HW130587   6.039   0.158   6.335
 9896SOL    HW230588   6.140   0.279   6.376
 9897SOL     OW30589   5.857   5.569   3.604
 9897SOL    HW130590   5.927   5.522   3.551
 9897SOL    HW230591   5.846   5.662   3.568
 9898SOL     OW30592   2.208   6.429   5.531
 9898SOL    HW130593   2.254   6.496   5.473
 9898SOL    HW230594   2.131   6.472   5.578
 9899SOL     OW30595   0.523   5.475   6.746
 9899SOL    HW130596   0.531   5.425   6.832
 9899SOL    HW230597   0.490   5.414   6.674
 9900SOL     OW30598   1.789   3.913   3.404
 9900SOL    HW130599   1.753   3.866   3.323
 9900SOL    HW230600   1.842   3.849   3.459
 9901SOL     OW30601   3.045   1.640   6.134
 9901SOL    HW130602   3.086   1.655   6.044
 9901SOL    HW230603   2.945   1.640   6.126
 9902SOL     OW30604   3.122   4.687   0.291
 9902SOL    HW130605   3.064   4.698   0.372
 9902SOL    HW230606   3.066   4.651   0.215
 9903SOL     OW30607   4.728   1.339   1.397
 9903SOL    HW130608   4.630   1.352   1.381
 9903SOL    HW230609   4.773   1.317   1.310
 9904SOL     OW30610   0.703   3.742   0.222
 9904SOL    HW130611   0.791   3.770   0.183
 9904SOL    HW230612   0.647   3.701   0.150
 9905SOL     OW30613   2.767   0.605   6.564
 9905SOL    HW130614   2.858   0.646   6.559
 9905SOL    HW230615   2.699   0.669   6.527
 9906SOL     OW30616   2.801   3.050   1.716
 9906SOL    HW130617   2.748   3.111   1.657
 9906SOL    HW230618   2.828   3.099   1.799
 9907SOL     OW30619   6.671   0.430   0.750
 9907SOL    HW130620   6.704   0.434   0.845
 9907SOL    HW230621   6.704   0.510   0.701
 9908SOL     OW30622   5.580   1.464   4.238
 9908SOL    HW130623   5.659   1.516   4.205
 9908SOL    HW230624   5.531   1.519   4.306
 9909SOL     OW30625   4.167   0.500   3.896
 9909SOL    HW130626   4.266   0.511   3.892
 9909SOL    HW230627   4.144   0.403   3.887
 9910SOL     OW30628   1.604   3.706   2.788
 9910SOL    HW130629   1.514   3.706   2.832
 9910SOL    HW230630   1.601   3.649   2.706
 9911SOL     OW30631   2.878   6.491   1.711
 9911SOL    HW130632   2.783   6.478   1.682
 9911SOL    HW230633   2.879   6.531   1.803
 9912SOL     OW30634   3.976   1.420   1.959
 9912SOL    HW130635   4.056   1.479   1.948
 9912SOL    HW230636   3.898   1.460   1.911
 9913SOL     OW30637   6.478   4.135   0.776
 9913SOL    HW130638   6.501   4.038   0.787
 9913SOL    HW230639   6.464   4.175   0.866
 9914SOL     OW30640   5.653   2.412   4.667
 9914SOL    HW130641   5.589   2.434   4.741
 9914SOL    HW230642   5.721   2.485   4.659
 9915SOL     OW30643   5.746   0.906   4.067
 9915SOL    HW130644   5.733   0.807   4.067
 9915SOL    HW230645   5.671   0.950   4.116
 9916SOL     OW30646   1.707   2.329   3.166
 9916SOL    HW130647   1.736   2.262   3.234
 9916SOL    HW230648   1.653   2.400   3.211
 9917SOL     OW30649   5.659   4.174   7.027
 9917SOL    HW130650   5.740   4.197   0.054
 9917SOL    HW230651   5.600   4.113   0.051
 9918SOL     OW30652   3.047   1.506   3.331
 9918SOL    HW130653   3.036   1.450   3.413
 9918SOL    HW230654   2.964   1.502   3.276
 9919SOL     OW30655   6.587   4.947   0.886
 9919SOL    HW130656   6.600   5.034   0.932
 9919SOL    HW230657   6.499   4.907   0.913
 9920SOL     OW30658   5.182   1.474   2.148
 9920SOL    HW130659   5.086   1.500   2.142
 9920SOL    HW230660   5.218   1.501   2.238
 9921SOL     OW30661   4.188   0.165   6.097
 9921SOL    HW130662   4.172   0.182   5.999
 9921SOL    HW230663   4.218   0.071   6.110
 9922SOL     OW30664   2.407   4.515   0.665
 9922SOL    HW130665   2.463   4.433   0.674
 9922SOL    HW230666   2.426   4.577   0.741
 9923SOL     OW30667   4.834   4.549   0.241
 9923SOL    HW130668   4.763   4.569   0.173
 9923SOL    HW230669   4.920   4.528   0.195
 9924SOL     OW30670   6.510   2.007   4.798
 9924SOL    HW130671   6.433   1.966   4.847
 9924SOL    HW230672   6.479   2.089   4.750
 9925SOL     OW30673   6.487   3.458   4.046
 9925SOL    HW130674   6.504   3.403   3.964
 9925SOL    HW230675   6.569   3.511   4.068
 9926SOL     OW30676   3.932   2.785   0.684
 9926SOL    HW130677   3.997   2.834   0.626
 9926SOL    HW230678   3.963   2.691   0.697
 9927SOL     OW30679   6.613   6.658   0.678
 9927SOL    HW130680   6.586   6.704   0.593
 9927SOL    HW230681   6.692   6.705   0.716
 9928SOL     OW30682   5.500   5.879   2.048
 9928SOL    HW130683   5.515   5.967   2.002
 9928SOL    HW230684   5.580   5.821   2.034
 9929SOL     OW30685   3.116   5.264   5.160
 9929SOL    HW130686   3.070   5.232   5.077
 9929SOL    HW230687   3.050   5.272   5.235
 9930SOL     OW30688   6.896   6.985   4.421
 9930SOL    HW130689   6.941   6.918   4.362
 9930SOL    HW230690   6.916   6.964   4.516
 9931SOL     OW30691   1.021   4.804   4.351
 9931SOL    HW130692   0.998   4.801   4.448
 9931SOL    HW230693   1.102   4.747   4.335
 9932SOL     OW30694   2.345   5.651   6.905
 9932SOL    HW130695   2.278   5.600   6.851
 9932SOL    HW230696   2.336   5.749   6.885
 9933SOL     OW30697   1.252   5.241   4.108
 9933SOL    HW130698   1.176   5.220   4.047
 9933SOL    HW230699   1.250   5.180   4.187
 9934SOL     OW30700   5.192   1.312   5.554
 9934SOL    HW130701   5.288   1.292   5.538
 9934SOL    HW230702   5.176   1.410   5.545
 9935SOL     OW30703   2.831   6.634   0.373
 9935SOL    HW130704   2.780   6.698   0.430
 9935SOL    HW230705   2.814   6.654   0.276
 9936SOL     OW30706   6.695   5.238   6.623
 9936SOL    HW130707   6.613   5.239   6.564
 9936SOL    HW230708   6.777   5.243   6.565
 9937SOL     OW30709   0.073   1.790   0.094
 9937SOL    HW130710   0.073   1.782   0.194
 9937SOL    HW230711   7.023   1.845   0.065
 9938SOL     OW30712   6.884   5.248   2.495
 9938SOL    HW130713   6.919   5.160   2.528
 9938SOL    HW230714   6.889   5.316   2.569
 9939SOL     OW30715   4.364   2.398   1.062
 9939SOL    HW130716   4.417   2.335   1.119
 9939SOL    HW230717   4.416   2.421   0.980
 9940SOL     OW30718   0.824   0.379   1.231
 9940SOL    HW130719   0.831   0.451   1.161
 9940SOL    HW230720   0.733   0.338   1.228
 9941SOL     OW30721   2.898   3.958   5.737
 9941SOL    HW130722   2.947   3.912   5.662
 9941SOL    HW230723   2.842   4.031   5.700
 9942SOL     OW30724   2.511   5.242   2.157
 9942SOL    HW130725   2.587   5.176   2.165
 9942SOL    HW230726   2.536   5.314   2.093
 9943SOL     OW30727   6.869   5.176   5.454
 9943SOL    HW130728   6.829   5.207   5.367
 9943SOL    HW230729   6.926   5.248   5.492
 9944SOL     OW30730   1.901   4.160   6.430
 9944SOL    HW130731   1.956   4.242   6.445
 9944SOL    HW230732   1.962   4.083   6.407
 9945SOL     OW30733   6.471   5.219   6.467
 9945SOL    HW130734   6.395   5.248   6.525
 9945SOL    HW230735   6.443   5.143   6.409
 9946SOL     OW30736   4.668   1.031   3.965
 9946SOL    HW130737   4.716   1.095   3.906
 9946SOL    HW230738   4.631   1.080   4.044
 9947SOL     OW30739   1.438   2.797   5.059
 9947SOL    HW130740   1.530   2.766   5.081
 9947SOL    HW230741   1.385   2.721   5.022
 9948SOL     OW30742   5.113   4.758   4.535
 9948SOL    HW130743   5.102   4.670   4.488
 9948SOL    HW230744   5.205   4.764   4.573
 9949SOL     OW30745   5.672   4.900   4.214
 9949SOL    HW130746   5.661   4.839   4.136
 9949SOL    HW230747   5.593   4.891   4.274
 9950SOL     OW30748   5.689   6.275   5.003
 9950SOL    HW130749   5.768   6.325   5.039
 9950SOL    HW230750   5.633   6.338   4.948
 9951SOL     OW30751   6.432   1.246   5.085
 9951SOL    HW130752   6.500   1.203   5.143
 9951SOL    HW230753   6.368   1.177   5.051
 9952SOL     OW30754   0.736   3.624   1.391
 9952SOL    HW130755   0.680   3.705   1.373
 9952SOL    HW230756   0.678   3.550   1.423
 9953SOL     OW30757   6.123   2.501   4.133
 9953SOL    HW130758   6.214   2.492   4.175
 9953SOL    HW230759   6.054   2.503   4.205
 9954SOL     OW30760   6.314   0.500   6.144
 9954SOL    HW130761   6.298   0.446   6.227
 9954SOL    HW230762   6.302   0.597   6.164
 9955SOL     OW30763   6.365   3.513   5.263
 9955SOL    HW130764   6.275   3.557   5.260
 9955SOL    HW230765   6.424   3.554   5.194
 9956SOL     OW30766   1.551   0.194   2.199
 9956SOL    HW130767   1.494   0.113   2.190
 9956SOL    HW230768   1.644   0.167   2.223
 9957SOL     OW30769   5.382   5.626   2.514
 9957SOL    HW130770   5.353   5.701   2.574
 9957SOL    HW230771   5.436   5.664   2.439
 9958SOL     OW30772   3.439   5.249   1.152
 9958SOL    HW130773   3.486   5.200   1.079
 9958SOL    HW230774   3.499   5.320   1.189
 9959SOL     OW30775   4.194   3.616   5.358
 9959SOL    HW130776   4.285   3.594   5.395
 9959SOL    HW230777   4.193   3.598   5.259
 9960SOL     OW30778   6.780   6.732   2.372
 9960SOL    HW130779   6.783   6.694   2.464
 9960SOL    HW230780   6.763   6.659   2.306
 9961SOL     OW30781   1.668   5.606   4.008
 9961SOL    HW130782   1.618   5.521   4.022
 9961SOL    HW230783   1.741   5.591   3.941
 9962SOL     OW30784   6.714   0.340   3.029
 9962SOL    HW130785   6.639   0.398   3.060
 9962SOL    HW230786   6.677   0.264   2.975
 9963SOL     OW30787   3.327   2.725   6.987
 9963SOL    HW130788   3.286   2.768   0.040
 9963SOL    HW230789   3.255   2.676   6.936
 9964SOL     OW30790   4.808   5.024   5.436
 9964SOL    HW130791   4.865   4.942   5.430
 9964SOL    HW230792   4.816   5.076   5.351
 9965SOL     OW30793   4.075   6.709   0.110
 9965SOL    HW130794   4.105   6.720   0.016
 9965SOL    HW230795   4.068   6.611   0.132
 9966SOL     OW30796   1.701   5.305   1.626
 9966SOL    HW130797   1.696   5.398   1.589
 9966SOL    HW230798   1.736   5.242   1.556
 9967SOL     OW30799   0.274   6.113   1.919
 9967SOL    HW130800   0.212   6.117   1.841
 9967SOL    HW230801   0.344   6.184   1.910
 9968SOL     OW30802   3.395   3.843   1.204
 9968SOL    HW130803   3.484   3.827   1.162
 9968SOL    HW230804   3.351   3.755   1.224
 9969SOL     OW30805   1.686   2.842   2.119
 9969SOL    HW130806   1.681   2.849   2.020
 9969SOL    HW230807   1.711   2.931   2.158
 9970SOL     OW30808   4.893   4.085   3.104
 9970SOL    HW130809   4.900   4.157   3.035
 9970SOL    HW230810   4.928   3.999   3.066
 9971SOL     OW30811   1.793   5.140   1.439
 9971SOL    HW130812   1.874   5.111   1.490
 9971SOL    HW230813   1.752   5.061   1.394
 9972SOL     OW30814   5.540   5.073   1.179
 9972SOL    HW130815   5.573   4.979   1.175
 9972SOL    HW230816   5.618   5.136   1.185
 9973SOL     OW30817   6.061   1.557   3.739
 9973SOL    HW130818   6.074   1.510   3.826
 9973SOL    HW230819   6.103   1.504   3.665
 9974SOL     OW30820   1.275   2.471   2.846
 9974SOL    HW130821   1.280   2.409   2.769
 9974SOL    HW230822   1.279   2.419   2.931
 9975SOL     OW30823   5.810   3.957   0.454
 9975SOL    HW130824   5.847   3.885   0.512
 9975SOL    HW230825   5.876   4.032   0.446
 9976SOL     OW30826   0.880   6.621   5.457
 9976SOL    HW130827   0.933   6.562   5.518
 9976SOL    HW230828   0.851   6.568   5.377
 9977SOL     OW30829   6.749   5.736   5.546
 9977SOL    HW130830   6.832   5.713   5.495
 9977SOL    HW230831   6.671   5.689   5.503
 9978SOL     OW30832   0.749   2.702   4.579
 9978SOL    HW130833   0.683   2.667   4.646
 9978SOL    HW230834   0.746   2.802   4.578
 9979SOL     OW30835   6.449   4.977   5.743
 9979SOL    HW130836   6.498   4.954   5.660
 9979SOL    HW230837   6.374   4.912   5.757
 9980SOL     OW30838   2.097   0.698   6.259
 9980SOL    HW130839   2.184   0.672   6.300
 9980SOL    HW230840   2.087   0.651   6.171
 9981SOL     OW30841   2.532   1.548   2.952
 9981SOL    HW130842   2.538   1.589   3.043
 9981SOL    HW230843   2.450   1.581   2.906
 9982SOL     OW30844   6.251   6.190   4.465
 9982SOL    HW130845   6.233   6.217   4.370
 9982SOL    HW230846   6.337   6.140   4.470
 9983SOL     OW30847   6.881   2.109   2.537
 9983SOL    HW130848   6.844   2.083   2.626
 9983SOL    HW230849   6.944   2.039   2.505
 9984SOL     OW30850   2.493   1.028   0.165
 9984SOL    HW130851   2.513   1.120   0.201
 9984SOL    HW230852   2.514   1.026   0.067
 9985SOL     OW30853   1.298   0.807   0.593
 9985SOL    HW130854   1.217   0.784   0.540
 9985SOL    HW230855   1.351   0.724   0.612
 9986SOL     OW30856   6.017   4.658   5.800
 9986SOL    HW130857   5.978   4.566   5.800
 9986SOL    HW230858   5.958   4.719   5.854
 9987SOL     OW30859   6.935   3.110   4.288
 9987SOL    HW130860   6.963   3.193   4.241
 9987SOL    HW230861   7.003   3.038   4.273
 9988SOL     OW30862   0.379   5.727   4.243
 9988SOL    HW130863   0.364   5.817   4.284
 9988SOL    HW230864   0.293   5.693   4.206
 9989SOL     OW30865   6.725   3.593   4.119
 9989SOL    HW130866   6.687   3.663   4.178
 9989SOL    HW230867   6.825   3.604   4.114
 9990SOL     OW30868   2.211   4.870   3.072
 9990SOL    HW130869   2.143   4.798   3.066
 9990SOL    HW230870   2.231   4.905   2.980
 9991SOL     OW30871   2.492   2.158   3.900
 9991SOL    HW130872   2.409   2.211   3.888
 9991SOL    HW230873   2.503   2.095   3.823
 9992SOL     OW30874   5.752   5.006   0.538
 9992SOL    HW130875   5.657   5.022   0.511
 9992SOL    HW230876   5.811   5.070   0.488
 9993SOL     OW30877   2.828   0.745   0.779
 9993SOL    HW130878   2.735   0.765   0.809
 9993SOL    HW230879   2.873   0.829   0.749
 9994SOL     OW30880   5.933   4.683   3.120
 9994SOL    HW130881   5.957   4.674   3.217
 9994SOL    HW230882   5.987   4.620   3.066
 9995SOL     OW30883   4.872   1.726   3.176
 9995SOL    HW130884   4.804   1.728   3.249
 9995SOL    HW230885   4.919   1.814   3.171
 9996SOL     OW30886   3.218   4.012   0.062
 9996SOL    HW130887   3.211   3.914   0.082
 9996SOL    HW230888   3.223   4.063   0.147
 9997SOL     OW30889   3.019   1.659   5.841
 9997SOL    HW130890   2.927   1.690   5.867
 9997SOL    HW230891   3.011   1.579   5.782
 9998SOL     OW30892   6.055   5.025   5.980
 9998SOL    HW130893   6.101   5.077   6.053
 9998SOL    HW230894   5.959   5.051   5.976
 9999SOL     OW30895   6.153   2.967   6.021
 9999SOL    HW130896   6.118   3.020   6.098
 9999SOL    HW230897   6.138   3.017   5.936
10000SOL     OW30898   6.664   4.201   6.821
10000SOL    HW130899   6.692   4.253   6.740
10000SOL    HW230900   6.707   4.111   6.819
10001SOL     OW30901   4.477   7.027   2.113
10001SOL    HW130902   4.495   6.958   2.184
10001SOL    HW230903   4.510   6.992   2.025
10002SOL     OW30904   1.660   6.514   1.956
10002SOL    HW130905   1.751   6.474   1.969
10002SOL    HW230906   1.590   6.444   1.967
10003SOL     OW30907   3.569   2.104   3.705
10003SOL    HW130908   3.494   2.102   3.639
10003SOL    HW230909   3.656   2.115   3.657
10004SOL     OW30910   6.880   2.562   4.218
10004SOL    HW130911   6.899   2.485   4.279
10004SOL    HW230912   6.838   2.636   4.270
10005SOL     OW30913   6.036   0.452   3.834
10005SOL    HW130914   6.033   0.498   3.922
10005SOL    HW230915   5.953   0.398   3.821
10006SOL     OW30916   4.892   6.056   4.223
10006SOL    HW130917   4.795   6.051   4.246
10006SOL    HW230918   4.931   5.964   4.227
10007SOL     OW30919   0.144   3.994   5.075
10007SOL    HW130920   0.124   3.919   5.138
10007SOL    HW230921   0.227   4.041   5.104
10008SOL     OW30922   3.814   1.300   5.113
10008SOL    HW130923   3.771   1.274   5.199
10008SOL    HW230924   3.827   1.219   5.056
10009SOL     OW30925   1.784   3.361   2.173
10009SOL    HW130926   1.807   3.369   2.270
10009SOL    HW230927   1.814   3.444   2.125
10010SOL     OW30928   2.386   1.283   6.215
10010SOL    HW130929   2.328   1.206   6.187
10010SOL    HW230930   2.424   1.263   6.306
10011SOL     OW30931   6.578   0.676   5.846
10011SOL    HW130932   6.595   0.775   5.855
10011SOL    HW230933   6.571   0.653   5.750
10012SOL     OW30934   6.141   0.944   2.856
10012SOL    HW130935   6.200   0.864   2.864
10012SOL    HW230936   6.163   1.009   2.928
10013SOL     OW30937   0.469   1.087   3.149
10013SOL    HW130938   0.530   1.076   3.070
10013SOL    HW230939   0.378   1.052   3.126
10014SOL     OW30940   0.494   4.541   6.936
10014SOL    HW130941   0.486   4.485   7.019
10014SOL    HW230942   0.590   4.544   6.908
10015SOL     OW30943   2.371   4.865   1.091
10015SOL    HW130944   2.334   4.775   1.113
10015SOL    HW230945   2.299   4.921   1.049
10016SOL     OW30946   0.969   1.332   6.096
10016SOL    HW130947   0.936   1.239   6.081
10016SOL    HW230948   1.057   1.329   6.144
10017SOL     OW30949   3.355   2.146   3.503
10017SOL    HW130950   3.261   2.168   3.476
10017SOL    HW230951   3.407   2.118   3.422
10018SOL     OW30952   5.167   0.311   6.763
10018SOL    HW130953   5.167   0.279   6.858
10018SOL    HW230954   5.159   0.411   6.762
10019SOL     OW30955   1.060   1.725   3.022
10019SOL    HW130956   1.098   1.664   3.092
10019SOL    HW230957   1.048   1.674   2.937
10020SOL     OW30958   1.015   2.270   1.682
10020SOL    HW130959   1.054   2.272   1.590
10020SOL    HW230960   0.927   2.224   1.679
10021SOL     OW30961   6.744   3.297   1.072
10021SOL    HW130962   6.706   3.206   1.083
10021SOL    HW230963   6.790   3.304   0.983
10022SOL     OW30964   2.475   1.771   5.790
10022SOL    HW130965   2.499   1.814   5.877
10022SOL    HW230966   2.501   1.832   5.715
10023SOL     OW30967   6.797   4.559   0.952
10023SOL    HW130968   6.889   4.581   0.983
10023SOL    HW230969   6.794   4.464   0.920
10024SOL     OW30970   1.485   5.910   3.580
10024SOL    HW130971   1.523   5.822   3.607
10024SOL    HW230972   1.559   5.969   3.547
10025SOL     OW30973   1.588   0.391   0.808
10025SOL    HW130974   1.591   0.311   0.749
10025SOL    HW230975   1.651   0.379   0.885
10026SOL     OW30976   5.367   0.139   3.572
10026SOL    HW130977   5.374   0.101   3.664
10026SOL    HW230978   5.332   0.233   3.578
10027SOL     OW30979   5.711   3.285   4.547
10027SOL    HW130980   5.798   3.334   4.540
10027SOL    HW230981   5.710   3.208   4.483
10028SOL     OW30982   0.828   0.739   0.725
10028SOL    HW130983   0.913   0.785   0.701
10028SOL    HW230984   0.848   0.650   0.765
10029SOL     OW30985   5.730   1.925   3.689
10029SOL    HW130986   5.718   1.964   3.598
10029SOL    HW230987   5.813   1.962   3.731
10030SOL     OW30988   1.876   0.523   3.256
10030SOL    HW130989   1.833   0.584   3.323
10030SOL    HW230990   1.816   0.445   3.239
10031SOL     OW30991   5.551   4.828   3.537
10031SOL    HW130992   5.456   4.803   3.555
10031SOL    HW230993   5.610   4.748   3.554
10032SOL     OW30994   2.629   1.457   5.288
10032SOL    HW130995   2.647   1.555   5.279
10032SOL    HW230996   2.564   1.442   5.363
10033SOL     OW30997   6.374   3.013   4.350
10033SOL    HW130998   6.333   3.096   4.313
10033SOL    HW230999   6.462   3.035   4.394
10034SOL     OW31000   3.407   0.725   4.304
10034SOL    HW131001   3.428   0.690   4.213
10034SOL    HW231002   3.488   0.770   4.342
10035SOL     OW31003   6.420   5.212   2.033
10035SOL    HW131004   6.410   5.139   2.100
10035SOL    HW231005   6.478   5.285   2.071
10036SOL     OW31006   6.770   2.304   0.435
10036SOL    HW131007   6.681   2.350   0.439
10036SOL    HW231008   6.781   2.261   0.346
10037SOL     OW31009   6.741   1.476   6.360
10037SOL    HW131010   6.681   1.416   6.307
10037SOL    HW231011   6.695   1.562   6.379
10038SOL     OW31012   6.589   6.796   0.363
10038SOL    HW131013   6.584   6.715   0.305
10038SOL    HW231014   6.563   6.877   0.311
10039SOL     OW31015   3.276   6.830   3.608
10039SOL    HW131016   3.219   6.760   3.651
10039SOL    HW231017   3.317   6.793   3.525
10040SOL     OW31018   5.908   4.181   0.127
10040SOL    HW131019   5.966   4.102   0.148
10040SOL    HW231020   5.957   4.265   0.151
10041SOL     OW31021   3.541   6.303   0.380
10041SOL    HW131022   3.533   6.353   0.466
10041SOL    HW231023   3.625   6.331   0.333
10042SOL     OW31024   6.970   2.157   3.256
10042SOL    HW131025   6.903   2.218   3.213
10042SOL    HW231026   6.928   2.068   3.274
10043SOL     OW31027   6.542   2.218   5.935
10043SOL    HW131028   6.583   2.308   5.950
10043SOL    HW231029   6.603   2.163   5.877
10044SOL     OW31030   2.813   2.973   6.030
10044SOL    HW131031   2.821   3.049   5.965
10044SOL    HW231032   2.847   2.890   5.988
10045SOL     OW31033   4.437   1.171   0.669
10045SOL    HW131034   4.420   1.222   0.753
10045SOL    HW231035   4.394   1.082   0.674
10046SOL     OW31036   1.348   4.448   1.236
10046SOL    HW131037   1.312   4.355   1.242
10046SOL    HW231038   1.320   4.499   1.317
10047SOL     OW31039   1.212   3.453   6.190
10047SOL    HW131040   1.307   3.462   6.162
10047SOL    HW231041   1.208   3.440   6.289
10048SOL     OW31042   6.771   6.674   2.640
10048SOL    HW131043   6.850   6.731   2.663
10048SOL    HW231044   6.706   6.674   2.716
10049SOL     OW31045   0.174   2.766   6.207
10049SOL    HW131046   0.270   2.763   6.180
10049SOL    HW231047   0.147   2.861   6.222
10050SOL     OW31048   5.224   3.485   5.120
10050SOL    HW131049   5.157   3.559   5.127
10050SOL    HW231050   5.214   3.440   5.031
10051SOL     OW31051   1.013   3.930   4.607
10051SOL    HW131052   1.035   4.013   4.556
10051SOL    HW231053   1.096   3.894   4.650
10052SOL     OW31054   1.075   0.738   3.416
10052SOL    HW131055   1.153   0.751   3.477
10052SOL    HW231056   1.063   0.641   3.397
10053SOL     OW31057   4.818   5.170   4.633
10053SOL    HW131058   4.729   5.195   4.673
10053SOL    HW231059   4.870   5.252   4.614
10054SOL     OW31060   5.481   3.921   4.828
10054SOL    HW131061   5.446   3.898   4.737
10054SOL    HW231062   5.464   3.846   4.891
10055SOL     OW31063   6.599   2.366   6.568
10055SOL    HW131064   6.541   2.401   6.494
10055SOL    HW231065   6.685   2.418   6.569
10056SOL     OW31066   5.397   3.380   3.380
10056SOL    HW131067   5.321   3.323   3.350
10056SOL    HW231068   5.416   3.362   3.477
10057SOL     OW31069   5.364   4.413   6.573
10057SOL    HW131070   5.398   4.335   6.625
10057SOL    HW231071   5.306   4.380   6.498
10058SOL     OW31072   6.404   2.857   5.180
10058SOL    HW131073   6.448   2.846   5.090
10058SOL    HW231074   6.354   2.773   5.203
10059SOL     OW31075   6.824   1.241   0.169
10059SOL    HW131076   6.787   1.314   0.226
10059SOL    HW231077   6.896   1.279   0.110
10060SOL     OW31078   2.521   2.055   2.385
10060SOL    HW131079   2.525   1.986   2.312
10060SOL    HW231080   2.572   2.136   2.356
10061SOL     OW31081   3.728   0.845   3.601
10061SOL    HW131082   3.744   0.749   3.580
10061SOL    HW231083   3.815   0.888   3.626
10062SOL     OW31084   0.614   0.148   3.744
10062SOL    HW131085   0.609   0.221   3.812
10062SOL    HW231086   0.651   0.065   3.787
10063SOL     OW31087   1.622   2.750   4.737
10063SOL    HW131088   1.569   2.830   4.709
10063SOL    HW231089   1.667   2.769   4.824
10064SOL     OW31090   3.091   6.277   0.462
10064SOL    HW131091   3.126   6.356   0.513
10064SOL    HW231092   3.002   6.299   0.423
10065SOL     OW31093   0.770   0.714   2.079
10065SOL    HW131094   0.790   0.788   2.144
10065SOL    HW231095   0.693   0.740   2.021
10066SOL     OW31096   6.557   3.704   4.760
10066SOL    HW131097   6.529   3.799   4.752
10066SOL    HW231098   6.519   3.651   4.684
10067SOL     OW31099   0.451   2.140   5.855
10067SOL    HW131100   0.474   2.236   5.840
10067SOL    HW231101   0.500   2.106   5.935
10068SOL     OW31102   2.345   2.803   2.921
10068SOL    HW131103   2.300   2.763   3.001
10068SOL    HW231104   2.425   2.747   2.896
10069SOL     OW31105   3.492   5.182   1.545
10069SOL    HW131106   3.420   5.246   1.572
10069SOL    HW231107   3.465   5.089   1.569
10070SOL     OW31108   3.147   5.865   5.037
10070SOL    HW131109   3.140   5.899   5.131
10070SOL    HW231110   3.102   5.776   5.031
10071SOL     OW31111   0.081   0.008   3.081
10071SOL    HW131112   0.040   6.994   3.162
10071SOL    HW231113   0.159   6.980   3.051
10072SOL     OW31114   6.808   1.663   2.270
10072SOL    HW131115   6.713   1.632   2.263
10072SOL    HW231116   6.868   1.584   2.285
10073SOL     OW31117   6.046   3.116   4.509
10073SOL    HW131118   6.069   3.019   4.504
10073SOL    HW231119   6.027   3.141   4.604
10074SOL     OW31120   1.998   4.791   0.602
10074SOL    HW131121   2.095   4.813   0.596
10074SOL    HW231122   1.973   4.725   0.531
10075SOL     OW31123   1.845   2.607   2.122
10075SOL    HW131124   1.795   2.692   2.104
10075SOL    HW231125   1.848   2.552   2.038
10076SOL     OW31126   5.285   5.066   3.335
10076SOL    HW131127   5.247   5.118   3.412
10076SOL    HW231128   5.290   5.125   3.254
10077SOL     OW31129   6.466   3.282   6.914
10077SOL    HW131130   6.482   3.327   7.001
10077SOL    HW231131   6.441   3.350   6.845
10078SOL     OW31132   0.108   6.204   4.823
10078SOL    HW131133   0.028   6.221   4.881
10078SOL    HW231134   0.078   6.159   4.738
10079SOL     OW31135   4.990   2.682   3.299
10079SOL    HW131136   4.982   2.589   3.265
10079SOL    HW231137   5.012   2.743   3.223
10080SOL     OW31138   5.852   0.789   5.792
10080SOL    HW131139   5.864   0.704   5.843
10080SOL    HW231140   5.932   0.804   5.733
10081SOL     OW31141   1.789   2.630   0.781
10081SOL    HW131142   1.863   2.664   0.838
10081SOL    HW231143   1.702   2.667   0.814
10082SOL     OW31144   1.316   4.376   2.405
10082SOL    HW131145   1.391   4.326   2.448
10082SOL    HW231146   1.229   4.331   2.426
10083SOL     OW31147   4.252   5.168   3.839
10083SOL    HW131148   4.294   5.255   3.812
10083SOL    HW231149   4.318   5.115   3.892
10084SOL     OW31150   1.258   0.445   5.015
10084SOL    HW131151   1.160   0.460   5.026
10084SOL    HW231152   1.274   0.373   4.947
10085SOL     OW31153   4.347   6.687   0.536
10085SOL    HW131154   4.355   6.696   0.437
10085SOL    HW231155   4.311   6.773   0.574
10086SOL     OW31156   6.960   5.886   1.724
10086SOL    HW131157   6.895   5.942   1.673
10086SOL    HW231158   6.995   5.814   1.664
10087SOL     OW31159   1.554   6.830   4.715
10087SOL    HW131160   1.464   6.824   4.760
10087SOL    HW231161   1.622   6.861   4.782
10088SOL     OW31162   6.817   3.237   0.187
10088SOL    HW131163   6.840   3.240   0.090
10088SOL    HW231164   6.760   3.157   0.205
10089SOL     OW31165   3.947   1.634   2.149
10089SOL    HW131166   4.018   1.692   2.109
10089SOL    HW231167   3.894   1.688   2.216
10090SOL     OW31168   1.426   5.910   1.252
10090SOL    HW131169   1.349   5.883   1.194
10090SOL    HW231170   1.497   5.840   1.247
10091SOL     OW31171   6.683   4.563   6.188
10091SOL    HW131172   6.610   4.573   6.120
10091SOL    HW231173   6.647   4.517   6.269
10092SOL     OW31174   0.301   2.578   5.569
10092SOL    HW131175   0.203   2.597   5.564
10092SOL    HW231176   0.341   2.585   5.478
10093SOL     OW31177   5.384   4.475   6.210
10093SOL    HW131178   5.346   4.425   6.288
10093SOL    HW231179   5.463   4.425   6.174
10094SOL     OW31180   2.972   1.123   1.045
10094SOL    HW131181   3.009   1.171   0.965
10094SOL    HW231182   2.909   1.051   1.016
10095SOL     OW31183   4.767   2.726   5.241
10095SOL    HW131184   4.752   2.639   5.195
10095SOL    HW231185   4.748   2.716   5.339
10096SOL     OW31186   5.066   1.111   2.808
10096SOL    HW131187   5.130   1.043   2.772
10096SOL    HW231188   5.108   1.159   2.885
10097SOL     OW31189   1.090   1.587   6.906
10097SOL    HW131190   1.031   1.583   6.825
10097SOL    HW231191   1.043   1.546   6.984
10098SOL     OW31192   3.512   5.204   4.097
10098SOL    HW131193   3.594   5.151   4.118
10098SOL    HW231194   3.515   5.234   4.002
10099SOL     OW31195   6.857   4.556   1.853
10099SOL    HW131196   6.769   4.576   1.810
10099SOL    HW231197   6.930   4.576   1.788
10100SOL     OW31198   4.721   5.439   4.871
10100SOL    HW131199   4.760   5.531   4.875
10100SOL    HW231200   4.690   5.421   4.777
10101SOL     OW31201   1.300   2.066   0.716
10101SOL    HW131202   1.390   2.099   0.688
10101SOL    HW231203   1.311   1.990   0.781
10102SOL     OW31204   6.315   5.929   1.444
10102SOL    HW131205   6.312   5.832   1.467
10102SOL    HW231206   6.403   5.967   1.474
10103SOL     OW31207   0.025   6.762   6.202
10103SOL    HW131208   0.092   6.791   6.271
10103SOL    HW231209   0.071   6.709   6.131
10104SOL     OW31210   1.903   0.859   5.333
10104SOL    HW131211   1.922   0.795   5.408
10104SOL    HW231212   1.982   0.865   5.273
10105SOL     OW31213   2.570   0.878   6.076
10105SOL    HW131214   2.530   0.874   5.985
10105SOL    HW231215   2.604   0.970   6.094
10106SOL     OW31216   4.824   6.085   1.303
10106SOL    HW131217   4.916   6.062   1.271
10106SOL    HW231218   4.810   6.184   1.298
10107SOL     OW31219   4.853   4.068   6.636
10107SOL    HW131220   4.805   4.010   6.570
10107SOL    HW231221   4.799   4.150   6.654
10108SOL     OW31222   1.850   2.490   0.540
10108SOL    HW131223   1.876   2.394   0.551
10108SOL    HW231224   1.844   2.534   0.629
10109SOL     OW31225   1.027   1.775   0.476
10109SOL    HW131226   1.099   1.756   0.410
10109SOL    HW231227   0.939   1.781   0.428
10110SOL     OW31228   4.699   6.532   2.788
10110SOL    HW131229   4.749   6.588   2.855
10110SOL    HW231230   4.648   6.592   2.726
10111SOL     OW31231   1.537   1.067   2.112
10111SOL    HW131232   1.493   1.078   2.201
10111SOL    HW231233   1.636   1.071   2.123
10112SOL     OW31234   6.501   2.087   3.844
10112SOL    HW131235   6.422   2.149   3.844
10112SOL    HW231236   6.476   2.002   3.797
10113SOL     OW31237   5.681   1.095   6.549
10113SOL    HW131238   5.749   1.027   6.578
10113SOL    HW231239   5.662   1.084   6.451
10114SOL     OW31240   4.375   1.797   2.542
10114SOL    HW131241   4.327   1.753   2.466
10114SOL    HW231242   4.363   1.742   2.625
10115SOL     OW31243   3.156   2.635   5.536
10115SOL    HW131244   3.192   2.623   5.443
10115SOL    HW231245   3.139   2.732   5.554
10116SOL     OW31246   6.254   0.072   4.506
10116SOL    HW131247   6.170   0.109   4.466
10116SOL    HW231248   6.233   0.025   4.591
10117SOL     OW31249   6.212   5.048   4.281
10117SOL    HW131250   6.206   5.081   4.375
10117SOL    HW231251   6.124   5.009   4.254
10118SOL     OW31252   3.694   5.256   4.419
10118SOL    HW131253   3.607   5.307   4.418
10118SOL    HW231254   3.675   5.159   4.435
10119SOL     OW31255   0.303   5.082   4.950
10119SOL    HW131256   0.255   5.071   5.038
10119SOL    HW231257   0.236   5.098   4.878
10120SOL     OW31258   2.290   2.724   2.416
10120SOL    HW131259   2.215   2.667   2.383
10120SOL    HW231260   2.263   2.767   2.502
10121SOL     OW31261   6.156   4.184   0.853
10121SOL    HW131262   6.129   4.157   0.945
10121SOL    HW231263   6.175   4.282   0.851
10122SOL     OW31264   1.243   0.644   3.861
10122SOL    HW131265   1.238   0.607   3.769
10122SOL    HW231266   1.321   0.706   3.869
10123SOL     OW31267   5.628   5.708   0.283
10123SOL    HW131268   5.713   5.664   0.255
10123SOL    HW231269   5.551   5.645   0.268
10124SOL     OW31270   1.422   4.193   2.952
10124SOL    HW131271   1.505   4.247   2.968
10124SOL    HW231272   1.359   4.205   3.029
10125SOL     OW31273   1.399   1.705   5.971
10125SOL    HW131274   1.311   1.727   6.013
10125SOL    HW231275   1.385   1.671   5.878
10126SOL     OW31276   6.543   6.521   6.641
10126SOL    HW131277   6.593   6.608   6.635
10126SOL    HW231278   6.465   6.523   6.578
10127SOL     OW31279   2.032   5.493   5.915
10127SOL    HW131280   2.027   5.467   6.012
10127SOL    HW231281   2.113   5.450   5.874
10128SOL     OW31282   2.567   1.003   6.953
10128SOL    HW131283   2.648   1.012   6.895
10128SOL    HW231284   2.498   1.069   6.924
10129SOL     OW31285   6.116   1.400   3.948
10129SOL    HW131286   6.035   1.370   3.998
10129SOL    HW231287   6.196   1.398   4.008
10130SOL     OW31288   1.541   1.725   2.661
10130SOL    HW131289   1.603   1.725   2.739
10130SOL    HW231290   1.448   1.741   2.693
10131SOL     OW31291   2.185   0.612   4.342
10131SOL    HW131292   2.136   0.693   4.311
10131SOL    HW231293   2.129   0.560   4.407
10132SOL     OW31294   6.829   0.787   1.690
10132SOL    HW131295   6.784   0.758   1.774
10132SOL    HW231296   6.809   0.884   1.674
10133SOL     OW31297   4.994   0.240   0.356
10133SOL    HW131298   4.987   0.145   0.326
10133SOL    HW231299   5.028   0.297   0.281
10134SOL     OW31300   6.187   0.809   1.926
10134SOL    HW131301   6.241   0.812   1.842
10134SOL    HW231302   6.166   0.714   1.949
10135SOL     OW31303   6.536   0.449   2.585
10135SOL    HW131304   6.458   0.479   2.639
10135SOL    HW231305   6.620   0.464   2.637
10136SOL     OW31306   5.574   1.804   2.877
10136SOL    HW131307   5.660   1.839   2.915
10136SOL    HW231308   5.497   1.837   2.931
10137SOL     OW31309   6.371   5.760   5.674
10137SOL    HW131310   6.434   5.837   5.686
10137SOL    HW231311   6.287   5.792   5.630
10138SOL     OW31312   6.828   1.923   0.370
10138SOL    HW131313   6.833   1.916   0.270
10138SOL    HW231314   6.808   2.018   0.395
10139SOL     OW31315   3.321   3.432   6.071
10139SOL    HW131316   3.337   3.530   6.058
10139SOL    HW231317   3.332   3.409   6.167
10140SOL     OW31318   0.113   6.115   5.938
10140SOL    HW131319   0.180   6.170   5.888
10140SOL    HW231320   0.159   6.064   6.010
10141SOL     OW31321   2.042   1.989   4.481
10141SOL    HW131322   2.046   1.921   4.555
10141SOL    HW231323   2.074   1.947   4.396
10142SOL     OW31324   5.300   6.208   4.562
10142SOL    HW131325   5.282   6.250   4.651
10142SOL    HW231326   5.396   6.223   4.538
10143SOL     OW31327   5.332   3.643   6.547
10143SOL    HW131328   5.384   3.728   6.551
10143SOL    HW231329   5.388   3.567   6.582
10144SOL     OW31330   3.777   6.593   5.828
10144SOL    HW131331   3.684   6.558   5.816
10144SOL    HW231332   3.790   6.621   5.923
10145SOL     OW31333   5.719   6.181   6.848
10145SOL    HW131334   5.777   6.251   6.891
10145SOL    HW231335   5.624   6.197   6.873
10146SOL     OW31336   0.310   2.305   4.449
10146SOL    HW131337   0.213   2.329   4.449
10146SOL    HW231338   0.353   2.338   4.533
10147SOL     OW31339   5.259   5.754   5.997
10147SOL    HW131340   5.209   5.840   5.984
10147SOL    HW231341   5.273   5.739   6.095
10148SOL     OW31342   1.279   4.713   6.857
10148SOL    HW131343   1.225   4.726   6.774
10148SOL    HW231344   1.218   4.686   6.932
10149SOL     OW31345   4.340   4.468   0.294
10149SOL    HW131346   4.244   4.439   0.290
10149SOL    HW231347   4.346   4.557   0.339
10150SOL     OW31348   4.207   4.544   6.999
10150SOL    HW131349   4.151   4.578   0.047
10150SOL    HW231350   4.283   4.606   6.983
10151SOL     OW31351   5.489   6.905   5.448
10151SOL    HW131352   5.533   6.894   5.537
10151SOL    HW231353   5.559   6.914   5.376
10152SOL     OW31354   5.344   6.384   2.950
10152SOL    HW131355   5.247   6.373   2.971
10152SOL    HW231356   5.384   6.451   3.014
10153SOL     OW31357   4.800   3.967   3.401
10153SOL    HW131358   4.827   3.902   3.472
10153SOL    HW231359   4.779   3.917   3.317
10154SOL     OW31360   5.559   5.267   5.443
10154SOL    HW131361   5.504   5.351   5.442
10154SOL    HW231362   5.506   5.193   5.484
10155SOL     OW31363   3.881   1.983   4.758
10155SOL    HW131364   3.926   2.058   4.807
10155SOL    HW231365   3.830   2.020   4.680
10156SOL     OW31366   4.955   2.310   6.903
10156SOL    HW131367   4.869   2.283   6.859
10156SOL    HW231368   5.027   2.247   6.876
10157SOL     OW31369   0.385   2.603   0.817
10157SOL    HW131370   0.317   2.669   0.847
10157SOL    HW231371   0.450   2.647   0.755
10158SOL     OW31372   5.764   5.602   0.989
10158SOL    HW131373   5.792   5.584   1.083
10158SOL    HW231374   5.665   5.619   0.987
10159SOL     OW31375   3.698   3.498   2.736
10159SOL    HW131376   3.669   3.585   2.776
10159SOL    HW231377   3.790   3.476   2.767
10160SOL     OW31378   1.546   5.198   3.266
10160SOL    HW131379   1.604   5.254   3.207
10160SOL    HW231380   1.558   5.101   3.242
10161SOL     OW31381   5.190   3.341   5.544
10161SOL    HW131382   5.132   3.299   5.613
10161SOL    HW231383   5.279   3.363   5.584
10162SOL     OW31384   1.171   3.095   2.618
10162SOL    HW131385   1.200   3.014   2.668
10162SOL    HW231386   1.250   3.155   2.603
10163SOL     OW31387   1.336   6.094   5.429
10163SOL    HW131388   1.396   6.023   5.391
10163SOL    HW231389   1.360   6.110   5.525
10164SOL     OW31390   1.153   2.697   2.926
10164SOL    HW131391   1.060   2.674   2.896
10164SOL    HW231392   1.213   2.619   2.909
10165SOL     OW31393   6.816   3.381   4.685
10165SOL    HW131394   6.783   3.400   4.592
10165SOL    HW231395   6.915   3.390   4.688
10166SOL     OW31396   1.538   0.808   0.849
10166SOL    HW131397   1.470   0.882   0.848
10166SOL    HW231398   1.492   0.720   0.851
10167SOL     OW31399   2.185   0.183   6.652
10167SOL    HW131400   2.153   0.268   6.612
10167SOL    HW231401   2.285   0.180   6.648
10168SOL     OW31402   0.106   1.062   0.611
10168SOL    HW131403   0.135   0.972   0.643
10168SOL    HW231404   0.019   1.087   0.655
10169SOL     OW31405   6.293   2.691   3.814
10169SOL    HW131406   6.224   2.619   3.812
10169SOL    HW231407   6.271   2.755   3.888
10170SOL     OW31408   6.385   5.771   6.070
10170SOL    HW131409   6.295   5.790   6.110
10170SOL    HW231410   6.374   5.709   5.992
10171SOL     OW31411   2.498   3.619   5.706
10171SOL    HW131412   2.543   3.708   5.712
10171SOL    HW231413   2.402   3.632   5.679
10172SOL     OW31414   6.564   0.237   2.753
10172SOL    HW131415   6.579   0.144   2.721
10172SOL    HW231416   6.555   0.298   2.674
10173SOL     OW31417   3.230   4.484   5.401
10173SOL    HW131418   3.307   4.547   5.398
10173SOL    HW231419   3.152   4.524   5.353
10174SOL     OW31420   4.613   5.765   3.064
10174SOL    HW131421   4.597   5.852   3.017
10174SOL    HW231422   4.645   5.783   3.157
10175SOL     OW31423   0.416   1.139   3.988
10175SOL    HW131424   0.471   1.223   3.992
10175SOL    HW231425   0.360   1.141   3.905
10176SOL     OW31426   5.937   2.056   5.833
10176SOL    HW131427   5.872   2.047   5.908
10176SOL    HW231428   5.894   2.109   5.759
10177SOL     OW31429   2.555   0.475   2.549
10177SOL    HW131430   2.471   0.505   2.503
10177SOL    HW231431   2.531   0.415   2.626
10178SOL     OW31432   2.131   1.822   0.117
10178SOL    HW131433   2.140   1.911   0.162
10178SOL    HW231434   2.221   1.780   0.108
10179SOL     OW31435   1.153   4.493   0.880
10179SOL    HW131436   1.246   4.459   0.897
10179SOL    HW231437   1.112   4.522   0.966
10180SOL     OW31438   4.423   0.301   6.217
10180SOL    HW131439   4.422   0.303   6.317
10180SOL    HW231440   4.337   0.263   6.183
10181SOL     OW31441   0.039   3.521   1.634
10181SOL    HW131442   6.983   3.485   1.594
10181SOL    HW231443   0.100   3.553   1.562
10182SOL     OW31444   5.680   2.427   6.978
10182SOL    HW131445   5.714   2.388   0.037
10182SOL    HW231446   5.750   2.417   6.908
10183SOL     OW31447   6.283   2.514   6.827
10183SOL    HW131448   6.341   2.536   6.748
10183SOL    HW231449   6.192   2.487   6.794
10184SOL     OW31450   5.658   3.567   6.092
10184SOL    HW131451   5.753   3.541   6.078
10184SOL    HW231452   5.642   3.584   6.190
10185SOL     OW31453   3.707   5.640   2.380
10185SOL    HW131454   3.731   5.719   2.435
10185SOL    HW231455   3.612   5.647   2.350
10186SOL     OW31456   3.742   3.403   6.014
10186SOL    HW131457   3.665   3.418   5.953
10186SOL    HW231458   3.818   3.463   5.988
10187SOL     OW31459   1.657   5.707   5.832
10187SOL    HW131460   1.754   5.696   5.811
10187SOL    HW231461   1.627   5.798   5.804
10188SOL     OW31462   2.972   0.335   6.728
10188SOL    HW131463   2.878   0.358   6.751
10188SOL    HW231464   3.020   0.304   6.810
10189SOL     OW31465   1.195   1.771   6.131
10189SOL    HW131466   1.192   1.852   6.072
10189SOL    HW231467   1.122   1.777   6.199
10190SOL     OW31468   2.856   5.486   1.889
10190SOL    HW131469   2.926   5.548   1.924
10190SOL    HW231470   2.899   5.417   1.830
10191SOL     OW31471   5.779   5.409   6.980
10191SOL    HW131472   5.869   5.403   7.022
10191SOL    HW231473   5.769   5.336   6.912
10192SOL     OW31474   1.880   1.603   4.719
10192SOL    HW131475   1.862   1.559   4.807
10192SOL    HW231476   1.967   1.653   4.724
10193SOL     OW31477   3.431   4.151   3.344
10193SOL    HW131478   3.496   4.129   3.272
10193SOL    HW231479   3.438   4.083   3.417
10194SOL     OW31480   3.655   0.096   3.691
10194SOL    HW131481   3.602   0.181   3.691
10194SOL    HW231482   3.592   0.018   3.692
10195SOL     OW31483   4.041   6.258   1.808
10195SOL    HW131484   4.014   6.197   1.883
10195SOL    HW231485   4.137   6.283   1.819
10196SOL     OW31486   6.429   1.731   3.406
10196SOL    HW131487   6.449   1.651   3.350
10196SOL    HW231488   6.512   1.787   3.415
10197SOL     OW31489   5.464   0.652   2.193
10197SOL    HW131490   5.442   0.750   2.193
10197SOL    HW231491   5.541   0.636   2.132
10198SOL     OW31492   2.734   0.276   1.098
10198SOL    HW131493   2.653   0.305   1.047
10198SOL    HW231494   2.706   0.225   1.180
10199SOL     OW31495   0.617   0.951   6.967
10199SOL    HW131496   0.703   0.965   6.917
10199SOL    HW231497   0.606   1.024   0.007
10200SOL     OW31498   5.173   4.504   5.327
10200SOL    HW131499   5.117   4.435   5.281
10200SOL    HW231500   5.236   4.545   5.262
10201SOL     OW31501   1.281   4.662   2.394
10201SOL    HW131502   1.324   4.572   2.390
10201SOL    HW231503   1.265   4.696   2.301
10202SOL     OW31504   1.488   3.122   2.436
10202SOL    HW131505   1.465   3.184   2.361
10202SOL    HW231506   1.460   3.163   2.523
10203SOL     OW31507   2.235   2.853   2.659
10203SOL    HW131508   2.304   2.829   2.726
10203SOL    HW231509   2.144   2.840   2.699
10204SOL     OW31510   3.063   4.748   5.303
10204SOL    HW131511   3.012   4.780   5.383
10204SOL    HW231512   3.019   4.666   5.267
10205SOL     OW31513   5.124   2.367   3.362
10205SOL    HW131514   5.026   2.380   3.346
10205SOL    HW231515   5.175   2.391   3.280
10206SOL     OW31516   5.240   0.064   6.165
10206SOL    HW131517   5.235   0.004   6.245
10206SOL    HW231518   5.147   0.088   6.136
10207SOL     OW31519   3.743   0.783   2.761
10207SOL    HW131520   3.782   0.873   2.740
10207SOL    HW231521   3.673   0.761   2.693
10208SOL     OW31522   6.294   4.177   5.644
10208SOL    HW131523   6.386   4.174   5.605
10208SOL    HW231524   6.246   4.258   5.612
10209SOL     OW31525   6.462   6.391   6.210
10209SOL    HW131526   6.463   6.445   6.294
10209SOL    HW231527   6.375   6.343   6.202
10210SOL     OW31528   5.130   5.988   2.509
10210SOL    HW131529   5.079   6.069   2.539
10210SOL    HW231530   5.071   5.931   2.452
10211SOL     OW31531   3.840   5.929   4.858
10211SOL    HW131532   3.748   5.920   4.819
10211SOL    HW231533   3.844   5.882   4.946
10212SOL     OW31534   6.944   1.099   4.930
10212SOL    HW131535   6.954   1.198   4.921
10212SOL    HW231536   6.997   1.053   4.858
10213SOL     OW31537   6.514   1.532   3.224
10213SOL    HW131538   6.548   1.548   3.131
10213SOL    HW231539   6.476   1.440   3.231
10214SOL     OW31540   6.769   1.089   1.661
10214SOL    HW131541   6.816   1.175   1.682
10214SOL    HW231542   6.675   1.092   1.694
10215SOL     OW31543   3.821   4.353   6.245
10215SOL    HW131544   3.814   4.254   6.233
10215SOL    HW231545   3.801   4.398   6.158
10216SOL     OW31546   5.108   0.644   1.493
10216SOL    HW131547   5.057   0.558   1.498
10216SOL    HW231548   5.044   0.721   1.489
10217SOL     OW31549   2.484   1.811   4.865
10217SOL    HW131550   2.397   1.857   4.847
10217SOL    HW231551   2.473   1.713   4.853
10218SOL     OW31552   1.841   0.937   0.491
10218SOL    HW131553   1.862   0.859   0.549
10218SOL    HW231554   1.751   0.973   0.515
10219SOL     OW31555   0.942   2.341   1.351
10219SOL    HW131556   1.017   2.401   1.321
10219SOL    HW231557   0.926   2.271   1.282
10220SOL     OW31558   4.371   2.096   1.436
10220SOL    HW131559   4.293   2.066   1.382
10220SOL    HW231560   4.362   2.063   1.530
10221SOL     OW31561   2.926   0.380   5.069
10221SOL    HW131562   2.839   0.418   5.038
10221SOL    HW231563   3.001   0.437   5.037
10222SOL     OW31564   1.895   5.104   5.424
10222SOL    HW131565   1.825   5.165   5.385
10222SOL    HW231566   1.906   5.024   5.364
10223SOL     OW31567   1.680   3.973   0.113
10223SOL    HW131568   1.742   4.051   0.113
10223SOL    HW231569   1.592   4.000   0.074
10224SOL     OW31570   1.329   0.190   4.151
10224SOL    HW131571   1.344   0.244   4.068
10224SOL    HW231572   1.415   0.150   4.181
10225SOL     OW31573   6.753   5.475   4.818
10225SOL    HW131574   6.669   5.529   4.825
10225SOL    HW231575   6.829   5.527   4.859
10226SOL     OW31576   1.792   1.280   6.844
10226SOL    HW131577   1.693   1.269   6.843
10226SOL    HW231578   1.830   1.234   6.925
10227SOL     OW31579   5.095   5.241   6.737
10227SOL    HW131580   5.124   5.213   6.646
10227SOL    HW231581   5.019   5.306   6.729
10228SOL     OW31582   1.310   5.284   3.610
10228SOL    HW131583   1.279   5.349   3.540
10228SOL    HW231584   1.243   5.279   3.684
10229SOL     OW31585   1.126   0.204   3.007
10229SOL    HW131586   1.041   0.240   2.967
10229SOL    HW231587   1.189   0.179   2.934
10230SOL     OW31588   6.535   0.528   3.914
10230SOL    HW131589   6.561   0.533   4.011
10230SOL    HW231590   6.468   0.599   3.894
10231SOL     OW31591   5.574   6.933   4.983
10231SOL    HW131592   5.575   6.964   4.888
10231SOL    HW231593   5.489   6.883   5.000
10232SOL     OW31594   3.402   2.115   4.926
10232SOL    HW131595   3.339   2.037   4.918
10232SOL    HW231596   3.351   2.196   4.956
10233SOL     OW31597   4.727   2.081   5.785
10233SOL    HW131598   4.766   1.992   5.764
10233SOL    HW231599   4.629   2.073   5.800
10234SOL     OW31600   5.570   0.002   1.428
10234SOL    HW131601   5.630   6.994   1.499
10234SOL    HW231602   5.474   7.020   1.456
10235SOL     OW31603   5.051   1.423   0.044
10235SOL    HW131604   5.126   1.360   0.062
10235SOL    HW231605   5.026   1.419   6.975
10236SOL     OW31606   1.993   5.960   2.119
10236SOL    HW131607   2.078   5.924   2.160
10236SOL    HW231608   1.935   5.883   2.091
10237SOL     OW31609   6.389   3.644   2.348
10237SOL    HW131610   6.328   3.622   2.425
10237SOL    HW231611   6.384   3.742   2.329
10238SOL     OW31612   4.241   4.992   4.958
10238SOL    HW131613   4.219   4.929   4.882
10238SOL    HW231614   4.267   5.081   4.921
10239SOL     OW31615   0.302   3.970   4.303
10239SOL    HW131616   0.336   3.887   4.347
10239SOL    HW231617   0.299   3.957   4.204
10240SOL     OW31618   1.255   3.681   3.497
10240SOL    HW131619   1.303   3.625   3.429
10240SOL    HW231620   1.161   3.695   3.468
10241SOL     OW31621   1.138   1.855   2.562
10241SOL    HW131622   1.119   1.887   2.469
10241SOL    HW231623   1.145   1.934   2.623
10242SOL     OW31624   0.082   1.136   6.107
10242SOL    HW131625   0.110   1.172   6.197
10242SOL    HW231626   7.013   1.154   6.093
10243SOL     OW31627   0.483   5.710   1.863
10243SOL    HW131628   0.474   5.690   1.961
10243SOL    HW231629   0.577   5.690   1.834
10244SOL     OW31630   2.189   5.488   6.729
10244SOL    HW131631   2.263   5.433   6.691
10244SOL    HW231632   2.116   5.429   6.762
10245SOL     OW31633   2.052   2.755   6.151
10245SOL    HW131634   2.151   2.743   6.157
10245SOL    HW231635   2.021   2.815   6.225
10246SOL     OW31636   3.223   4.000   4.904
10246SOL    HW131637   3.145   3.941   4.927
10246SOL    HW231638   3.285   4.006   4.982
10247SOL     OW31639   0.091   5.363   5.987
10247SOL    HW131640   0.145   5.328   5.911
10247SOL    HW231641   0.146   5.365   6.070
10248SOL     OW31642   2.916   7.019   2.016
10248SOL    HW131643   2.933   7.019   1.917
10248SOL    HW231644   2.993   6.976   2.063
10249SOL     OW31645   4.649   1.401   5.722
10249SOL    HW131646   4.694   1.482   5.758
10249SOL    HW231647   4.712   1.351   5.662
10250SOL     OW31648   5.900   1.237   0.786
10250SOL    HW131649   5.978   1.298   0.805
10250SOL    HW231650   5.836   1.284   0.725
10251SOL     OW31651   2.605   2.886   0.139
10251SOL    HW131652   2.594   2.844   0.049
10251SOL    HW231653   2.622   2.815   0.207
10252SOL     OW31654   5.762   6.148   1.017
10252SOL    HW131655   5.765   6.052   1.042
10252SOL    HW231656   5.837   6.197   1.061
10253SOL     OW31657   4.733   4.651   6.901
10253SOL    HW131658   4.780   4.564   6.916
10253SOL    HW231659   4.703   4.657   6.806
10254SOL     OW31660   2.743   1.694   5.199
10254SOL    HW131661   2.777   1.778   5.159
10254SOL    HW231662   2.775   1.686   5.294
10255SOL     OW31663   2.304   5.505   2.366
10255SOL    HW131664   2.348   5.435   2.310
10255SOL    HW231665   2.292   5.588   2.312
10256SOL     OW31666   4.925   0.710   0.229
10256SOL    HW131667   4.999   0.777   0.240
10256SOL    HW231668   4.858   0.722   0.302
10257SOL     OW31669   1.333   5.876   6.044
10257SOL    HW131670   1.413   5.817   6.052
10257SOL    HW231671   1.326   5.934   6.125
10258SOL     OW31672   4.530   0.049   3.374
10258SOL    HW131673   4.528   7.014   3.451
10258SOL    HW231674   4.436   0.069   3.345
10259SOL     OW31675   0.328   4.092   3.845
10259SOL    HW131676   0.286   4.179   3.819
10259SOL    HW231677   0.392   4.063   3.773
10260SOL     OW31678   0.844   0.250   2.352
10260SOL    HW131679   0.841   0.343   2.316
10260SOL    HW231680   0.778   0.193   2.303
10261SOL     OW31681   1.050   5.700   1.966
10261SOL    HW131682   1.071   5.798   1.971
10261SOL    HW231683   1.090   5.661   1.883
10262SOL     OW31684   3.155   4.934   4.468
10262SOL    HW131685   3.135   4.873   4.545
10262SOL    HW231686   3.103   4.905   4.388
10263SOL     OW31687   5.263   1.919   5.535
10263SOL    HW131688   5.238   1.930   5.439
10263SOL    HW231689   5.269   1.821   5.557
10264SOL     OW31690   6.205   1.005   6.492
10264SOL    HW131691   6.236   0.968   6.580
10264SOL    HW231692   6.106   1.023   6.496
10265SOL     OW31693   3.863   1.612   2.925
10265SOL    HW131694   3.939   1.644   2.981
10265SOL    HW231695   3.845   1.516   2.946
10266SOL     OW31696   3.550   4.148   6.484
10266SOL    HW131697   3.485   4.175   6.555
10266SOL    HW231698   3.506   4.153   6.395
10267SOL     OW31699   0.215   2.275   6.500
10267SOL    HW131700   0.199   2.352   6.438
10267SOL    HW231701   0.142   2.207   6.489
10268SOL     OW31702   5.097   5.424   1.744
10268SOL    HW131703   5.093   5.401   1.841
10268SOL    HW231704   5.025   5.490   1.724
10269SOL     OW31705   2.261   2.483   6.354
10269SOL    HW131706   2.340   2.482   6.416
10269SOL    HW231707   2.178   2.464   6.405
10270SOL     OW31708   1.761   5.748   0.717
10270SOL    HW131709   1.831   5.679   0.695
10270SOL    HW231710   1.749   5.809   0.639
10271SOL     OW31711   4.117   3.757   1.573
10271SOL    HW131712   4.102   3.741   1.476
10271SOL    HW231713   4.141   3.671   1.618
10272SOL     OW31714   0.335   0.893   4.474
10272SOL    HW131715   0.300   0.984   4.452
10272SOL    HW231716   0.259   0.829   4.481
10273SOL     OW31717   3.734   5.561   4.468
10273SOL    HW131718   3.715   5.635   4.403
10273SOL    HW231719   3.718   5.473   4.422
10274SOL     OW31720   1.066   4.739   5.747
10274SOL    HW131721   1.034   4.727   5.841
10274SOL    HW231722   1.011   4.682   5.686
10275SOL     OW31723   0.959   6.499   3.052
10275SOL    HW131724   0.952   6.562   2.975
10275SOL    HW231725   0.877   6.443   3.057
10276SOL     OW31726   6.939   5.607   5.005
10276SOL    HW131727   6.896   5.697   4.999
10276SOL    HW231728   0.011   5.617   5.003
10277SOL     OW31729   2.733   6.691   4.324
10277SOL    HW131730   2.721   6.602   4.368
10277SOL    HW231731   2.790   6.680   4.242
10278SOL     OW31732   6.187   0.257   6.058
10278SOL    HW131733   6.144   0.220   6.141
10278SOL    HW231734   6.225   0.347   6.078
10279SOL     OW31735   2.803   0.108   4.439
10279SOL    HW131736   2.861   0.105   4.357
10279SOL    HW231737   2.749   0.192   4.437
10280SOL     OW31738   1.775   3.992   0.496
10280SOL    HW131739   1.681   3.960   0.509
10280SOL    HW231740   1.837   3.915   0.504
10281SOL     OW31741   4.627   1.167   2.931
10281SOL    HW131742   4.684   1.134   2.856
10281SOL    HW231743   4.679   1.168   3.016
10282SOL     OW31744   0.986   1.815   3.904
10282SOL    HW131745   1.036   1.847   3.824
10282SOL    HW231746   0.971   1.717   3.898
10283SOL     OW31747   1.515   3.588   1.113
10283SOL    HW131748   1.490   3.504   1.065
10283SOL    HW231749   1.550   3.564   1.204
10284SOL     OW31750   5.531   3.640   5.496
10284SOL    HW131751   5.498   3.593   5.414
10284SOL    HW231752   5.631   3.645   5.493
10285SOL     OW31753   4.935   1.026   0.816
10285SOL    HW131754   4.982   0.988   0.896
10285SOL    HW231755   4.945   0.964   0.738
10286SOL     OW31756   4.191   0.714   3.011
10286SOL    HW131757   4.168   0.801   2.967
10286SOL    HW231758   4.221   0.648   2.942
10287SOL     OW31759   1.915   6.670   1.458
10287SOL    HW131760   1.897   6.580   1.419
10287SOL    HW231761   1.867   6.680   1.545
10288SOL     OW31762   5.771   5.844   3.240
10288SOL    HW131763   5.795   5.863   3.145
10288SOL    HW231764   5.854   5.844   3.296
10289SOL     OW31765   3.105   1.496   1.354
10289SOL    HW131766   3.176   1.524   1.289
10289SOL    HW231767   3.066   1.409   1.324
10290SOL     OW31768   3.852   3.385   2.947
10290SOL    HW131769   3.890   3.305   2.993
10290SOL    HW231770   3.818   3.449   3.015
10291SOL     OW31771   3.461   0.720   4.727
10291SOL    HW131772   3.457   0.692   4.824
10291SOL    HW231773   3.390   0.673   4.676
10292SOL     OW31774   0.559   1.609   4.453
10292SOL    HW131775   0.471   1.567   4.434
10292SOL    HW231776   0.596   1.572   4.538
10293SOL     OW31777   2.475   6.284   3.272
10293SOL    HW131778   2.530   6.227   3.212
10293SOL    HW231779   2.436   6.228   3.345
10294SOL     OW31780   5.001   1.345   3.036
10294SOL    HW131781   4.981   1.291   3.117
10294SOL    HW231782   5.092   1.386   3.044
10295SOL     OW31783   0.185   5.271   5.723
10295SOL    HW131784   0.258   5.336   5.699
10295SOL    HW231785   0.119   5.266   5.648
10296SOL     OW31786   6.586   3.697   6.838
10296SOL    HW131787   6.530   3.646   6.772
10296SOL    HW231788   6.582   3.650   6.927
10297SOL     OW31789   1.027   5.271   4.644
10297SOL    HW131790   0.995   5.251   4.551
10297SOL    HW231791   0.949   5.289   4.703
10298SOL     OW31792   5.332   4.157   3.806
10298SOL    HW131793   5.245   4.203   3.826
10298SOL    HW231794   5.314   4.062   3.783
10299SOL     OW31795   4.322   4.632   3.358
10299SOL    HW131796   4.334   4.585   3.271
10299SOL    HW231797   4.250   4.702   3.349
10300SOL     OW31798   0.790   3.762   2.517
10300SOL    HW131799   0.831   3.820   2.447
10300SOL    HW231800   0.841   3.676   2.522
10301SOL     OW31801   5.944   1.477   2.966
10301SOL    HW131802   5.883   1.528   3.026
10301SOL    HW231803   5.909   1.384   2.954
10302SOL     OW31804   1.475   5.619   2.783
10302SOL    HW131805   1.461   5.560   2.863
10302SOL    HW231806   1.391   5.668   2.762
10303SOL     OW31807   4.309   3.663   1.198
10303SOL    HW131808   4.333   3.641   1.293
10303SOL    HW231809   4.279   3.758   1.193
10304SOL     OW31810   0.032   6.762   2.689
10304SOL    HW131811   0.104   6.802   2.632
10304SOL    HW231812   0.071   6.737   2.778
10305SOL     OW31813   1.674   6.090   6.808
10305SOL    HW131814   1.594   6.148   6.825
10305SOL    HW231815   1.684   6.024   6.883
10306SOL     OW31816   4.283   5.466   0.324
10306SOL    HW131817   4.341   5.385   0.321
10306SOL    HW231818   4.187   5.440   0.316
10307SOL     OW31819   1.674   1.183   6.463
10307SOL    HW131820   1.650   1.089   6.485
10307SOL    HW231821   1.761   1.207   6.507
10308SOL     OW31822   3.370   5.856   3.804
10308SOL    HW131823   3.356   5.805   3.719
10308SOL    HW231824   3.405   5.947   3.783
10309SOL     OW31825   6.933   6.441   2.785
10309SOL    HW131826   6.956   6.459   2.881
10309SOL    HW231827   6.929   6.527   2.735
10310SOL     OW31828   3.455   3.796   2.522
10310SOL    HW131829   3.382   3.729   2.511
10310SOL    HW231830   3.445   3.868   2.454
10311SOL     OW31831   0.628   5.185   0.227
10311SOL    HW131832   0.579   5.230   0.301
10311SOL    HW231833   0.725   5.174   0.252
10312SOL     OW31834   2.924   4.381   0.378
10312SOL    HW131835   2.974   4.417   0.457
10312SOL    HW231836   2.935   4.443   0.300
10313SOL     OW31837   4.730   0.587   2.361
10313SOL    HW131838   4.696   0.493   2.362
10313SOL    HW231839   4.817   0.591   2.311
10314SOL     OW31840   6.233   6.601   0.851
10314SOL    HW131841   6.183   6.579   0.768
10314SOL    HW231842   6.198   6.685   0.891
10315SOL     OW31843   6.093   6.068   4.635
10315SOL    HW131844   6.004   6.051   4.593
10315SOL    HW231845   6.150   6.122   4.572
10316SOL     OW31846   0.382   3.591   4.249
10316SOL    HW131847   0.390   3.618   4.153
10316SOL    HW231848   0.458   3.532   4.274
10317SOL     OW31849   4.339   5.608   6.356
10317SOL    HW131850   4.267   5.610   6.286
10317SOL    HW231851   4.409   5.541   6.330
10318SOL     OW31852   5.935   5.298   1.900
10318SOL    HW131853   5.983   5.325   1.983
10318SOL    HW231854   6.001   5.269   1.831
10319SOL     OW31855   6.666   5.806   3.688
10319SOL    HW131856   6.571   5.774   3.700
10319SOL    HW231857   6.705   5.826   3.778
10320SOL     OW31858   6.937   6.174   1.162
10320SOL    HW131859   6.901   6.216   1.244
10320SOL    HW231860   6.868   6.174   1.090
10321SOL     OW31861   4.587   5.450   4.402
10321SOL    HW131862   4.640   5.464   4.485
10321SOL    HW231863   4.496   5.490   4.414
10322SOL     OW31864   6.341   4.238   0.531
10322SOL    HW131865   6.334   4.184   0.615
10322SOL    HW231866   6.409   4.197   0.470
10323SOL     OW31867   5.318   3.216   5.904
10323SOL    HW131868   5.316   3.316   5.899
10323SOL    HW231869   5.258   3.186   5.979
10324SOL     OW31870   3.302   3.388   3.570
10324SOL    HW131871   3.240   3.310   3.557
10324SOL    HW231872   3.286   3.428   3.660
10325SOL     OW31873   0.688   2.840   2.810
10325SOL    HW131874   0.606   2.810   2.762
10325SOL    HW231875   0.666   2.856   2.906
10326SOL     OW31876   5.215   2.762   0.347
10326SOL    HW131877   5.126   2.738   0.309
10326SOL    HW231878   5.210   2.761   0.447
10327SOL     OW31879   0.576   0.402   2.727
10327SOL    HW131880   0.478   0.396   2.750
10327SOL    HW231881   0.628   0.432   2.807
10328SOL     OW31882   5.848   3.527   2.262
10328SOL    HW131883   5.828   3.518   2.360
10328SOL    HW231884   5.890   3.443   2.229
10329SOL     OW31885   2.880   6.738   3.044
10329SOL    HW131886   2.800   6.792   3.020
10329SOL    HW231887   2.869   6.701   3.137
10330SOL     OW31888   4.265   5.098   2.227
10330SOL    HW131889   4.252   5.182   2.280
10330SOL    HW231890   4.292   5.024   2.287
10331SOL     OW31891   5.495   1.015   3.719
10331SOL    HW131892   5.501   1.008   3.619
10331SOL    HW231893   5.579   1.055   3.755
10332SOL     OW31894   0.025   2.106   6.485
10332SOL    HW131895   0.053   2.023   6.437
10332SOL    HW231896   6.953   2.109   6.492
10333SOL     OW31897   5.812   5.648   4.164
10333SOL    HW131898   5.761   5.667   4.080
10333SOL    HW231899   5.749   5.612   4.233
10334SOL     OW31900   1.775   4.463   4.383
10334SOL    HW131901   1.816   4.502   4.465
10334SOL    HW231902   1.783   4.364   4.385
10335SOL     OW31903   1.690   5.244   1.191
10335SOL    HW131904   1.635   5.172   1.147
10335SOL    HW231905   1.737   5.205   1.270
10336SOL     OW31906   4.013   6.282   2.294
10336SOL    HW131907   4.024   6.343   2.215
10336SOL    HW231908   3.930   6.228   2.284
10337SOL     OW31909   0.857   5.117   4.831
10337SOL    HW131910   0.812   5.081   4.913
10337SOL    HW231911   0.935   5.059   4.807
10338SOL     OW31912   2.603   6.378   2.845
10338SOL    HW131913   2.641   6.466   2.818
10338SOL    HW231914   2.605   6.315   2.767
10339SOL     OW31915   2.381   6.335   1.467
10339SOL    HW131916   2.310   6.361   1.403
10339SOL    HW231917   2.471   6.350   1.426
10340SOL     OW31918   1.828   6.600   0.332
10340SOL    HW131919   1.893   6.561   0.397
10340SOL    HW231920   1.878   6.654   0.264
10341SOL     OW31921   1.988   1.516   2.345
10341SOL    HW131922   1.933   1.463   2.410
10341SOL    HW231923   2.082   1.522   2.378
10342SOL     OW31924   2.121   0.413   5.262
10342SOL    HW131925   2.035   0.381   5.222
10342SOL    HW231926   2.109   0.428   5.360
10343SOL     OW31927   2.859   3.580   6.078
10343SOL    HW131928   2.843   3.569   6.176
10343SOL    HW231929   2.825   3.670   6.049
10344SOL     OW31930   3.886   3.650   4.878
10344SOL    HW131931   3.933   3.573   4.920
10344SOL    HW231932   3.793   3.656   4.914
10345SOL     OW31933   2.305   1.757   6.653
10345SOL    HW131934   2.311   1.854   6.674
10345SOL    HW231935   2.272   1.744   6.560
10346SOL     OW31936   5.087   6.721   0.447
10346SOL    HW131937   5.147   6.798   0.471
10346SOL    HW231938   5.069   6.721   0.349
10347SOL     OW31939   5.635   1.534   1.664
10347SOL    HW131940   5.538   1.513   1.677
10347SOL    HW231941   5.651   1.631   1.682
10348SOL     OW31942   6.540   0.232   5.859
10348SOL    HW131943   6.548   0.322   5.902
10348SOL    HW231944   6.505   0.243   5.766
10349SOL     OW31945   6.785   1.778   1.475
10349SOL    HW131946   6.728   1.696   1.463
10349SOL    HW231947   6.805   1.818   1.386
10350SOL     OW31948   2.782   5.029   4.276
10350SOL    HW131949   2.691   5.059   4.306
10350SOL    HW231950   2.786   4.929   4.276
10351SOL     OW31951   5.798   4.978   5.096
10351SOL    HW131952   5.775   5.075   5.085
10351SOL    HW231953   5.850   4.966   5.181
10352SOL     OW31954   6.039   2.388   0.324
10352SOL    HW131955   6.022   2.408   0.421
10352SOL    HW231956   6.112   2.321   0.316
10353SOL     OW31957   0.247   2.154   3.221
10353SOL    HW131958   0.282   2.239   3.184
10353SOL    HW231959   0.147   2.154   3.218
10354SOL     OW31960   0.622   3.343   0.458
10354SOL    HW131961   0.584   3.369   0.546
10354SOL    HW231962   0.685   3.414   0.426
10355SOL     OW31963   0.957   0.316   0.950
10355SOL    HW131964   0.996   0.391   1.004
10355SOL    HW231965   0.882   0.350   0.893
10356SOL     OW31966   6.780   4.310   6.579
10356SOL    HW131967   6.863   4.253   6.584
10356SOL    HW231968   6.724   4.279   6.502
10357SOL     OW31969   1.084   3.122   5.978
10357SOL    HW131970   1.163   3.102   6.034
10357SOL    HW231971   1.053   3.038   5.933
10358SOL     OW31972   0.881   2.338   2.921
10358SOL    HW131973   0.801   2.368   2.870
10358SOL    HW231974   0.875   2.239   2.937
10359SOL     OW31975   5.668   1.730   2.246
10359SOL    HW131976   5.708   1.667   2.313
10359SOL    HW231977   5.609   1.796   2.293
10360SOL     OW31978   6.014   4.591   2.470
10360SOL    HW131979   5.978   4.540   2.392
10360SOL    HW231980   5.964   4.564   2.553
10361SOL     OW31981   0.717   1.883   1.133
10361SOL    HW131982   0.622   1.858   1.120
10361SOL    HW231983   0.723   1.971   1.180
10362SOL     OW31984   1.094   4.768   2.620
10362SOL    HW131985   1.137   4.696   2.674
10362SOL    HW231986   1.127   4.763   2.526
10363SOL     OW31987   5.030   4.148   0.913
10363SOL    HW131988   5.024   4.179   1.008
10363SOL    HW231989   5.091   4.069   0.907
10364SOL     OW31990   5.938   4.408   2.273
10364SOL    HW131991   6.007   4.364   2.216
10364SOL    HW231992   5.851   4.409   2.224
10365SOL     OW31993   5.928   5.802   0.149
10365SOL    HW131994   6.027   5.797   0.144
10365SOL    HW231995   5.901   5.894   0.178
10366SOL     OW31996   3.030   6.366   3.183
10366SOL    HW131997   3.073   6.455   3.170
10366SOL    HW231998   3.072   6.320   3.262
10367SOL     OW31999   6.459   2.358   0.704
10367SOL    HW132000   6.472   2.399   0.614
10367SOL    HW232001   6.378   2.298   0.702
10368SOL     OW32002   2.082   6.178   1.959
10368SOL    HW132003   2.066   6.094   2.010
10368SOL    HW232004   2.128   6.157   1.872
10369SOL     OW32005   3.422   6.887   6.241
10369SOL    HW132006   3.348   6.825   6.216
10369SOL    HW232007   3.461   6.859   6.328
10370SOL     OW32008   0.623   1.260   4.772
10370SOL    HW132009   0.704   1.210   4.740
10370SOL    HW232010   0.620   1.350   4.728
10371SOL     OW32011   3.045   5.712   3.524
10371SOL    HW132012   3.055   5.618   3.490
10371SOL    HW232013   3.103   5.773   3.470
10372SOL     OW32014   2.719   0.161   1.389
10372SOL    HW132015   2.622   0.176   1.367
10372SOL    HW232016   2.726   0.123   1.482
10373SOL     OW32017   0.109   1.850   5.360
10373SOL    HW132018   0.102   1.948   5.340
10373SOL    HW232019   0.203   1.829   5.389
10374SOL     OW32020   2.909   6.931   4.820
10374SOL    HW132021   2.975   6.885   4.878
10374SOL    HW232022   2.901   6.882   4.733
10375SOL     OW32023   3.540   3.506   0.387
10375SOL    HW132024   3.477   3.581   0.406
10375SOL    HW232025   3.489   3.420   0.380
10376SOL     OW32026   2.243   5.703   2.914
10376SOL    HW132027   2.146   5.723   2.904
10376SOL    HW232028   2.294   5.752   2.844
10377SOL     OW32029   1.164   1.104   2.506
10377SOL    HW132030   1.105   1.052   2.444
10377SOL    HW232031   1.116   1.123   2.591
10378SOL     OW32032   6.838   4.915   5.525
10378SOL    HW132033   6.908   4.860   5.479
10378SOL    HW232034   6.833   5.005   5.482
10379SOL     OW32035   2.414   6.582   4.568
10379SOL    HW132036   2.326   6.539   4.590
10379SOL    HW232037   2.483   6.552   4.634
10380SOL     OW32038   1.507   2.497   4.646
10380SOL    HW132039   1.512   2.454   4.736
10380SOL    HW232040   1.549   2.588   4.650
10381SOL     OW32041   4.344   4.400   1.652
10381SOL    HW132042   4.407   4.468   1.687
10381SOL    HW232043   4.331   4.327   1.719
10382SOL     OW32044   3.136   4.611   1.483
10382SOL    HW132045   3.208   4.640   1.420
10382SOL    HW232046   3.047   4.641   1.448
10383SOL     OW32047   2.223   4.492   0.465
10383SOL    HW132048   2.263   4.427   0.400
10383SOL    HW232049   2.293   4.522   0.529
10384SOL     OW32050   5.495   6.588   1.411
10384SOL    HW132051   5.462   6.626   1.497
10384SOL    HW232052   5.593   6.567   1.419
10385SOL     OW32053   3.752   4.764   6.552
10385SOL    HW132054   3.788   4.702   6.482
10385SOL    HW232055   3.676   4.719   6.599
10386SOL     OW32056   6.899   0.805   6.231
10386SOL    HW132057   6.861   0.722   6.189
10386SOL    HW232058   6.987   0.783   6.273
10387SOL     OW32059   4.857   3.141   2.952
10387SOL    HW132060   4.956   3.149   2.956
10387SOL    HW232061   4.832   3.076   2.880
10388SOL     OW32062   2.823   0.332   5.452
10388SOL    HW132063   2.726   0.312   5.439
10388SOL    HW232064   2.839   0.429   5.436
10389SOL     OW32065   0.535   3.299   0.177
10389SOL    HW132066   0.624   3.296   0.132
10389SOL    HW232067   0.548   3.325   0.273
10390SOL     OW32068   2.567   2.387   0.954
10390SOL    HW132069   2.613   2.310   0.908
10390SOL    HW232070   2.492   2.351   1.010
10391SOL     OW32071   0.544   6.854   3.647
10391SOL    HW132072   0.597   6.877   3.728
10391SOL    HW232073   0.545   6.930   3.582
10392SOL     OW32074   6.691   4.956   4.727
10392SOL    HW132075   6.702   5.054   4.743
10392SOL    HW232076   6.716   4.934   4.633
10393SOL     OW32077   2.082   4.042   4.049
10393SOL    HW132078   2.103   4.059   3.952
10393SOL    HW232079   1.989   4.073   4.068
10394SOL     OW32080   3.421   6.036   4.159
10394SOL    HW132081   3.387   6.073   4.246
10394SOL    HW232082   3.357   5.968   4.125
10395SOL     OW32083   6.543   6.326   1.284
10395SOL    HW132084   6.497   6.269   1.216
10395SOL    HW232085   6.610   6.385   1.239
10396SOL     OW32086   2.838   2.299   4.164
10396SOL    HW132087   2.932   2.271   4.143
10396SOL    HW232088   2.792   2.326   4.079
10397SOL     OW32089   3.141   2.110   2.398
10397SOL    HW132090   3.187   2.154   2.321
10397SOL    HW232091   3.200   2.114   2.479
10398SOL     OW32092   0.221   3.550   1.390
10398SOL    HW132093   0.228   3.584   1.296
10398SOL    HW232094   0.204   3.451   1.388
10399SOL     OW32095   6.257   2.740   2.624
10399SOL    HW132096   6.314   2.667   2.587
10399SOL    HW232097   6.314   2.814   2.657
10400SOL     OW32098   4.116   0.006   0.320
10400SOL    HW132099   4.177   0.009   0.241
10400SOL    HW232100   4.164   6.992   0.397
10401SOL     OW32101   6.873   0.592   3.886
10401SOL    HW132102   6.939   0.612   3.813
10401SOL    HW232103   6.804   0.665   3.889
10402SOL     OW32104   6.419   2.816   4.909
10402SOL    HW132105   6.362   2.802   4.828
10402SOL    HW232106   6.512   2.784   4.890
10403SOL     OW32107   3.187   0.810   3.500
10403SOL    HW132108   3.242   0.728   3.515
10403SOL    HW232109   3.236   0.873   3.441
10404SOL     OW32110   5.771   0.257   5.206
10404SOL    HW132111   5.841   0.186   5.196
10404SOL    HW232112   5.806   0.343   5.170
10405SOL     OW32113   1.107   1.808   5.806
10405SOL    HW132114   1.117   1.878   5.736
10405SOL    HW232115   1.014   1.772   5.804
10406SOL     OW32116   3.090   4.842   2.071
10406SOL    HW132117   3.161   4.795   2.019
10406SOL    HW232118   3.006   4.846   2.016
10407SOL     OW32119   3.318   5.871   5.491
10407SOL    HW132120   3.317   5.775   5.461
10407SOL    HW232121   3.358   5.878   5.582
10408SOL     OW32122   4.348   1.567   0.664
10408SOL    HW132123   4.429   1.592   0.611
10408SOL    HW232124   4.289   1.508   0.609
10409SOL     OW32125   0.086   4.604   0.837
10409SOL    HW132126   0.026   4.676   0.804
10409SOL    HW232127   0.075   4.594   0.936
10410SOL     OW32128   5.676   1.344   6.857
10410SOL    HW132129   5.620   1.268   6.822
10410SOL    HW232130   5.771   1.315   6.864
10411SOL     OW32131   3.278   6.297   3.058
10411SOL    HW132132   3.236   6.357   3.126
10411SOL    HW232133   3.227   6.301   2.973
10412SOL     OW32134   6.330   0.726   0.583
10412SOL    HW132135   6.384   0.641   0.588
10412SOL    HW232136   6.281   0.740   0.669
10413SOL     OW32137   6.716   2.074   1.262
10413SOL    HW132138   6.792   2.023   1.221
10413SOL    HW232139   6.707   2.162   1.215
10414SOL     OW32140   4.515   4.194   5.584
10414SOL    HW132141   4.454   4.269   5.611
10414SOL    HW232142   4.564   4.161   5.665
10415SOL     OW32143   0.331   4.766   5.754
10415SOL    HW132144   0.372   4.835   5.813
10415SOL    HW232145   0.292   4.810   5.673
10416SOL     OW32146   6.731   1.078   3.226
10416SOL    HW132147   6.673   1.021   3.169
10416SOL    HW232148   6.758   1.160   3.175
10417SOL     OW32149   3.950   5.253   4.361
10417SOL    HW132150   3.851   5.258   4.373
10417SOL    HW232151   3.971   5.208   4.274
10418SOL     OW32152   6.636   4.628   5.705
10418SOL    HW132153   6.723   4.673   5.721
10418SOL    HW232154   6.615   4.631   5.607
10419SOL     OW32155   1.403   0.096   6.818
10419SOL    HW132156   1.414   0.140   6.907
10419SOL    HW232157   1.406   7.025   6.828
10420SOL     OW32158   6.603   3.132   2.277
10420SOL    HW132159   6.555   3.098   2.358
10420SOL    HW232160   6.666   3.204   2.303
10421SOL     OW32161   0.556   1.791   3.461
10421SOL    HW132162   0.507   1.736   3.394
10421SOL    HW232163   0.534   1.759   3.553
10422SOL     OW32164   6.287   2.473   6.055
10422SOL    HW132165   6.275   2.564   6.094
10422SOL    HW232166   6.378   2.439   6.076
10423SOL     OW32167   4.863   4.993   4.842
10423SOL    HW132168   4.766   4.973   4.856
10423SOL    HW232169   4.883   4.993   4.744
10424SOL     OW32170   5.541   3.160   0.484
10424SOL    HW132171   5.552   3.198   0.575
10424SOL    HW232172   5.627   3.167   0.434
10425SOL     OW32173   2.098   6.585   2.133
10425SOL    HW132174   2.154   6.655   2.177
10425SOL    HW232175   2.148   6.499   2.130
10426SOL     OW32176   6.366   3.782   0.459
10426SOL    HW132177   6.327   3.852   0.518
10426SOL    HW232178   6.328   3.791   0.367
10427SOL     OW32179   4.133   1.375   0.046
10427SOL    HW132180   4.048   1.323   0.041
10427SOL    HW232181   4.115   1.471   0.026
10428SOL     OW32182   3.082   2.059   5.177
10428SOL    HW132183   3.097   2.149   5.136
10428SOL    HW232184   3.140   1.992   5.130
10429SOL     OW32185   0.179   5.418   1.050
10429SOL    HW132186   0.161   5.323   1.027
10429SOL    HW232187   0.174   5.474   0.967
10430SOL     OW32188   4.295   0.077   3.834
10430SOL    HW132189   4.295   0.059   3.932
10430SOL    HW232190   4.208   0.047   3.795
10431SOL     OW32191   3.295   6.880   5.345
10431SOL    HW132192   3.368   6.854   5.282
10431SOL    HW232193   3.266   6.974   5.326
10432SOL     OW32194   6.452   0.838   4.190
10432SOL    HW132195   6.429   0.868   4.097
10432SOL    HW232196   6.505   0.753   4.185
10433SOL     OW32197   1.639   6.022   1.455
10433SOL    HW132198   1.646   6.113   1.414
10433SOL    HW232199   1.544   5.992   1.454
10434SOL     OW32200   3.497   6.423   2.944
10434SOL    HW132201   3.412   6.371   2.950
10434SOL    HW232202   3.487   6.497   2.877
10435SOL     OW32203   6.740   0.444   4.952
10435SOL    HW132204   6.839   0.458   4.957
10435SOL    HW232205   6.720   0.355   4.912
10436SOL     OW32206   0.718   5.314   5.114
10436SOL    HW132207   0.656   5.239   5.094
10436SOL    HW232208   0.688   5.361   5.197
10437SOL     OW32209   6.313   5.030   5.056
10437SOL    HW132210   6.236   5.078   5.098
10437SOL    HW232211   6.309   5.042   4.956
10438SOL     OW32212   5.408   6.639   0.295
10438SOL    HW132213   5.498   6.647   0.254
10438SOL    HW232214   5.396   6.709   0.364
10439SOL     OW32215   3.688   1.552   6.241
10439SOL    HW132216   3.620   1.544   6.168
10439SOL    HW232217   3.778   1.570   6.200
10440SOL     OW32218   0.889   5.925   0.455
10440SOL    HW132219   0.837   5.890   0.377
10440SOL    HW232220   0.838   5.909   0.540
10441SOL     OW32221   5.274   1.718   6.936
10441SOL    HW132222   5.176   1.729   6.950
10441SOL    HW232223   5.321   1.805   6.954
10442SOL     OW32224   2.741   5.802   5.473
10442SOL    HW132225   2.811   5.739   5.438
10442SOL    HW232226   2.703   5.764   5.558
10443SOL     OW32227   5.129   3.530   4.425
10443SOL    HW132228   5.168   3.571   4.343
10443SOL    HW232229   5.170   3.441   4.441
10444SOL     OW32230   4.260   5.778   4.702
10444SOL    HW132231   4.228   5.701   4.756
10444SOL    HW232232   4.192   5.851   4.703
10445SOL     OW32233   0.746   4.968   4.143
10445SOL    HW132234   0.734   4.964   4.242
10445SOL    HW232235   0.817   4.904   4.115
10446SOL     OW32236   1.267   3.875   5.888
10446SOL    HW132237   1.225   3.787   5.865
10446SOL    HW232238   1.197   3.938   5.922
10447SOL     OW32239   0.366   1.404   1.675
10447SOL    HW132240   0.348   1.461   1.595
10447SOL    HW232241   0.296   1.420   1.745
10448SOL     OW32242   4.309   2.799   1.377
10448SOL    HW132243   4.211   2.779   1.369
10448SOL    HW232244   4.333   2.874   1.316
10449SOL     OW32245   2.659   5.293   4.589
10449SOL    HW132246   2.697   5.362   4.528
10449SOL    HW232247   2.618   5.219   4.536
10450SOL     OW32248   0.612   2.753   6.767
10450SOL    HW132249   0.519   2.739   6.733
10450SOL    HW232250   0.626   2.850   6.788
10451SOL     OW32251   2.665   5.193   2.685
10451SOL    HW132252   2.732   5.119   2.679
10451SOL    HW232253   2.671   5.250   2.604
10452SOL     OW32254   6.583   3.277   3.566
10452SOL    HW132255   6.629   3.191   3.544
10452SOL    HW232256   6.561   3.326   3.481
10453SOL     OW32257   5.633   6.069   1.874
10453SOL    HW132258   5.670   6.123   1.799
10453SOL    HW232259   5.593   6.130   1.943
10454SOL     OW32260   5.381   2.786   1.782
10454SOL    HW132261   5.350   2.849   1.854
10454SOL    HW232262   5.445   2.833   1.722
10455SOL     OW32263   0.544   4.992   3.310
10455SOL    HW132264   0.500   4.929   3.246
10455SOL    HW232265   0.643   4.976   3.310
10456SOL     OW32266   2.775   6.577   1.404
10456SOL    HW132267   2.719   6.646   1.357
10456SOL    HW232268   2.726   6.545   1.485
10457SOL     OW32269   3.688   2.902   4.125
10457SOL    HW132270   3.656   2.886   4.218
10457SOL    HW232271   3.729   2.818   4.089
10458SOL     OW32272   0.017   6.855   0.188
10458SOL    HW132273   6.973   6.883   0.252
10458SOL    HW232274   0.029   6.756   0.192
10459SOL     OW32275   5.248   5.376   2.522
10459SOL    HW132276   5.308   5.446   2.482
10459SOL    HW232277   5.255   5.292   2.468
10460SOL     OW32278   1.824   5.704   1.254
10460SOL    HW132279   1.753   5.743   1.312
10460SOL    HW232280   1.783   5.672   1.168
10461SOL     OW32281   1.088   6.162   5.508
10461SOL    HW132282   1.171   6.139   5.457
10461SOL    HW232283   1.008   6.125   5.462
10462SOL     OW32284   5.899   1.010   1.820
10462SOL    HW132285   5.824   1.039   1.760
10462SOL    HW232286   5.869   0.935   1.878
10463SOL     OW32287   3.354   3.976   5.670
10463SOL    HW132288   3.384   4.027   5.589
10463SOL    HW232289   3.279   4.026   5.714
10464SOL     OW32290   4.454   0.478   0.772
10464SOL    HW132291   4.545   0.507   0.742
10464SOL    HW232292   4.451   0.474   0.871
10465SOL     OW32293   6.995   0.114   6.457
10465SOL    HW132294   7.010   0.093   6.360
10465SOL    HW232295   6.899   0.135   6.472
10466SOL     OW32296   4.856   5.866   5.110
10466SOL    HW132297   4.863   5.777   5.155
10466SOL    HW232298   4.905   5.864   5.023
10467SOL     OW32299   2.008   1.578   5.161
10467SOL    HW132300   2.034   1.616   5.250
10467SOL    HW232301   1.941   1.505   5.175
10468SOL     OW32302   3.757   6.169   4.378
10468SOL    HW132303   3.717   6.172   4.470
10468SOL    HW232304   3.729   6.085   4.332
10469SOL     OW32305   2.793   3.947   1.366
10469SOL    HW132306   2.756   4.034   1.399
10469SOL    HW232307   2.785   3.943   1.266
10470SOL     OW32308   2.484   2.111   3.479
10470SOL    HW132309   2.546   2.038   3.449
10470SOL    HW232310   2.397   2.102   3.430
10471SOL     OW32311   2.209   3.675   1.399
10471SOL    HW132312   2.303   3.704   1.381
10471SOL    HW232313   2.208   3.580   1.431
10472SOL     OW32314   3.811   6.834   1.930
10472SOL    HW132315   3.724   6.791   1.908
10472SOL    HW232316   3.797   6.931   1.947
10473SOL     OW32317   5.379   6.768   0.822
10473SOL    HW132318   5.395   6.839   0.753
10473SOL    HW232319   5.329   6.808   0.898
10474SOL     OW32320   4.681   0.637   4.523
10474SOL    HW132321   4.742   0.635   4.601
10474SOL    HW232322   4.604   0.699   4.542
10475SOL     OW32323   4.398   5.827   1.343
10475SOL    HW132324   4.306   5.829   1.305
10475SOL    HW232325   4.422   5.918   1.377
10476SOL     OW32326   6.705   5.626   0.058
10476SOL    HW132327   6.623   5.582   0.022
10476SOL    HW232328   6.682   5.676   0.142
10477SOL     OW32329   5.660   3.385   5.189
10477SOL    HW132330   5.626   3.317   5.125
10477SOL    HW232331   5.669   3.345   5.280
10478SOL     OW32332   1.153   6.866   6.726
10478SOL    HW132333   1.091   6.814   6.667
10478SOL    HW232334   1.171   6.955   6.685
10479SOL     OW32335   1.578   2.396   2.032
10479SOL    HW132336   1.572   2.350   1.944
10479SOL    HW232337   1.611   2.333   2.101
10480SOL     OW32338   5.091   6.473   1.590
10480SOL    HW132339   5.141   6.482   1.504
10480SOL    HW232340   5.149   6.429   1.658
10481SOL     OW32341   2.242   1.194   4.768
10481SOL    HW132342   2.284   1.147   4.847
10481SOL    HW232343   2.153   1.230   4.794
10482SOL     OW32344   0.858   6.352   4.939
10482SOL    HW132345   0.780   6.337   4.878
10482SOL    HW232346   0.857   6.447   4.970
10483SOL     OW32347   6.228   5.425   0.854
10483SOL    HW132348   6.299   5.403   0.788
10483SOL    HW232349   6.232   5.523   0.876
10484SOL     OW32350   6.920   0.827   1.218
10484SOL    HW132351   6.992   0.788   1.275
10484SOL    HW232352   6.913   0.774   1.133
10485SOL     OW32353   3.211   4.073   2.850
10485SOL    HW132354   3.207   4.085   2.949
10485SOL    HW232355   3.164   3.988   2.825
10486SOL     OW32356   6.828   0.324   5.833
10486SOL    HW132357   6.880   0.322   5.918
10486SOL    HW232358   6.735   0.293   5.851
10487SOL     OW32359   4.834   1.603   1.638
10487SOL    HW132360   4.836   1.610   1.538
10487SOL    HW232361   4.760   1.659   1.674
10488SOL     OW32362   0.984   2.475   5.214
10488SOL    HW132363   0.954   2.388   5.253
10488SOL    HW232364   0.905   2.536   5.203
10489SOL     OW32365   6.415   5.526   3.824
10489SOL    HW132366   6.433   5.613   3.869
10489SOL    HW232367   6.501   5.483   3.799
10490SOL     OW32368   5.820   0.303   0.617
10490SOL    HW132369   5.799   0.285   0.714
10490SOL    HW232370   5.790   0.225   0.562
10491SOL     OW32371   1.506   3.203   6.561
10491SOL    HW132372   1.442   3.143   6.609
10491SOL    HW232373   1.485   3.299   6.584
10492SOL     OW32374   4.690   0.111   0.258
10492SOL    HW132375   4.741   0.101   0.344
10492SOL    HW232376   4.630   0.192   0.265
10493SOL     OW32377   3.978   5.542   1.221
10493SOL    HW132378   3.925   5.532   1.136
10493SOL    HW232379   4.073   5.564   1.199
10494SOL     OW32380   1.060   4.598   6.149
10494SOL    HW132381   1.048   4.685   6.102
10494SOL    HW232382   1.013   4.601   6.237
10495SOL     OW32383   6.860   6.183   6.544
10495SOL    HW132384   6.891   6.104   6.492
10495SOL    HW232385   6.764   6.172   6.570
10496SOL     OW32386   0.124   3.778   5.525
10496SOL    HW132387   0.089   3.685   5.532
10496SOL    HW232388   0.178   3.800   5.606
10497SOL     OW32389   2.662   0.016   2.091
10497SOL    HW132390   2.750   7.013   2.056
10497SOL    HW232391   2.659   0.001   2.190
10498SOL     OW32392   4.870   5.438   0.674
10498SOL    HW132393   4.879   5.534   0.646
10498SOL    HW232394   4.953   5.388   0.650
10499SOL     OW32395   6.169   5.819   1.913
10499SOL    HW132396   6.090   5.797   1.970
10499SOL    HW232397   6.143   5.890   1.848
10500SOL     OW32398   5.393   4.459   4.983
10500SOL    HW132399   5.388   4.462   4.883
10500SOL    HW232400   5.332   4.528   5.022
10501SOL     OW32401   2.235   5.746   2.249
10501SOL    HW132402   2.149   5.701   2.227
10501SOL    HW232403   2.223   5.802   2.331
10502SOL     OW32404   2.992   3.359   2.598
10502SOL    HW132405   2.909   3.385   2.549
10502SOL    HW232406   3.067   3.348   2.532
10503SOL     OW32407   6.794   3.737   6.204
10503SOL    HW132408   6.816   3.718   6.108
10503SOL    HW232409   6.867   3.791   6.245
10504SOL     OW32410   2.104   3.595   6.281
10504SOL    HW132411   2.128   3.581   6.377
10504SOL    HW232412   2.087   3.507   6.237
10505SOL     OW32413   5.934   6.489   2.244
10505SOL    HW132414   5.975   6.425   2.180
10505SOL    HW232415   5.923   6.579   2.200
10506SOL     OW32416   0.834   3.147   6.819
10506SOL    HW132417   0.764   3.125   6.750
10506SOL    HW232418   0.873   3.236   6.799
10507SOL     OW32419   2.333   4.920   0.271
10507SOL    HW132420   2.405   4.978   0.233
10507SOL    HW232421   2.375   4.839   0.313
10508SOL     OW32422   1.068   5.516   5.333
10508SOL    HW132423   1.120   5.432   5.349
10508SOL    HW232424   1.035   5.552   5.421
10509SOL     OW32425   4.868   3.530   4.347
10509SOL    HW132426   4.833   3.623   4.363
10509SOL    HW232427   4.965   3.526   4.373
10510SOL     OW32428   5.015   6.394   5.515
10510SOL    HW132429   5.053   6.339   5.440
10510SOL    HW232430   5.031   6.491   5.497
10511SOL     OW32431   2.899   1.308   1.737
10511SOL    HW132432   2.989   1.331   1.702
10511SOL    HW232433   2.902   1.300   1.836
10512SOL     OW32434   4.143   0.464   5.754
10512SOL    HW132435   4.173   0.377   5.792
10512SOL    HW232436   4.173   0.539   5.813
10513SOL     OW32437   5.527   2.700   2.371
10513SOL    HW132438   5.431   2.693   2.396
10513SOL    HW232439   5.579   2.736   2.448
10514SOL     OW32440   1.368   2.423   1.743
10514SOL    HW132441   1.304   2.394   1.814
10514SOL    HW232442   1.444   2.358   1.738
10515SOL     OW32443   2.015   2.804   4.875
10515SOL    HW132444   1.949   2.773   4.943
10515SOL    HW232445   1.968   2.818   4.787
10516SOL     OW32446   3.430   2.700   0.231
10516SOL    HW132447   3.442   2.798   0.220
10516SOL    HW232448   3.513   2.652   0.201
10517SOL     OW32449   1.419   2.899   3.267
10517SOL    HW132450   1.497   2.849   3.305
10517SOL    HW232451   1.452   2.976   3.212
10518SOL     OW32452   0.763   5.289   2.505
10518SOL    HW132453   0.812   5.324   2.585
10518SOL    HW232454   0.785   5.344   2.425
10519SOL     OW32455   2.173   6.094   1.349
10519SOL    HW132456   2.137   6.188   1.351
10519SOL    HW232457   2.127   6.040   1.420
10520SOL     OW32458   6.518   1.614   6.062
10520SOL    HW132459   6.462   1.601   6.144
10520SOL    HW232460   6.514   1.532   6.005
10521SOL     OW32461   6.003   3.206   1.780
10521SOL    HW132462   5.957   3.119   1.766
10521SOL    HW232463   5.946   3.280   1.744
10522SOL     OW32464   5.766   2.097   3.151
10522SOL    HW132465   5.807   2.174   3.200
10522SOL    HW232466   5.793   2.100   3.055
10523SOL     OW32467   0.870   4.090   3.798
10523SOL    HW132468   0.873   4.152   3.876
10523SOL    HW232469   0.839   4.139   3.717
10524SOL     OW32470   6.925   5.446   3.710
10524SOL    HW132471   6.932   5.424   3.807
10524SOL    HW232472   6.979   5.381   3.657
10525SOL     OW32473   4.306   1.038   4.476
10525SOL    HW132474   4.266   0.950   4.502
10525SOL    HW232475   4.310   1.099   4.555
10526SOL     OW32476   0.575   5.534   0.206
10526SOL    HW132477   0.673   5.547   0.219
10526SOL    HW232478   0.541   5.465   0.270
10527SOL     OW32479   0.702   1.614   5.134
10527SOL    HW132480   0.763   1.690   5.112
10527SOL    HW232481   0.742   1.528   5.101
10528SOL     OW32482   0.802   4.993   6.660
10528SOL    HW132483   0.810   5.084   6.701
10528SOL    HW232484   0.720   4.948   6.694
10529SOL     OW32485   1.773   6.455   6.091
10529SOL    HW132486   1.731   6.544   6.076
10529SOL    HW232487   1.767   6.432   6.188
10530SOL     OW32488   0.991   6.809   6.292
10530SOL    HW132489   0.933   6.730   6.272
10530SOL    HW232490   0.970   6.883   6.227
10531SOL     OW32491   2.957   2.577   5.310
10531SOL    HW132492   3.020   2.517   5.260
10531SOL    HW232493   2.883   2.523   5.348
10532SOL     OW32494   5.851   6.552   6.248
10532SOL    HW132495   5.785   6.510   6.310
10532SOL    HW232496   5.859   6.649   6.269
10533SOL     OW32497   3.725   5.489   4.058
10533SOL    HW132498   3.632   5.488   4.096
10533SOL    HW232499   3.720   5.504   3.960
10534SOL     OW32500   0.381   5.680   3.008
10534SOL    HW132501   0.438   5.632   2.941
10534SOL    HW232502   0.438   5.725   3.076
10535SOL     OW32503   2.810   1.328   2.353
10535SOL    HW132504   2.737   1.371   2.300
10535SOL    HW232505   2.867   1.399   2.395
10536SOL     OW32506   4.864   1.076   4.227
10536SOL    HW132507   4.953   1.057   4.186
10536SOL    HW232508   4.825   0.991   4.262
10537SOL     OW32509   4.766   6.715   3.023
10537SOL    HW132510   4.711   6.776   2.967
10537SOL    HW232511   4.774   6.753   3.115
10538SOL     OW32512   6.208   3.507   2.493
10538SOL    HW132513   6.113   3.499   2.524
10538SOL    HW232514   6.225   3.440   2.421
10539SOL     OW32515   5.904   6.095   2.528
10539SOL    HW132516   5.985   6.039   2.545
10539SOL    HW232517   5.838   6.080   2.601
10540SOL     OW32518   2.728   4.032   6.467
10540SOL    HW132519   2.728   3.982   6.380
10540SOL    HW232520   2.817   4.075   6.480
10541SOL     OW32521   3.008   3.223   4.916
10541SOL    HW132522   2.932   3.198   4.977
10541SOL    HW232523   3.095   3.209   4.964
10542SOL     OW32524   6.688   0.055   4.622
10542SOL    HW132525   6.700   6.987   4.648
10542SOL    HW232526   6.660   0.061   4.526
10543SOL     OW32527   6.779   2.997   5.688
10543SOL    HW132528   6.780   3.086   5.733
10543SOL    HW232529   6.694   2.949   5.710
10544SOL     OW32530   0.933   0.924   3.852
10544SOL    HW132531   0.994   0.854   3.889
10544SOL    HW232532   0.956   0.941   3.756
10545SOL     OW32533   1.674   2.126   2.964
10545SOL    HW132534   1.706   2.201   3.022
10545SOL    HW232535   1.736   2.048   2.974
10546SOL     OW32536   3.128   6.519   1.106
10546SOL    HW132537   3.165   6.598   1.156
10546SOL    HW232538   3.120   6.442   1.169
10547SOL     OW32539   4.372   0.139   4.873
10547SOL    HW132540   4.426   0.156   4.955
10547SOL    HW232541   4.307   0.064   4.890
10548SOL     OW32542   0.876   4.803   4.570
10548SOL    HW132543   0.821   4.751   4.635
10548SOL    HW232544   0.960   4.833   4.614
10549SOL     OW32545   0.412   1.409   0.624
10549SOL    HW132546   0.410   1.455   0.535
10549SOL    HW232547   0.397   1.311   0.611
10550SOL     OW32548   3.789   6.011   3.377
10550SOL    HW132549   3.745   6.003   3.288
10550SOL    HW232550   3.885   5.986   3.370
10551SOL     OW32551   3.113   1.906   5.816
10551SOL    HW132552   3.077   1.813   5.825
10551SOL    HW232553   3.128   1.927   5.720
10552SOL     OW32554   3.494   0.996   4.656
10552SOL    HW132555   3.427   0.923   4.671
10552SOL    HW232556   3.448   1.084   4.654
10553SOL     OW32557   0.416   5.180   0.713
10553SOL    HW132558   0.393   5.085   0.736
10553SOL    HW232559   0.480   5.216   0.781
10554SOL     OW32560   6.215   5.330   2.746
10554SOL    HW132561   6.224   5.338   2.845
10554SOL    HW232562   6.226   5.234   2.719
10555SOL     OW32563   3.430   2.304   0.619
10555SOL    HW132564   3.387   2.366   0.553
10555SOL    HW232565   3.397   2.325   0.711
10556SOL     OW32566   1.863   0.990   3.015
10556SOL    HW132567   1.785   0.969   2.955
10556SOL    HW232568   1.852   1.081   3.053
10557SOL     OW32569   2.096   3.771   4.095
10557SOL    HW132570   2.148   3.735   4.018
10557SOL    HW232571   2.106   3.870   4.098
10558SOL     OW32572   3.013   5.390   5.542
10558SOL    HW132573   2.985   5.332   5.465
10558SOL    HW232574   3.077   5.339   5.600
10559SOL     OW32575   3.502   0.352   0.116
10559SOL    HW132576   3.449   0.289   0.171
10559SOL    HW232577   3.597   0.354   0.150
10560SOL     OW32578   4.316   6.289   1.447
10560SOL    HW132579   4.249   6.297   1.373
10560SOL    HW232580   4.277   6.326   1.531
10561SOL     OW32581   5.587   4.323   1.425
10561SOL    HW132582   5.616   4.343   1.518
10561SOL    HW232583   5.558   4.227   1.419
10562SOL     OW32584   3.015   6.920   1.493
10562SOL    HW132585   2.947   6.932   1.420
10562SOL    HW232586   3.100   6.966   1.467
10563SOL     OW32587   0.573   6.972   0.678
10563SOL    HW132588   0.545   6.948   0.585
10563SOL    HW232589   0.651   6.916   0.705
10564SOL     OW32590   6.458   5.799   4.333
10564SOL    HW132591   6.540   5.839   4.373
10564SOL    HW232592   6.449   5.704   4.363
10565SOL     OW32593   6.656   6.773   5.252
10565SOL    HW132594   6.667   6.854   5.310
10565SOL    HW232595   6.746   6.736   5.229
10566SOL     OW32596   2.610   2.405   0.044
10566SOL    HW132597   2.621   2.466   0.122
10566SOL    HW232598   2.517   2.415   0.007
10567SOL     OW32599   1.707   2.545   5.955
10567SOL    HW132600   1.701   2.579   5.861
10567SOL    HW232601   1.753   2.456   5.955
10568SOL     OW32602   5.448   2.875   6.046
10568SOL    HW132603   5.474   2.970   6.030
10568SOL    HW232604   5.519   2.829   6.098
10569SOL     OW32605   5.407   0.271   1.983
10569SOL    HW132606   5.388   0.307   2.074
10569SOL    HW232607   5.366   0.331   1.914
10570SOL     OW32608   0.210   5.105   4.010
10570SOL    HW132609   0.197   5.190   3.958
10570SOL    HW232610   0.307   5.090   4.024
10571SOL     OW32611   6.787   4.805   6.234
10571SOL    HW132612   6.711   4.870   6.243
10571SOL    HW232613   6.750   4.714   6.211
10572SOL     OW32614   6.576   4.417   1.309
10572SOL    HW132615   6.586   4.489   1.378
10572SOL    HW232616   6.566   4.329   1.355
10573SOL     OW32617   5.675   0.480   3.510
10573SOL    HW132618   5.748   0.531   3.555
10573SOL    HW232619   5.708   0.389   3.485
10574SOL     OW32620   0.018   1.026   3.314
10574SOL    HW132621   7.019   1.019   3.218
10574SOL    HW232622   6.996   0.958   3.368
10575SOL     OW32623   5.929   0.838   2.731
10575SOL    HW132624   6.003   0.873   2.787
10575SOL    HW232625   5.949   0.744   2.702
10576SOL     OW32626   2.437   5.049   3.329
10576SOL    HW132627   2.446   5.041   3.230
10576SOL    HW232628   2.485   5.132   3.360
10577SOL     OW32629   3.943   5.701   0.524
10577SOL    HW132630   3.994   5.759   0.461
10577SOL    HW232631   3.942   5.743   0.615
10578SOL     OW32632   6.368   1.876   3.772
10578SOL    HW132633   6.272   1.896   3.752
10578SOL    HW232634   6.394   1.790   3.729
10579SOL     OW32635   2.818   3.295   0.941
10579SOL    HW132636   2.850   3.217   0.994
10579SOL    HW232637   2.763   3.262   0.864
10580SOL     OW32638   6.383   7.002   6.205
10580SOL    HW132639   6.400   6.910   6.240
10580SOL    HW232640   6.410   7.007   6.109
10581SOL     OW32641   5.780   6.917   3.336
10581SOL    HW132642   5.721   6.877   3.407
10581SOL    HW232643   5.732   6.994   3.293
10582SOL     OW32644   5.343   4.671   6.592
10582SOL    HW132645   5.338   4.571   6.583
10582SOL    HW232646   5.420   4.696   6.650
10583SOL     OW32647   2.808   6.813   3.559
10583SOL    HW132648   2.794   6.775   3.650
10583SOL    HW232649   2.854   6.902   3.566
10584SOL     OW32650   6.774   0.481   5.327
10584SOL    HW132651   6.835   0.557   5.306
10584SOL    HW232652   6.824   0.395   5.316
10585SOL     OW32653   0.676   1.749   6.037
10585SOL    HW132654   0.583   1.713   6.044
10585SOL    HW232655   0.739   1.686   6.082
10586SOL     OW32656   4.878   4.577   5.616
10586SOL    HW132657   4.874   4.544   5.710
10586SOL    HW232658   4.786   4.580   5.577
10587SOL     OW32659   0.826   5.744   5.435
10587SOL    HW132660   0.745   5.714   5.484
10587SOL    HW232661   0.908   5.715   5.484
10588SOL     OW32662   1.090   3.398   4.022
10588SOL    HW132663   1.065   3.311   4.064
10588SOL    HW232664   1.103   3.467   4.093
10589SOL     OW32665   4.987   6.205   4.483
10589SOL    HW132666   5.079   6.242   4.468
10589SOL    HW232667   4.951   6.168   4.398
10590SOL     OW32668   0.639   6.203   1.678
10590SOL    HW132669   0.624   6.104   1.680
10590SOL    HW232670   0.725   6.222   1.631
10591SOL     OW32671   1.298   1.378   1.438
10591SOL    HW132672   1.220   1.331   1.396
10591SOL    HW232673   1.303   1.354   1.535
10592SOL     OW32674   5.894   2.330   5.097
10592SOL    HW132675   5.976   2.379   5.067
10592SOL    HW232676   5.822   2.396   5.119
10593SOL     OW32677   2.403   6.498   1.019
10593SOL    HW132678   2.365   6.406   1.026
10593SOL    HW232679   2.499   6.493   0.989
10594SOL     OW32680   4.021   0.659   3.208
10594SOL    HW132681   4.073   0.684   3.126
10594SOL    HW232682   3.928   0.697   3.201
10595SOL     OW32683   6.138   0.780   0.785
10595SOL    HW132684   6.049   0.736   0.770
10595SOL    HW232685   6.125   0.860   0.843
10596SOL     OW32686   4.745   1.827   6.645
10596SOL    HW132687   4.800   1.844   6.564
10596SOL    HW232688   4.719   1.730   6.648
10597SOL     OW32689   2.333   0.564   6.103
10597SOL    HW132690   2.392   0.583   6.025
10597SOL    HW232691   2.387   0.519   6.175
10598SOL     OW32692   2.782   1.769   5.955
10598SOL    HW132693   2.691   1.755   5.995
10598SOL    HW232694   2.788   1.861   5.917
10599SOL     OW32695   6.603   4.240   5.901
10599SOL    HW132696   6.544   4.312   5.939
10599SOL    HW232697   6.663   4.280   5.832
10600SOL     OW32698   2.752   1.605   1.886
10600SOL    HW132699   2.760   1.587   1.788
10600SOL    HW232700   2.687   1.680   1.901
10601SOL     OW32701   0.271   6.816   6.702
10601SOL    HW132702   0.204   6.744   6.684
10601SOL    HW232703   0.258   6.890   6.636
10602SOL     OW32704   0.211   0.136   7.015
10602SOL    HW132705   0.141   0.120   0.057
10602SOL    HW232706   0.203   0.230   6.981
10603SOL     OW32707   4.059   6.474   2.098
10603SOL    HW132708   4.014   6.557   2.133
10603SOL    HW232709   4.082   6.487   2.002
10604SOL     OW32710   0.162   6.717   4.851
10604SOL    HW132711   0.189   6.747   4.760
10604SOL    HW232712   0.110   6.632   4.845
10605SOL     OW32713   2.467   0.647   0.655
10605SOL    HW132714   2.400   0.695   0.599
10605SOL    HW232715   2.455   0.548   0.645
10606SOL     OW32716   6.112   0.983   1.661
10606SOL    HW132717   6.029   0.966   1.715
10606SOL    HW232718   6.134   1.081   1.664
10607SOL     OW32719   4.157   4.704   6.427
10607SOL    HW132720   4.217   4.668   6.356
10607SOL    HW232721   4.206   4.708   6.514
10608SOL     OW32722   6.317   2.688   3.300
10608SOL    HW132723   6.396   2.646   3.254
10608SOL    HW232724   6.340   2.783   3.324
10609SOL     OW32725   3.439   0.621   0.154
10609SOL    HW132726   3.459   0.523   0.155
10609SOL    HW232727   3.469   0.660   0.067
10610SOL     OW32728   0.295   1.563   4.688
10610SOL    HW132729   0.275   1.650   4.642
10610SOL    HW232730   0.285   1.488   4.623
10611SOL     OW32731   2.838   5.476   5.087
10611SOL    HW132732   2.755   5.523   5.059
10611SOL    HW232733   2.832   5.452   5.184
10612SOL     OW32734   5.336   1.233   3.692
10612SOL    HW132735   5.291   1.244   3.781
10612SOL    HW232736   5.401   1.157   3.697
10613SOL     OW32737   6.515   6.095   4.471
10613SOL    HW132738   6.488   6.041   4.551
10613SOL    HW232739   6.614   6.085   4.457
10614SOL     OW32740   5.322   0.493   6.258
10614SOL    HW132741   5.334   0.478   6.160
10614SOL    HW232742   5.388   0.561   6.290
10615SOL     OW32743   2.655   2.330   6.265
10615SOL    HW132744   2.627   2.301   6.357
10615SOL    HW232745   2.587   2.299   6.198
10616SOL     OW32746   3.297   5.887   6.586
10616SOL    HW132747   3.396   5.899   6.582
10616SOL    HW232748   3.251   5.967   6.548
10617SOL     OW32749   2.814   3.442   1.766
10617SOL    HW132750   2.881   3.394   1.709
10617SOL    HW232751   2.845   3.443   1.861
10618SOL     OW32752   0.250   5.609   5.244
10618SOL    HW132753   0.259   5.647   5.336
10618SOL    HW232754   0.233   5.510   5.250
10619SOL     OW32755   0.533   1.660   2.880
10619SOL    HW132756   0.461   1.730   2.877
10619SOL    HW232757   0.518   1.601   2.959
10620SOL     OW32758   2.309   0.053   5.805
10620SOL    HW132759   2.269   7.000   5.761
10620SOL    HW232760   2.338   0.118   5.736
10621SOL     OW32761   1.130   3.928   2.874
10621SOL    HW132762   1.212   3.958   2.824
10621SOL    HW232763   1.118   3.829   2.862
10622SOL     OW32764   4.627   3.058   1.100
10622SOL    HW132765   4.727   3.059   1.108
10622SOL    HW232766   4.599   3.123   1.030
10623SOL     OW32767   6.139   6.123   5.871
10623SOL    HW132768   6.147   6.066   5.788
10623SOL    HW232769   6.083   6.076   5.938
10624SOL     OW32770   0.782   2.875   5.008
10624SOL    HW132771   0.881   2.859   5.008
10624SOL    HW232772   0.755   2.915   4.921
10625SOL     OW32773   6.971   3.978   0.005
10625SOL    HW132774   0.031   3.959   0.049
10625SOL    HW232775   6.963   4.076   7.014
10626SOL     OW32776   3.920   2.979   2.063
10626SOL    HW132777   3.973   2.918   2.004
10626SOL    HW232778   3.838   2.932   2.094
10627SOL     OW32779   5.670   6.950   6.088
10627SOL    HW132780   5.604   6.960   6.013
10627SOL    HW232781   5.760   6.982   6.057
10628SOL     OW32782   4.262   0.512   0.172
10628SOL    HW132783   4.196   0.437   0.163
10628SOL    HW232784   4.285   0.523   0.269
10629SOL     OW32785   3.805   5.427   5.341
10629SOL    HW132786   3.856   5.342   5.328
10629SOL    HW232787   3.720   5.423   5.289
10630SOL     OW32788   4.650   0.664   2.791
10630SOL    HW132789   4.735   0.622   2.822
10630SOL    HW232790   4.615   0.724   2.862
10631SOL     OW32791   4.846   5.513   6.775
10631SOL    HW132792   4.886   5.502   6.685
10631SOL    HW232793   4.797   5.600   6.780
10632SOL     OW32794   4.924   5.956   3.104
10632SOL    HW132795   5.015   5.967   3.064
10632SOL    HW232796   4.886   6.045   3.126
10633SOL     OW32797   2.223   2.966   1.894
10633SOL    HW132798   2.226   3.060   1.930
10633SOL    HW232799   2.226   2.901   1.970
10634SOL     OW32800   1.392   5.093   6.535
10634SOL    HW132801   1.436   5.135   6.455
10634SOL    HW232802   1.457   5.035   6.583
10635SOL     OW32803   2.331   3.161   0.439
10635SOL    HW132804   2.240   3.118   0.439
10635SOL    HW232805   2.321   3.260   0.430
10636SOL     OW32806   6.509   2.694   6.918
10636SOL    HW132807   6.469   2.650   6.838
10636SOL    HW232808   6.573   2.765   6.887
10637SOL     OW32809   2.710   6.457   6.493
10637SOL    HW132810   2.747   6.421   6.407
10637SOL    HW232811   2.672   6.381   6.547
10638SOL     OW32812   6.672   5.602   1.977
10638SOL    HW132813   6.751   5.660   1.995
10638SOL    HW232814   6.592   5.659   1.961
10639SOL     OW32815   2.305   3.723   1.732
10639SOL    HW132816   2.324   3.644   1.791
10639SOL    HW232817   2.387   3.745   1.680
10640SOL     OW32818   3.697   0.600   3.504
10640SOL    HW132819   3.745   0.534   3.562
10640SOL    HW232820   3.743   0.605   3.415
10641SOL     OW32821   1.463   0.532   3.231
10641SOL    HW132822   1.485   0.440   3.200
10641SOL    HW232823   1.432   0.529   3.326
10642SOL     OW32824   6.486   2.592   0.170
10642SOL    HW132825   6.429   2.515   0.141
10642SOL    HW232826   6.497   2.656   0.093
10643SOL     OW32827   1.947   5.508   5.214
10643SOL    HW132828   2.009   5.554   5.278
10643SOL    HW232829   1.854   5.508   5.253
10644SOL     OW32830   6.402   2.765   2.018
10644SOL    HW132831   6.406   2.779   2.117
10644SOL    HW232832   6.307   2.747   1.991
10645SOL     OW32833   2.028   2.936   3.383
10645SOL    HW132834   2.051   2.913   3.478
10645SOL    HW232835   2.001   3.032   3.378
10646SOL     OW32836   5.156   1.359   4.522
10646SOL    HW132837   5.135   1.289   4.590
10646SOL    HW232838   5.182   1.314   4.436
10647SOL     OW32839   4.388   5.389   5.353
10647SOL    HW132840   4.369   5.292   5.334
10647SOL    HW232841   4.302   5.439   5.360
10648SOL     OW32842   6.219   5.272   6.077
10648SOL    HW132843   6.307   5.316   6.095
10648SOL    HW232844   6.146   5.339   6.093
10649SOL     OW32845   0.293   3.167   3.800
10649SOL    HW132846   0.325   3.232   3.731
10649SOL    HW232847   0.291   3.075   3.760
10650SOL     OW32848   6.965   0.129   3.994
10650SOL    HW132849   0.015   0.098   4.049
10650SOL    HW232850   6.895   0.058   3.994
10651SOL     OW32851   5.524   6.698   6.241
10651SOL    HW132852   5.560   6.765   6.176
10651SOL    HW232853   5.550   6.606   6.213
10652SOL     OW32854   1.432   6.512   6.071
10652SOL    HW132855   1.338   6.511   6.037
10652SOL    HW232856   1.441   6.584   6.140
10653SOL     OW32857   3.796   6.212   4.751
10653SOL    HW132858   3.810   6.115   4.769
10653SOL    HW232859   3.869   6.245   4.690
10654SOL     OW32860   5.344   1.673   4.133
10654SOL    HW132861   5.326   1.596   4.072
10654SOL    HW232862   5.324   1.647   4.227
10655SOL     OW32863   1.866   4.709   1.519
10655SOL    HW132864   1.784   4.752   1.557
10655SOL    HW232865   1.888   4.627   1.571
10656SOL     OW32866   6.141   1.237   2.126
10656SOL    HW132867   6.113   1.246   2.031
10656SOL    HW232868   6.150   1.140   2.149
10657SOL     OW32869   6.034   0.862   4.478
10657SOL    HW132870   6.115   0.818   4.440
10657SOL    HW232871   6.043   0.870   4.577
10658SOL     OW32872   5.575   3.853   5.175
10658SOL    HW132873   5.504   3.793   5.138
10658SOL    HW232874   5.655   3.849   5.116
10659SOL     OW32875   0.885   5.062   0.918
10659SOL    HW132876   0.879   5.051   1.017
10659SOL    HW232877   0.941   4.988   0.880
10660SOL     OW32878   6.142   3.620   5.797
10660SOL    HW132879   6.110   3.585   5.709
10660SOL    HW232880   6.133   3.720   5.798
10661SOL     OW32881   1.484   4.602   0.417
10661SOL    HW132882   1.470   4.681   0.358
10661SOL    HW232883   1.450   4.623   0.509
10662SOL     OW32884   3.066   1.501   2.429
10662SOL    HW132885   3.084   1.521   2.525
10662SOL    HW232886   3.112   1.570   2.372
10663SOL     OW32887   1.072   1.347   3.729
10663SOL    HW132888   1.169   1.359   3.752
10663SOL    HW232889   1.053   1.390   3.641
10664SOL     OW32890   0.630   5.156   4.615
10664SOL    HW132891   0.533   5.137   4.632
10664SOL    HW232892   0.683   5.137   4.697
10665SOL     OW32893   2.126   3.015   6.898
10665SOL    HW132894   2.107   2.987   6.992
10665SOL    HW232895   2.224   3.008   6.881
10666SOL     OW32896   4.190   3.475   2.357
10666SOL    HW132897   4.281   3.518   2.362
10666SOL    HW232898   4.166   3.461   2.261
10667SOL     OW32899   4.726   1.407   3.279
10667SOL    HW132900   4.825   1.408   3.274
10667SOL    HW232901   4.695   1.483   3.336
10668SOL     OW32902   3.562   2.099   5.504
10668SOL    HW132903   3.505   2.168   5.548
10668SOL    HW232904   3.532   2.086   5.410
10669SOL     OW32905   5.869   0.768   0.847
10669SOL    HW132906   5.854   0.678   0.888
10669SOL    HW232907   5.782   0.805   0.815
10670SOL     OW32908   5.440   4.200   4.506
10670SOL    HW132909   5.425   4.203   4.605
10670SOL    HW232910   5.355   4.176   4.459
10671SOL     OW32911   0.816   1.482   4.444
10671SOL    HW132912   0.889   1.514   4.382
10671SOL    HW232913   0.742   1.549   4.444
10672SOL     OW32914   6.395   4.267   1.632
10672SOL    HW132915   6.368   4.228   1.720
10672SOL    HW232916   6.360   4.360   1.623
10673SOL     OW32917   1.944   0.114   0.772
10673SOL    HW132918   1.928   0.074   0.682
10673SOL    HW232919   2.027   0.169   0.769
10674SOL     OW32920   4.148   3.362   4.197
10674SOL    HW132921   4.202   3.444   4.183
10674SOL    HW232922   4.145   3.309   4.112
10675SOL     OW32923   3.210   1.167   6.482
10675SOL    HW132924   3.262   1.094   6.525
10675SOL    HW232925   3.273   1.240   6.453
10676SOL     OW32926   0.239   5.634   4.904
10676SOL    HW132927   0.212   5.730   4.905
10676SOL    HW232928   0.271   5.607   4.995
10677SOL     OW32929   1.358   1.246   1.044
10677SOL    HW132930   1.290   1.316   1.023
10677SOL    HW232931   1.446   1.289   1.062
10678SOL     OW32932   4.173   4.742   3.726
10678SOL    HW132933   4.148   4.728   3.822
10678SOL    HW232934   4.093   4.769   3.673
10679SOL     OW32935   3.911   4.903   6.932
10679SOL    HW132936   3.994   4.909   6.987
10679SOL    HW232937   3.936   4.889   6.836
10680SOL     OW32938   3.549   1.625   4.051
10680SOL    HW132939   3.495   1.544   4.029
10680SOL    HW232940   3.490   1.706   4.048
10681SOL     OW32941   0.143   3.334   6.972
10681SOL    HW132942   0.061   3.391   6.963
10681SOL    HW232943   0.117   3.237   6.970
10682SOL     OW32944   6.996   3.222   5.145
10682SOL    HW132945   0.024   3.154   5.192
10682SOL    HW232946   6.899   3.204   5.163
10683SOL     OW32947   4.401   0.831   3.489
10683SOL    HW132948   4.324   0.784   3.532
10683SOL    HW232949   4.381   0.929   3.482
10684SOL     OW32950   4.359   5.269   1.513
10684SOL    HW132951   4.430   5.332   1.481
10684SOL    HW232952   4.280   5.273   1.452
10685SOL     OW32953   6.940   5.824   0.941
10685SOL    HW132954   6.918   5.845   1.037
10685SOL    HW232955   7.026   5.773   0.937
10686SOL     OW32956   2.464   4.094   6.351
10686SOL    HW132957   2.553   4.073   6.389
10686SOL    HW232958   2.394   4.083   6.421
10687SOL     OW32959   5.956   4.829   3.464
10687SOL    HW132960   5.927   4.924   3.453
10687SOL    HW232961   6.055   4.822   3.452
10688SOL     OW32962   5.799   1.870   2.550
10688SOL    HW132963   5.718   1.867   2.492
10688SOL    HW232964   5.827   1.965   2.564
10689SOL     OW32965   0.004   6.774   1.081
10689SOL    HW132966   6.973   6.786   1.160
10689SOL    HW232967   7.009   6.843   1.012
10690SOL     OW32968   0.121   4.967   3.383
10690SOL    HW132969   0.084   5.060   3.379
10690SOL    HW232970   0.086   4.913   3.307
10691SOL     OW32971   2.023   1.415   1.741
10691SOL    HW132972   1.965   1.493   1.763
10691SOL    HW232973   2.118   1.446   1.731
10692SOL     OW32974   2.812   0.391   4.239
10692SOL    HW132975   2.887   0.356   4.295
10692SOL    HW232976   2.725   0.351   4.269
10693SOL     OW32977   0.751   6.239   1.298
10693SOL    HW132978   0.740   6.146   1.263
10693SOL    HW232979   0.662   6.275   1.325
10694SOL     OW32980   5.123   6.848   6.745
10694SOL    HW132981   5.130   6.936   6.698
10694SOL    HW232982   5.060   6.856   6.822
10695SOL     OW32983   1.160   2.509   1.287
10695SOL    HW132984   1.182   2.570   1.210
10695SOL    HW232985   1.243   2.461   1.315
10696SOL     OW32986   6.450   3.492   4.874
10696SOL    HW132987   6.508   3.573   4.870
10696SOL    HW232988   6.367   3.507   4.820
10697SOL     OW32989   6.995   6.935   5.814
10697SOL    HW132990   6.946   6.880   5.747
10697SOL    HW232991   6.940   6.944   5.897
10698SOL     OW32992   4.701   4.089   0.178
10698SOL    HW132993   4.717   4.161   0.246
10698SOL    HW232994   4.769   4.097   0.105
10699SOL     OW32995   3.671   4.685   0.915
10699SOL    HW132996   3.633   4.743   0.843
10699SOL    HW232997   3.691   4.595   0.878
10700SOL     OW32998   5.370   0.024   0.719
10700SOL    HW132999   5.283   0.039   0.672
10700SOL    HW233000   5.445   0.059   0.661
10701SOL     OW33001   3.210   0.367   6.009
10701SOL    HW133002   3.143   0.380   6.082
10701SOL    HW233003   3.181   0.290   5.951
10702SOL     OW33004   5.007   3.722   2.609
10702SOL    HW133005   5.071   3.652   2.576
10702SOL    HW233006   4.972   3.774   2.531
10703SOL     OW33007   1.960   2.789   5.422
10703SOL    HW133008   2.032   2.754   5.482
10703SOL    HW233009   1.898   2.714   5.399
10704SOL     OW33010   6.689   4.714   2.800
10704SOL    HW133011   6.705   4.677   2.708
10704SOL    HW233012   6.762   4.777   2.823
10705SOL     OW33013   5.777   5.524   1.663
10705SOL    HW133014   5.771   5.425   1.677
10705SOL    HW233015   5.872   5.553   1.672
10706SOL     OW33016   3.826   0.136   1.767
10706SOL    HW133017   3.880   0.195   1.707
10706SOL    HW233018   3.814   0.046   1.725
10707SOL     OW33019   0.689   6.810   4.097
10707SOL    HW133020   0.596   6.776   4.111
10707SOL    HW233021   0.735   6.817   4.186
10708SOL     OW33022   4.415   1.070   1.391
10708SOL    HW133023   4.325   1.026   1.396
10708SOL    HW233024   4.406   1.157   1.342
10709SOL     OW33025   5.470   4.788   4.948
10709SOL    HW133026   5.424   4.699   4.944
10709SOL    HW233027   5.566   4.774   4.971
10710SOL     OW33028   6.115   1.099   3.838
10710SOL    HW133029   6.174   1.172   3.873
10710SOL    HW233030   6.074   1.050   3.914
10711SOL     OW33031   2.201   6.554   4.127
10711SOL    HW133032   2.241   6.463   4.120
10711SOL    HW233033   2.250   6.607   4.197
10712SOL     OW33034   2.954   7.025   2.795
10712SOL    HW133035   3.006   0.081   2.779
10712SOL    HW233036   2.907   0.003   2.883
10713SOL     OW33037   0.722   2.582   0.903
10713SOL    HW133038   0.691   2.496   0.862
10713SOL    HW233039   0.733   2.651   0.832
10714SOL     OW33040   4.364   3.245   5.449
10714SOL    HW133041   4.441   3.193   5.486
10714SOL    HW233042   4.394   3.337   5.425
10715SOL     OW33043   4.253   0.155   2.144
10715SOL    HW133044   4.328   0.097   2.112
10715SOL    HW233045   4.290   0.228   2.202
10716SOL     OW33046   6.008   2.845   3.267
10716SOL    HW133047   5.937   2.859   3.336
10716SOL    HW233048   6.026   2.747   3.258
10717SOL     OW33049   2.088   2.852   1.121
10717SOL    HW133050   1.989   2.857   1.133
10717SOL    HW233051   2.114   2.759   1.095
10718SOL     OW33052   1.265   3.621   0.029
10718SOL    HW133053   1.364   3.619   0.014
10718SOL    HW233054   1.246   3.597   0.124
10719SOL     OW33055   6.681   5.425   3.035
10719SOL    HW133056   6.615   5.355   3.062
10719SOL    HW233057   6.774   5.387   3.041
10720SOL     OW33058   6.358   5.165   4.767
10720SOL    HW133059   6.283   5.172   4.701
10720SOL    HW233060   6.371   5.254   4.811
10721SOL     OW33061   5.262   3.727   5.333
10721SOL    HW133062   5.222   3.716   5.424
10721SOL    HW233063   5.360   3.710   5.338
10722SOL     OW33064   0.636   5.188   1.204
10722SOL    HW133065   0.623   5.257   1.274
10722SOL    HW233066   0.728   5.149   1.212
10723SOL     OW33067   0.226   2.438   5.979
10723SOL    HW133068   0.284   2.412   5.902
10723SOL    HW233069   0.242   2.376   6.055
10724SOL     OW33070   6.114   6.880   6.212
10724SOL    HW133071   6.143   6.785   6.200
10724SOL    HW233072   6.189   6.941   6.184
10725SOL     OW33073   1.843   6.100   5.216
10725SOL    HW133074   1.880   6.008   5.231
10725SOL    HW233075   1.744   6.094   5.205
10726SOL     OW33076   6.018   0.936   4.068
10726SOL    HW133077   5.919   0.922   4.075
10726SOL    HW233078   6.048   0.998   4.140
10727SOL     OW33079   0.617   5.270   5.678
10727SOL    HW133080   0.638   5.251   5.774
10727SOL    HW233081   0.702   5.279   5.627
10728SOL     OW33082   1.715   4.790   6.535
10728SOL    HW133083   1.639   4.798   6.470
10728SOL    HW233084   1.796   4.754   6.488
10729SOL     OW33085   5.626   1.289   3.185
10729SOL    HW133086   5.710   1.270   3.134
10729SOL    HW233087   5.640   1.369   3.242
10730SOL     OW33088   2.042   0.673   1.053
10730SOL    HW133089   2.020   0.600   0.989
10730SOL    HW233090   2.055   0.635   1.144
10731SOL     OW33091   3.476   1.512   0.872
10731SOL    HW133092   3.550   1.571   0.840
10731SOL    HW233093   3.474   1.512   0.972
10732SOL     OW33094   0.268   4.665   5.387
10732SOL    HW133095   0.290   4.755   5.424
10732SOL    HW233096   0.292   4.662   5.290
10733SOL     OW33097   6.915   1.804   6.657
10733SOL    HW133098   6.896   1.804   6.559
10733SOL    HW233099   6.855   1.871   6.702
10734SOL     OW33100   0.946   0.762   0.085
10734SOL    HW133101   0.914   0.698   0.014
10734SOL    HW233102   0.887   0.753   0.166
10735SOL     OW33103   0.098   2.890   2.068
10735SOL    HW133104   0.070   2.944   1.989
10735SOL    HW233105   0.198   2.891   2.075
10736SOL     OW33106   1.156   0.316   3.785
10736SOL    HW133107   1.128   0.337   3.879
10736SOL    HW233108   1.224   0.243   3.786
10737SOL     OW33109   0.901   1.439   0.059
10737SOL    HW133110   0.834   1.481   7.026
10737SOL    HW233111   0.903   1.488   0.146
10738SOL     OW33112   2.287   6.785   2.906
10738SOL    HW133113   2.209   6.835   2.943
10738SOL    HW233114   2.371   6.820   2.946
10739SOL     OW33115   1.663   1.049   1.098
10739SOL    HW133116   1.661   1.007   1.007
10739SOL    HW233117   1.667   0.978   1.168
10740SOL     OW33118   0.552   5.098   5.043
10740SOL    HW133119   0.589   5.015   5.085
10740SOL    HW233120   0.466   5.077   4.998
10741SOL     OW33121   4.456   0.808   1.167
10741SOL    HW133122   4.490   0.887   1.219
10741SOL    HW233123   4.496   0.809   1.075
10742SOL     OW33124   5.184   6.888   1.363
10742SOL    HW133125   5.276   6.868   1.330
10742SOL    HW233126   5.184   6.890   1.463
10743SOL     OW33127   1.572   2.174   5.354
10743SOL    HW133128   1.622   2.089   5.340
10743SOL    HW233129   1.632   2.243   5.394
10744SOL     OW33130   3.025   1.424   0.918
10744SOL    HW133131   3.065   1.502   0.966
10744SOL    HW233132   2.939   1.452   0.875
10745SOL     OW33133   6.778   5.550   6.062
10745SOL    HW133134   6.782   5.582   5.967
10745SOL    HW233135   6.714   5.607   6.114
10746SOL     OW33136   2.329   4.628   1.200
10746SOL    HW133137   2.304   4.532   1.199
10746SOL    HW233138   2.424   4.638   1.230
10747SOL     OW33139   4.010   1.432   4.696
10747SOL    HW133140   3.994   1.447   4.793
10747SOL    HW233141   3.962   1.501   4.642
10748SOL     OW33142   5.557   1.315   0.081
10748SOL    HW133143   5.571   1.314   7.009
10748SOL    HW233144   5.625   1.375   0.123
10749SOL     OW33145   0.054   5.236   3.618
10749SOL    HW133146   0.106   5.255   3.535
10749SOL    HW233147   0.112   5.250   3.698
10750SOL     OW33148   4.644   6.192   4.553
10750SOL    HW133149   4.719   6.241   4.508
10750SOL    HW233150   4.681   6.127   4.619
10751SOL     OW33151   2.086   4.673   4.768
10751SOL    HW133152   1.998   4.639   4.734
10751SOL    HW233153   2.087   4.773   4.767
10752SOL     OW33154   6.043   4.764   5.315
10752SOL    HW133155   6.105   4.703   5.364
10752SOL    HW233156   5.967   4.790   5.375
10753SOL     OW33157   5.816   4.548   4.656
10753SOL    HW133158   5.796   4.496   4.573
10753SOL    HW233159   5.778   4.640   4.649
10754SOL     OW33160   0.530   0.062   3.429
10754SOL    HW133161   0.514   0.098   3.337
10754SOL    HW233162   0.553   0.138   3.491
10755SOL     OW33163   0.031   0.485   0.945
10755SOL    HW133164   0.120   0.503   0.987
10755SOL    HW233165   0.038   0.494   0.846
10756SOL     OW33166   6.447   5.004   6.720
10756SOL    HW133167   6.411   4.918   6.686
10756SOL    HW233168   6.377   5.050   6.776
10757SOL     OW33169   1.852   2.702   0.387
10757SOL    HW133170   1.873   2.664   0.297
10757SOL    HW233171   1.862   2.631   0.456
10758SOL     OW33172   0.850   5.671   4.741
10758SOL    HW133173   0.845   5.574   4.719
10758SOL    HW233174   0.927   5.688   4.802
10759SOL     OW33175   1.698   3.577   1.884
10759SOL    HW133176   1.790   3.558   1.919
10759SOL    HW233177   1.705   3.615   1.792
10760SOL     OW33178   5.173   0.318   2.291
10760SOL    HW133179   5.114   0.396   2.313
10760SOL    HW233180   5.260   0.351   2.255
10761SOL     OW33181   0.495   6.144   5.950
10761SOL    HW133182   0.491   6.050   5.983
10761SOL    HW233183   0.572   6.153   5.886
10762SOL     OW33184   2.985   1.934   4.406
10762SOL    HW133185   3.035   1.851   4.430
10762SOL    HW233186   3.015   2.010   4.464
10763SOL     OW33187   4.274   6.467   2.652
10763SOL    HW133188   4.327   6.548   2.626
10763SOL    HW233189   4.327   6.410   2.714
10764SOL     OW33190   5.542   2.243   5.662
10764SOL    HW133191   5.498   2.279   5.579
10764SOL    HW233192   5.555   2.318   5.728
10765SOL     OW33193   5.072   2.536   0.737
10765SOL    HW133194   5.052   2.471   0.811
10765SOL    HW233195   5.060   2.491   0.649
10766SOL     OW33196   4.267   5.072   0.637
10766SOL    HW133197   4.360   5.109   0.630
10766SOL    HW233198   4.249   5.044   0.731
10767SOL     OW33199   2.014   0.312   1.245
10767SOL    HW133200   2.079   0.319   1.169
10767SOL    HW233201   2.014   0.398   1.296
10768SOL     OW33202   5.199   5.338   1.264
10768SOL    HW133203   5.274   5.274   1.282
10768SOL    HW233204   5.198   5.361   1.166
10769SOL     OW33205   2.323   4.101   5.352
10769SOL    HW133206   2.331   4.056   5.263
10769SOL    HW233207   2.340   4.035   5.425
10770SOL     OW33208   5.224   6.479   4.086
10770SOL    HW133209   5.164   6.453   4.011
10770SOL    HW233210   5.175   6.471   4.173
10771SOL     OW33211   5.128   0.096   3.226
10771SOL    HW133212   5.073   0.015   3.247
10771SOL    HW233213   5.220   0.084   3.263
10772SOL     OW33214   6.403   0.201   4.089
10772SOL    HW133215   6.479   0.242   4.040
10772SOL    HW233216   6.411   0.221   4.187
10773SOL     OW33217   5.941   5.459   6.481
10773SOL    HW133218   6.004   5.402   6.534
10773SOL    HW233219   5.853   5.464   6.528
10774SOL     OW33220   2.201   1.543   5.807
10774SOL    HW133221   2.205   1.443   5.805
10774SOL    HW233222   2.291   1.579   5.783
10775SOL     OW33223   0.305   4.395   2.555
10775SOL    HW133224   0.290   4.465   2.486
10775SOL    HW233225   0.216   4.356   2.582
10776SOL     OW33226   0.632   0.367   6.331
10776SOL    HW133227   0.685   0.448   6.355
10776SOL    HW233228   0.642   0.348   6.233
10777SOL     OW33229   3.989   5.349   1.996
10777SOL    HW133230   3.984   5.330   2.094
10777SOL    HW233231   3.993   5.263   1.946
10778SOL     OW33232   4.705   0.330   3.956
10778SOL    HW133233   4.734   0.297   3.866
10778SOL    HW233234   4.605   0.328   3.961
10779SOL     OW33235   5.803   2.807   3.458
10779SOL    HW133236   5.816   2.715   3.497
10779SOL    HW233237   5.712   2.813   3.419
10780SOL     OW33238   1.528   0.368   4.042
10780SOL    HW133239   1.489   0.458   4.020
10780SOL    HW233240   1.587   0.377   4.122
10781SOL     OW33241   4.533   1.376   4.397
10781SOL    HW133242   4.598   1.355   4.324
10781SOL    HW233243   4.441   1.345   4.369
10782SOL     OW33244   6.974   0.430   3.026
10782SOL    HW133245   6.886   0.396   3.060
10782SOL    HW233246   6.990   0.395   2.934
10783SOL     OW33247   0.902   2.002   2.534
10783SOL    HW133248   0.979   1.968   2.588
10783SOL    HW233249   0.930   2.083   2.482
10784SOL     OW33250   4.317   0.120   4.115
10784SOL    HW133251   4.349   0.167   4.197
10784SOL    HW233252   4.286   0.028   4.138
10785SOL     OW33253   0.320   4.276   0.251
10785SOL    HW133254   0.308   4.282   0.350
10785SOL    HW233255   0.293   4.363   0.210
10786SOL     OW33256   6.222   4.727   3.394
10786SOL    HW133257   6.255   4.788   3.322
10786SOL    HW233258   6.243   4.633   3.370
10787SOL     OW33259   1.761   1.241   6.051
10787SOL    HW133260   1.855   1.230   6.019
10787SOL    HW233261   1.759   1.305   6.128
10788SOL     OW33262   0.984   4.300   0.336
10788SOL    HW133263   0.901   4.253   0.307
10788SOL    HW233264   1.056   4.233   0.356
10789SOL     OW33265   6.362   3.472   6.731
10789SOL    HW133266   6.277   3.508   6.770
10789SOL    HW233267   6.384   3.524   6.649
10790SOL     OW33268   1.065   0.005   2.091
10790SOL    HW133269   0.978   7.025   2.042
10790SOL    HW233270   1.058   6.984   2.178
10791SOL     OW33271   0.213   5.895   1.533
10791SOL    HW133272   0.213   5.845   1.620
10791SOL    HW233273   0.291   5.957   1.530
10792SOL     OW33274   3.232   2.963   4.862
10792SOL    HW133275   3.156   2.971   4.798
10792SOL    HW233276   3.317   2.951   4.812
10793SOL     OW33277   5.952   3.574   6.052
10793SOL    HW133278   6.039   3.609   6.018
10793SOL    HW233279   5.957   3.474   6.060
10794SOL     OW33280   4.060   3.775   4.081
10794SOL    HW133281   4.116   3.699   4.045
10794SOL    HW233282   3.979   3.737   4.126
10795SOL     OW33283   6.530   4.988   2.550
10795SOL    HW133284   6.607   4.937   2.512
10795SOL    HW233285   6.505   4.949   2.638
10796SOL     OW33286   6.681   7.008   5.549
10796SOL    HW133287   6.595   6.965   5.521
10796SOL    HW233288   6.667   0.030   5.635
10797SOL     OW33289   2.925   2.369   1.115
10797SOL    HW133290   2.904   2.402   1.023
10797SOL    HW233291   2.844   2.328   1.155
10798SOL     OW33292   2.950   0.810   0.488
10798SOL    HW133293   2.991   0.800   0.579
10798SOL    HW233294   2.851   0.804   0.495
10799SOL     OW33295   4.396   1.261   2.400
10799SOL    HW133296   4.435   1.345   2.438
10799SOL    HW233297   4.306   1.281   2.360
10800SOL     OW33298   0.823   6.454   5.246
10800SOL    HW133299   0.746   6.438   5.185
10800SOL    HW233300   0.883   6.374   5.246
10801SOL     OW33301   1.040   6.982   6.953
10801SOL    HW133302   1.008   6.929   0.004
10801SOL    HW233303   1.045   6.923   6.873
10802SOL     OW33304   0.512   0.132   1.964
10802SOL    HW133305   0.434   0.070   1.968
10802SOL    HW233306   0.559   0.121   1.877
10803SOL     OW33307   1.389   5.758   5.340
10803SOL    HW133308   1.472   5.702   5.343
10803SOL    HW233309   1.352   5.756   5.247
10804SOL     OW33310   5.935   3.346   2.898
10804SOL    HW133311   5.946   3.247   2.892
10804SOL    HW233312   5.956   3.387   2.809
10805SOL     OW33313   4.781   0.499   5.128
10805SOL    HW133314   4.710   0.548   5.078
10805SOL    HW233315   4.853   0.562   5.156
10806SOL     OW33316   3.641   4.300   5.890
10806SOL    HW133317   3.552   4.298   5.844
10806SOL    HW233318   3.659   4.210   5.930
10807SOL     OW33319   1.438   6.268   3.414
10807SOL    HW133320   1.342   6.240   3.427
10807SOL    HW233321   1.451   6.298   3.320
10808SOL     OW33322   0.473   2.894   5.910
10808SOL    HW133323   0.452   2.812   5.962
10808SOL    HW233324   0.481   2.871   5.813
10809SOL     OW33325   2.381   4.334   3.871
10809SOL    HW133326   2.380   4.433   3.859
10809SOL    HW233327   2.374   4.312   3.969
10810SOL     OW33328   0.092   0.291   4.307
10810SOL    HW133329   0.068   0.210   4.254
10810SOL    HW233330   0.008   0.338   4.335
10811SOL     OW33331   4.667   4.611   5.391
10811SOL    HW133332   4.597   4.648   5.330
10811SOL    HW233333   4.734   4.558   5.338
10812SOL     OW33334   0.180   4.004   0.140
10812SOL    HW133335   0.146   4.073   0.204
10812SOL    HW233336   0.279   4.016   0.129
10813SOL     OW33337   0.813   3.353   6.300
10813SOL    HW133338   0.839   3.272   6.353
10813SOL    HW233339   0.876   3.364   6.224
10814SOL     OW33340   2.087   6.964   6.752
10814SOL    HW133341   2.116   0.024   6.715
10814SOL    HW233342   2.086   6.895   6.680
10815SOL     OW33343   5.055   2.983   3.213
10815SOL    HW133344   5.070   2.984   3.114
10815SOL    HW233345   5.134   2.941   3.258
10816SOL     OW33346   3.001   3.135   2.750
10816SOL    HW133347   3.047   3.084   2.677
10816SOL    HW233348   2.978   3.226   2.716
10817SOL     OW33349   3.636   0.567   4.083
10817SOL    HW133350   3.563   0.531   4.025
10817SOL    HW233351   3.672   0.651   4.044
10818SOL     OW33352   4.793   4.458   5.870
10818SOL    HW133353   4.766   4.422   5.959
10818SOL    HW233354   4.717   4.450   5.805
10819SOL     OW33355   5.987   5.377   6.737
10819SOL    HW133356   5.989   5.471   6.770
10819SOL    HW233357   5.921   5.324   6.791
10820SOL     OW33358   0.006   5.100   4.441
10820SOL    HW133359   0.080   5.047   4.399
10820SOL    HW233360   0.030   5.122   4.535
10821SOL     OW33361   4.465   0.021   2.897
10821SOL    HW133362   4.528   0.066   2.833
10821SOL    HW233363   4.382   7.022   2.847
10822SOL     OW33364   6.328   1.684   2.237
10822SOL    HW133365   6.262   1.648   2.303
10822SOL    HW233366   6.340   1.782   2.253
10823SOL     OW33367   0.477   0.128   2.497
10823SOL    HW133368   0.431   0.144   2.584
10823SOL    HW233369   0.416   0.078   2.436
10824SOL     OW33370   0.241   0.890   2.245
10824SOL    HW133371   0.146   0.864   2.225
10824SOL    HW233372   0.286   0.917   2.160
10825SOL     OW33373   1.972   1.969   0.559
10825SOL    HW133374   1.950   1.982   0.656
10825SOL    HW233375   2.035   1.892   0.549
10826SOL     OW33376   1.193   1.364   2.333
10826SOL    HW133377   1.155   1.295   2.270
10826SOL    HW233378   1.170   1.455   2.300
10827SOL     OW33379   0.071   3.328   4.901
10827SOL    HW133380   0.021   3.288   4.978
10827SOL    HW233381   0.048   3.278   4.817
10828SOL     OW33382   1.354   4.247   0.605
10828SOL    HW133383   1.259   4.276   0.618
10828SOL    HW233384   1.411   4.328   0.592
10829SOL     OW33385   4.680   3.022   0.215
10829SOL    HW133386   4.667   3.121   0.209
10829SOL    HW233387   4.760   3.002   0.271
10830SOL     OW33388   4.564   1.868   3.228
10830SOL    HW133389   4.535   1.779   3.193
10830SOL    HW233390   4.487   1.912   3.275
10831SOL     OW33391   2.730   6.304   2.220
10831SOL    HW133392   2.730   6.315   2.121
10831SOL    HW233393   2.722   6.207   2.243
10832SOL     OW33394   6.597   3.954   6.607
10832SOL    HW133395   6.551   3.865   6.602
10832SOL    HW233396   6.674   3.948   6.671
10833SOL     OW33397   0.753   2.091   0.157
10833SOL    HW133398   0.834   2.033   0.157
10833SOL    HW233399   0.747   2.140   0.070
10834SOL     OW33400   6.518   1.692   0.138
10834SOL    HW133401   6.577   1.646   0.072
10834SOL    HW233402   6.441   1.633   0.161
10835SOL     OW33403   5.230   3.786   6.989
10835SOL    HW133404   5.144   3.803   0.009
10835SOL    HW233405   5.281   3.715   0.008
10836SOL     OW33406   0.350   1.325   2.752
10836SOL    HW133407   0.328   1.397   2.687
10836SOL    HW233408   0.309   1.347   2.841
10837SOL     OW33409   6.770   4.779   2.035
10837SOL    HW133410   6.849   4.831   2.068
10837SOL    HW233411   6.801   4.707   1.974
10838SOL     OW33412   6.051   6.370   3.809
10838SOL    HW133413   6.032   6.435   3.882
10838SOL    HW233414   6.149   6.347   3.809
10839SOL     OW33415   4.558   3.598   1.071
10839SOL    HW133416   4.496   3.627   1.145
10839SOL    HW233417   4.563   3.498   1.070
10840SOL     OW33418   3.619   6.526   2.208
10840SOL    HW133419   3.535   6.491   2.166
10840SOL    HW233420   3.595   6.596   2.276
10841SOL     OW33421   6.576   4.970   5.178
10841SOL    HW133422   6.632   4.907   5.125
10841SOL    HW233423   6.487   4.980   5.134
10842SOL     OW33424   5.212   2.237   1.088
10842SOL    HW133425   5.182   2.169   1.155
10842SOL    HW233426   5.211   2.195   0.997
10843SOL     OW33427   1.747   1.155   1.465
10843SOL    HW133428   1.735   1.070   1.414
10843SOL    HW233429   1.678   1.221   1.437
10844SOL     OW33430   6.565   4.605   3.649
10844SOL    HW133431   6.641   4.540   3.640
10844SOL    HW233432   6.593   4.680   3.709
10845SOL     OW33433   4.258   6.095   5.473
10845SOL    HW133434   4.324   6.024   5.449
10845SOL    HW233435   4.267   6.173   5.410
10846SOL     OW33436   5.389   0.644   7.012
10846SOL    HW133437   5.369   0.680   6.921
10846SOL    HW233438   5.487   0.626   7.021
10847SOL     OW33439   3.057   2.293   0.139
10847SOL    HW133440   3.044   2.238   0.056
10847SOL    HW233441   3.155   2.307   0.155
10848SOL     OW33442   0.434   3.867   0.999
10848SOL    HW133443   0.425   3.844   1.096
10848SOL    HW233444   0.381   3.802   0.944
10849SOL     OW33445   2.529   4.550   4.045
10849SOL    HW133446   2.473   4.588   3.971
10849SOL    HW233447   2.534   4.450   4.035
10850SOL     OW33448   3.820   6.393   6.628
10850SOL    HW133449   3.775   6.341   6.700
10850SOL    HW233450   3.873   6.331   6.570
10851SOL     OW33451   3.219   4.028   1.076
10851SOL    HW133452   3.261   3.955   1.131
10851SOL    HW233453   3.182   3.989   0.992
10852SOL     OW33454   1.512   1.293   6.836
10852SOL    HW133455   1.469   1.318   6.749
10852SOL    HW233456   1.475   1.206   6.868
10853SOL     OW33457   2.452   3.145   5.779
10853SOL    HW133458   2.372   3.200   5.800
10853SOL    HW233459   2.523   3.161   5.848
10854SOL     OW33460   4.291   5.556   4.993
10854SOL    HW133461   4.344   5.473   5.011
10854SOL    HW233462   4.228   5.539   4.917
10855SOL     OW33463   3.675   0.945   0.312
10855SOL    HW133464   3.600   0.951   0.378
10855SOL    HW233465   3.748   1.007   0.340
10856SOL     OW33466   5.958   1.337   0.464
10856SOL    HW133467   5.906   1.357   0.547
10856SOL    HW233468   6.055   1.325   0.488
10857SOL     OW33469   0.490   2.763   2.589
10857SOL    HW133470   0.407   2.819   2.598
10857SOL    HW233471   0.483   2.706   2.507
10858SOL     OW33472   0.876   0.178   0.355
10858SOL    HW133473   0.794   0.219   0.315
10858SOL    HW233474   0.858   0.083   0.380
10859SOL     OW33475   0.568   4.686   4.357
10859SOL    HW133476   0.666   4.667   4.368
10859SOL    HW233477   0.521   4.669   4.443
10860SOL     OW33478   0.401   3.048   4.459
10860SOL    HW133479   0.362   3.139   4.471
10860SOL    HW233480   0.405   3.027   4.361
10861SOL     OW33481   3.416   3.355   3.273
10861SOL    HW133482   3.430   3.365   3.372
10861SOL    HW233483   3.321   3.374   3.251
10862SOL     OW33484   1.087   0.954   5.441
10862SOL    HW133485   1.061   1.006   5.523
10862SOL    HW233486   1.006   0.938   5.384
10863SOL     OW33487   2.303   0.366   4.668
10863SOL    HW133488   2.316   0.267   4.674
10863SOL    HW233489   2.230   0.394   4.731
10864SOL     OW33490   3.373   5.885   0.475
10864SOL    HW133491   3.463   5.926   0.490
10864SOL    HW233492   3.363   5.862   0.378
10865SOL     OW33493   6.572   1.386   0.664
10865SOL    HW133494   6.519   1.422   0.588
10865SOL    HW233495   6.515   1.382   0.746
10866SOL     OW33496   5.140   4.559   0.923
10866SOL    HW133497   5.098   4.574   0.833
10866SOL    HW233498   5.239   4.573   0.916
10867SOL     OW33499   3.164   4.233   0.899
10867SOL    HW133500   3.189   4.166   0.968
10867SOL    HW233501   3.132   4.185   0.817
10868SOL     OW33502   4.735   1.852   3.861
10868SOL    HW133503   4.656   1.818   3.911
10868SOL    HW233504   4.794   1.775   3.836
10869NA      NA33505   6.614   3.055   5.428
10870NA      NA33506   4.599   4.477   5.059
10871NA      NA33507   1.326   2.864   1.726
10872NA      NA33508   5.048   3.873   5.238
10873NA      NA33509   4.219   2.304   5.236
10874NA      NA33510   3.613   4.890   1.771
10875NA      NA33511   6.675   5.028   6.779
10876NA      NA33512   3.168   3.588   4.832
10877NA      NA33513   4.492   6.103   6.988
10878NA      NA33514   4.128   6.471   5.050
10879NA      NA33515   6.284   5.392   2.513
10880NA      NA33516   2.063   0.095   3.621
10881NA      NA33517   4.005   5.546   1.888
10882NA      NA33518   3.841   3.741   2.316
   7.02775   7.02775   7.02775
