Generated by trjconv : CNT in water t=  85.00000
33518
    1C        C    1   2.838   2.763   4.743
    1C        C    2   2.890   2.709   4.863
    1C        C    3   2.841   2.771   4.979
    1C        C    4   2.844   2.772   4.253
    1C        C    5   2.895   2.725   4.376
    1C        C    6   2.840   2.766   4.500
    1C        C    7   3.007   2.635   4.620
    1C        C    8   2.890   2.715   4.621
    1C        C    9   3.071   2.600   4.741
    1C        C   10   3.005   2.627   4.862
    1C        C   11   3.178   2.492   4.970
    1C        C   12   3.060   2.566   4.976
    1C        C   13   2.842   2.763   3.766
    1C        C   14   2.893   2.714   3.888
    1C        C   15   2.842   2.766   4.010
    1C        C   16   3.015   2.643   4.135
    1C        C   17   2.899   2.725   4.132
    1C        C   18   3.080   2.614   4.257
    1C        C   19   3.013   2.647   4.377
    1C        C   20   3.204   2.554   4.500
    1C        C   21   3.072   2.606   4.498
    1C        C   22   3.273   2.527   4.620
    1C        C   23   3.205   2.552   4.741
    1C        C   24   3.409   2.480   4.860
    1C        C   25   3.268   2.502   4.858
    1C        C   26   3.485   2.476   4.978
    1C        C   27   2.844   2.761   3.278
    1C        C   28   2.896   2.714   3.400
    1C        C   29   2.846   2.766   3.522
    1C        C   30   3.014   2.638   3.647
    1C        C   31   2.897   2.717   3.644
    1C        C   32   3.075   2.601   3.769
    1C        C   33   3.009   2.634   3.890
    1C        C   34   3.201   2.545   4.012
    1C        C   35   3.072   2.603   4.012
    1C        C   36   3.271   2.525   4.133
    1C        C   37   3.207   2.553   4.255
    1C        C   38   3.410   2.501   4.376
    1C        C   39   3.271   2.528   4.379
    1C        C   40   3.482   2.502   4.497
    1C        C   41   3.412   2.504   4.620
    1C        C   42   3.626   2.480   4.738
    1C        C   43   3.484   2.480   4.739
    1C        C   44   3.699   2.489   4.859
    1C        C   45   3.624   2.485   4.977
    1C        C   46   2.828   2.742   2.789
    1C        C   47   2.888   2.704   2.911
    1C        C   48   2.841   2.759   3.033
    1C        C   49   3.011   2.633   3.156
    1C        C   50   2.896   2.714   3.155
    1C        C   51   3.072   2.598   3.278
    1C        C   52   3.014   2.635   3.402
    1C        C   53   3.205   2.547   3.523
    1C        C   54   3.075   2.601   3.525
    1C        C   55   3.272   2.525   3.645
    1C        C   56   3.202   2.539   3.767
    1C        C   57   3.409   2.502   3.891
    1C        C   58   3.269   2.525   3.890
    1C        C   59   3.482   2.494   4.012
    1C        C   60   3.410   2.499   4.133
    1C        C   61   3.623   2.493   4.256
    1C        C   62   3.482   2.492   4.255
    1C        C   63   3.697   2.499   4.376
    1C        C   64   3.623   2.497   4.497
    1C        C   65   3.832   2.540   4.617
    1C        C   66   3.697   2.499   4.617
    1C        C   67   3.901   2.558   4.740
    1C        C   68   3.835   2.525   4.860
    1C        C   69   4.046   2.582   4.974
    1C        C   70   3.918   2.524   4.973
    1C        C   71   2.820   2.735   2.303
    1C        C   72   2.874   2.686   2.424
    1C        C   73   2.823   2.736   2.546
    1C        C   74   2.997   2.614   2.668
    1C        C   75   2.881   2.693   2.668
    1C        C   76   3.066   2.589   2.789
    1C        C   77   3.007   2.626   2.911
    1C        C   78   3.203   2.545   3.036
    1C        C   79   3.071   2.595   3.033
    1C        C   80   3.271   2.523   3.158
    1C        C   81   3.201   2.540   3.279
    1C        C   82   3.410   2.498   3.399
    1C        C   83   3.271   2.520   3.400
    1C        C   84   3.479   2.492   3.523
    1C        C   85   3.412   2.504   3.646
    1C        C   86   3.621   2.496   3.763
    1C        C   87   3.480   2.496   3.770
    1C        C   88   3.691   2.503   3.886
    1C        C   89   3.624   2.498   4.010
    1C        C   90   3.829   2.541   4.130
    1C        C   91   3.692   2.507   4.134
    1C        C   92   3.901   2.564   4.250
    1C        C   93   3.834   2.534   4.371
    1C        C   94   4.021   2.629   4.494
    1C        C   95   3.897   2.561   4.494
    1C        C   96   4.087   2.663   4.614
    1C        C   97   4.026   2.626   4.736
    1C        C   98   4.182   2.762   4.856
    1C        C   99   4.096   2.648   4.857
    1C        C  100   4.212   2.837   4.971
    1C        C  101   2.818   2.727   2.067
    1C        C  102   2.982   2.583   2.188
    1C        C  103   2.872   2.675   2.185
    1C        C  104   3.054   2.566   2.309
    1C        C  105   2.993   2.610   2.428
    1C        C  106   3.193   2.527   2.547
    1C        C  107   3.060   2.576   2.547
    1C        C  108   3.265   2.516   2.667
    1C        C  109   3.197   2.537   2.789
    1C        C  110   3.406   2.499   2.910
    1C        C  111   3.267   2.524   2.911
    1C        C  112   3.477   2.490   3.032
    1C        C  113   3.410   2.497   3.156
    1C        C  114   3.623   2.500   3.273
    1C        C  115   3.482   2.494   3.277
    1C        C  116   3.689   2.507   3.398
    1C        C  117   3.621   2.494   3.521
    1C        C  118   3.830   2.539   3.639
    1C        C  119   3.693   2.504   3.642
    1C        C  120   3.893   2.567   3.762
    1C        C  121   3.826   2.544   3.885
    1C        C  122   4.018   2.633   4.007
    1C        C  123   3.894   2.565   4.007
    1C        C  124   4.081   2.670   4.128
    1C        C  125   4.026   2.630   4.252
    1C        C  126   4.186   2.768   4.373
    1C        C  127   4.083   2.671   4.374
    1C        C  128   4.236   2.817   4.496
    1C        C  129   4.194   2.756   4.616
    1C        C  130   4.327   2.924   4.734
    1C        C  131   4.243   2.809   4.737
    1C        C  132   4.358   2.995   4.853
    1C        C  133   4.288   2.953   4.967
    1C        C  134   3.162   2.462   2.079
    1C        C  135   3.028   2.503   2.078
    1C        C  136   3.252   2.479   2.185
    1C        C  137   3.187   2.516   2.305
    1C        C  138   3.399   2.478   2.422
    1C        C  139   3.259   2.498   2.425
    1C        C  140   3.473   2.482   2.542
    1C        C  141   3.405   2.494   2.666
    1C        C  142   3.616   2.489   2.787
    1C        C  143   3.475   2.483   2.788
    1C        C  144   3.689   2.498   2.907
    1C        C  145   3.618   2.494   3.029
    1C        C  146   3.828   2.539   3.151
    1C        C  147   3.691   2.505   3.150
    1C        C  148   3.892   2.566   3.274
    1C        C  149   3.827   2.540   3.397
    1C        C  150   4.026   2.621   3.515
    1C        C  151   3.897   2.563   3.517
    1C        C  152   4.082   2.660   3.639
    1C        C  153   4.016   2.636   3.761
    1C        C  154   4.183   2.764   3.883
    1C        C  155   4.075   2.673   3.884
    1C        C  156   4.239   2.810   4.005
    1C        C  157   4.191   2.759   4.128
    1C        C  158   4.331   2.918   4.247
    1C        C  159   4.240   2.810   4.250
    1C        C  160   4.367   2.981   4.368
    1C        C  161   4.324   2.927   4.491
    1C        C  162   4.429   3.112   4.611
    1C        C  163   4.361   2.989   4.613
    1C        C  164   4.463   3.177   4.731
    1C        C  165   4.430   3.116   4.854
    1C        C  166   4.509   3.316   4.967
    1C        C  167   4.469   3.183   4.971
    1C        C  168   3.469   2.428   2.068
    1C        C  169   3.391   2.455   2.181
    1C        C  170   3.610   2.463   2.301
    1C        C  171   3.468   2.466   2.299
    1C        C  172   3.684   2.490   2.419
    1C        C  173   3.614   2.492   2.541
    1C        C  174   3.820   2.540   2.661
    1C        C  175   3.684   2.500   2.663
    1C        C  176   3.891   2.560   2.781
    1C        C  177   3.825   2.534   2.904
    1C        C  178   4.017   2.622   3.024
    1C        C  179   3.891   2.558   3.026
    1C        C  180   4.079   2.657   3.147
    1C        C  181   4.021   2.623   3.271
    1C        C  182   4.194   2.748   3.392
    1C        C  183   4.086   2.656   3.392
    1C        C  184   4.239   2.800   3.515
    1C        C  185   4.190   2.751   3.638
    1C        C  186   4.327   2.914   3.759
    1C        C  187   4.241   2.802   3.760
    1C        C  188   4.366   2.976   3.880
    1C        C  189   4.328   2.919   4.004
    1C        C  190   4.441   3.099   4.123
    1C        C  191   4.372   2.976   4.125
    1C        C  192   4.462   3.170   4.244
    1C        C  193   4.433   3.106   4.366
    1C        C  194   4.494   3.311   4.487
    1C        C  195   4.456   3.175   4.488
    1C        C  196   4.513   3.383   4.607
    1C        C  197   4.505   3.313   4.730
    1C        C  198   4.548   3.531   4.848
    1C        C  199   4.522   3.390   4.849
    1C        C  200   4.579   3.615   4.959
    1C        C  201   3.609   2.413   2.070
    1C        C  202   3.824   2.502   2.178
    1C        C  203   3.686   2.461   2.181
    1C        C  204   3.891   2.540   2.297
    1C        C  205   3.821   2.522   2.418
    1C        C  206   4.016   2.615   2.536
    1C        C  207   3.888   2.556   2.538
    1C        C  208   4.080   2.651   2.657
    1C        C  209   4.021   2.615   2.780
    1C        C  210   4.188   2.746   2.904
    1C        C  211   4.078   2.658   2.902
    1C        C  212   4.242   2.795   3.025
    1C        C  213   4.192   2.743   3.146
    1C        C  214   4.329   2.904   3.268
    1C        C  215   4.244   2.792   3.268
    1C        C  216   4.371   2.963   3.390
    1C        C  217   4.330   2.908   3.514
    1C        C  218   4.430   3.097   3.633
    1C        C  219   4.367   2.970   3.635
    1C        C  220   4.454   3.164   3.755
    1C        C  221   4.434   3.100   3.879
    1C        C  222   4.500   3.301   4.002
    1C        C  223   4.465   3.164   4.000
    1C        C  224   4.508   3.378   4.121
    1C        C  225   4.490   3.308   4.242
    1C        C  226   4.514   3.521   4.363
    1C        C  227   4.502   3.380   4.364
    1C        C  228   4.519   3.593   4.484
    1C        C  229   4.526   3.523   4.606
    1C        C  230   4.501   3.739   4.723
    1C        C  231   4.531   3.600   4.725
    1C        C  232   4.490   3.815   4.842
    1C        C  233   4.538   3.748   4.956
    1C        C  234   4.014   2.606   2.059
    1C        C  235   3.891   2.541   2.061
    1C        C  236   4.083   2.639   2.176
    1C        C  237   4.017   2.605   2.297
    1C        C  238   4.199   2.729   2.414
    1C        C  239   4.082   2.648   2.415
    1C        C  240   4.249   2.778   2.537
    1C        C  241   4.189   2.741   2.659
    1C        C  242   4.330   2.900   2.779
    1C        C  243   4.242   2.790   2.781
    1C        C  244   4.373   2.959   2.900
    1C        C  245   4.334   2.902   3.023
    1C        C  246   4.429   3.092   3.144
    1C        C  247   4.368   2.964   3.146
    1C        C  248   4.452   3.157   3.268
    1C        C  249   4.428   3.092   3.391
    1C        C  250   4.492   3.299   3.510
    1C        C  251   4.453   3.163   3.511
    1C        C  252   4.504   3.368   3.633
    1C        C  253   4.490   3.301   3.756
    1C        C  254   4.517   3.510   3.873
    1C        C  255   4.510   3.369   3.878
    1C        C  256   4.508   3.584   3.993
    1C        C  257   4.513   3.519   4.119
    1C        C  258   4.495   3.730   4.236
    1C        C  259   4.517   3.591   4.240
    1C        C  260   4.475   3.800   4.358
    1C        C  261   4.490   3.732   4.480
    1C        C  262   4.420   3.934   4.598
    1C        C  263   4.478   3.805   4.601
    1C        C  264   4.397   4.005   4.718
    1C        C  265   4.429   3.942   4.840
    1C        C  266   4.312   4.124   4.953
    1C        C  267   4.385   4.005   4.957
    1C        C  268   4.255   2.775   2.057
    1C        C  269   4.194   2.726   2.173
    1C        C  270   4.343   2.885   2.295
    1C        C  271   4.251   2.777   2.292
    1C        C  272   4.381   2.948   2.416
    1C        C  273   4.339   2.887   2.536
    1C        C  274   4.441   3.078   2.658
    1C        C  275   4.373   2.954   2.655
    1C        C  276   4.468   3.148   2.778
    1C        C  277   4.438   3.085   2.900
    1C        C  278   4.495   3.291   3.020
    1C        C  279   4.461   3.153   3.021
    1C        C  280   4.506   3.360   3.143
    1C        C  281   4.494   3.292   3.266
    1C        C  282   4.516   3.505   3.386
    1C        C  283   4.509   3.364   3.386
    1C        C  284   4.512   3.578   3.508
    1C        C  285   4.511   3.509   3.631
    1C        C  286   4.488   3.722   3.750
    1C        C  287   4.511   3.583   3.752
    1C        C  288   4.474   3.793   3.871
    1C        C  289   4.489   3.724   3.993
    1C        C  290   4.425   3.928   4.114
    1C        C  291   4.480   3.798   4.113
    1C        C  292   4.394   3.994   4.235
    1C        C  293   4.425   3.932   4.358
    1C        C  294   4.329   4.127   4.474
    1C        C  295   4.391   4.000   4.477
    1C        C  296   4.284   4.184   4.595
    1C        C  297   4.318   4.123   4.718
    1C        C  298   4.196   4.309   4.834
    1C        C  299   4.275   4.190   4.836
    1C        C  300   4.166   4.397   4.943
    1C        C  301   4.348   2.879   2.056
    1C        C  302   4.463   3.065   2.174
    1C        C  303   4.393   2.940   2.174
    1C        C  304   4.475   3.139   2.295
    1C        C  305   4.443   3.075   2.416
    1C        C  306   4.498   3.282   2.531
    1C        C  307   4.466   3.144   2.536
    1C        C  308   4.510   3.355   2.651
    1C        C  309   4.497   3.287   2.774
    1C        C  310   4.523   3.497   2.896
    1C        C  311   4.507   3.356   2.896
    1C        C  312   4.513   3.568   3.018
    1C        C  313   4.513   3.501   3.143
    1C        C  314   4.488   3.714   3.260
    1C        C  315   4.512   3.575   3.263
    1C        C  316   4.481   3.784   3.382
    1C        C  317   4.494   3.718   3.507
    1C        C  318   4.418   3.919   3.623
    1C        C  319   4.474   3.790   3.627
    1C        C  320   4.387   3.984   3.745
    1C        C  321   4.423   3.925   3.868
    1C        C  322   4.315   4.107   3.987
    1C        C  323   4.393   3.989   3.991
    1C        C  324   4.277   4.169   4.109
    1C        C  325   4.325   4.117   4.231
    1C        C  326   4.184   4.279   4.348
    1C        C  327   4.285   4.180   4.351
    1C        C  328   4.134   4.333   4.468
    1C        C  329   4.190   4.289   4.591
    1C        C  330   4.019   4.425   4.707
    1C        C  331   4.136   4.344   4.710
    1C        C  332   3.967   4.486   4.823
    1C        C  333   4.048   4.473   4.937
    1C        C  334   4.551   3.261   2.058
    1C        C  335   4.525   3.124   2.059
    1C        C  336   4.537   3.345   2.169
    1C        C  337   4.511   3.277   2.290
    1C        C  338   4.524   3.493   2.409
    1C        C  339   4.519   3.352   2.410
    1C        C  340   4.521   3.566   2.530
    1C        C  341   4.523   3.496   2.652
    1C        C  342   4.492   3.706   2.771
    1C        C  343   4.519   3.567   2.774
    1C        C  344   4.474   3.775   2.892
    1C        C  345   4.491   3.707   3.015
    1C        C  346   4.417   3.909   3.133
    1C        C  347   4.469   3.778   3.136
    1C        C  348   4.391   3.976   3.255
    1C        C  349   4.424   3.914   3.377
    1C        C  350   4.316   4.099   3.500
    1C        C  351   4.390   3.978   3.498
    1C        C  352   4.269   4.158   3.620
    1C        C  353   4.310   4.102   3.743
    1C        C  354   4.176   4.266   3.863
    1C        C  355   4.272   4.162   3.864
    1C        C  356   4.124   4.315   3.984
    1C        C  357   4.177   4.268   4.106
    1C        C  358   4.004   4.395   4.226
    1C        C  359   4.124   4.320   4.227
    1C        C  360   3.947   4.439   4.348
    1C        C  361   4.016   4.409   4.468
    1C        C  362   3.823   4.509   4.588
    1C        C  363   3.954   4.458   4.586
    1C        C  364   3.759   4.541   4.710
    1C        C  365   3.835   4.536   4.829
    1C        C  366   3.623   4.588   4.939
    1C        C  367   3.760   4.565   4.943
    1C        C  368   4.504   3.557   2.050
    1C        C  369   4.524   3.486   2.169
    1C        C  370   4.498   3.703   2.284
    1C        C  371   4.520   3.563   2.287
    1C        C  372   4.482   3.774   2.404
    1C        C  373   4.503   3.706   2.527
    1C        C  374   4.426   3.904   2.643
    1C        C  375   4.484   3.776   2.648
    1C        C  376   4.389   3.967   2.764
    1C        C  377   4.424   3.907   2.888
    1C        C  378   4.317   4.092   3.010
    1C        C  379   4.391   3.972   3.009
    1C        C  380   4.276   4.153   3.131
    1C        C  381   4.315   4.096   3.254
    1C        C  382   4.174   4.253   3.371
    1C        C  383   4.271   4.150   3.376
    1C        C  384   4.118   4.301   3.491
    1C        C  385   4.171   4.260   3.616
    1C        C  386   4.006   4.389   3.735
    1C        C  387   4.122   4.308   3.739
    1C        C  388   3.949   4.430   3.857
    1C        C  389   4.008   4.396   3.981
    1C        C  390   3.814   4.483   4.101
    1C        C  391   3.944   4.428   4.103
    1C        C  392   3.747   4.512   4.222
    1C        C  393   3.818   4.495   4.343
    1C        C  394   3.614   4.543   4.468
    1C        C  395   3.753   4.523   4.466
    1C        C  396   3.542   4.551   4.589
    1C        C  397   3.619   4.555   4.708
    1C        C  398   3.404   4.542   4.832
    1C        C  399   3.542   4.573   4.825
    1C        C  400   3.337   4.505   4.949
    1C        C  401   4.504   3.696   2.045
    1C        C  402   4.451   3.908   2.164
    1C        C  403   4.493   3.773   2.161
    1C        C  404   4.413   3.977   2.281
    1C        C  405   4.434   3.907   2.402
    1C        C  406   4.332   4.096   2.522
    1C        C  407   4.402   3.973   2.522
    1C        C  408   4.276   4.145   2.642
    1C        C  409   4.314   4.086   2.765
    1C        C  410   4.174   4.245   2.881
    1C        C  411   4.276   4.147   2.886
    1C        C  412   4.118   4.289   3.003
    1C        C  413   4.172   4.249   3.127
    1C        C  414   3.998   4.371   3.247
    1C        C  415   4.117   4.294   3.248
    1C        C  416   3.939   4.412   3.368
    1C        C  417   4.001   4.379   3.490
    1C        C  418   3.809   4.469   3.616
    1C        C  419   3.940   4.416   3.613
    1C        C  420   3.744   4.494   3.738
    1C        C  421   3.817   4.479   3.858
    1C        C  422   3.608   4.534   3.980
    1C        C  423   3.746   4.502   3.978
    1C        C  424   3.538   4.533   4.103
    1C        C  425   3.607   4.530   4.226
    1C        C  426   3.397   4.542   4.349
    1C        C  427   3.538   4.543   4.348
    1C        C  428   3.328   4.540   4.472
    1C        C  429   3.401   4.542   4.593
    1C        C  430   3.188   4.510   4.715
    1C        C  431   3.328   4.533   4.714
    1C        C  432   3.119   4.491   4.837
    1C        C  433   3.199   4.487   4.952
    1C        C  434   4.376   4.113   2.046
    1C        C  435   4.442   3.989   2.051
    1C        C  436   4.301   4.159   2.159
    1C        C  437   4.332   4.094   2.281
    1C        C  438   4.180   4.246   2.399
    1C        C  439   4.286   4.153   2.401
    1C        C  440   4.121   4.292   2.519
    1C        C  441   4.177   4.246   2.639
    1C        C  442   4.000   4.368   2.759
    1C        C  443   4.120   4.293   2.759
    1C        C  444   3.938   4.405   2.880
    1C        C  445   4.001   4.368   3.000
    1C        C  446   3.807   4.453   3.127
    1C        C  447   3.937   4.399   3.122
    1C        C  448   3.740   4.482   3.248
    1C        C  449   3.806   4.461   3.371
    1C        C  450   3.601   4.511   3.492
    1C        C  451   3.740   4.486   3.494
    1C        C  452   3.535   4.525   3.616
    1C        C  453   3.605   4.520   3.738
    1C        C  454   3.393   4.535   3.860
    1C        C  455   3.534   4.536   3.860
    1C        C  456   3.327   4.526   3.984
    1C        C  457   3.397   4.525   4.106
    1C        C  458   3.187   4.500   4.231
    1C        C  459   3.325   4.529   4.228
    1C        C  460   3.121   4.481   4.354
    1C        C  461   3.190   4.511   4.473
    1C        C  462   2.990   4.431   4.597
    1C        C  463   3.118   4.491   4.593
    1C        C  464   2.927   4.397   4.718
    1C        C  465   2.983   4.444   4.840
    1C        C  466   2.799   4.329   4.952
    1C        C  467   2.903   4.424   4.956
    1C        C  468   4.117   4.274   2.038
    1C        C  469   4.183   4.241   2.157
    1C        C  470   4.004   4.365   2.275
    1C        C  471   4.125   4.292   2.276
    1C        C  472   3.932   4.392   2.394
    1C        C  473   4.000   4.365   2.515
    1C        C  474   3.806   4.455   2.640
    1C        C  475   3.936   4.399   2.637
    1C        C  476   3.737   4.482   2.760
    1C        C  477   3.807   4.458   2.881
    1C        C  478   3.602   4.505   3.008
    1C        C  479   3.740   4.475   3.004
    1C        C  480   3.531   4.522   3.129
    1C        C  481   3.602   4.514   3.250
    1C        C  482   3.388   4.527   3.372
    1C        C  483   3.529   4.522   3.371
    1C        C  484   3.321   4.525   3.496
    1C        C  485   3.394   4.538   3.616
    1C        C  486   3.184   4.505   3.739
    1C        C  487   3.322   4.534   3.737
    1C        C  488   3.121   4.477   3.862
    1C        C  489   3.189   4.496   3.985
    1C        C  490   2.995   4.416   4.110
    1C        C  491   3.120   4.480   4.108
    1C        C  492   2.934   4.379   4.233
    1C        C  493   2.993   4.420   4.354
    1C        C  494   2.822   4.297   4.475
    1C        C  495   2.931   4.387   4.476
    1C        C  496   2.767   4.252   4.598
    1C        C  497   2.815   4.309   4.718
    1C        C  498   2.666   4.155   4.840
    1C        C  499   2.751   4.268   4.836
    1C        C  500   2.602   4.110   4.957
    1C        C  501   3.999   4.348   2.041
    1C        C  502   3.809   4.458   2.155
    1C        C  503   3.938   4.400   2.155
    1C        C  504   3.737   4.471   2.275
    1C        C  505   3.800   4.441   2.398
    1C        C  506   3.598   4.505   2.519
    1C        C  507   3.734   4.470   2.520
    1C        C  508   3.528   4.512   2.641
    1C        C  509   3.597   4.504   2.764
    1C        C  510   3.388   4.522   2.884
    1C        C  511   3.529   4.511   2.887
    1C        C  512   3.317   4.519   3.006
    1C        C  513   3.389   4.525   3.127
    1C        C  514   3.179   4.492   3.251
    1C        C  515   3.318   4.521   3.249
    1C        C  516   3.115   4.470   3.375
    1C        C  517   3.183   4.492   3.497
    1C        C  518   2.993   4.403   3.622
    1C        C  519   3.115   4.475   3.620
    1C        C  520   2.938   4.366   3.747
    1C        C  521   2.998   4.409   3.867
    1C        C  522   2.830   4.279   3.990
    1C        C  523   2.939   4.369   3.989
    1C        C  524   2.777   4.234   4.113
    1C        C  525   2.825   4.289   4.234
    1C        C  526   2.687   4.129   4.359
    1C        C  527   2.771   4.242   4.356
    1C        C  528   2.647   4.071   4.481
    1C        C  529   2.682   4.140   4.599
    1C        C  530   2.574   3.958   4.727
    1C        C  531   2.635   4.086   4.721
    1C        C  532   2.536   3.895   4.849
    1C        C  533   2.532   3.989   4.957
    1C        C  534   3.612   4.542   2.037
    1C        C  535   3.746   4.500   2.038
    1C        C  536   3.529   4.527   2.153
    1C        C  537   3.598   4.503   2.275
    1C        C  538   3.386   4.514   2.396
    1C        C  539   3.527   4.512   2.397
    1C        C  540   3.317   4.503   2.518
    1C        C  541   3.386   4.511   2.641
    1C        C  542   3.178   4.483   2.761
    1C        C  543   3.315   4.514   2.763
    1C        C  544   3.115   4.456   2.885
    1C        C  545   3.180   4.484   3.007
    1C        C  546   2.987   4.400   3.133
    1C        C  547   3.112   4.466   3.130
    1C        C  548   2.931   4.364   3.257
    1C        C  549   2.988   4.408   3.379
    1C        C  550   2.821   4.279   3.501
    1C        C  551   2.929   4.370   3.501
    1C        C  552   2.773   4.228   3.624
    1C        C  553   2.826   4.279   3.745
    1C        C  554   2.696   4.115   3.872
    1C        C  555   2.782   4.227   3.868
    1C        C  556   2.649   4.061   3.994
    1C        C  557   2.687   4.125   4.115
    1C        C  558   2.592   3.938   4.241
    1C        C  559   2.646   4.069   4.237
    1C        C  560   2.566   3.875   4.365
    1C        C  561   2.589   3.943   4.486
    1C        C  562   2.522   3.744   4.611
    1C        C  563   2.557   3.881   4.610
    1C        C  564   2.511   3.675   4.734
    1C        C  565   2.518   3.753   4.852
    1C        C  566   2.523   3.539   4.974
    1C        C  567   2.516   3.678   4.971
    1C        C  568   3.321   4.465   2.036
    1C        C  569   3.389   4.503   2.152
    1C        C  570   3.177   4.471   2.275
    1C        C  571   3.316   4.504   2.274
    1C        C  572   3.108   4.454   2.397
    1C        C  573   3.178   4.477   2.518
    1C        C  574   2.981   4.401   2.642
    1C        C  575   3.108   4.463   2.640
    1C        C  576   2.927   4.356   2.765
    1C        C  577   2.988   4.393   2.887
    1C        C  578   2.819   4.271   3.012
    1C        C  579   2.928   4.362   3.011
    1C        C  580   2.773   4.222   3.136
    1C        C  581   2.825   4.271   3.258
    1C        C  582   2.691   4.108   3.380
    1C        C  583   2.773   4.223   3.381
    1C        C  584   2.656   4.050   3.504
    1C        C  585   2.691   4.113   3.625
    1C        C  586   2.596   3.929   3.753
    1C        C  587   2.656   4.057   3.750
    1C        C  588   2.568   3.866   3.877
    1C        C  589   2.586   3.935   3.999
    1C        C  590   2.527   3.732   4.124
    1C        C  591   2.564   3.869   4.122
    1C        C  592   2.515   3.668   4.249
    1C        C  593   2.526   3.739   4.370
    1C        C  594   2.506   3.528   4.493
    1C        C  595   2.516   3.669   4.492
    1C        C  596   2.513   3.459   4.616
    1C        C  597   2.514   3.532   4.737
    1C        C  598   2.535   3.320   4.858
    1C        C  599   2.524   3.461   4.858
    1C        C  600   2.542   3.241   4.974
    1C        C  601   3.185   4.440   2.040
    1C        C  602   2.974   4.385   2.157
    1C        C  603   3.107   4.437   2.156
    1C        C  604   2.913   4.357   2.282
    1C        C  605   2.982   4.391   2.401
    1C        C  606   2.810   4.269   2.523
    1C        C  607   2.918   4.360   2.523
    1C        C  608   2.763   4.218   2.646
    1C        C  609   2.816   4.269   2.767
    1C        C  610   2.683   4.106   2.890
    1C        C  611   2.772   4.216   2.890
    1C        C  612   2.646   4.048   3.014
    1C        C  613   2.690   4.108   3.134
    1C        C  614   2.589   3.923   3.260
    1C        C  615   2.654   4.049   3.257
    1C        C  616   2.564   3.862   3.385
    1C        C  617   2.593   3.923   3.509
    1C        C  618   2.529   3.725   3.634
    1C        C  619   2.568   3.861   3.633
    1C        C  620   2.513   3.659   3.757
    1C        C  621   2.527   3.731   3.878
    1C        C  622   2.499   3.523   4.006
    1C        C  623   2.515   3.663   4.001
    1C        C  624   2.502   3.453   4.129
    1C        C  625   2.505   3.527   4.249
    1C        C  626   2.532   3.318   4.375
    1C        C  627   2.508   3.457   4.371
    1C        C  628   2.551   3.248   4.497
    1C        C  629   2.537   3.320   4.618
    1C        C  630   2.587   3.111   4.740
    1C        C  631   2.543   3.246   4.738
    1C        C  632   2.608   3.038   4.860
    1C        C  633   2.554   3.101   4.977
    1C        C  634   2.776   4.298   2.047
    1C        C  635   2.886   4.384   2.044
    1C        C  636   2.743   4.225   2.162
    1C        C  637   2.800   4.272   2.282
    1C        C  638   2.670   4.105   2.403
    1C        C  639   2.752   4.220   2.404
    1C        C  640   2.639   4.043   2.526
    1C        C  641   2.679   4.105   2.647
    1C        C  642   2.577   3.920   2.772
    1C        C  643   2.643   4.045   2.769
    1C        C  644   2.551   3.855   2.895
    1C        C  645   2.584   3.921   3.015
    1C        C  646   2.526   3.720   3.143
    1C        C  647   2.561   3.857   3.138
    1C        C  648   2.515   3.653   3.267
    1C        C  649   2.529   3.725   3.387
    1C        C  650   2.507   3.516   3.516
    1C        C  651   2.518   3.657   3.510
    1C        C  652   2.511   3.448   3.639
    1C        C  653   2.509   3.518   3.762
    1C        C  654   2.528   3.310   3.886
    1C        C  655   2.505   3.449   3.885
    1C        C  656   2.544   3.244   4.010
    1C        C  657   2.524   3.314   4.131
    1C        C  658   2.598   3.116   4.254
    1C        C  659   2.546   3.247   4.254
    1C        C  660   2.634   3.054   4.375
    1C        C  661   2.598   3.115   4.497
    1C        C  662   2.704   2.933   4.620
    1C        C  663   2.622   3.047   4.619
    1C        C  664   2.749   2.874   4.740
    1C        C  665   2.699   2.928   4.862
    1C        C  666   2.741   2.868   4.981
    1C        C  667   2.680   4.015   2.050
    1C        C  668   2.679   4.099   2.163
    1C        C  669   2.582   3.907   2.288
    1C        C  670   2.637   4.038   2.283
    1C        C  671   2.551   3.844   2.411
    1C        C  672   2.580   3.915   2.529
    1C        C  673   2.519   3.712   2.654
    1C        C  674   2.555   3.849   2.652
    1C        C  675   2.503   3.646   2.778
    1C        C  676   2.519   3.718   2.898
    1C        C  677   2.511   3.507   3.025
    1C        C  678   2.515   3.648   3.022
    1C        C  679   2.508   3.438   3.148
    1C        C  680   2.507   3.512   3.269
    1C        C  681   2.530   3.305   3.396
    1C        C  682   2.509   3.445   3.394
    1C        C  683   2.552   3.239   3.519
    1C        C  684   2.534   3.308   3.640
    1C        C  685   2.602   3.111   3.767
    1C        C  686   2.550   3.242   3.764
    1C        C  687   2.634   3.048   3.890
    1C        C  688   2.597   3.113   4.010
    1C        C  689   2.707   2.932   4.132
    1C        C  690   2.633   3.053   4.132
    1C        C  691   2.748   2.876   4.255
    1C        C  692   2.713   2.937   4.378
    1C        C  693   2.754   2.878   4.499
    1C        C  694   2.625   3.887   2.053
    1C        C  695   2.525   3.698   2.170
    1C        C  696   2.568   3.833   2.169
    1C        C  697   2.510   3.631   2.293
    1C        C  698   2.518   3.706   2.412
    1C        C  699   2.484   3.499   2.539
    1C        C  700   2.502   3.639   2.535
    1C        C  701   2.501   3.431   2.662
    1C        C  702   2.500   3.505   2.782
    1C        C  703   2.530   3.295   2.907
    1C        C  704   2.509   3.434   2.904
    1C        C  705   2.546   3.226   3.030
    1C        C  706   2.534   3.299   3.150
    1C        C  707   2.602   3.104   3.276
    1C        C  708   2.550   3.235   3.275
    1C        C  709   2.630   3.041   3.399
    1C        C  710   2.598   3.105   3.521
    1C        C  711   2.707   2.927   3.644
    1C        C  712   2.629   3.044   3.645
    1C        C  713   2.751   2.871   3.766
    1C        C  714   2.709   2.929   3.889
    1C        C  715   2.749   2.872   4.012
    1C        C  716   2.449   3.494   2.054
    1C        C  717   2.483   3.630   2.055
    1C        C  718   2.460   3.419   2.176
    1C        C  719   2.477   3.493   2.296
    1C        C  720   2.514   3.286   2.418
    1C        C  721   2.485   3.424   2.419
    1C        C  722   2.542   3.221   2.541
    1C        C  723   2.525   3.291   2.662
    1C        C  724   2.587   3.091   2.786
    1C        C  725   2.541   3.224   2.785
    1C        C  726   2.615   3.026   2.908
    1C        C  727   2.590   3.092   3.030
    1C        C  728   2.701   2.916   3.154
    1C        C  729   2.624   3.034   3.155
    1C        C  730   2.748   2.865   3.277
    1C        C  731   2.711   2.926   3.399
    1C        C  732   2.756   2.874   3.522
    1C        C  733   2.487   3.197   2.065
    1C        C  734   2.488   3.279   2.178
    1C        C  735   2.577   3.081   2.299
    1C        C  736   2.520   3.211   2.299
    1C        C  737   2.607   3.016   2.421
    1C        C  738   2.581   3.085   2.542
    1C        C  739   2.688   2.904   2.665
    1C        C  740   2.614   3.024   2.665
    1C        C  741   2.733   2.846   2.786
    1C        C  742   2.696   2.909   2.907
    1C        C  743   2.745   2.862   3.030
    1C        C  744   2.541   3.068   2.066
    1C        C  745   2.671   2.889   2.180
    1C        C  746   2.602   3.012   2.179
    1C        C  747   2.721   2.837   2.301
    1C        C  748   2.681   2.896   2.423
    1C        C  749   2.728   2.841   2.545
    1C        C  750   2.725   2.830   2.065
    1C        C  751   3.661   2.308   1.980
    1C        O  752   3.699   2.201   2.035
    1C        O  753   3.714   2.329   1.852
    1C        C  754   4.636   3.063   1.982
    1C        O  755   4.605   2.988   1.886
    1C        O  756   4.754   3.020   2.043
    1C        C  757   4.437   4.213   1.956
    1C        O  758   4.556   4.248   1.979
    1C        O  759   4.405   4.216   1.819
    1C        C  760   3.586   4.643   1.932
    1C        O  761   3.637   4.759   1.943
    1C        O  762   3.581   4.617   1.795
    1C        C  763   2.878   4.501   1.953
    1C        O  764   2.892   4.484   1.830
    1C        O  765   2.888   4.634   1.997
    1C        C  766   2.328   3.480   1.970
    1C        O  767   2.310   3.499   1.847
    1C        O  768   2.206   3.432   2.019
    1C        C  769   4.664   3.590   5.078
    1C        O  770   4.619   3.595   5.196
    1C        O  771   4.793   3.535   5.070
    1C        C  772   4.264   4.463   5.031
    1C        O  773   4.237   4.478   5.153
    1C        O  774   4.378   4.532   4.986
    1C        C  775   4.139   2.537   5.080
    1C        O  776   4.249   2.485   5.050
    1C        O  777   4.122   2.575   5.214
    1C        C  778   2.880   4.530   5.057
    1C        O  779   2.813   4.634   5.032
    1C        O  780   2.945   4.517   5.180
    1C        C  781   2.468   3.033   5.076
    1C        O  782   2.361   2.976   5.040
    1C        O  783   2.467   3.052   5.214
    1C        C  784   2.455   3.976   5.083
    1C        O  785   2.375   4.071   5.104
    1C        O  786   2.479   3.905   5.201
    1C        C  787   2.938   2.396   2.032
    1C        O  788   2.913   2.401   1.908
    1C        O  789   2.930   2.274   2.099
    1C        C  790   3.185   2.371   5.054
    1C        O  791   3.151   2.257   5.012
    1C        O  792   3.186   2.360   5.194
    1C        H  793   4.332   2.980   5.060
    1C        H  794   4.199   2.795   5.068
    1C        H  795   4.492   3.126   5.059
    1C        H  796   4.529   3.368   5.059
    1C        H  797   4.566   3.813   5.036
    1C        H  798   4.383   3.954   5.052
    1C        H  799   4.286   4.171   5.046
    1C        H  800   4.016   4.521   5.027
    1C        H  801   3.815   4.581   5.034
    1C        H  802   3.572   4.620   5.028
    1C        H  803   3.390   4.434   5.009
    1C        H  804   3.155   4.446   5.041
    1C        H  805   3.907   2.436   5.032
    1C        H  806   3.670   2.438   5.061
    1C        H  807   2.990   2.537   5.051
    1C        H  808   3.448   2.414   5.057
    1C        H  809   2.889   2.748   5.072
    1C        H  810   2.723   2.924   5.070
    1C        H  811   2.510   3.282   5.067
    1C        H  812   2.517   3.490   5.069
    1C        H  813   2.488   3.725   5.062
    1C        H  814   2.580   4.186   5.029
    1C        H  815   2.756   4.306   5.047
    1C        H  816   2.657   2.836   1.982
    1C        H  817   2.837   2.682   1.971
    1C        H  818   3.187   2.384   2.011
    1C        H  819   3.437   2.479   1.979
    1C        H  820   3.830   2.556   1.974
    1C        H  821   4.061   2.621   1.964
    1C        H  822   4.253   2.711   1.972
    1C        H  823   4.407   2.895   1.968
    1C        H  824   4.609   3.302   1.977
    1C        H  825   4.447   3.498   1.981
    1C        H  826   4.515   3.740   1.948
    1C        H  827   3.800   4.536   1.953
    1C        H  828   3.927   4.305   1.975
    1C        H  829   4.151   4.237   1.944
    1C        H  830   4.515   3.976   1.974
    1C        H  831   2.635   3.826   1.965
    1C        H  832   2.737   4.043   1.964
    1C        H  833   2.702   4.307   1.971
    1C        H  834   3.366   4.430   1.946
    1C        H  835   3.131   4.463   1.950
    1C        H  836   2.494   2.992   2.008
    1C        H  837   2.433   3.223   1.976
    1C        H  838   2.521   3.663   1.961
    2V3OU   H29  839   2.802   3.552   1.400
    2V3OU   C27  840   2.775   3.499   1.495
    2V3OU   H27  841   2.716   3.569   1.559
    2V3OU   H28  842   2.722   3.401   1.491
    2V3OU   O11  843   2.901   3.468   1.556
    2V3OU   C15  844   2.914   3.397   1.674
    2V3OU   C13  845   3.044   3.373   1.723
    2V3OU   C14  846   3.069   3.267   1.810
    2V3OU   C16  847   2.965   3.183   1.847
    2V3OU    H6  848   2.986   3.092   1.905
    2V3OU   C12  849   3.206   3.227   1.851
    2V3OU    O2  850   3.227   3.128   1.925
    2V3OU   C10  851   3.319   3.299   1.790
    2V3OU    C8  852   3.451   3.264   1.813
    2V3OU   O10  853   3.481   3.143   1.869
    2V3OU   H26  854   3.396   3.111   1.901
    2V3OU    C6  855   3.559   3.345   1.767
    2V3OU    C5  856   3.533   3.460   1.694
    2V3OU    C4  857   3.699   3.293   1.771
    2V3OU    H4  858   3.716   3.227   1.861
    2V3OU    H5  859   3.706   3.222   1.682
    2V3OU    C2  860   3.810   3.398   1.762
    2V3OU    O6  861   3.797   3.471   1.885
    2V3OU   H21  862   3.769   3.554   1.843
    2V3OU    C3  863   3.779   3.493   1.646
    2V3OU    H2  864   3.859   3.571   1.636
    2V3OU    H3  865   3.776   3.430   1.554
    2V3OU   C25  866   3.941   3.323   1.744
    2V3OU    O7  867   3.989   3.294   1.634
    2V3OU   C26  868   4.024   3.285   1.866
    2V3OU   H22  869   4.051   3.380   1.918
    2V3OU   H23  870   4.114   3.226   1.834
    2V3OU    O8  871   3.963   3.203   1.963
    2V3OU   H24  872   3.934   3.258   2.038
    2V3OU    C1  873   3.641   3.558   1.658
    2V3OU    H1  874   3.619   3.611   1.561
    2V3OU    O3  875   3.662   3.650   1.765
    2V3OU   C19  876   3.617   3.784   1.744
    2V3OU    H9  877   3.521   3.801   1.686
    2V3OU    O4  878   3.706   3.846   1.654
    2V3OU   C20  879   3.837   3.870   1.706
    2V3OU   H10  880   3.894   3.775   1.728
    2V3OU   C24  881   3.607   3.852   1.880
    2V3OU   H16  882   3.545   3.785   1.945
    2V3OU   H17  883   3.550   3.949   1.879
    2V3OU   C23  884   3.747   3.871   1.938
    2V3OU   H15  885   3.788   3.766   1.955
    2V3OU    N1  886   3.737   3.948   2.061
    2V3OU   H19  887   3.807   3.913   2.123
    2V3OU   H20  888   3.649   3.928   2.103
    2V3OU   C21  889   3.846   3.942   1.841
    2V3OU   H11  890   3.948   3.915   1.883
    2V3OU    O5  891   3.828   4.083   1.844
    2V3OU   H18  892   3.772   4.097   1.922
    2V3OU   C22  893   3.903   3.950   1.595
    2V3OU   H12  894   3.850   4.048   1.584
    2V3OU   H13  895   3.896   3.892   1.500
    2V3OU   H14  896   4.013   3.954   1.615
    2V3OU   C11  897   3.154   3.469   1.707
    2V3OU    O1  898   3.134   3.590   1.679
    2V3OU    C9  899   3.293   3.420   1.720
    2V3OU    C7  900   3.397   3.496   1.668
    2V3OU    O9  901   3.381   3.610   1.592
    2V3OU   H25  902   3.285   3.627   1.593
    2V3OU   C17  903   2.813   3.311   1.722
    2V3OU    H7  904   2.709   3.336   1.702
    2V3OU   C18  905   2.832   3.208   1.813
    2V3OU    H8  906   2.749   3.145   1.848
    3SOL     OW  907   1.367   3.420   0.892
    3SOL    HW1  908   1.418   3.373   0.964
    3SOL    HW2  909   1.382   3.518   0.899
    4SOL     OW  910   5.884   0.448   2.114
    4SOL    HW1  911   5.952   0.501   2.066
    4SOL    HW2  912   5.890   0.466   2.213
    5SOL     OW  913   3.445   1.823   1.062
    5SOL    HW1  914   3.372   1.786   1.005
    5SOL    HW2  915   3.413   1.830   1.156
    6SOL     OW  916   2.692   1.777   1.456
    6SOL    HW1  917   2.608   1.827   1.434
    6SOL    HW2  918   2.672   1.710   1.528
    7SOL     OW  919   6.028   1.551   1.911
    7SOL    HW1  920   6.127   1.551   1.909
    7SOL    HW2  921   5.993   1.471   1.864
    8SOL     OW  922   2.895   1.046   4.402
    8SOL    HW1  923   2.824   1.086   4.344
    8SOL    HW2  924   2.940   0.971   4.353
    9SOL     OW  925   1.467   3.697   5.509
    9SOL    HW1  926   1.442   3.631   5.580
    9SOL    HW2  927   1.505   3.779   5.552
   10SOL     OW  928   1.026   4.059   7.009
   10SOL    HW1  929   1.038   4.099   0.086
   10SOL    HW2  930   0.929   4.063   6.984
   11SOL     OW  931   3.768   6.791   0.058
   11SOL    HW1  932   3.851   6.818   0.009
   11SOL    HW2  933   3.777   6.697   0.090
   12SOL     OW  934   5.518   6.225   2.529
   12SOL    HW1  935   5.461   6.257   2.453
   12SOL    HW2  936   5.477   6.256   2.615
   13SOL     OW  937   2.498   6.255   3.393
   13SOL    HW1  938   2.456   6.248   3.303
   13SOL    HW2  939   2.525   6.350   3.410
   14SOL     OW  940   3.554   6.273   0.672
   14SOL    HW1  941   3.642   6.231   0.691
   14SOL    HW2  942   3.568   6.368   0.643
   15SOL     OW  943   1.591   6.902   6.911
   15SOL    HW1  944   1.681   6.863   6.893
   15SOL    HW2  945   1.555   6.865   6.996
   16SOL     OW  946   6.164   2.356   6.008
   16SOL    HW1  947   6.097   2.343   6.082
   16SOL    HW2  948   6.256   2.350   6.046
   17SOL     OW  949   5.219   6.645   4.511
   17SOL    HW1  950   5.204   6.546   4.510
   17SOL    HW2  951   5.135   6.691   4.481
   18SOL     OW  952   1.877   1.908   5.924
   18SOL    HW1  953   1.876   1.974   5.849
   18SOL    HW2  954   1.804   1.930   5.989
   19SOL     OW  955   0.594   6.836   2.677
   19SOL    HW1  956   0.537   6.829   2.595
   19SOL    HW2  957   0.610   6.744   2.715
   20SOL     OW  958   3.322   1.796   3.684
   20SOL    HW1  959   3.362   1.779   3.594
   20SOL    HW2  960   3.358   1.882   3.720
   21SOL     OW  961   2.700   2.326   1.399
   21SOL    HW1  962   2.728   2.246   1.346
   21SOL    HW2  963   2.771   2.350   1.464
   22SOL     OW  964   1.532   6.296   5.840
   22SOL    HW1  965   1.605   6.307   5.907
   22SOL    HW2  966   1.551   6.353   5.760
   23SOL     OW  967   3.925   6.509   4.582
   23SOL    HW1  968   3.979   6.587   4.552
   23SOL    HW2  969   3.969   6.468   4.663
   24SOL     OW  970   4.822   1.158   5.090
   24SOL    HW1  971   4.765   1.239   5.098
   24SOL    HW2  972   4.915   1.184   5.064
   25SOL     OW  973   3.836   5.813   0.266
   25SOL    HW1  974   3.762   5.861   0.312
   25SOL    HW2  975   3.798   5.740   0.209
   26SOL     OW  976   6.493   1.543   2.334
   26SOL    HW1  977   6.472   1.455   2.377
   26SOL    HW2  978   6.591   1.550   2.318
   27SOL     OW  979   5.931   6.853   2.660
   27SOL    HW1  980   5.985   6.937   2.666
   27SOL    HW2  981   5.991   6.774   2.677
   28SOL     OW  982   3.772   0.619   0.263
   28SOL    HW1  983   3.802   0.714   0.266
   28SOL    HW2  984   3.852   0.559   0.264
   29SOL     OW  985   4.364   2.432   1.395
   29SOL    HW1  986   4.329   2.519   1.430
   29SOL    HW2  987   4.425   2.391   1.463
   30SOL     OW  988   3.425   1.075   4.741
   30SOL    HW1  989   3.397   0.996   4.795
   30SOL    HW2  990   3.350   1.103   4.681
   31SOL     OW  991   0.441   0.803   5.083
   31SOL    HW1  992   0.393   0.772   5.166
   31SOL    HW2  993   0.412   0.748   5.005
   32SOL     OW  994   6.960   1.901   0.970
   32SOL    HW1  995   0.039   1.877   0.943
   32SOL    HW2  996   6.939   1.860   1.059
   33SOL     OW  997   2.193   2.473   6.106
   33SOL    HW1  998   2.288   2.458   6.132
   33SOL    HW2  999   2.154   2.547   6.161
   34SOL     OW 1000   1.509   0.483   4.693
   34SOL    HW1 1001   1.595   0.514   4.652
   34SOL    HW2 1002   1.443   0.462   4.620
   35SOL     OW 1003   5.264   1.441   6.539
   35SOL    HW1 1004   5.206   1.377   6.589
   35SOL    HW2 1005   5.214   1.527   6.525
   36SOL     OW 1006   1.742   1.793   5.469
   36SOL    HW1 1007   1.786   1.733   5.403
   36SOL    HW2 1008   1.798   1.875   5.482
   37SOL     OW 1009   3.292   6.888   1.576
   37SOL    HW1 1010   3.243   6.961   1.623
   37SOL    HW2 1011   3.302   6.911   1.480
   38SOL     OW 1012   6.891   6.383   3.473
   38SOL    HW1 1013   6.905   6.461   3.413
   38SOL    HW2 1014   6.958   6.385   3.547
   39SOL     OW 1015   6.593   3.252   4.962
   39SOL    HW1 1016   6.534   3.224   5.038
   39SOL    HW2 1017   6.676   3.295   4.998
   40SOL     OW 1018   6.520   1.107   2.259
   40SOL    HW1 1019   6.596   1.062   2.212
   40SOL    HW2 1020   6.443   1.044   2.267
   41SOL     OW 1021   1.215   6.730   5.474
   41SOL    HW1 1022   1.296   6.757   5.422
   41SOL    HW2 1023   1.174   6.649   5.432
   42SOL     OW 1024   3.563   1.024   0.422
   42SOL    HW1 1025   3.581   0.931   0.455
   42SOL    HW2 1026   3.466   1.035   0.404
   43SOL     OW 1027   5.307   6.142   5.257
   43SOL    HW1 1028   5.404   6.127   5.235
   43SOL    HW2 1029   5.262   6.186   5.180
   44SOL     OW 1030   0.752   2.797   6.127
   44SOL    HW1 1031   0.712   2.721   6.179
   44SOL    HW2 1032   0.845   2.773   6.100
   45SOL     OW 1033   2.306   0.743   1.724
   45SOL    HW1 1034   2.406   0.734   1.713
   45SOL    HW2 1035   2.261   0.667   1.676
   46SOL     OW 1036   1.486   4.004   4.770
   46SOL    HW1 1037   1.428   4.066   4.717
   46SOL    HW2 1038   1.460   4.009   4.866
   47SOL     OW 1039   6.758   4.435   3.719
   47SOL    HW1 1040   6.718   4.418   3.809
   47SOL    HW2 1041   6.795   4.528   3.717
   48SOL     OW 1042   7.009   2.430   5.159
   48SOL    HW1 1043   0.031   2.405   5.069
   48SOL    HW2 1044   6.910   2.413   5.161
   49SOL     OW 1045   4.727   2.273   0.717
   49SOL    HW1 1046   4.714   2.264   0.816
   49SOL    HW2 1047   4.821   2.246   0.693
   50SOL     OW 1048   6.776   4.338   4.413
   50SOL    HW1 1049   6.869   4.308   4.396
   50SOL    HW2 1050   6.776   4.435   4.438
   51SOL     OW 1051   3.451   4.874   2.673
   51SOL    HW1 1052   3.479   4.872   2.577
   51SOL    HW2 1053   3.436   4.968   2.702
   52SOL     OW 1054   2.416   1.772   2.270
   52SOL    HW1 1055   2.503   1.822   2.268
   52SOL    HW2 1056   2.389   1.749   2.176
   53SOL     OW 1057   5.085   6.952   4.400
   53SOL    HW1 1058   5.079   6.858   4.366
   53SOL    HW2 1059   5.092   0.001   4.323
   54SOL     OW 1060   3.896   5.352   5.920
   54SOL    HW1 1061   3.815   5.346   5.977
   54SOL    HW2 1062   3.869   5.350   5.823
   55SOL     OW 1063   3.928   2.445   6.375
   55SOL    HW1 1064   3.963   2.494   6.455
   55SOL    HW2 1065   3.843   2.398   6.399
   56SOL     OW 1066   1.060   0.305   2.429
   56SOL    HW1 1067   1.049   0.369   2.505
   56SOL    HW2 1068   0.984   0.317   2.364
   57SOL     OW 1069   5.765   0.965   0.252
   57SOL    HW1 1070   5.818   0.998   0.173
   57SOL    HW2 1071   5.812   0.989   0.336
   58SOL     OW 1072   0.415   5.908   6.983
   58SOL    HW1 1073   0.334   5.966   6.996
   58SOL    HW2 1074   0.490   5.963   6.947
   59SOL     OW 1075   1.542   0.315   5.782
   59SOL    HW1 1076   1.630   0.272   5.800
   59SOL    HW2 1077   1.509   0.360   5.865
   60SOL     OW 1078   4.400   0.055   5.098
   60SOL    HW1 1079   4.404   0.152   5.123
   60SOL    HW2 1080   4.479   0.008   5.137
   61SOL     OW 1081   4.768   0.202   4.235
   61SOL    HW1 1082   4.693   0.181   4.297
   61SOL    HW2 1083   4.757   0.295   4.199
   62SOL     OW 1084   2.000   0.600   4.247
   62SOL    HW1 1085   1.977   0.646   4.332
   62SOL    HW2 1086   1.987   0.502   4.257
   63SOL     OW 1087   6.817   2.829   3.058
   63SOL    HW1 1088   6.876   2.879   3.121
   63SOL    HW2 1089   6.793   2.889   2.981
   64SOL     OW 1090   7.009   3.689   5.995
   64SOL    HW1 1091   0.041   3.737   6.070
   64SOL    HW2 1092   6.925   3.737   5.971
   65SOL     OW 1093   6.752   4.835   5.861
   65SOL    HW1 1094   6.697   4.912   5.829
   65SOL    HW2 1095   6.818   4.809   5.791
   66SOL     OW 1096   3.248   0.667   0.352
   66SOL    HW1 1097   3.180   0.703   0.288
   66SOL    HW2 1098   3.206   0.598   0.410
   67SOL     OW 1099   5.243   5.859   4.712
   67SOL    HW1 1100   5.195   5.873   4.799
   67SOL    HW2 1101   5.210   5.775   4.669
   68SOL     OW 1102   6.268   2.399   5.697
   68SOL    HW1 1103   6.175   2.412   5.664
   68SOL    HW2 1104   6.274   2.426   5.793
   69SOL     OW 1105   2.904   4.019   6.468
   69SOL    HW1 1106   2.893   3.920   6.454
   69SOL    HW2 1107   2.999   4.045   6.453
   70SOL     OW 1108   6.840   5.379   2.778
   70SOL    HW1 1109   6.869   5.468   2.743
   70SOL    HW2 1110   6.773   5.339   2.715
   71SOL     OW 1111   1.421   2.880   3.007
   71SOL    HW1 1112   1.502   2.834   2.970
   71SOL    HW2 1113   1.366   2.916   2.932
   72SOL     OW 1114   2.692   5.600   3.792
   72SOL    HW1 1115   2.723   5.684   3.837
   72SOL    HW2 1116   2.594   5.605   3.777
   73SOL     OW 1117   4.508   2.310   0.212
   73SOL    HW1 1118   4.425   2.342   0.167
   73SOL    HW2 1119   4.497   2.213   0.235
   74SOL     OW 1120   5.320   5.919   6.500
   74SOL    HW1 1121   5.319   5.828   6.541
   74SOL    HW2 1122   5.411   5.959   6.510
   75SOL     OW 1123   3.963   5.781   5.640
   75SOL    HW1 1124   3.985   5.695   5.594
   75SOL    HW2 1125   3.948   5.764   5.738
   76SOL     OW 1126   2.648   2.732   1.659
   76SOL    HW1 1127   2.704   2.671   1.715
   76SOL    HW2 1128   2.688   2.739   1.567
   77SOL     OW 1129   6.151   5.576   5.626
   77SOL    HW1 1130   6.234   5.525   5.603
   77SOL    HW2 1131   6.126   5.636   5.549
   78SOL     OW 1132   6.663   6.501   5.793
   78SOL    HW1 1133   6.737   6.455   5.843
   78SOL    HW2 1134   6.584   6.512   5.853
   79SOL     OW 1135   2.947   0.047   0.532
   79SOL    HW1 1136   2.999   0.078   0.612
   79SOL    HW2 1137   2.960   0.111   0.457
   80SOL     OW 1138   0.190   1.438   4.293
   80SOL    HW1 1139   0.244   1.516   4.263
   80SOL    HW2 1140   0.102   1.470   4.328
   81SOL     OW 1141   1.853   1.234   2.723
   81SOL    HW1 1142   1.763   1.199   2.750
   81SOL    HW2 1143   1.924   1.184   2.772
   82SOL     OW 1144   6.627   4.405   6.044
   82SOL    HW1 1145   6.697   4.467   6.078
   82SOL    HW2 1146   6.549   4.457   6.009
   83SOL     OW 1147   0.491   6.699   0.502
   83SOL    HW1 1148   0.395   6.680   0.484
   83SOL    HW2 1149   0.524   6.769   0.439
   84SOL     OW 1150   5.309   3.978   1.575
   84SOL    HW1 1151   5.359   3.891   1.575
   84SOL    HW2 1152   5.225   3.968   1.629
   85SOL     OW 1153   1.378   2.029   5.466
   85SOL    HW1 1154   1.398   1.943   5.513
   85SOL    HW2 1155   1.334   2.010   5.378
   86SOL     OW 1156   0.724   0.507   5.719
   86SOL    HW1 1157   0.732   0.602   5.689
   86SOL    HW2 1158   0.815   0.468   5.730
   87SOL     OW 1159   4.760   1.532   0.759
   87SOL    HW1 1160   4.748   1.476   0.677
   87SOL    HW2 1161   4.793   1.623   0.732
   88SOL     OW 1162   5.463   1.328   0.855
   88SOL    HW1 1163   5.536   1.328   0.923
   88SOL    HW2 1164   5.462   1.417   0.808
   89SOL     OW 1165   1.645   2.574   6.320
   89SOL    HW1 1166   1.576   2.594   6.250
   89SOL    HW2 1167   1.635   2.638   6.396
   90SOL     OW 1168   5.442   6.102   4.118
   90SOL    HW1 1169   5.363   6.116   4.178
   90SOL    HW2 1170   5.432   6.155   4.035
   91SOL     OW 1171   5.016   4.512   5.209
   91SOL    HW1 1172   5.029   4.451   5.131
   91SOL    HW2 1173   4.920   4.538   5.215
   92SOL     OW 1174   3.512   4.651   1.265
   92SOL    HW1 1175   3.548   4.723   1.325
   92SOL    HW2 1176   3.479   4.575   1.320
   93SOL     OW 1177   3.431   5.791   6.096
   93SOL    HW1 1178   3.489   5.778   6.016
   93SOL    HW2 1179   3.394   5.703   6.125
   94SOL     OW 1180   2.983   5.863   0.198
   94SOL    HW1 1181   2.958   5.865   0.102
   94SOL    HW2 1182   3.011   5.771   0.224
   95SOL     OW 1183   0.214   0.104   4.097
   95SOL    HW1 1184   0.305   0.124   4.132
   95SOL    HW2 1185   0.168   0.190   4.072
   96SOL     OW 1186   2.235   0.186   5.457
   96SOL    HW1 1187   2.290   0.265   5.486
   96SOL    HW2 1188   2.205   0.135   5.537
   97SOL     OW 1189   5.904   3.330   4.524
   97SOL    HW1 1190   5.891   3.302   4.620
   97SOL    HW2 1191   5.839   3.403   4.502
   98SOL     OW 1192   4.973   2.244   5.965
   98SOL    HW1 1193   5.012   2.331   5.936
   98SOL    HW2 1194   5.036   2.169   5.941
   99SOL     OW 1195   4.260   1.827   1.002
   99SOL    HW1 1196   4.214   1.916   0.998
   99SOL    HW2 1197   4.350   1.838   1.042
  100SOL     OW 1198   0.727   5.944   6.685
  100SOL    HW1 1199   0.651   5.920   6.623
  100SOL    HW2 1200   0.752   5.863   6.739
  101SOL     OW 1201   1.677   6.242   3.632
  101SOL    HW1 1202   1.720   6.257   3.721
  101SOL    HW2 1203   1.654   6.145   3.621
  102SOL     OW 1204   3.720   0.454   3.750
  102SOL    HW1 1205   3.759   0.544   3.768
  102SOL    HW2 1206   3.627   0.465   3.715
  103SOL     OW 1207   3.772   2.505   1.268
  103SOL    HW1 1208   3.762   2.584   1.328
  103SOL    HW2 1209   3.748   2.422   1.319
  104SOL     OW 1210   6.906   5.836   2.176
  104SOL    HW1 1211   6.954   5.859   2.261
  104SOL    HW2 1212   6.973   5.824   2.102
  105SOL     OW 1213   5.351   1.056   6.169
  105SOL    HW1 1214   5.372   1.097   6.080
  105SOL    HW2 1215   5.405   1.100   6.240
  106SOL     OW 1216   2.809   6.591   6.336
  106SOL    HW1 1217   2.889   6.534   6.315
  106SOL    HW2 1218   2.827   6.686   6.308
  107SOL     OW 1219   2.221   2.608   0.612
  107SOL    HW1 1220   2.151   2.668   0.649
  107SOL    HW2 1221   2.272   2.566   0.687
  108SOL     OW 1222   5.052   4.623   6.133
  108SOL    HW1 1223   5.108   4.660   6.059
  108SOL    HW2 1224   4.955   4.632   6.109
  109SOL     OW 1225   6.760   0.445   0.415
  109SOL    HW1 1226   6.749   0.486   0.325
  109SOL    HW2 1227   6.735   0.511   0.485
  110SOL     OW 1228   3.517   5.902   5.249
  110SOL    HW1 1229   3.590   5.942   5.306
  110SOL    HW2 1230   3.466   5.835   5.303
  111SOL     OW 1231   3.922   1.008   3.328
  111SOL    HW1 1232   3.870   1.013   3.413
  111SOL    HW2 1233   3.877   0.946   3.265
  112SOL     OW 1234   6.846   6.449   6.004
  112SOL    HW1 1235   6.781   6.437   6.078
  112SOL    HW2 1236   6.901   6.531   6.020
  113SOL     OW 1237   0.145   4.730   3.707
  113SOL    HW1 1238   0.175   4.817   3.745
  113SOL    HW2 1239   0.192   4.655   3.754
  114SOL     OW 1240   0.642   6.776   0.287
  114SOL    HW1 1241   0.688   6.737   0.207
  114SOL    HW2 1242   0.579   6.847   0.257
  115SOL     OW 1243   5.317   1.558   4.485
  115SOL    HW1 1244   5.260   1.480   4.510
  115SOL    HW2 1245   5.263   1.622   4.429
  116SOL     OW 1246   6.038   4.361   2.143
  116SOL    HW1 1247   6.086   4.391   2.061
  116SOL    HW2 1248   6.032   4.437   2.208
  117SOL     OW 1249   1.616   0.298   6.265
  117SOL    HW1 1250   1.669   0.340   6.192
  117SOL    HW2 1251   1.586   0.207   6.236
  118SOL     OW 1252   0.526   0.670   2.114
  118SOL    HW1 1253   0.585   0.734   2.162
  118SOL    HW2 1254   0.491   0.713   2.031
  119SOL     OW 1255   6.831   2.799   5.529
  119SOL    HW1 1256   6.818   2.889   5.571
  119SOL    HW2 1257   6.752   2.777   5.471
  120SOL     OW 1258   5.792   6.668   0.766
  120SOL    HW1 1259   5.818   6.764   0.768
  120SOL    HW2 1260   5.692   6.660   0.761
  121SOL     OW 1261   2.483   3.561   6.086
  121SOL    HW1 1262   2.454   3.652   6.112
  121SOL    HW2 1263   2.512   3.561   5.990
  122SOL     OW 1264   0.711   3.524   4.454
  122SOL    HW1 1265   0.731   3.594   4.523
  122SOL    HW2 1266   0.796   3.498   4.408
  123SOL     OW 1267   0.486   1.766   1.300
  123SOL    HW1 1268   0.404   1.709   1.308
  123SOL    HW2 1269   0.545   1.731   1.227
  124SOL     OW 1270   4.489   3.280   0.676
  124SOL    HW1 1271   4.411   3.228   0.710
  124SOL    HW2 1272   4.550   3.220   0.625
  125SOL     OW 1273   1.708   2.205   1.851
  125SOL    HW1 1274   1.737   2.300   1.838
  125SOL    HW2 1275   1.778   2.154   1.900
  126SOL     OW 1276   3.061   4.742   1.336
  126SOL    HW1 1277   2.969   4.706   1.354
  126SOL    HW2 1278   3.064   4.783   1.245
  127SOL     OW 1279   0.120   5.639   5.836
  127SOL    HW1 1280   0.079   5.715   5.786
  127SOL    HW2 1281   0.176   5.585   5.774
  128SOL     OW 1282   4.796   2.730   1.400
  128SOL    HW1 1283   4.813   2.668   1.324
  128SOL    HW2 1284   4.749   2.680   1.474
  129SOL     OW 1285   3.158   3.626   6.763
  129SOL    HW1 1286   3.069   3.669   6.748
  129SOL    HW2 1287   3.216   3.640   6.683
  130SOL     OW 1288   1.194   1.039   4.553
  130SOL    HW1 1289   1.287   1.011   4.578
  130SOL    HW2 1290   1.181   1.027   4.455
  131SOL     OW 1291   4.850   1.720   2.919
  131SOL    HW1 1292   4.871   1.814   2.894
  131SOL    HW2 1293   4.872   1.704   3.015
  132SOL     OW 1294   1.288   2.597   1.819
  132SOL    HW1 1295   1.339   2.642   1.892
  132SOL    HW2 1296   1.340   2.520   1.784
  133SOL     OW 1297   6.415   5.956   2.670
  133SOL    HW1 1298   6.390   5.860   2.656
  133SOL    HW2 1299   6.495   5.977   2.615
  134SOL     OW 1300   0.049   3.770   2.977
  134SOL    HW1 1301   6.966   3.792   2.975
  134SOL    HW2 1302   0.099   3.840   3.029
  135SOL     OW 1303   4.898   1.838   3.977
  135SOL    HW1 1304   4.851   1.792   3.902
  135SOL    HW2 1305   4.835   1.848   4.054
  136SOL     OW 1306   5.059   4.020   5.609
  136SOL    HW1 1307   5.159   4.012   5.603
  136SOL    HW2 1308   5.029   4.091   5.545
  137SOL     OW 1309   4.300   7.013   5.892
  137SOL    HW1 1310   4.364   6.954   5.843
  137SOL    HW2 1311   4.234   0.039   5.828
  138SOL     OW 1312   6.918   5.275   4.837
  138SOL    HW1 1313   6.853   5.217   4.787
  138SOL    HW2 1314   6.994   5.299   4.776
  139SOL     OW 1315   2.915   5.019   5.235
  139SOL    HW1 1316   2.840   4.981   5.182
  139SOL    HW2 1317   2.989   5.047   5.173
  140SOL     OW 1318   5.646   5.091   4.767
  140SOL    HW1 1319   5.711   5.078   4.692
  140SOL    HW2 1320   5.695   5.095   4.854
  141SOL     OW 1321   1.480   1.979   4.464
  141SOL    HW1 1322   1.383   1.998   4.452
  141SOL    HW2 1323   1.500   1.966   4.561
  142SOL     OW 1324   1.526   5.964   1.374
  142SOL    HW1 1325   1.439   5.999   1.409
  142SOL    HW2 1326   1.581   6.040   1.340
  143SOL     OW 1327   5.368   4.480   2.422
  143SOL    HW1 1328   5.384   4.478   2.324
  143SOL    HW2 1329   5.272   4.464   2.441
  144SOL     OW 1330   2.017   6.596   6.985
  144SOL    HW1 1331   2.039   6.661   0.043
  144SOL    HW2 1332   2.086   6.601   6.912
  145SOL     OW 1333   0.138   5.953   0.820
  145SOL    HW1 1334   0.108   5.860   0.799
  145SOL    HW2 1335   0.234   5.964   0.793
  146SOL     OW 1336   5.446   6.086   1.025
  146SOL    HW1 1337   5.368   6.075   1.088
  146SOL    HW2 1338   5.428   6.163   0.964
  147SOL     OW 1339   6.865   2.516   0.848
  147SOL    HW1 1340   6.803   2.592   0.861
  147SOL    HW2 1341   6.950   2.548   0.805
  148SOL     OW 1342   1.203   5.212   5.747
  148SOL    HW1 1343   1.142   5.276   5.794
  148SOL    HW2 1344   1.213   5.129   5.802
  149SOL     OW 1345   3.139   1.177   4.625
  149SOL    HW1 1346   3.145   1.202   4.721
  149SOL    HW2 1347   3.106   1.083   4.618
  150SOL     OW 1348   0.243   5.084   6.956
  150SOL    HW1 1349   0.315   5.033   7.003
  150SOL    HW2 1350   0.260   5.081   6.857
  151SOL     OW 1351   3.916   1.765   1.537
  151SOL    HW1 1352   3.900   1.771   1.635
  151SOL    HW2 1353   3.957   1.676   1.516
  152SOL     OW 1354   3.013   0.647   4.350
  152SOL    HW1 1355   2.992   0.662   4.253
  152SOL    HW2 1356   3.095   0.590   4.358
  153SOL     OW 1357   2.022   1.099   2.960
  153SOL    HW1 1358   1.973   1.157   3.024
  153SOL    HW2 1359   1.970   1.015   2.943
  154SOL     OW 1360   6.535   2.436   1.887
  154SOL    HW1 1361   6.512   2.348   1.846
  154SOL    HW2 1362   6.515   2.434   1.985
  155SOL     OW 1363   6.937   0.601   2.663
  155SOL    HW1 1364   0.022   0.613   2.654
  155SOL    HW2 1365   6.908   0.631   2.754
  156SOL     OW 1366   6.104   2.112   0.582
  156SOL    HW1 1367   6.203   2.108   0.570
  156SOL    HW2 1368   6.081   2.091   0.677
  157SOL     OW 1369   5.998   3.521   2.589
  157SOL    HW1 1370   5.983   3.618   2.568
  157SOL    HW2 1371   6.066   3.513   2.662
  158SOL     OW 1372   2.559   0.894   2.932
  158SOL    HW1 1373   2.656   0.874   2.919
  158SOL    HW2 1374   2.525   0.944   2.852
  159SOL     OW 1375   4.768   4.097   1.993
  159SOL    HW1 1376   4.682   4.148   1.990
  159SOL    HW2 1377   4.784   4.063   2.086
  160SOL     OW 1378   6.434   4.100   5.788
  160SOL    HW1 1379   6.501   4.045   5.738
  160SOL    HW2 1380   6.366   4.136   5.724
  161SOL     OW 1381   1.915   4.926   5.114
  161SOL    HW1 1382   1.922   4.934   5.213
  161SOL    HW2 1383   1.845   4.989   5.080
  162SOL     OW 1384   4.531   5.635   0.935
  162SOL    HW1 1385   4.530   5.712   0.999
  162SOL    HW2 1386   4.478   5.559   0.972
  163SOL     OW 1387   4.767   0.249   1.910
  163SOL    HW1 1388   4.732   0.304   1.834
  163SOL    HW2 1389   4.690   0.218   1.967
  164SOL     OW 1390   6.043   3.530   1.075
  164SOL    HW1 1391   6.010   3.572   0.991
  164SOL    HW2 1392   5.979   3.460   1.105
  165SOL     OW 1393   4.716   3.016   6.596
  165SOL    HW1 1394   4.764   3.028   6.683
  165SOL    HW2 1395   4.691   3.105   6.559
  166SOL     OW 1396   0.401   6.837   2.471
  166SOL    HW1 1397   0.308   6.809   2.495
  166SOL    HW2 1398   0.415   6.823   2.373
  167SOL     OW 1399   6.413   2.783   0.012
  167SOL    HW1 1400   6.375   2.856   0.069
  167SOL    HW2 1401   6.438   2.820   6.937
  168SOL     OW 1402   2.313   5.127   0.928
  168SOL    HW1 1403   2.356   5.175   1.004
  168SOL    HW2 1404   2.353   5.159   0.842
  169SOL     OW 1405   2.089   0.037   1.819
  169SOL    HW1 1406   2.102   7.012   1.727
  169SOL    HW2 1407   2.167   0.012   1.876
  170SOL     OW 1408   0.178   1.619   3.310
  170SOL    HW1 1409   0.256   1.587   3.363
  170SOL    HW2 1410   0.189   1.593   3.214
  171SOL     OW 1411   3.797   3.845   0.242
  171SOL    HW1 1412   3.700   3.866   0.252
  171SOL    HW2 1413   3.842   3.848   0.332
  172SOL     OW 1414   6.708   2.453   5.108
  172SOL    HW1 1415   6.655   2.460   5.024
  172SOL    HW2 1416   6.658   2.399   5.175
  173SOL     OW 1417   0.227   6.900   4.859
  173SOL    HW1 1418   0.179   6.860   4.937
  173SOL    HW2 1419   0.322   6.920   4.884
  174SOL     OW 1420   2.574   5.197   3.639
  174SOL    HW1 1421   2.569   5.110   3.590
  174SOL    HW2 1422   2.484   5.219   3.678
  175SOL     OW 1423   1.858   5.572   2.634
  175SOL    HW1 1424   1.819   5.625   2.559
  175SOL    HW2 1425   1.793   5.501   2.663
  176SOL     OW 1426   1.942   4.101   1.089
  176SOL    HW1 1427   1.993   4.168   1.036
  176SOL    HW2 1428   2.001   4.062   1.159
  177SOL     OW 1429   4.938   2.108   2.325
  177SOL    HW1 1430   4.999   2.032   2.301
  177SOL    HW2 1431   4.862   2.112   2.260
  178SOL     OW 1432   5.203   4.900   6.776
  178SOL    HW1 1433   5.176   4.967   6.708
  178SOL    HW2 1434   5.130   4.833   6.788
  179SOL     OW 1435   3.119   0.168   0.708
  179SOL    HW1 1436   3.179   0.105   0.758
  179SOL    HW2 1437   3.163   0.258   0.702
  180SOL     OW 1438   0.394   1.372   6.649
  180SOL    HW1 1439   0.394   1.327   6.560
  180SOL    HW2 1440   0.486   1.403   6.671
  181SOL     OW 1441   3.718   3.025   5.620
  181SOL    HW1 1442   3.738   3.098   5.554
  181SOL    HW2 1443   3.732   3.060   5.713
  182SOL     OW 1444   3.960   2.153   4.755
  182SOL    HW1 1445   3.986   2.067   4.797
  182SOL    HW2 1446   3.862   2.168   4.767
  183SOL     OW 1447   4.949   1.518   1.624
  183SOL    HW1 1448   5.032   1.465   1.642
  183SOL    HW2 1449   4.935   1.583   1.698
  184SOL     OW 1450   0.518   4.950   3.086
  184SOL    HW1 1451   0.577   4.975   3.162
  184SOL    HW2 1452   0.468   4.866   3.108
  185SOL     OW 1453   1.757   3.592   5.858
  185SOL    HW1 1454   1.765   3.680   5.811
  185SOL    HW2 1455   1.813   3.593   5.941
  186SOL     OW 1456   5.447   0.190   3.364
  186SOL    HW1 1457   5.394   0.208   3.281
  186SOL    HW2 1458   5.526   0.252   3.366
  187SOL     OW 1459   5.548   1.004   4.138
  187SOL    HW1 1460   5.599   0.930   4.181
  187SOL    HW2 1461   5.562   1.089   4.190
  188SOL     OW 1462   5.999   2.413   3.428
  188SOL    HW1 1463   5.922   2.425   3.366
  188SOL    HW2 1464   5.964   2.397   3.521
  189SOL     OW 1465   1.888   4.494   2.473
  189SOL    HW1 1466   1.957   4.478   2.402
  189SOL    HW2 1467   1.918   4.452   2.559
  190SOL     OW 1468   3.863   1.068   5.610
  190SOL    HW1 1469   3.772   1.093   5.576
  190SOL    HW2 1470   3.922   1.045   5.533
  191SOL     OW 1471   5.774   5.372   6.645
  191SOL    HW1 1472   5.821   5.402   6.728
  191SOL    HW2 1473   5.676   5.373   6.660
  192SOL     OW 1474   6.764   0.710   2.085
  192SOL    HW1 1475   6.697   0.716   2.159
  192SOL    HW2 1476   6.753   0.623   2.037
  193SOL     OW 1477   5.488   3.912   6.909
  193SOL    HW1 1478   5.549   3.983   6.943
  193SOL    HW2 1479   5.393   3.944   6.917
  194SOL     OW 1480   3.413   0.543   3.801
  194SOL    HW1 1481   3.421   0.629   3.751
  194SOL    HW2 1482   3.343   0.486   3.757
  195SOL     OW 1483   1.041   5.791   3.189
  195SOL    HW1 1484   0.974   5.762   3.121
  195SOL    HW2 1485   1.009   5.873   3.236
  196SOL     OW 1486   1.326   1.787   0.232
  196SOL    HW1 1487   1.292   1.704   0.187
  196SOL    HW2 1488   1.253   1.855   0.235
  197SOL     OW 1489   1.563   0.982   1.019
  197SOL    HW1 1490   1.511   0.897   1.012
  197SOL    HW2 1491   1.660   0.962   1.018
  198SOL     OW 1492   3.388   2.103   3.608
  198SOL    HW1 1493   3.335   2.088   3.525
  198SOL    HW2 1494   3.339   2.166   3.668
  199SOL     OW 1495   1.326   2.633   3.655
  199SOL    HW1 1496   1.254   2.645   3.587
  199SOL    HW2 1497   1.300   2.561   3.719
  200SOL     OW 1498   0.164   2.858   0.489
  200SOL    HW1 1499   0.167   2.896   0.397
  200SOL    HW2 1500   0.248   2.807   0.508
  201SOL     OW 1501   0.606   0.889   6.358
  201SOL    HW1 1502   0.649   0.802   6.333
  201SOL    HW2 1503   0.511   0.872   6.385
  202SOL     OW 1504   4.631   6.981   6.863
  202SOL    HW1 1505   4.669   0.058   6.852
  202SOL    HW2 1506   4.557   6.968   6.797
  203SOL     OW 1507   5.788   2.871   5.691
  203SOL    HW1 1508   5.720   2.941   5.672
  203SOL    HW2 1509   5.784   2.800   5.621
  204SOL     OW 1510   6.520   1.125   5.832
  204SOL    HW1 1511   6.436   1.179   5.843
  204SOL    HW2 1512   6.496   1.028   5.825
  205SOL     OW 1513   0.817   2.939   2.191
  205SOL    HW1 1514   0.882   2.963   2.119
  205SOL    HW2 1515   0.730   2.911   2.151
  206SOL     OW 1516   0.673   2.975   0.779
  206SOL    HW1 1517   0.635   2.946   0.867
  206SOL    HW2 1518   0.625   3.057   0.747
  207SOL     OW 1519   5.187   2.199   3.692
  207SOL    HW1 1520   5.224   2.270   3.752
  207SOL    HW2 1521   5.117   2.148   3.741
  208SOL     OW 1522   1.102   4.047   4.393
  208SOL    HW1 1523   1.123   4.141   4.367
  208SOL    HW2 1524   1.094   3.991   4.310
  209SOL     OW 1525   6.582   4.132   2.630
  209SOL    HW1 1526   6.591   4.047   2.684
  209SOL    HW2 1527   6.615   4.209   2.685
  210SOL     OW 1528   5.300   2.663   0.381
  210SOL    HW1 1529   5.205   2.692   0.393
  210SOL    HW2 1530   5.308   2.609   0.297
  211SOL     OW 1531   0.139   0.977   3.520
  211SOL    HW1 1532   0.196   0.931   3.588
  211SOL    HW2 1533   0.176   1.068   3.502
  212SOL     OW 1534   2.080   3.577   3.168
  212SOL    HW1 1535   2.127   3.652   3.212
  212SOL    HW2 1536   2.035   3.520   3.237
  213SOL     OW 1537   1.863   4.911   1.125
  213SOL    HW1 1538   1.771   4.917   1.163
  213SOL    HW2 1539   1.915   4.993   1.150
  214SOL     OW 1540   3.986   6.087   2.552
  214SOL    HW1 1541   3.895   6.055   2.527
  214SOL    HW2 1542   4.039   6.012   2.590
  215SOL     OW 1543   2.469   4.739   2.315
  215SOL    HW1 1544   2.529   4.701   2.245
  215SOL    HW2 1545   2.515   4.813   2.363
  216SOL     OW 1546   1.148   0.044   2.495
  216SOL    HW1 1547   1.208   0.041   2.416
  216SOL    HW2 1548   1.112   0.137   2.507
  217SOL     OW 1549   1.643   4.270   6.011
  217SOL    HW1 1550   1.611   4.357   6.049
  217SOL    HW2 1551   1.566   4.208   5.999
  218SOL     OW 1552   0.715   2.343   5.018
  218SOL    HW1 1553   0.758   2.341   5.108
  218SOL    HW2 1554   0.745   2.264   4.965
  219SOL     OW 1555   3.966   1.729   0.740
  219SOL    HW1 1556   4.038   1.796   0.725
  219SOL    HW2 1557   3.946   1.722   0.838
  220SOL     OW 1558   3.168   6.742   0.898
  220SOL    HW1 1559   3.083   6.699   0.869
  220SOL    HW2 1560   3.234   6.671   0.923
  221SOL     OW 1561   4.911   6.042   1.390
  221SOL    HW1 1562   4.904   5.995   1.478
  221SOL    HW2 1563   4.955   6.130   1.403
  222SOL     OW 1564   2.214   4.592   6.130
  222SOL    HW1 1565   2.122   4.630   6.123
  222SOL    HW2 1566   2.229   4.525   6.058
  223SOL     OW 1567   6.321   2.483   5.232
  223SOL    HW1 1568   6.357   2.453   5.320
  223SOL    HW2 1569   6.395   2.520   5.176
  224SOL     OW 1570   2.383   1.856   5.861
  224SOL    HW1 1571   2.286   1.877   5.846
  224SOL    HW2 1572   2.439   1.922   5.811
  225SOL     OW 1573   4.685   5.047   6.374
  225SOL    HW1 1574   4.776   5.049   6.416
  225SOL    HW2 1575   4.667   4.956   6.339
  226SOL     OW 1576   1.145   2.054   6.779
  226SOL    HW1 1577   1.104   1.987   6.840
  226SOL    HW2 1578   1.105   2.144   6.796
  227SOL     OW 1579   1.288   3.860   2.211
  227SOL    HW1 1580   1.188   3.848   2.216
  227SOL    HW2 1581   1.330   3.778   2.173
  228SOL     OW 1582   1.749   6.964   2.464
  228SOL    HW1 1583   1.742   6.991   2.368
  228SOL    HW2 1584   1.719   0.027   2.522
  229SOL     OW 1585   4.903   5.426   6.367
  229SOL    HW1 1586   4.982   5.442   6.308
  229SOL    HW2 1587   4.887   5.328   6.376
  230SOL     OW 1588   4.693   5.848   5.441
  230SOL    HW1 1589   4.639   5.886   5.366
  230SOL    HW2 1590   4.746   5.921   5.484
  231SOL     OW 1591   5.213   1.214   0.028
  231SOL    HW1 1592   5.253   1.131   7.003
  231SOL    HW2 1593   5.259   1.295   7.004
  232SOL     OW 1594   1.727   2.893   5.695
  232SOL    HW1 1595   1.791   2.970   5.704
  232SOL    HW2 1596   1.736   2.834   5.775
  233SOL     OW 1597   2.543   1.276   3.246
  233SOL    HW1 1598   2.467   1.221   3.283
  233SOL    HW2 1599   2.511   1.370   3.232
  234SOL     OW 1600   4.661   1.383   6.417
  234SOL    HW1 1601   4.704   1.296   6.443
  234SOL    HW2 1602   4.716   1.428   6.347
  235SOL     OW 1603   4.633   2.563   2.115
  235SOL    HW1 1604   4.697   2.626   2.159
  235SOL    HW2 1605   4.652   2.469   2.145
  236SOL     OW 1606   4.396   4.342   6.380
  236SOL    HW1 1607   4.466   4.320   6.312
  236SOL    HW2 1608   4.336   4.414   6.344
  237SOL     OW 1609   6.217   3.952   2.805
  237SOL    HW1 1610   6.172   4.040   2.825
  237SOL    HW2 1611   6.237   3.906   2.892
  238SOL     OW 1612   6.559   1.398   0.320
  238SOL    HW1 1613   6.513   1.487   0.314
  238SOL    HW2 1614   6.655   1.408   0.294
  239SOL     OW 1615   0.676   3.744   0.196
  239SOL    HW1 1616   0.727   3.828   0.215
  239SOL    HW2 1617   0.725   3.666   0.235
  240SOL     OW 1618   6.096   2.712   3.177
  240SOL    HW1 1619   6.061   2.804   3.189
  240SOL    HW2 1620   6.185   2.703   3.223
  241SOL     OW 1621   2.822   1.331   3.673
  241SOL    HW1 1622   2.762   1.404   3.641
  241SOL    HW2 1623   2.914   1.344   3.635
  242SOL     OW 1624   3.728   3.471   3.441
  242SOL    HW1 1625   3.787   3.487   3.520
  242SOL    HW2 1626   3.781   3.486   3.357
  243SOL     OW 1627   4.769   2.508   6.054
  243SOL    HW1 1628   4.735   2.443   6.122
  243SOL    HW2 1629   4.857   2.478   6.018
  244SOL     OW 1630   5.672   3.818   5.509
  244SOL    HW1 1631   5.745   3.761   5.472
  244SOL    HW2 1632   5.625   3.865   5.433
  245SOL     OW 1633   3.606   2.031   2.350
  245SOL    HW1 1634   3.632   1.951   2.405
  245SOL    HW2 1635   3.683   2.094   2.345
  246SOL     OW 1636   6.227   1.199   3.172
  246SOL    HW1 1637   6.277   1.279   3.206
  246SOL    HW2 1638   6.249   1.120   3.228
  247SOL     OW 1639   2.213   1.309   1.020
  247SOL    HW1 1640   2.207   1.407   0.997
  247SOL    HW2 1641   2.249   1.259   0.942
  248SOL     OW 1642   1.585   1.907   2.073
  248SOL    HW1 1643   1.568   1.987   2.131
  248SOL    HW2 1644   1.498   1.867   2.046
  249SOL     OW 1645   5.871   6.508   4.968
  249SOL    HW1 1646   5.797   6.460   5.015
  249SOL    HW2 1647   5.855   6.505   4.869
  250SOL     OW 1648   3.211   2.578   1.223
  250SOL    HW1 1649   3.290   2.614   1.173
  250SOL    HW2 1650   3.209   2.478   1.213
  251SOL     OW 1651   4.300   3.910   5.944
  251SOL    HW1 1652   4.286   3.916   5.846
  251SOL    HW2 1653   4.245   3.978   5.991
  252SOL     OW 1654   6.237   6.204   5.828
  252SOL    HW1 1655   6.283   6.289   5.802
  252SOL    HW2 1656   6.289   6.126   5.794
  253SOL     OW 1657   4.496   5.552   6.125
  253SOL    HW1 1658   4.550   5.480   6.080
  253SOL    HW2 1659   4.554   5.600   6.190
  254SOL     OW 1660   6.028   2.822   4.613
  254SOL    HW1 1661   6.022   2.739   4.668
  254SOL    HW2 1662   6.070   2.801   4.525
  255SOL     OW 1663   1.958   4.675   5.729
  255SOL    HW1 1664   1.917   4.758   5.767
  255SOL    HW2 1665   2.003   4.624   5.802
  256SOL     OW 1666   4.981   2.903   4.830
  256SOL    HW1 1667   5.069   2.949   4.835
  256SOL    HW2 1668   4.995   2.804   4.827
  257SOL     OW 1669   4.950   5.983   3.077
  257SOL    HW1 1670   4.910   5.954   2.990
  257SOL    HW2 1671   4.902   5.938   3.152
  258SOL     OW 1672   2.159   3.877   6.073
  258SOL    HW1 1673   2.248   3.902   6.112
  258SOL    HW2 1674   2.166   3.787   6.029
  259SOL     OW 1675   3.991   0.127   3.642
  259SOL    HW1 1676   3.957   0.041   3.681
  259SOL    HW2 1677   3.914   0.184   3.616
  260SOL     OW 1678   3.880   5.324   3.230
  260SOL    HW1 1679   3.924   5.315   3.319
  260SOL    HW2 1680   3.820   5.404   3.231
  261SOL     OW 1681   4.411   4.676   0.374
  261SOL    HW1 1682   4.457   4.734   0.441
  261SOL    HW2 1683   4.322   4.648   0.410
  262SOL     OW 1684   2.052   4.072   0.139
  262SOL    HW1 1685   2.063   4.167   0.111
  262SOL    HW2 1686   2.142   4.031   0.152
  263SOL     OW 1687   1.222   6.648   4.191
  263SOL    HW1 1688   1.200   6.560   4.151
  263SOL    HW2 1689   1.319   6.652   4.213
  264SOL     OW 1690   0.149   3.264   0.062
  264SOL    HW1 1691   0.165   3.358   0.031
  264SOL    HW2 1692   0.181   3.255   0.157
  265SOL     OW 1693   6.475   0.149   4.268
  265SOL    HW1 1694   6.441   0.069   4.318
  265SOL    HW2 1695   6.554   0.187   4.316
  266SOL     OW 1696   4.177   1.374   5.364
  266SOL    HW1 1697   4.234   1.395   5.285
  266SOL    HW2 1698   4.103   1.442   5.370
  267SOL     OW 1699   1.565   0.905   5.308
  267SOL    HW1 1700   1.599   0.816   5.339
  267SOL    HW2 1701   1.622   0.938   5.232
  268SOL     OW 1702   3.519   1.512   0.922
  268SOL    HW1 1703   3.446   1.443   0.914
  268SOL    HW2 1704   3.596   1.473   0.972
  269SOL     OW 1705   4.152   1.873   6.983
  269SOL    HW1 1706   4.123   1.947   0.030
  269SOL    HW2 1707   4.105   1.883   6.895
  270SOL     OW 1708   6.644   0.073   0.306
  270SOL    HW1 1709   6.713   0.003   0.294
  270SOL    HW2 1710   6.653   0.115   0.396
  271SOL     OW 1711   0.127   2.453   5.536
  271SOL    HW1 1712   0.167   2.486   5.450
  271SOL    HW2 1713   0.035   2.492   5.546
  272SOL     OW 1714   3.037   6.228   3.748
  272SOL    HW1 1715   3.130   6.262   3.739
  272SOL    HW2 1716   3.011   6.181   3.663
  273SOL     OW 1717   1.689   5.350   5.430
  273SOL    HW1 1718   1.783   5.377   5.409
  273SOL    HW2 1719   1.682   5.250   5.430
  274SOL     OW 1720   4.420   1.031   3.854
  274SOL    HW1 1721   4.511   0.990   3.857
  274SOL    HW2 1722   4.420   1.107   3.789
  275SOL     OW 1723   6.951   6.590   2.591
  275SOL    HW1 1724   6.954   6.490   2.592
  275SOL    HW2 1725   0.006   6.626   2.654
  276SOL     OW 1726   0.301   0.192   4.742
  276SOL    HW1 1727   0.254   0.139   4.671
  276SOL    HW2 1728   0.234   0.247   4.792
  277SOL     OW 1729   2.213   3.217   0.477
  277SOL    HW1 1730   2.291   3.156   0.491
  277SOL    HW2 1731   2.172   3.199   0.388
  278SOL     OW 1732   0.369   2.187   2.594
  278SOL    HW1 1733   0.283   2.181   2.542
  278SOL    HW2 1734   0.429   2.253   2.550
  279SOL     OW 1735   5.875   2.686   4.109
  279SOL    HW1 1736   5.816   2.625   4.056
  279SOL    HW2 1737   5.921   2.750   4.047
  280SOL     OW 1738   1.683   4.585   2.006
  280SOL    HW1 1739   1.608   4.583   2.071
  280SOL    HW2 1740   1.740   4.503   2.018
  281SOL     OW 1741   2.267   3.826   0.682
  281SOL    HW1 1742   2.315   3.741   0.659
  281SOL    HW2 1743   2.174   3.822   0.645
  282SOL     OW 1744   3.425   1.691   6.164
  282SOL    HW1 1745   3.429   1.637   6.080
  282SOL    HW2 1746   3.335   1.735   6.170
  283SOL     OW 1747   4.890   2.940   5.952
  283SOL    HW1 1748   4.831   2.881   6.007
  283SOL    HW2 1749   4.982   2.900   5.948
  284SOL     OW 1750   0.715   3.414   3.836
  284SOL    HW1 1751   0.650   3.459   3.897
  284SOL    HW2 1752   0.808   3.431   3.869
  285SOL     OW 1753   5.629   4.499   4.365
  285SOL    HW1 1754   5.584   4.414   4.394
  285SOL    HW2 1755   5.719   4.506   4.410
  286SOL     OW 1756   3.466   3.466   6.740
  286SOL    HW1 1757   3.386   3.412   6.764
  286SOL    HW2 1758   3.536   3.457   6.812
  287SOL     OW 1759   2.056   3.629   0.246
  287SOL    HW1 1760   1.996   3.632   0.326
  287SOL    HW2 1761   2.148   3.600   0.274
  288SOL     OW 1762   5.055   1.804   0.005
  288SOL    HW1 1763   5.054   1.831   6.923
  288SOL    HW2 1764   5.139   1.754   0.025
  289SOL     OW 1765   2.817   4.883   6.155
  289SOL    HW1 1766   2.835   4.874   6.058
  289SOL    HW2 1767   2.719   4.874   6.172
  290SOL     OW 1768   0.166   1.941   5.413
  290SOL    HW1 1769   0.260   1.917   5.439
  290SOL    HW2 1770   0.158   2.040   5.404
  291SOL     OW 1771   6.969   2.059   2.806
  291SOL    HW1 1772   6.952   2.152   2.841
  291SOL    HW2 1773   6.943   2.055   2.710
  292SOL     OW 1774   1.887   0.416   3.193
  292SOL    HW1 1775   1.822   0.468   3.248
  292SOL    HW2 1776   1.878   0.442   3.097
  293SOL     OW 1777   3.958   5.420   3.769
  293SOL    HW1 1778   3.946   5.407   3.670
  293SOL    HW2 1779   3.868   5.421   3.813
  294SOL     OW 1780   4.401   6.045   6.272
  294SOL    HW1 1781   4.352   6.132   6.268
  294SOL    HW2 1782   4.499   6.063   6.276
  295SOL     OW 1783   5.136   0.613   4.663
  295SOL    HW1 1784   5.223   0.622   4.616
  295SOL    HW2 1785   5.139   0.665   4.749
  296SOL     OW 1786   2.429   2.245   4.066
  296SOL    HW1 1787   2.385   2.169   4.019
  296SOL    HW2 1788   2.511   2.212   4.113
  297SOL     OW 1789   1.439   4.172   3.188
  297SOL    HW1 1790   1.462   4.107   3.260
  297SOL    HW2 1791   1.520   4.190   3.132
  298SOL     OW 1792   6.313   5.386   1.056
  298SOL    HW1 1793   6.243   5.454   1.077
  298SOL    HW2 1794   6.270   5.304   1.018
  299SOL     OW 1795   6.624   2.512   4.398
  299SOL    HW1 1796   6.691   2.540   4.329
  299SOL    HW2 1797   6.651   2.424   4.437
  300SOL     OW 1798   6.070   0.067   2.668
  300SOL    HW1 1799   6.139   0.138   2.681
  300SOL    HW2 1800   5.980   0.103   2.691
  301SOL     OW 1801   5.623   4.036   6.245
  301SOL    HW1 1802   5.542   3.986   6.275
  301SOL    HW2 1803   5.596   4.126   6.211
  302SOL     OW 1804   0.913   6.570   3.380
  302SOL    HW1 1805   0.974   6.496   3.351
  302SOL    HW2 1806   0.955   6.658   3.360
  303SOL     OW 1807   5.424   0.625   3.964
  303SOL    HW1 1808   5.487   0.592   4.034
  303SOL    HW2 1809   5.374   0.548   3.926
  304SOL     OW 1810   3.182   0.128   3.402
  304SOL    HW1 1811   3.228   0.065   3.340
  304SOL    HW2 1812   3.184   0.221   3.364
  305SOL     OW 1813   1.338   3.547   1.209
  305SOL    HW1 1814   1.424   3.567   1.256
  305SOL    HW2 1815   1.330   3.604   1.127
  306SOL     OW 1816   2.402   0.251   3.585
  306SOL    HW1 1817   2.339   0.243   3.663
  306SOL    HW2 1818   2.354   0.222   3.502
  307SOL     OW 1819   3.637   0.391   1.292
  307SOL    HW1 1820   3.647   0.291   1.286
  307SOL    HW2 1821   3.725   0.431   1.317
  308SOL     OW 1822   0.794   5.552   4.352
  308SOL    HW1 1823   0.837   5.629   4.398
  308SOL    HW2 1824   0.794   5.472   4.412
  309SOL     OW 1825   4.218   5.226   5.231
  309SOL    HW1 1826   4.267   5.311   5.217
  309SOL    HW2 1827   4.243   5.160   5.160
  310SOL     OW 1828   0.255   6.622   6.365
  310SOL    HW1 1829   0.214   6.612   6.456
  310SOL    HW2 1830   0.351   6.595   6.369
  311SOL     OW 1831   0.475   0.345   1.137
  311SOL    HW1 1832   0.551   0.409   1.146
  311SOL    HW2 1833   0.443   0.318   1.228
  312SOL     OW 1834   4.219   1.942   4.869
  312SOL    HW1 1835   4.157   1.970   4.942
  312SOL    HW2 1836   4.303   1.995   4.875
  313SOL     OW 1837   1.000   3.898   1.335
  313SOL    HW1 1838   0.948   3.857   1.411
  313SOL    HW2 1839   1.008   3.832   1.261
  314SOL     OW 1840   3.879   6.421   0.915
  314SOL    HW1 1841   3.951   6.387   0.975
  314SOL    HW2 1842   3.839   6.504   0.954
  315SOL     OW 1843   0.836   2.851   3.294
  315SOL    HW1 1844   0.828   2.850   3.394
  315SOL    HW2 1845   0.745   2.837   3.254
  316SOL     OW 1846   2.905   2.223   4.119
  316SOL    HW1 1847   2.974   2.194   4.186
  316SOL    HW2 1848   2.827   2.262   4.167
  317SOL     OW 1849   6.877   1.908   6.796
  317SOL    HW1 1850   6.849   1.820   6.834
  317SOL    HW2 1851   6.953   1.944   6.849
  318SOL     OW 1852   2.657   5.091   0.809
  318SOL    HW1 1853   2.723   5.138   0.750
  318SOL    HW2 1854   2.565   5.127   0.791
  319SOL     OW 1855   1.250   6.640   0.275
  319SOL    HW1 1856   1.236   6.715   0.340
  319SOL    HW2 1857   1.166   6.585   0.270
  320SOL     OW 1858   5.592   3.652   0.644
  320SOL    HW1 1859   5.556   3.724   0.584
  320SOL    HW2 1860   5.679   3.619   0.607
  321SOL     OW 1861   2.024   1.526   0.761
  321SOL    HW1 1862   1.995   1.498   0.669
  321SOL    HW2 1863   2.001   1.622   0.775
  322SOL     OW 1864   3.559   2.853   4.567
  322SOL    HW1 1865   3.506   2.833   4.649
  322SOL    HW2 1866   3.632   2.918   4.589
  323SOL     OW 1867   0.609   4.875   1.840
  323SOL    HW1 1868   0.536   4.841   1.899
  323SOL    HW2 1869   0.645   4.800   1.785
  324SOL     OW 1870   0.891   3.049   4.744
  324SOL    HW1 1871   0.822   3.020   4.678
  324SOL    HW2 1872   0.930   3.136   4.716
  325SOL     OW 1873   2.187   3.117   2.622
  325SOL    HW1 1874   2.182   3.018   2.633
  325SOL    HW2 1875   2.214   3.138   2.528
  326SOL     OW 1876   1.930   4.648   6.124
  326SOL    HW1 1877   1.884   4.618   6.040
  326SOL    HW2 1878   1.883   4.610   6.203
  327SOL     OW 1879   6.404   5.224   5.488
  327SOL    HW1 1880   6.492   5.180   5.469
  327SOL    HW2 1881   6.332   5.176   5.439
  328SOL     OW 1882   3.195   5.879   2.048
  328SOL    HW1 1883   3.098   5.862   2.030
  328SOL    HW2 1884   3.249   5.798   2.025
  329SOL     OW 1885   3.257   3.303   2.536
  329SOL    HW1 1886   3.184   3.236   2.520
  329SOL    HW2 1887   3.277   3.307   2.634
  330SOL     OW 1888   3.728   0.663   1.541
  330SOL    HW1 1889   3.765   0.682   1.632
  330SOL    HW2 1890   3.645   0.717   1.527
  331SOL     OW 1891   4.947   5.155   6.372
  331SOL    HW1 1892   4.944   5.175   6.274
  331SOL    HW2 1893   5.032   5.107   6.394
  332SOL     OW 1894   4.060   1.734   3.042
  332SOL    HW1 1895   4.068   1.680   3.126
  332SOL    HW2 1896   3.988   1.695   2.985
  333SOL     OW 1897   3.604   6.069   6.392
  333SOL    HW1 1898   3.613   6.130   6.314
  333SOL    HW2 1899   3.686   6.012   6.399
  334SOL     OW 1900   4.382   6.854   2.583
  334SOL    HW1 1901   4.392   6.811   2.493
  334SOL    HW2 1902   4.349   6.948   2.573
  335SOL     OW 1903   3.119   6.833   3.580
  335SOL    HW1 1904   3.195   6.891   3.607
  335SOL    HW2 1905   3.044   6.890   3.546
  336SOL     OW 1906   3.096   0.904   4.616
  336SOL    HW1 1907   3.089   0.804   4.626
  336SOL    HW2 1908   3.016   0.947   4.658
  337SOL     OW 1909   6.772   3.973   1.245
  337SOL    HW1 1910   6.801   4.044   1.309
  337SOL    HW2 1911   6.686   4.001   1.202
  338SOL     OW 1912   3.526   2.734   1.183
  338SOL    HW1 1913   3.573   2.677   1.117
  338SOL    HW2 1914   3.593   2.781   1.241
  339SOL     OW 1915   4.285   6.581   3.267
  339SOL    HW1 1916   4.248   6.672   3.285
  339SOL    HW2 1917   4.377   6.590   3.229
  340SOL     OW 1918   4.803   4.029   4.357
  340SOL    HW1 1919   4.853   3.968   4.418
  340SOL    HW2 1920   4.805   3.993   4.264
  341SOL     OW 1921   5.573   5.486   4.928
  341SOL    HW1 1922   5.568   5.451   4.835
  341SOL    HW2 1923   5.668   5.509   4.950
  342SOL     OW 1924   6.311   4.006   0.790
  342SOL    HW1 1925   6.234   4.047   0.839
  342SOL    HW2 1926   6.347   3.929   0.844
  343SOL     OW 1927   3.394   0.427   2.898
  343SOL    HW1 1928   3.374   0.336   2.934
  343SOL    HW2 1929   3.374   0.496   2.969
  344SOL     OW 1930   3.049   5.160   0.291
  344SOL    HW1 1931   3.098   5.240   0.326
  344SOL    HW2 1932   2.952   5.182   0.284
  345SOL     OW 1933   0.514   6.966   5.412
  345SOL    HW1 1934   0.598   6.912   5.411
  345SOL    HW2 1935   0.535   0.045   5.383
  346SOL     OW 1936   1.506   6.963   3.378
  346SOL    HW1 1937   1.418   6.956   3.425
  346SOL    HW2 1938   1.508   6.897   3.302
  347SOL     OW 1939   5.046   6.421   6.465
  347SOL    HW1 1940   5.066   6.458   6.374
  347SOL    HW2 1941   5.065   6.322   6.465
  348SOL     OW 1942   3.548   5.873   2.205
  348SOL    HW1 1943   3.610   5.947   2.231
  348SOL    HW2 1944   3.477   5.863   2.274
  349SOL     OW 1945   1.419   5.112   2.127
  349SOL    HW1 1946   1.375   5.113   2.037
  349SOL    HW2 1947   1.509   5.156   2.121
  350SOL     OW 1948   4.928   3.126   0.858
  350SOL    HW1 1949   4.861   3.195   0.832
  350SOL    HW2 1950   4.909   3.094   0.950
  351SOL     OW 1951   3.325   2.181   0.366
  351SOL    HW1 1952   3.366   2.213   0.281
  351SOL    HW2 1953   3.229   2.208   0.368
  352SOL     OW 1954   3.163   1.092   6.541
  352SOL    HW1 1955   3.169   0.997   6.510
  352SOL    HW2 1956   3.114   1.097   6.627
  353SOL     OW 1957   2.494   6.563   0.969
  353SOL    HW1 1958   2.540   6.626   1.031
  353SOL    HW2 1959   2.554   6.542   0.892
  354SOL     OW 1960   4.470   1.250   1.741
  354SOL    HW1 1961   4.554   1.250   1.686
  354SOL    HW2 1962   4.484   1.304   1.823
  355SOL     OW 1963   0.546   2.480   1.919
  355SOL    HW1 1964   0.500   2.413   1.977
  355SOL    HW2 1965   0.480   2.520   1.855
  356SOL     OW 1966   4.211   5.436   3.332
  356SOL    HW1 1967   4.290   5.381   3.306
  356SOL    HW2 1968   4.165   5.471   3.250
  357SOL     OW 1969   1.002   5.003   5.380
  357SOL    HW1 1970   0.999   5.057   5.295
  357SOL    HW2 1971   0.965   5.057   5.455
  358SOL     OW 1972   5.656   0.767   1.621
  358SOL    HW1 1973   5.569   0.780   1.572
  358SOL    HW2 1974   5.724   0.729   1.558
  359SOL     OW 1975   1.074   1.379   1.937
  359SOL    HW1 1976   0.978   1.350   1.933
  359SOL    HW2 1977   1.080   1.476   1.917
  360SOL     OW 1978   4.126   6.610   0.930
  360SOL    HW1 1979   4.074   6.646   0.853
  360SOL    HW2 1980   4.201   6.554   0.897
  361SOL     OW 1981   4.501   0.322   3.057
  361SOL    HW1 1982   4.414   0.272   3.060
  361SOL    HW2 1983   4.506   0.384   3.134
  362SOL     OW 1984   2.390   3.268   1.107
  362SOL    HW1 1985   2.420   3.301   1.196
  362SOL    HW2 1986   2.445   3.188   1.081
  363SOL     OW 1987   4.750   4.973   4.464
  363SOL    HW1 1988   4.797   5.060   4.482
  363SOL    HW2 1989   4.738   4.961   4.366
  364SOL     OW 1990   1.601   5.219   5.800
  364SOL    HW1 1991   1.511   5.261   5.797
  364SOL    HW2 1992   1.616   5.177   5.889
  365SOL     OW 1993   4.442   6.237   2.904
  365SOL    HW1 1994   4.384   6.157   2.887
  365SOL    HW2 1995   4.514   6.241   2.835
  366SOL     OW 1996   5.678   0.379   6.882
  366SOL    HW1 1997   5.773   0.402   6.904
  366SOL    HW2 1998   5.617   0.412   6.955
  367SOL     OW 1999   5.142   2.920   1.083
  367SOL    HW1 2000   5.201   2.903   1.004
  367SOL    HW2 2001   5.048   2.933   1.051
  368SOL     OW 2002   1.243   4.891   5.398
  368SOL    HW1 2003   1.152   4.928   5.415
  368SOL    HW2 2004   1.244   4.846   5.308
  369SOL     OW 2005   0.552   3.843   1.738
  369SOL    HW1 2006   0.592   3.752   1.754
  369SOL    HW2 2007   0.457   3.832   1.709
  370SOL     OW 2008   3.897   1.265   6.456
  370SOL    HW1 2009   3.890   1.251   6.555
  370SOL    HW2 2010   3.992   1.252   6.427
  371SOL     OW 2011   4.167   2.900   6.408
  371SOL    HW1 2012   4.081   2.945   6.382
  371SOL    HW2 2013   4.233   2.969   6.438
  372SOL     OW 2014   1.388   5.420   5.771
  372SOL    HW1 2015   1.315   5.359   5.738
  372SOL    HW2 2016   1.428   5.467   5.693
  373SOL     OW 2017   6.790   6.760   0.522
  373SOL    HW1 2018   6.719   6.712   0.470
  373SOL    HW2 2019   6.749   6.806   0.601
  374SOL     OW 2020   3.547   0.899   1.538
  374SOL    HW1 2021   3.506   0.824   1.590
  374SOL    HW2 2022   3.546   0.983   1.593
  375SOL     OW 2023   0.040   4.819   2.608
  375SOL    HW1 2024   0.099   4.777   2.677
  375SOL    HW2 2025   0.096   4.862   2.538
  376SOL     OW 2026   2.273   2.466   4.120
  376SOL    HW1 2027   2.324   2.386   4.086
  376SOL    HW2 2028   2.312   2.549   4.080
  377SOL     OW 2029   5.021   1.979   3.762
  377SOL    HW1 2030   4.993   1.937   3.848
  377SOL    HW2 2031   5.102   1.932   3.726
  378SOL     OW 2032   5.278   2.434   4.385
  378SOL    HW1 2033   5.276   2.424   4.485
  378SOL    HW2 2034   5.294   2.345   4.343
  379SOL     OW 2035   6.730   3.700   1.213
  379SOL    HW1 2036   6.803   3.633   1.229
  379SOL    HW2 2037   6.769   3.792   1.209
  380SOL     OW 2038   1.019   2.210   0.353
  380SOL    HW1 2039   1.042   2.253   0.440
  380SOL    HW2 2040   1.034   2.111   0.359
  381SOL     OW 2041   3.244   3.991   0.355
  381SOL    HW1 2042   3.240   3.909   0.298
  381SOL    HW2 2043   3.336   4.030   0.350
  382SOL     OW 2044   2.249   5.515   1.030
  382SOL    HW1 2045   2.287   5.423   1.022
  382SOL    HW2 2046   2.216   5.545   0.940
  383SOL     OW 2047   6.420   2.466   6.704
  383SOL    HW1 2048   6.500   2.450   6.761
  383SOL    HW2 2049   6.348   2.509   6.758
  384SOL     OW 2050   1.871   5.543   4.943
  384SOL    HW1 2051   1.841   5.635   4.970
  384SOL    HW2 2052   1.801   5.501   4.886
  385SOL     OW 2053   5.121   5.796   0.905
  385SOL    HW1 2054   5.023   5.802   0.927
  385SOL    HW2 2055   5.159   5.888   0.894
  386SOL     OW 2056   3.242   6.341   5.231
  386SOL    HW1 2057   3.210   6.411   5.295
  386SOL    HW2 2058   3.341   6.348   5.220
  387SOL     OW 2059   6.994   0.326   5.680
  387SOL    HW1 2060   0.066   0.313   5.728
  387SOL    HW2 2061   6.938   0.392   5.729
  388SOL     OW 2062   6.864   2.120   5.197
  388SOL    HW1 2063   6.880   2.024   5.173
  388SOL    HW2 2064   6.889   2.178   5.119
  389SOL     OW 2065   3.965   4.613   1.440
  389SOL    HW1 2066   4.027   4.539   1.412
  389SOL    HW2 2067   3.943   4.603   1.537
  390SOL     OW 2068   4.366   2.626   0.356
  390SOL    HW1 2069   4.316   2.692   0.412
  390SOL    HW2 2070   4.459   2.660   0.339
  391SOL     OW 2071   3.994   3.842   4.209
  391SOL    HW1 2072   3.990   3.937   4.240
  391SOL    HW2 2073   3.907   3.818   4.166
  392SOL     OW 2074   1.182   3.676   1.888
  392SOL    HW1 2075   1.117   3.646   1.957
  392SOL    HW2 2076   1.221   3.765   1.913
  393SOL     OW 2077   1.108   4.796   1.458
  393SOL    HW1 2078   1.143   4.764   1.546
  393SOL    HW2 2079   1.051   4.725   1.417
  394SOL     OW 2080   6.273   1.299   6.206
  394SOL    HW1 2081   6.327   1.313   6.290
  394SOL    HW2 2082   6.231   1.208   6.209
  395SOL     OW 2083   5.919   5.106   0.964
  395SOL    HW1 2084   5.841   5.135   1.020
  395SOL    HW2 2085   5.895   5.115   0.867
  396SOL     OW 2086   1.611   0.152   1.405
  396SOL    HW1 2087   1.561   0.176   1.322
  396SOL    HW2 2088   1.556   0.178   1.485
  397SOL     OW 2089   3.983   2.162   5.443
  397SOL    HW1 2090   3.970   2.241   5.502
  397SOL    HW2 2091   4.014   2.084   5.498
  398SOL     OW 2092   1.334   0.855   3.618
  398SOL    HW1 2093   1.264   0.909   3.571
  398SOL    HW2 2094   1.418   0.908   3.625
  399SOL     OW 2095   5.658   6.063   4.289
  399SOL    HW1 2096   5.598   6.096   4.217
  399SOL    HW2 2097   5.740   6.021   4.249
  400SOL     OW 2098   5.850   0.133   4.268
  400SOL    HW1 2099   5.774   0.080   4.306
  400SOL    HW2 2100   5.889   0.083   4.190
  401SOL     OW 2101   0.559   5.528   5.719
  401SOL    HW1 2102   0.587   5.598   5.653
  401SOL    HW2 2103   0.623   5.451   5.714
  402SOL     OW 2104   5.557   1.340   3.462
  402SOL    HW1 2105   5.623   1.328   3.536
  402SOL    HW2 2106   5.526   1.435   3.460
  403SOL     OW 2107   2.946   1.019   5.121
  403SOL    HW1 2108   2.879   1.075   5.072
  403SOL    HW2 2109   2.994   1.076   5.187
  404SOL     OW 2110   3.541   5.278   2.892
  404SOL    HW1 2111   3.629   5.238   2.919
  404SOL    HW2 2112   3.491   5.307   2.974
  405SOL     OW 2113   2.334   4.810   4.244
  405SOL    HW1 2114   2.374   4.837   4.156
  405SOL    HW2 2115   2.408   4.791   4.309
  406SOL     OW 2116   0.090   6.484   6.187
  406SOL    HW1 2117   0.048   6.395   6.204
  406SOL    HW2 2118   0.140   6.513   6.268
  407SOL     OW 2119   2.221   2.905   4.169
  407SOL    HW1 2120   2.186   2.888   4.077
  407SOL    HW2 2121   2.183   2.991   4.203
  408SOL     OW 2122   1.968   1.383   3.434
  408SOL    HW1 2123   1.888   1.323   3.443
  408SOL    HW2 2124   1.985   1.430   3.521
  409SOL     OW 2125   0.329   3.549   2.596
  409SOL    HW1 2126   0.380   3.632   2.576
  409SOL    HW2 2127   0.258   3.569   2.665
  410SOL     OW 2128   1.637   1.644   1.579
  410SOL    HW1 2129   1.713   1.636   1.515
  410SOL    HW2 2130   1.624   1.740   1.604
  411SOL     OW 2131   6.941   2.619   1.632
  411SOL    HW1 2132   0.004   2.561   1.607
  411SOL    HW2 2133   6.975   2.700   1.681
  412SOL     OW 2134   1.443   4.923   2.333
  412SOL    HW1 2135   1.447   4.958   2.239
  412SOL    HW2 2136   1.356   4.950   2.374
  413SOL     OW 2137   6.018   6.215   2.512
  413SOL    HW1 2138   6.055   6.306   2.491
  413SOL    HW2 2139   5.922   6.210   2.484
  414SOL     OW 2140   1.690   6.588   2.853
  414SOL    HW1 2141   1.728   6.669   2.809
  414SOL    HW2 2142   1.732   6.506   2.814
  415SOL     OW 2143   6.272   1.153   6.940
  415SOL    HW1 2144   6.363   1.128   6.972
  415SOL    HW2 2145   6.245   1.241   6.980
  416SOL     OW 2146   5.898   3.696   5.815
  416SOL    HW1 2147   5.964   3.642   5.866
  416SOL    HW2 2148   5.943   3.739   5.736
  417SOL     OW 2149   1.912   2.118   6.330
  417SOL    HW1 2150   1.830   2.061   6.336
  417SOL    HW2 2151   1.932   2.139   6.234
  418SOL     OW 2152   3.838   0.333   4.707
  418SOL    HW1 2153   3.816   0.239   4.731
  418SOL    HW2 2154   3.924   0.335   4.656
  419SOL     OW 2155   6.672   0.228   0.563
  419SOL    HW1 2156   6.720   0.307   0.526
  419SOL    HW2 2157   6.738   0.164   0.603
  420SOL     OW 2158   4.019   0.470   0.219
  420SOL    HW1 2159   4.077   0.540   0.261
  420SOL    HW2 2160   4.076   0.395   0.186
  421SOL     OW 2161   4.739   4.343   2.193
  421SOL    HW1 2162   4.703   4.310   2.106
  421SOL    HW2 2163   4.675   4.322   2.267
  422SOL     OW 2164   5.474   2.823   2.003
  422SOL    HW1 2165   5.459   2.725   2.016
  422SOL    HW2 2166   5.405   2.859   1.940
  423SOL     OW 2167   3.084   0.786   6.140
  423SOL    HW1 2168   3.014   0.853   6.117
  423SOL    HW2 2169   3.156   0.829   6.195
  424SOL     OW 2170   1.263   3.567   3.867
  424SOL    HW1 2171   1.333   3.500   3.892
  424SOL    HW2 2172   1.268   3.584   3.768
  425SOL     OW 2173   3.435   1.045   6.771
  425SOL    HW1 2174   3.393   1.112   6.710
  425SOL    HW2 2175   3.375   1.029   6.849
  426SOL     OW 2176   2.960   1.962   3.991
  426SOL    HW1 2177   2.951   2.032   4.062
  426SOL    HW2 2178   2.991   1.877   4.033
  427SOL     OW 2179   4.212   2.252   3.054
  427SOL    HW1 2180   4.135   2.270   3.115
  427SOL    HW2 2181   4.227   2.153   3.046
  428SOL     OW 2182   2.689   1.932   5.877
  428SOL    HW1 2183   2.715   1.983   5.795
  428SOL    HW2 2184   2.651   1.843   5.851
  429SOL     OW 2185   6.788   5.762   4.383
  429SOL    HW1 2186   6.759   5.758   4.288
  429SOL    HW2 2187   6.787   5.669   4.422
  430SOL     OW 2188   1.771   0.122   4.257
  430SOL    HW1 2189   1.750   0.035   4.302
  430SOL    HW2 2190   1.784   0.106   4.159
  431SOL     OW 2191   2.340   1.757   2.018
  431SOL    HW1 2192   2.372   1.776   1.925
  431SOL    HW2 2193   2.280   1.677   2.017
  432SOL     OW 2194   4.534   1.806   1.285
  432SOL    HW1 2195   4.441   1.817   1.319
  432SOL    HW2 2196   4.536   1.819   1.186
  433SOL     OW 2197   1.738   4.647   0.727
  433SOL    HW1 2198   1.649   4.622   0.687
  433SOL    HW2 2199   1.727   4.658   0.825
  434SOL     OW 2200   5.165   4.957   3.518
  434SOL    HW1 2201   5.119   4.901   3.587
  434SOL    HW2 2202   5.239   5.009   3.560
  435SOL     OW 2203   3.696   2.754   5.832
  435SOL    HW1 2204   3.689   2.799   5.920
  435SOL    HW2 2205   3.664   2.659   5.840
  436SOL     OW 2206   5.001   6.490   2.875
  436SOL    HW1 2207   4.968   6.412   2.822
  436SOL    HW2 2208   5.097   6.506   2.853
  437SOL     OW 2209   6.743   0.702   4.839
  437SOL    HW1 2210   6.742   0.779   4.903
  437SOL    HW2 2211   6.652   0.687   4.802
  438SOL     OW 2212   0.826   4.961   2.388
  438SOL    HW1 2213   0.776   5.014   2.457
  438SOL    HW2 2214   0.796   4.989   2.297
  439SOL     OW 2215   0.166   0.780   4.752
  439SOL    HW1 2216   0.105   0.718   4.704
  439SOL    HW2 2217   0.147   0.874   4.724
  440SOL     OW 2218   3.992   1.347   0.472
  440SOL    HW1 2219   4.048   1.399   0.536
  440SOL    HW2 2220   3.899   1.383   0.472
  441SOL     OW 2221   0.708   4.693   2.104
  441SOL    HW1 2222   0.735   4.789   2.116
  441SOL    HW2 2223   0.787   4.639   2.075
  442SOL     OW 2224   4.708   3.137   5.506
  442SOL    HW1 2225   4.759   3.203   5.561
  442SOL    HW2 2226   4.679   3.180   5.420
  443SOL     OW 2227   5.165   2.952   2.436
  443SOL    HW1 2228   5.189   2.969   2.532
  443SOL    HW2 2229   5.201   3.026   2.379
  444SOL     OW 2230   4.669   1.717   1.882
  444SOL    HW1 2231   4.745   1.751   1.937
  444SOL    HW2 2232   4.669   1.764   1.793
  445SOL     OW 2233   1.820   5.028   2.401
  445SOL    HW1 2234   1.849   4.935   2.427
  445SOL    HW2 2235   1.740   5.053   2.455
  446SOL     OW 2236   5.817   0.210   1.540
  446SOL    HW1 2237   5.747   0.172   1.601
  446SOL    HW2 2238   5.805   0.173   1.448
  447SOL     OW 2239   6.013   4.510   1.005
  447SOL    HW1 2240   6.048   4.427   1.049
  447SOL    HW2 2241   6.065   4.527   0.921
  448SOL     OW 2242   3.447   6.676   3.833
  448SOL    HW1 2243   3.361   6.644   3.794
  448SOL    HW2 2244   3.435   6.696   3.930
  449SOL     OW 2245   1.745   4.069   4.703
  449SOL    HW1 2246   1.659   4.021   4.718
  449SOL    HW2 2247   1.738   4.162   4.738
  450SOL     OW 2248   6.731   4.459   3.431
  450SOL    HW1 2249   6.634   4.464   3.407
  450SOL    HW2 2250   6.740   4.454   3.531
  451SOL     OW 2251   0.936   1.857   0.825
  451SOL    HW1 2252   0.940   1.819   0.918
  451SOL    HW2 2253   0.962   1.786   0.759
  452SOL     OW 2254   4.911   5.332   2.977
  452SOL    HW1 2255   4.966   5.271   2.920
  452SOL    HW2 2256   4.962   5.353   3.061
  453SOL     OW 2257   3.257   0.967   6.964
  453SOL    HW1 2258   3.273   0.985   0.047
  453SOL    HW2 2259   3.204   0.883   6.954
  454SOL     OW 2260   6.859   3.243   5.868
  454SOL    HW1 2261   6.860   3.156   5.917
  454SOL    HW2 2262   6.936   3.246   5.803
  455SOL     OW 2263   5.407   5.023   6.029
  455SOL    HW1 2264   5.310   5.043   6.045
  455SOL    HW2 2265   5.435   4.945   6.086
  456SOL     OW 2266   2.584   1.069   2.368
  456SOL    HW1 2267   2.490   1.078   2.335
  456SOL    HW2 2268   2.583   1.032   2.461
  457SOL     OW 2269   2.602   6.355   0.071
  457SOL    HW1 2270   2.541   6.414   0.019
  457SOL    HW2 2271   2.693   6.395   0.075
  458SOL     OW 2272   3.746   1.295   2.694
  458SOL    HW1 2273   3.718   1.330   2.604
  458SOL    HW2 2274   3.820   1.351   2.731
  459SOL     OW 2275   3.203   0.430   3.403
  459SOL    HW1 2276   3.289   0.433   3.351
  459SOL    HW2 2277   3.132   0.479   3.352
  460SOL     OW 2278   0.738   1.779   6.434
  460SOL    HW1 2279   0.775   1.719   6.505
  460SOL    HW2 2280   0.731   1.872   6.469
  461SOL     OW 2281   1.289   5.544   5.401
  461SOL    HW1 2282   1.248   5.580   5.317
  461SOL    HW2 2283   1.282   5.445   5.402
  462SOL     OW 2284   3.598   4.197   4.762
  462SOL    HW1 2285   3.511   4.245   4.748
  462SOL    HW2 2286   3.608   4.174   4.859
  463SOL     OW 2287   5.194   6.060   4.313
  463SOL    HW1 2288   5.227   6.087   4.404
  463SOL    HW2 2289   5.094   6.053   4.316
  464SOL     OW 2290   3.517   5.231   6.166
  464SOL    HW1 2291   3.589   5.162   6.172
  464SOL    HW2 2292   3.429   5.186   6.149
  465SOL     OW 2293   0.706   4.174   0.824
  465SOL    HW1 2294   0.701   4.153   0.922
  465SOL    HW2 2295   0.744   4.095   0.775
  466SOL     OW 2296   4.078   5.225   4.139
  466SOL    HW1 2297   4.136   5.237   4.059
  466SOL    HW2 2298   4.075   5.129   4.164
  467SOL     OW 2299   6.292   0.240   2.686
  467SOL    HW1 2300   6.245   0.311   2.738
  467SOL    HW2 2301   6.370   0.206   2.739
  468SOL     OW 2302   2.625   5.831   6.410
  468SOL    HW1 2303   2.617   5.896   6.485
  468SOL    HW2 2304   2.552   5.763   6.417
  469SOL     OW 2305   2.897   4.810   4.831
  469SOL    HW1 2306   2.879   4.749   4.909
  469SOL    HW2 2307   2.888   4.759   4.746
  470SOL     OW 2308   2.200   4.785   2.399
  470SOL    HW1 2309   2.276   4.745   2.347
  470SOL    HW2 2310   2.235   4.818   2.488
  471SOL     OW 2311   1.644   2.229   4.096
  471SOL    HW1 2312   1.664   2.182   4.011
  471SOL    HW2 2313   1.623   2.325   4.077
  472SOL     OW 2314   5.190   3.565   6.379
  472SOL    HW1 2315   5.143   3.627   6.316
  472SOL    HW2 2316   5.153   3.473   6.369
  473SOL     OW 2317   6.083   3.105   2.334
  473SOL    HW1 2318   6.099   3.199   2.365
  473SOL    HW2 2319   6.161   3.073   2.280
  474SOL     OW 2320   4.739   5.847   4.391
  474SOL    HW1 2321   4.824   5.814   4.431
  474SOL    HW2 2322   4.661   5.805   4.438
  475SOL     OW 2323   5.590   1.798   0.534
  475SOL    HW1 2324   5.644   1.714   0.527
  475SOL    HW2 2325   5.635   1.862   0.596
  476SOL     OW 2326   1.148   4.180   6.774
  476SOL    HW1 2327   1.118   4.143   6.861
  476SOL    HW2 2328   1.238   4.143   6.751
  477SOL     OW 2329   1.580   4.779   3.598
  477SOL    HW1 2330   1.626   4.834   3.667
  477SOL    HW2 2331   1.569   4.833   3.514
  478SOL     OW 2332   5.199   6.173   2.831
  478SOL    HW1 2333   5.129   6.192   2.900
  478SOL    HW2 2334   5.166   6.103   2.768
  479SOL     OW 2335   3.515   4.008   3.149
  479SOL    HW1 2336   3.432   4.050   3.187
  479SOL    HW2 2337   3.538   4.053   3.063
  480SOL     OW 2338   1.202   1.201   2.721
  480SOL    HW1 2339   1.209   1.132   2.648
  480SOL    HW2 2340   1.164   1.285   2.683
  481SOL     OW 2341   6.807   0.353   0.839
  481SOL    HW1 2342   6.804   0.265   0.790
  481SOL    HW2 2343   6.901   0.385   0.843
  482SOL     OW 2344   4.335   4.848   2.330
  482SOL    HW1 2345   4.407   4.856   2.261
  482SOL    HW2 2346   4.288   4.760   2.318
  483SOL     OW 2347   5.859   2.248   4.188
  483SOL    HW1 2348   5.773   2.212   4.225
  483SOL    HW2 2349   5.852   2.253   4.088
  484SOL     OW 2350   2.616   4.610   3.556
  484SOL    HW1 2351   2.616   4.576   3.650
  484SOL    HW2 2352   2.551   4.558   3.502
  485SOL     OW 2353   5.763   2.780   1.600
  485SOL    HW1 2354   5.854   2.819   1.591
  485SOL    HW2 2355   5.737   2.734   1.515
  486SOL     OW 2356   6.006   6.380   5.826
  486SOL    HW1 2357   6.000   6.409   5.730
  486SOL    HW2 2358   6.082   6.317   5.838
  487SOL     OW 2359   0.230   0.294   6.276
  487SOL    HW1 2360   0.145   0.271   6.229
  487SOL    HW2 2361   0.301   0.227   6.252
  488SOL     OW 2362   2.343   5.522   3.454
  488SOL    HW1 2363   2.436   5.556   3.464
  488SOL    HW2 2364   2.278   5.595   3.473
  489SOL     OW 2365   2.009   5.673   5.789
  489SOL    HW1 2366   2.043   5.739   5.722
  489SOL    HW2 2367   2.080   5.606   5.810
  490SOL     OW 2368   0.894   4.033   4.790
  490SOL    HW1 2369   0.886   3.992   4.699
  490SOL    HW2 2370   0.990   4.051   4.810
  491SOL     OW 2371   6.920   2.885   0.598
  491SOL    HW1 2372   6.894   2.790   0.580
  491SOL    HW2 2373   6.960   2.925   0.515
  492SOL     OW 2374   1.243   3.158   5.329
  492SOL    HW1 2375   1.219   3.067   5.362
  492SOL    HW2 2376   1.188   3.181   5.249
  493SOL     OW 2377   1.720   5.120   4.601
  493SOL    HW1 2378   1.806   5.070   4.586
  493SOL    HW2 2379   1.715   5.198   4.538
  494SOL     OW 2380   2.406   6.415   4.080
  494SOL    HW1 2381   2.380   6.489   4.018
  494SOL    HW2 2382   2.407   6.449   4.174
  495SOL     OW 2383   3.925   4.220   6.353
  495SOL    HW1 2384   3.889   4.167   6.429
  495SOL    HW2 2385   3.909   4.172   6.267
  496SOL     OW 2386   4.981   1.519   3.484
  496SOL    HW1 2387   4.913   1.459   3.441
  496SOL    HW2 2388   5.036   1.467   3.549
  497SOL     OW 2389   4.894   1.561   0.008
  497SOL    HW1 2390   4.824   1.549   0.078
  497SOL    HW2 2391   4.969   1.615   0.045
  498SOL     OW 2392   0.134   0.467   1.331
  498SOL    HW1 2393   0.184   0.549   1.305
  498SOL    HW2 2394   0.186   0.417   1.400
  499SOL     OW 2395   2.500   5.775   0.413
  499SOL    HW1 2396   2.565   5.714   0.367
  499SOL    HW2 2397   2.425   5.721   0.451
  500SOL     OW 2398   5.439   1.745   6.447
  500SOL    HW1 2399   5.518   1.684   6.455
  500SOL    HW2 2400   5.420   1.787   6.535
  501SOL     OW 2401   1.319   0.998   4.869
  501SOL    HW1 2402   1.394   0.979   4.806
  501SOL    HW2 2403   1.336   0.951   4.956
  502SOL     OW 2404   2.430   4.398   0.061
  502SOL    HW1 2405   2.530   4.401   0.051
  502SOL    HW2 2406   2.400   4.303   0.066
  503SOL     OW 2407   3.881   5.669   0.768
  503SOL    HW1 2408   3.873   5.696   0.673
  503SOL    HW2 2409   3.850   5.574   0.779
  504SOL     OW 2410   6.367   5.891   1.453
  504SOL    HW1 2411   6.292   5.910   1.516
  504SOL    HW2 2412   6.374   5.963   1.385
  505SOL     OW 2413   5.197   5.751   5.390
  505SOL    HW1 2414   5.230   5.692   5.464
  505SOL    HW2 2415   5.272   5.774   5.328
  506SOL     OW 2416   3.492   4.948   3.347
  506SOL    HW1 2417   3.518   5.044   3.338
  506SOL    HW2 2418   3.393   4.939   3.338
  507SOL     OW 2419   3.086   0.955   1.466
  507SOL    HW1 2420   3.174   0.910   1.452
  507SOL    HW2 2421   3.077   1.031   1.402
  508SOL     OW 2422   0.422   4.708   3.205
  508SOL    HW1 2423   0.507   4.654   3.205
  508SOL    HW2 2424   0.412   4.755   3.292
  509SOL     OW 2425   4.432   6.684   6.363
  509SOL    HW1 2426   4.346   6.732   6.375
  509SOL    HW2 2427   4.494   6.740   6.308
  510SOL     OW 2428   6.506   3.999   0.130
  510SOL    HW1 2429   6.506   4.095   0.157
  510SOL    HW2 2430   6.568   3.947   0.190
  511SOL     OW 2431   0.639   1.667   0.376
  511SOL    HW1 2432   0.592   1.753   0.355
  511SOL    HW2 2433   0.626   1.645   0.473
  512SOL     OW 2434   0.629   2.471   3.742
  512SOL    HW1 2435   0.591   2.560   3.719
  512SOL    HW2 2436   0.727   2.470   3.719
  513SOL     OW 2437   4.960   0.362   3.340
  513SOL    HW1 2438   4.970   0.292   3.269
  513SOL    HW2 2439   4.924   0.446   3.298
  514SOL     OW 2440   5.493   1.088   5.190
  514SOL    HW1 2441   5.582   1.044   5.179
  514SOL    HW2 2442   5.422   1.018   5.196
  515SOL     OW 2443   3.795   0.398   6.527
  515SOL    HW1 2444   3.858   0.365   6.456
  515SOL    HW2 2445   3.845   0.409   6.613
  516SOL     OW 2446   2.002   6.226   2.329
  516SOL    HW1 2447   1.995   6.194   2.235
  516SOL    HW2 2448   2.051   6.158   2.384
  517SOL     OW 2449   2.999   5.282   1.737
  517SOL    HW1 2450   3.068   5.266   1.665
  517SOL    HW2 2451   3.018   5.369   1.782
  518SOL     OW 2452   1.578   4.411   4.396
  518SOL    HW1 2453   1.635   4.376   4.321
  518SOL    HW2 2454   1.619   4.386   4.483
  519SOL     OW 2455   0.061   0.035   2.262
  519SOL    HW1 2456   0.107   0.058   2.348
  519SOL    HW2 2457   0.117   0.064   2.185
  520SOL     OW 2458   2.289   4.108   0.706
  520SOL    HW1 2459   2.300   4.122   0.805
  520SOL    HW2 2460   2.263   4.013   0.689
  521SOL     OW 2461   6.413   6.056   4.823
  521SOL    HW1 2462   6.505   6.020   4.829
  521SOL    HW2 2463   6.416   6.156   4.829
  522SOL     OW 2464   3.827   4.333   0.707
  522SOL    HW1 2465   3.818   4.309   0.804
  522SOL    HW2 2466   3.875   4.421   0.699
  523SOL     OW 2467   0.827   0.198   0.183
  523SOL    HW1 2468   0.840   0.121   0.121
  523SOL    HW2 2469   0.765   0.171   0.257
  524SOL     OW 2470   6.722   1.739   0.464
  524SOL    HW1 2471   6.699   1.821   0.517
  524SOL    HW2 2472   6.722   1.659   0.524
  525SOL     OW 2473   0.599   3.170   3.836
  525SOL    HW1 2474   0.679   3.114   3.856
  525SOL    HW2 2475   0.623   3.267   3.844
  526SOL     OW 2476   3.777   0.268   3.953
  526SOL    HW1 2477   3.753   0.182   3.908
  526SOL    HW2 2478   3.752   0.345   3.894
  527SOL     OW 2479   0.560   1.671   1.057
  527SOL    HW1 2480   0.527   1.578   1.072
  527SOL    HW2 2481   0.575   1.686   0.959
  528SOL     OW 2482   0.169   2.683   4.554
  528SOL    HW1 2483   0.211   2.765   4.514
  528SOL    HW2 2484   0.072   2.698   4.568
  529SOL     OW 2485   1.856   0.088   6.874
  529SOL    HW1 2486   1.777   0.106   6.816
  529SOL    HW2 2487   1.873   7.003   6.876
  530SOL     OW 2488   3.637   5.038   1.080
  530SOL    HW1 2489   3.555   5.060   1.134
  530SOL    HW2 2490   3.702   4.988   1.137
  531SOL     OW 2491   1.350   0.030   0.444
  531SOL    HW1 2492   1.435   7.011   0.483
  531SOL    HW2 2493   1.351   0.130   0.440
  532SOL     OW 2494   1.777   2.128   5.781
  532SOL    HW1 2495   1.718   2.050   5.759
  532SOL    HW2 2496   1.727   2.213   5.765
  533SOL     OW 2497   4.062   0.742   4.064
  533SOL    HW1 2498   4.008   0.782   3.990
  533SOL    HW2 2499   4.070   0.643   4.050
  534SOL     OW 2500   1.681   4.149   1.792
  534SOL    HW1 2501   1.696   4.124   1.888
  534SOL    HW2 2502   1.765   4.134   1.740
  535SOL     OW 2503   4.863   3.272   4.123
  535SOL    HW1 2504   4.949   3.226   4.104
  535SOL    HW2 2505   4.833   3.251   4.216
  536SOL     OW 2506   6.255   6.819   2.202
  536SOL    HW1 2507   6.167   6.771   2.202
  536SOL    HW2 2508   6.328   6.753   2.185
  537SOL     OW 2509   3.130   1.946   3.015
  537SOL    HW1 2510   3.140   1.939   3.114
  537SOL    HW2 2511   3.158   1.861   2.972
  538SOL     OW 2512   3.457   4.891   5.087
  538SOL    HW1 2513   3.406   4.959   5.139
  538SOL    HW2 2514   3.432   4.799   5.119
  539SOL     OW 2515   1.014   0.268   6.779
  539SOL    HW1 2516   0.948   0.326   6.828
  539SOL    HW2 2517   1.105   0.282   6.817
  540SOL     OW 2518   1.501   0.734   4.869
  540SOL    HW1 2519   1.436   0.770   4.803
  540SOL    HW2 2520   1.532   0.643   4.841
  541SOL     OW 2521   5.153   5.945   4.045
  541SOL    HW1 2522   5.228   6.009   4.065
  541SOL    HW2 2523   5.071   5.974   4.095
  542SOL     OW 2524   3.973   6.849   5.214
  542SOL    HW1 2525   4.014   6.764   5.248
  542SOL    HW2 2526   3.953   6.840   5.117
  543SOL     OW 2527   6.529   2.079   3.644
  543SOL    HW1 2528   6.485   1.998   3.606
  543SOL    HW2 2529   6.584   2.123   3.573
  544SOL     OW 2530   1.218   3.440   1.423
  544SOL    HW1 2531   1.278   3.361   1.440
  544SOL    HW2 2532   1.249   3.488   1.342
  545SOL     OW 2533   6.341   6.886   1.432
  545SOL    HW1 2534   6.367   6.977   1.464
  545SOL    HW2 2535   6.259   6.893   1.376
  546SOL     OW 2536   0.032   4.419   2.399
  546SOL    HW1 2537   6.991   4.460   2.472
  546SOL    HW2 2538   0.128   4.444   2.411
  547SOL     OW 2539   5.160   0.474   6.499
  547SOL    HW1 2540   5.128   0.491   6.406
  547SOL    HW2 2541   5.163   0.376   6.516
  548SOL     OW 2542   4.090   2.308   6.861
  548SOL    HW1 2543   4.160   2.347   6.803
  548SOL    HW2 2544   4.080   2.364   6.943
  549SOL     OW 2545   5.371   1.445   1.887
  549SOL    HW1 2546   5.461   1.471   1.921
  549SOL    HW2 2547   5.360   1.476   1.793
  550SOL     OW 2548   0.296   6.133   3.343
  550SOL    HW1 2549   0.366   6.112   3.411
  550SOL    HW2 2550   0.205   6.130   3.385
  551SOL     OW 2551   6.065   0.633   0.557
  551SOL    HW1 2552   6.078   0.557   0.493
  551SOL    HW2 2553   6.036   0.598   0.646
  552SOL     OW 2554   0.578   6.339   5.363
  552SOL    HW1 2555   0.598   6.417   5.304
  552SOL    HW2 2556   0.489   6.301   5.338
  553SOL     OW 2557   3.350   1.620   0.094
  553SOL    HW1 2558   3.332   1.712   0.061
  553SOL    HW2 2559   3.443   1.593   0.069
  554SOL     OW 2560   6.253   6.209   0.897
  554SOL    HW1 2561   6.255   6.221   0.798
  554SOL    HW2 2562   6.237   6.296   0.942
  555SOL     OW 2563   1.832   3.668   5.224
  555SOL    HW1 2564   1.779   3.642   5.143
  555SOL    HW2 2565   1.929   3.672   5.200
  556SOL     OW 2566   5.980   0.129   3.756
  556SOL    HW1 2567   5.884   0.105   3.743
  556SOL    HW2 2568   6.015   0.084   3.838
  557SOL     OW 2569   6.291   4.422   6.808
  557SOL    HW1 2570   6.294   4.478   6.725
  557SOL    HW2 2571   6.334   4.334   6.791
  558SOL     OW 2572   3.311   3.845   2.183
  558SOL    HW1 2573   3.310   3.790   2.266
  558SOL    HW2 2574   3.227   3.900   2.178
  559SOL     OW 2575   6.332   0.013   5.636
  559SOL    HW1 2576   6.272   0.073   5.690
  559SOL    HW2 2577   6.276   6.969   5.578
  560SOL     OW 2578   6.767   2.924   4.268
  560SOL    HW1 2579   6.669   2.919   4.248
  560SOL    HW2 2580   6.800   3.017   4.255
  561SOL     OW 2581   0.476   2.812   0.438
  561SOL    HW1 2582   0.570   2.812   0.403
  561SOL    HW2 2583   0.419   2.867   0.378
  562SOL     OW 2584   4.028   6.748   4.939
  562SOL    HW1 2585   4.102   6.806   4.904
  562SOL    HW2 2586   4.037   6.655   4.903
  563SOL     OW 2587   1.488   0.432   3.704
  563SOL    HW1 2588   1.557   0.361   3.694
  563SOL    HW2 2589   1.455   0.433   3.799
  564SOL     OW 2590   6.142   1.971   6.383
  564SOL    HW1 2591   6.159   2.063   6.348
  564SOL    HW2 2592   6.072   1.975   6.455
  565SOL     OW 2593   3.606   3.443   3.733
  565SOL    HW1 2594   3.697   3.412   3.704
  565SOL    HW2 2595   3.575   3.516   3.672
  566SOL     OW 2596   3.165   0.862   3.687
  566SOL    HW1 2597   3.112   0.778   3.696
  566SOL    HW2 2598   3.113   0.938   3.726
  567SOL     OW 2599   2.578   2.682   5.628
  567SOL    HW1 2600   2.623   2.749   5.687
  567SOL    HW2 2601   2.629   2.672   5.543
  568SOL     OW 2602   0.611   6.408   6.992
  568SOL    HW1 2603   0.569   6.349   6.923
  568SOL    HW2 2604   0.647   6.351   0.052
  569SOL     OW 2605   6.268   3.846   0.132
  569SOL    HW1 2606   6.178   3.890   0.139
  569SOL    HW2 2607   6.340   3.915   0.134
  570SOL     OW 2608   2.757   0.456   6.165
  570SOL    HW1 2609   2.762   0.524   6.238
  570SOL    HW2 2610   2.813   0.377   6.188
  571SOL     OW 2611   1.864   4.428   1.255
  571SOL    HW1 2612   1.795   4.406   1.325
  571SOL    HW2 2613   1.827   4.406   1.165
  572SOL     OW 2614   2.723   0.346   4.603
  572SOL    HW1 2615   2.717   0.446   4.599
  572SOL    HW2 2616   2.652   0.311   4.664
  573SOL     OW 2617   0.296   1.048   5.087
  573SOL    HW1 2618   0.375   1.087   5.040
  573SOL    HW2 2619   0.320   0.959   5.124
  574SOL     OW 2620   2.203   1.576   5.870
  574SOL    HW1 2621   2.269   1.620   5.930
  574SOL    HW2 2622   2.110   1.601   5.899
  575SOL     OW 2623   4.013   3.615   6.895
  575SOL    HW1 2624   3.956   3.619   6.977
  575SOL    HW2 2625   4.094   3.672   6.907
  576SOL     OW 2626   2.194   2.459   2.366
  576SOL    HW1 2627   2.290   2.455   2.337
  576SOL    HW2 2628   2.189   2.472   2.465
  577SOL     OW 2629   0.574   1.029   1.418
  577SOL    HW1 2630   0.516   1.052   1.496
  577SOL    HW2 2631   0.528   0.962   1.360
  578SOL     OW 2632   3.087   6.814   6.373
  578SOL    HW1 2633   3.105   6.825   6.276
  578SOL    HW2 2634   3.162   6.855   6.426
  579SOL     OW 2635   1.973   3.946   1.723
  579SOL    HW1 2636   2.016   3.955   1.813
  579SOL    HW2 2637   2.040   3.964   1.651
  580SOL     OW 2638   4.887   5.684   4.729
  580SOL    HW1 2639   4.972   5.645   4.692
  580SOL    HW2 2640   4.895   5.784   4.733
  581SOL     OW 2641   2.191   2.668   5.143
  581SOL    HW1 2642   2.149   2.652   5.054
  581SOL    HW2 2643   2.290   2.668   5.134
  582SOL     OW 2644   5.019   5.230   4.178
  582SOL    HW1 2645   4.966   5.256   4.258
  582SOL    HW2 2646   4.964   5.242   4.095
  583SOL     OW 2647   3.779   6.023   5.725
  583SOL    HW1 2648   3.800   6.037   5.822
  583SOL    HW2 2649   3.772   5.925   5.707
  584SOL     OW 2650   4.307   0.781   5.492
  584SOL    HW1 2651   4.322   0.736   5.404
  584SOL    HW2 2652   4.351   0.871   5.491
  585SOL     OW 2653   3.440   0.545   1.455
  585SOL    HW1 2654   3.460   0.567   1.550
  585SOL    HW2 2655   3.522   0.509   1.411
  586SOL     OW 2656   3.858   0.817   0.629
  586SOL    HW1 2657   3.923   0.743   0.611
  586SOL    HW2 2658   3.765   0.787   0.604
  587SOL     OW 2659   5.286   2.272   1.835
  587SOL    HW1 2660   5.238   2.313   1.757
  587SOL    HW2 2661   5.234   2.194   1.869
  588SOL     OW 2662   1.811   4.819   3.189
  588SOL    HW1 2663   1.743   4.861   3.249
  588SOL    HW2 2664   1.809   4.864   3.100
  589SOL     OW 2665   3.151   5.426   0.379
  589SOL    HW1 2666   3.146   5.484   0.460
  589SOL    HW2 2667   3.190   5.479   0.303
  590SOL     OW 2668   3.761   2.157   0.470
  590SOL    HW1 2669   3.676   2.189   0.513
  590SOL    HW2 2670   3.794   2.077   0.520
  591SOL     OW 2671   3.270   5.499   3.977
  591SOL    HW1 2672   3.303   5.521   4.069
  591SOL    HW2 2673   3.191   5.556   3.955
  592SOL     OW 2674   3.492   1.889   4.807
  592SOL    HW1 2675   3.464   1.846   4.893
  592SOL    HW2 2676   3.416   1.886   4.743
  593SOL     OW 2677   2.564   2.048   0.029
  593SOL    HW1 2678   2.468   2.046   0.057
  593SOL    HW2 2679   2.607   2.132   0.063
  594SOL     OW 2680   4.814   0.983   2.646
  594SOL    HW1 2681   4.807   0.893   2.688
  594SOL    HW2 2682   4.771   0.982   2.556
  595SOL     OW 2683   5.736   5.535   2.722
  595SOL    HW1 2684   5.806   5.529   2.650
  595SOL    HW2 2685   5.655   5.582   2.687
  596SOL     OW 2686   6.101   4.648   4.325
  596SOL    HW1 2687   6.040   4.674   4.250
  596SOL    HW2 2688   6.191   4.624   4.287
  597SOL     OW 2689   3.071   1.078   6.793
  597SOL    HW1 2690   3.145   1.049   6.854
  597SOL    HW2 2691   3.004   1.131   6.845
  598SOL     OW 2692   3.624   4.087   4.273
  598SOL    HW1 2693   3.525   4.076   4.284
  598SOL    HW2 2694   3.660   4.140   4.350
  599SOL     OW 2695   1.109   5.086   1.388
  599SOL    HW1 2696   1.170   5.107   1.312
  599SOL    HW2 2697   1.127   4.993   1.422
  600SOL     OW 2698   6.485   3.496   5.089
  600SOL    HW1 2699   6.517   3.428   5.023
  600SOL    HW2 2700   6.501   3.588   5.053
  601SOL     OW 2701   1.073   6.170   5.969
  601SOL    HW1 2702   1.153   6.231   5.970
  601SOL    HW2 2703   1.103   6.078   5.946
  602SOL     OW 2704   2.306   0.160   3.343
  602SOL    HW1 2705   2.327   0.187   3.248
  602SOL    HW2 2706   2.246   0.080   3.342
  603SOL     OW 2707   1.702   1.390   4.435
  603SOL    HW1 2708   1.720   1.482   4.400
  603SOL    HW2 2709   1.682   1.329   4.358
  604SOL     OW 2710   6.169   2.622   1.405
  604SOL    HW1 2711   6.209   2.559   1.339
  604SOL    HW2 2712   6.172   2.581   1.496
  605SOL     OW 2713   6.542   6.244   1.526
  605SOL    HW1 2714   6.480   6.231   1.604
  605SOL    HW2 2715   6.532   6.337   1.491
  606SOL     OW 2716   4.012   6.998   4.730
  606SOL    HW1 2717   4.010   6.923   4.664
  606SOL    HW2 2718   4.005   6.962   4.823
  607SOL     OW 2719   1.615   3.284   5.559
  607SOL    HW1 2720   1.582   3.203   5.607
  607SOL    HW2 2721   1.710   3.269   5.530
  608SOL     OW 2722   3.208   0.961   5.765
  608SOL    HW1 2723   3.168   0.966   5.673
  608SOL    HW2 2724   3.177   1.039   5.819
  609SOL     OW 2725   3.060   2.791   1.718
  609SOL    HW1 2726   3.012   2.706   1.695
  609SOL    HW2 2727   3.007   2.869   1.682
  610SOL     OW 2728   4.421   3.428   1.667
  610SOL    HW1 2729   4.430   3.331   1.692
  610SOL    HW2 2730   4.324   3.453   1.668
  611SOL     OW 2731   3.290   0.862   3.186
  611SOL    HW1 2732   3.380   0.879   3.226
  611SOL    HW2 2733   3.292   0.775   3.135
  612SOL     OW 2734   4.350   5.120   4.429
  612SOL    HW1 2735   4.430   5.082   4.477
  612SOL    HW2 2736   4.372   5.132   4.332
  613SOL     OW 2737   3.962   4.687   5.385
  613SOL    HW1 2738   3.879   4.634   5.367
  613SOL    HW2 2739   3.939   4.784   5.396
  614SOL     OW 2740   2.689   6.079   5.901
  614SOL    HW1 2741   2.682   6.120   5.992
  614SOL    HW2 2742   2.719   5.984   5.909
  615SOL     OW 2743   1.111   5.123   2.529
  615SOL    HW1 2744   1.121   5.130   2.430
  615SOL    HW2 2745   1.039   5.058   2.551
  616SOL     OW 2746   6.056   3.183   3.568
  616SOL    HW1 2747   6.121   3.171   3.493
  616SOL    HW2 2748   5.963   3.185   3.530
  617SOL     OW 2749   3.090   6.305   5.931
  617SOL    HW1 2750   3.112   6.375   6.000
  617SOL    HW2 2751   2.991   6.294   5.926
  618SOL     OW 2752   1.598   1.322   2.330
  618SOL    HW1 2753   1.561   1.379   2.403
  618SOL    HW2 2754   1.698   1.328   2.330
  619SOL     OW 2755   0.373   1.718   6.895
  619SOL    HW1 2756   0.448   1.662   6.862
  619SOL    HW2 2757   0.388   1.813   6.869
  620SOL     OW 2758   4.570   3.533   1.366
  620SOL    HW1 2759   4.617   3.565   1.448
  620SOL    HW2 2760   4.527   3.611   1.320
  621SOL     OW 2761   0.392   5.151   1.011
  621SOL    HW1 2762   0.371   5.194   0.924
  621SOL    HW2 2763   0.487   5.121   1.011
  622SOL     OW 2764   0.932   0.745   6.522
  622SOL    HW1 2765   0.949   0.652   6.552
  622SOL    HW2 2766   0.898   0.800   6.598
  623SOL     OW 2767   0.425   4.669   5.951
  623SOL    HW1 2768   0.383   4.598   6.007
  623SOL    HW2 2769   0.473   4.628   5.874
  624SOL     OW 2770   0.595   1.859   1.607
  624SOL    HW1 2771   0.628   1.882   1.516
  624SOL    HW2 2772   0.545   1.773   1.604
  625SOL     OW 2773   1.456   1.354   2.091
  625SOL    HW1 2774   1.505   1.370   2.176
  625SOL    HW2 2775   1.495   1.411   2.019
  626SOL     OW 2776   3.357   7.001   4.453
  626SOL    HW1 2777   3.283   7.012   4.388
  626SOL    HW2 2778   3.423   6.934   4.419
  627SOL     OW 2779   5.128   0.856   6.952
  627SOL    HW1 2780   5.051   0.842   0.001
  627SOL    HW2 2781   5.191   0.923   6.992
  628SOL     OW 2782   5.421   4.153   3.497
  628SOL    HW1 2783   5.365   4.153   3.414
  628SOL    HW2 2784   5.516   4.174   3.474
  629SOL     OW 2785   1.642   6.499   0.431
  629SOL    HW1 2786   1.547   6.468   0.434
  629SOL    HW2 2787   1.657   6.569   0.501
  630SOL     OW 2788   2.868   1.693   1.705
  630SOL    HW1 2789   2.786   1.636   1.698
  630SOL    HW2 2790   2.849   1.772   1.763
  631SOL     OW 2791   2.028   6.623   4.708
  631SOL    HW1 2792   1.957   6.694   4.706
  631SOL    HW2 2793   2.028   6.573   4.622
  632SOL     OW 2794   1.992   0.643   1.304
  632SOL    HW1 2795   2.014   0.739   1.318
  632SOL    HW2 2796   1.917   0.636   1.238
  633SOL     OW 2797   2.127   6.627   5.842
  633SOL    HW1 2798   2.212   6.607   5.890
  633SOL    HW2 2799   2.055   6.566   5.875
  634SOL     OW 2800   3.233   6.019   0.986
  634SOL    HW1 2801   3.139   6.054   0.984
  634SOL    HW2 2802   3.254   5.989   1.079
  635SOL     OW 2803   2.879   0.603   2.622
  635SOL    HW1 2804   2.873   0.521   2.678
  635SOL    HW2 2805   2.968   0.647   2.636
  636SOL     OW 2806   5.115   5.516   0.225
  636SOL    HW1 2807   5.155   5.529   0.315
  636SOL    HW2 2808   5.163   5.573   0.158
  637SOL     OW 2809   5.646   4.837   0.909
  637SOL    HW1 2810   5.703   4.800   0.982
  637SOL    HW2 2811   5.558   4.790   0.909
  638SOL     OW 2812   5.269   1.211   2.416
  638SOL    HW1 2813   5.221   1.137   2.463
  638SOL    HW2 2814   5.356   1.177   2.381
  639SOL     OW 2815   4.606   4.592   2.567
  639SOL    HW1 2816   4.542   4.591   2.491
  639SOL    HW2 2817   4.580   4.522   2.634
  640SOL     OW 2818   2.566   4.148   5.722
  640SOL    HW1 2819   2.633   4.192   5.661
  640SOL    HW2 2820   2.475   4.156   5.682
  641SOL     OW 2821   0.366   5.753   5.509
  641SOL    HW1 2822   0.316   5.667   5.505
  641SOL    HW2 2823   0.464   5.734   5.522
  642SOL     OW 2824   1.603   4.495   5.728
  642SOL    HW1 2825   1.649   4.524   5.644
  642SOL    HW2 2826   1.505   4.484   5.711
  643SOL     OW 2827   5.833   6.139   4.936
  643SOL    HW1 2828   5.778   6.214   4.900
  643SOL    HW2 2829   5.824   6.059   4.877
  644SOL     OW 2830   2.610   6.153   2.343
  644SOL    HW1 2831   2.626   6.180   2.248
  644SOL    HW2 2832   2.655   6.066   2.361
  645SOL     OW 2833   5.894   2.984   3.751
  645SOL    HW1 2834   5.964   3.040   3.706
  645SOL    HW2 2835   5.846   3.040   3.818
  646SOL     OW 2836   1.275   1.908   4.725
  646SOL    HW1 2837   1.216   1.974   4.771
  646SOL    HW2 2838   1.370   1.939   4.729
  647SOL     OW 2839   4.886   3.245   0.370
  647SOL    HW1 2840   4.886   3.338   0.406
  647SOL    HW2 2841   4.931   3.244   0.280
  648SOL     OW 2842   5.053   2.274   3.334
  648SOL    HW1 2843   5.087   2.330   3.258
  648SOL    HW2 2844   5.129   2.251   3.395
  649SOL     OW 2845   4.459   4.683   2.073
  649SOL    HW1 2846   4.438   4.618   2.000
  649SOL    HW2 2847   4.436   4.775   2.042
  650SOL     OW 2848   4.669   3.875   1.184
  650SOL    HW1 2849   4.587   3.823   1.208
  650SOL    HW2 2850   4.733   3.815   1.136
  651SOL     OW 2851   1.193   5.511   6.063
  651SOL    HW1 2852   1.166   5.525   6.159
  651SOL    HW2 2853   1.291   5.491   6.058
  652SOL     OW 2854   4.634   1.553   2.798
  652SOL    HW1 2855   4.680   1.517   2.717
  652SOL    HW2 2856   4.700   1.600   2.856
  653SOL     OW 2857   3.917   4.913   3.449
  653SOL    HW1 2858   3.862   4.849   3.504
  653SOL    HW2 2859   3.976   4.966   3.509
  654SOL     OW 2860   6.761   5.425   0.217
  654SOL    HW1 2861   6.823   5.420   0.138
  654SOL    HW2 2862   6.811   5.401   0.300
  655SOL     OW 2863   0.096   1.208   6.932
  655SOL    HW1 2864   0.093   1.217   6.832
  655SOL    HW2 2865   0.153   1.130   6.956
  656SOL     OW 2866   2.512   6.163   1.828
  656SOL    HW1 2867   2.531   6.079   1.777
  656SOL    HW2 2868   2.597   6.212   1.846
  657SOL     OW 2869   4.037   1.053   6.692
  657SOL    HW1 2870   4.046   1.147   6.727
  657SOL    HW2 2871   3.940   1.027   6.692
  658SOL     OW 2872   3.379   5.143   5.787
  658SOL    HW1 2873   3.452   5.185   5.733
  658SOL    HW2 2874   3.389   5.043   5.784
  659SOL     OW 2875   2.958   0.439   6.971
  659SOL    HW1 2876   2.957   0.481   6.880
  659SOL    HW2 2877   2.987   0.344   6.964
  660SOL     OW 2878   3.695   5.669   3.284
  660SOL    HW1 2879   3.612   5.631   3.325
  660SOL    HW2 2880   3.773   5.650   3.344
  661SOL     OW 2881   5.561   5.857   3.161
  661SOL    HW1 2882   5.478   5.905   3.133
  661SOL    HW2 2883   5.611   5.827   3.080
  662SOL     OW 2884   3.586   1.280   0.531
  662SOL    HW1 2885   3.591   1.280   0.631
  662SOL    HW2 2886   3.588   1.186   0.498
  663SOL     OW 2887   2.056   4.796   4.890
  663SOL    HW1 2888   1.985   4.851   4.934
  663SOL    HW2 2889   2.052   4.703   4.924
  664SOL     OW 2890   5.894   1.211   6.406
  664SOL    HW1 2891   5.810   1.201   6.352
  664SOL    HW2 2892   5.952   1.281   6.365
  665SOL     OW 2893   1.581   4.871   2.069
  665SOL    HW1 2894   1.675   4.901   2.086
  665SOL    HW2 2895   1.574   4.773   2.091
  666SOL     OW 2896   4.045   1.109   1.338
  666SOL    HW1 2897   4.092   1.190   1.302
  666SOL    HW2 2898   4.112   1.035   1.349
  667SOL     OW 2899   0.804   6.387   2.372
  667SOL    HW1 2900   0.851   6.378   2.284
  667SOL    HW2 2901   0.720   6.439   2.359
  668SOL     OW 2902   5.275   3.817   0.600
  668SOL    HW1 2903   5.323   3.896   0.639
  668SOL    HW2 2904   5.254   3.752   0.673
  669SOL     OW 2905   5.161   1.438   2.308
  669SOL    HW1 2906   5.206   1.359   2.350
  669SOL    HW2 2907   5.148   1.509   2.377
  670SOL     OW 2908   2.960   2.146   2.925
  670SOL    HW1 2909   3.018   2.069   2.954
  670SOL    HW2 2910   2.969   2.158   2.826
  671SOL     OW 2911   3.029   7.009   1.706
  671SOL    HW1 2912   3.050   0.054   1.784
  671SOL    HW2 2913   3.006   0.052   1.627
  672SOL     OW 2914   1.454   6.791   2.341
  672SOL    HW1 2915   1.503   6.833   2.417
  672SOL    HW2 2916   1.503   6.711   2.309
  673SOL     OW 2917   5.665   6.465   0.597
  673SOL    HW1 2918   5.642   6.388   0.537
  673SOL    HW2 2919   5.751   6.445   0.644
  674SOL     OW 2920   6.314   0.811   3.660
  674SOL    HW1 2921   6.413   0.821   3.652
  674SOL    HW2 2922   6.292   0.717   3.688
  675SOL     OW 2923   0.419   3.477   2.920
  675SOL    HW1 2924   0.383   3.387   2.944
  675SOL    HW2 2925   0.344   3.541   2.907
  676SOL     OW 2926   2.372   6.600   5.931
  676SOL    HW1 2927   2.423   6.586   5.847
  676SOL    HW2 2928   2.435   6.604   6.009
  677SOL     OW 2929   5.525   1.571   1.335
  677SOL    HW1 2930   5.615   1.532   1.356
  677SOL    HW2 2931   5.501   1.551   1.240
  678SOL     OW 2932   1.075   5.008   3.852
  678SOL    HW1 2933   1.030   5.091   3.820
  678SOL    HW2 2934   1.125   4.965   3.777
  679SOL     OW 2935   4.830   2.013   5.270
  679SOL    HW1 2936   4.814   1.962   5.186
  679SOL    HW2 2937   4.742   2.044   5.308
  680SOL     OW 2938   5.837   6.539   4.301
  680SOL    HW1 2939   5.800   6.467   4.360
  680SOL    HW2 2940   5.935   6.525   4.288
  681SOL     OW 2941   4.629   5.171   2.364
  681SOL    HW1 2942   4.537   5.208   2.355
  681SOL    HW2 2943   4.627   5.073   2.346
  682SOL     OW 2944   0.506   1.031   3.246
  682SOL    HW1 2945   0.504   0.988   3.336
  682SOL    HW2 2946   0.600   1.059   3.225
  683SOL     OW 2947   3.625   3.808   1.406
  683SOL    HW1 2948   3.646   3.836   1.499
  683SOL    HW2 2949   3.607   3.889   1.350
  684SOL     OW 2950   6.401   1.519   6.064
  684SOL    HW1 2951   6.375   1.615   6.072
  684SOL    HW2 2952   6.339   1.463   6.119
  685SOL     OW 2953   3.287   0.601   3.093
  685SOL    HW1 2954   3.191   0.588   3.068
  685SOL    HW2 2955   3.311   0.537   3.166
  686SOL     OW 2956   4.238   0.235   4.914
  686SOL    HW1 2957   4.271   0.143   4.896
  686SOL    HW2 2958   4.280   0.270   4.997
  687SOL     OW 2959   0.848   1.839   3.478
  687SOL    HW1 2960   0.938   1.817   3.516
  687SOL    HW2 2961   0.853   1.925   3.428
  688SOL     OW 2962   6.331   1.532   6.688
  688SOL    HW1 2963   6.390   1.452   6.692
  688SOL    HW2 2964   6.386   1.614   6.702
  689SOL     OW 2965   1.657   5.798   5.543
  689SOL    HW1 2966   1.636   5.702   5.557
  689SOL    HW2 2967   1.679   5.841   5.630
  690SOL     OW 2968   5.478   3.500   2.467
  690SOL    HW1 2969   5.388   3.513   2.424
  690SOL    HW2 2970   5.548   3.536   2.406
  691SOL     OW 2971   5.671   1.669   1.011
  691SOL    HW1 2972   5.605   1.744   1.004
  691SOL    HW2 2973   5.621   1.584   1.028
  692SOL     OW 2974   1.820   0.229   4.739
  692SOL    HW1 2975   1.843   0.320   4.772
  692SOL    HW2 2976   1.740   0.234   4.679
  693SOL     OW 2977   5.380   5.994   3.557
  693SOL    HW1 2978   5.284   5.982   3.532
  693SOL    HW2 2979   5.434   5.918   3.521
  694SOL     OW 2980   4.962   6.383   5.086
  694SOL    HW1 2981   4.948   6.418   5.179
  694SOL    HW2 2982   4.904   6.434   5.022
  695SOL     OW 2983   4.076   0.235   3.930
  695SOL    HW1 2984   3.983   0.203   3.945
  695SOL    HW2 2985   4.074   0.326   3.887
  696SOL     OW 2986   5.410   4.100   3.201
  696SOL    HW1 2987   5.498   4.146   3.189
  696SOL    HW2 2988   5.390   4.045   3.120
  697SOL     OW 2989   1.163   6.379   2.070
  697SOL    HW1 2990   1.252   6.359   2.110
  697SOL    HW2 2991   1.139   6.475   2.086
  698SOL     OW 2992   5.638   6.790   6.995
  698SOL    HW1 2993   5.575   6.845   6.940
  698SOL    HW2 2994   5.712   6.848   0.015
  699SOL     OW 2995   3.101   2.933   1.390
  699SOL    HW1 2996   3.125   2.965   1.299
  699SOL    HW2 2997   3.147   2.989   1.459
  700SOL     OW 2998   3.863   0.479   4.294
  700SOL    HW1 2999   3.902   0.548   4.355
  700SOL    HW2 3000   3.782   0.516   4.249
  701SOL     OW 3001   4.641   5.139   1.569
  701SOL    HW1 3002   4.614   5.146   1.665
  701SOL    HW2 3003   4.706   5.212   1.548
  702SOL     OW 3004   3.604   1.009   4.463
  702SOL    HW1 3005   3.597   1.104   4.433
  702SOL    HW2 3006   3.513   0.971   4.476
  703SOL     OW 3007   3.584   2.056   6.949
  703SOL    HW1 3008   3.589   2.106   0.022
  703SOL    HW2 3009   3.488   2.045   6.922
  704SOL     OW 3010   2.076   2.410   5.442
  704SOL    HW1 3011   2.045   2.376   5.531
  704SOL    HW2 3012   1.998   2.430   5.384
  705SOL     OW 3013   0.234   6.621   5.131
  705SOL    HW1 3014   0.304   6.554   5.156
  705SOL    HW2 3015   0.269   6.713   5.150
  706SOL     OW 3016   4.515   1.192   5.356
  706SOL    HW1 3017   4.587   1.186   5.287
  706SOL    HW2 3018   4.504   1.288   5.385
  707SOL     OW 3019   3.234   5.210   4.382
  707SOL    HW1 3020   3.238   5.256   4.294
  707SOL    HW2 3021   3.150   5.235   4.429
  708SOL     OW 3022   4.471   5.988   3.767
  708SOL    HW1 3023   4.481   6.049   3.688
  708SOL    HW2 3024   4.376   5.958   3.774
  709SOL     OW 3025   2.346   0.197   1.251
  709SOL    HW1 3026   2.249   0.192   1.276
  709SOL    HW2 3027   2.395   0.119   1.290
  710SOL     OW 3028   4.651   2.960   1.632
  710SOL    HW1 3029   4.658   2.967   1.731
  710SOL    HW2 3030   4.701   2.879   1.600
  711SOL     OW 3031   0.079   2.465   6.684
  711SOL    HW1 3032   0.023   2.401   6.631
  711SOL    HW2 3033   0.039   2.556   6.680
  712SOL     OW 3034   5.078   4.195   0.584
  712SOL    HW1 3035   5.035   4.269   0.533
  712SOL    HW2 3036   5.137   4.142   0.524
  713SOL     OW 3037   3.931   3.006   4.870
  713SOL    HW1 3038   3.853   2.965   4.916
  713SOL    HW2 3039   4.005   2.939   4.864
  714SOL     OW 3040   5.205   5.622   2.968
  714SOL    HW1 3041   5.134   5.620   2.897
  714SOL    HW2 3042   5.290   5.657   2.928
  715SOL     OW 3043   6.448   4.879   5.647
  715SOL    HW1 3044   6.444   4.811   5.574
  715SOL    HW2 3045   6.542   4.914   5.655
  716SOL     OW 3046   1.188   2.088   3.016
  716SOL    HW1 3047   1.168   2.182   3.046
  716SOL    HW2 3048   1.202   2.087   2.917
  717SOL     OW 3049   5.433   4.645   4.231
  717SOL    HW1 3050   5.342   4.605   4.238
  717SOL    HW2 3051   5.499   4.588   4.281
  718SOL     OW 3052   5.653   2.193   5.077
  718SOL    HW1 3053   5.739   2.191   5.129
  718SOL    HW2 3054   5.599   2.111   5.098
  719SOL     OW 3055   5.177   6.667   4.038
  719SOL    HW1 3056   5.150   6.580   3.996
  719SOL    HW2 3057   5.169   6.740   3.970
  720SOL     OW 3058   2.482   1.575   0.576
  720SOL    HW1 3059   2.474   1.558   0.674
  720SOL    HW2 3060   2.390   1.584   0.536
  721SOL     OW 3061   0.020   1.827   2.894
  721SOL    HW1 3062   6.969   1.751   2.904
  721SOL    HW2 3063   6.988   1.903   2.849
  722SOL     OW 3064   5.058   6.657   0.722
  722SOL    HW1 3065   5.053   6.715   0.803
  722SOL    HW2 3066   5.080   6.713   0.642
  723SOL     OW 3067   2.702   5.826   3.930
  723SOL    HW1 3068   2.608   5.857   3.922
  723SOL    HW2 3069   2.764   5.904   3.918
  724SOL     OW 3070   1.323   1.701   3.985
  724SOL    HW1 3071   1.415   1.666   3.966
  724SOL    HW2 3072   1.330   1.789   4.031
  725SOL     OW 3073   1.190   4.140   2.986
  725SOL    HW1 3074   1.102   4.099   3.009
  725SOL    HW2 3075   1.249   4.140   3.067
  726SOL     OW 3076   1.419   3.831   0.793
  726SOL    HW1 3077   1.425   3.744   0.843
  726SOL    HW2 3078   1.510   3.872   0.786
  727SOL     OW 3079   3.739   5.528   5.069
  727SOL    HW1 3080   3.662   5.590   5.051
  727SOL    HW2 3081   3.734   5.450   5.007
  728SOL     OW 3082   6.449   3.037   3.683
  728SOL    HW1 3083   6.386   3.108   3.713
  728SOL    HW2 3084   6.540   3.076   3.672
  729SOL     OW 3085   0.380   4.235   0.896
  729SOL    HW1 3086   0.387   4.249   0.797
  729SOL    HW2 3087   0.423   4.312   0.943
  730SOL     OW 3088   3.932   0.578   3.164
  730SOL    HW1 3089   3.858   0.548   3.104
  730SOL    HW2 3090   3.925   0.530   3.251
  731SOL     OW 3091   4.599   5.077   5.439
  731SOL    HW1 3092   4.694   5.110   5.444
  731SOL    HW2 3093   4.537   5.151   5.463
  732SOL     OW 3094   3.681   1.662   5.351
  732SOL    HW1 3095   3.738   1.588   5.386
  732SOL    HW2 3096   3.639   1.711   5.427
  733SOL     OW 3097   5.889   5.683   2.980
  733SOL    HW1 3098   5.897   5.587   2.952
  733SOL    HW2 3099   5.950   5.739   2.924
  734SOL     OW 3100   6.555   6.462   2.327
  734SOL    HW1 3101   6.456   6.459   2.313
  734SOL    HW2 3102   6.578   6.541   2.384
  735SOL     OW 3103   4.535   0.438   2.224
  735SOL    HW1 3104   4.475   0.383   2.282
  735SOL    HW2 3105   4.536   0.399   2.132
  736SOL     OW 3106   2.119   1.395   3.886
  736SOL    HW1 3107   2.080   1.310   3.849
  736SOL    HW2 3108   2.118   1.391   3.986
  737SOL     OW 3109   4.044   0.541   5.999
  737SOL    HW1 3110   4.047   0.448   6.035
  737SOL    HW2 3111   4.137   0.569   5.973
  738SOL     OW 3112   1.646   4.505   0.345
  738SOL    HW1 3113   1.686   4.480   0.256
  738SOL    HW2 3114   1.714   4.491   0.417
  739SOL     OW 3115   3.133   7.012   4.268
  739SOL    HW1 3116   3.040   6.991   4.297
  739SOL    HW2 3117   3.148   6.977   4.175
  740SOL     OW 3118   4.839   3.240   2.661
  740SOL    HW1 3119   4.820   3.164   2.723
  740SOL    HW2 3120   4.850   3.207   2.568
  741SOL     OW 3121   2.420   0.949   3.169
  741SOL    HW1 3122   2.461   0.963   3.079
  741SOL    HW2 3123   2.380   1.035   3.201
  742SOL     OW 3124   2.317   6.990   1.985
  742SOL    HW1 3125   2.358   0.066   2.003
  742SOL    HW2 3126   2.307   6.941   2.072
  743SOL     OW 3127   0.745   6.743   3.202
  743SOL    HW1 3128   0.794   6.665   3.240
  743SOL    HW2 3129   0.810   6.813   3.173
  744SOL     OW 3130   5.126   1.690   0.402
  744SOL    HW1 3131   5.095   1.784   0.409
  744SOL    HW2 3132   5.203   1.685   0.338
  745SOL     OW 3133   2.313   0.206   4.561
  745SOL    HW1 3134   2.293   0.260   4.480
  745SOL    HW2 3135   2.233   0.206   4.621
  746SOL     OW 3136   6.798   4.774   6.137
  746SOL    HW1 3137   6.735   4.800   6.210
  746SOL    HW2 3138   6.765   4.810   6.050
  747SOL     OW 3139   4.830   5.609   2.713
  747SOL    HW1 3140   4.896   5.562   2.771
  747SOL    HW2 3141   4.764   5.543   2.676
  748SOL     OW 3142   5.077   5.247   1.822
  748SOL    HW1 3143   5.173   5.272   1.835
  748SOL    HW2 3144   5.035   5.310   1.757
  749SOL     OW 3145   4.860   3.783   4.125
  749SOL    HW1 3146   4.817   3.772   4.036
  749SOL    HW2 3147   4.866   3.694   4.171
  750SOL     OW 3148   2.404   1.928   2.590
  750SOL    HW1 3149   2.379   2.012   2.636
  750SOL    HW2 3150   2.329   1.900   2.529
  751SOL     OW 3151   3.616   0.488   0.722
  751SOL    HW1 3152   3.576   0.415   0.666
  751SOL    HW2 3153   3.715   0.489   0.710
  752SOL     OW 3154   3.627   2.554   5.593
  752SOL    HW1 3155   3.542   2.502   5.589
  752SOL    HW2 3156   3.697   2.509   5.539
  753SOL     OW 3157   3.939   3.925   4.556
  753SOL    HW1 3158   4.036   3.946   4.540
  753SOL    HW2 3159   3.929   3.828   4.579
  754SOL     OW 3160   5.759   0.649   0.218
  754SOL    HW1 3161   5.765   0.744   0.186
  754SOL    HW2 3162   5.850   0.616   0.242
  755SOL     OW 3163   4.115   4.285   5.294
  755SOL    HW1 3164   4.143   4.371   5.251
  755SOL    HW2 3165   4.015   4.283   5.301
  756SOL     OW 3166   2.396   5.557   6.169
  756SOL    HW1 3167   2.421   5.632   6.109
  756SOL    HW2 3168   2.378   5.475   6.114
  757SOL     OW 3169   2.922   6.016   2.154
  757SOL    HW1 3170   2.931   5.982   2.248
  757SOL    HW2 3171   2.847   5.967   2.108
  758SOL     OW 3172   4.489   0.913   4.250
  758SOL    HW1 3173   4.516   0.926   4.345
  758SOL    HW2 3174   4.505   0.998   4.199
  759SOL     OW 3175   0.579   2.829   3.685
  759SOL    HW1 3176   0.546   2.853   3.776
  759SOL    HW2 3177   0.542   2.893   3.618
  760SOL     OW 3178   6.049   5.439   2.897
  760SOL    HW1 3179   6.092   5.452   2.987
  760SOL    HW2 3180   6.118   5.449   2.826
  761SOL     OW 3181   3.910   4.048   6.087
  761SOL    HW1 3182   3.871   4.133   6.050
  761SOL    HW2 3183   3.884   3.971   6.029
  762SOL     OW 3184   3.242   5.476   3.675
  762SOL    HW1 3185   3.277   5.389   3.641
  762SOL    HW2 3186   3.142   5.474   3.676
  763SOL     OW 3187   5.512   0.868   0.608
  763SOL    HW1 3188   5.426   0.892   0.564
  763SOL    HW2 3189   5.550   0.949   0.653
  764SOL     OW 3190   5.699   6.884   6.053
  764SOL    HW1 3191   5.650   6.800   6.075
  764SOL    HW2 3192   5.643   6.942   5.994
  765SOL     OW 3193   6.621   6.905   0.669
  765SOL    HW1 3194   6.594   6.892   0.764
  765SOL    HW2 3195   6.546   6.947   0.618
  766SOL     OW 3196   2.612   2.139   4.970
  766SOL    HW1 3197   2.547   2.148   5.045
  766SOL    HW2 3198   2.684   2.208   4.980
  767SOL     OW 3199   6.442   5.377   4.706
  767SOL    HW1 3200   6.460   5.378   4.608
  767SOL    HW2 3201   6.349   5.410   4.723
  768SOL     OW 3202   1.853   5.310   2.822
  768SOL    HW1 3203   1.866   5.306   2.723
  768SOL    HW2 3204   1.890   5.226   2.863
  769SOL     OW 3205   2.255   2.026   5.097
  769SOL    HW1 3206   2.279   2.121   5.079
  769SOL    HW2 3207   2.328   1.983   5.150
  770SOL     OW 3208   1.229   4.413   5.873
  770SOL    HW1 3209   1.282   4.467   5.807
  770SOL    HW2 3210   1.282   4.333   5.900
  771SOL     OW 3211   1.567   5.074   2.543
  771SOL    HW1 3212   1.544   5.012   2.468
  771SOL    HW2 3213   1.550   5.028   2.630
  772SOL     OW 3214   5.572   4.495   0.689
  772SOL    HW1 3215   5.483   4.538   0.706
  772SOL    HW2 3216   5.625   4.494   0.774
  773SOL     OW 3217   1.275   3.653   3.589
  773SOL    HW1 3218   1.205   3.602   3.540
  773SOL    HW2 3219   1.288   3.742   3.547
  774SOL     OW 3220   2.730   0.334   3.309
  774SOL    HW1 3221   2.718   0.411   3.246
  774SOL    HW2 3222   2.720   0.365   3.403
  775SOL     OW 3223   0.980   3.978   2.181
  775SOL    HW1 3224   0.998   4.067   2.138
  775SOL    HW2 3225   0.956   3.991   2.277
  776SOL     OW 3226   2.560   5.342   6.325
  776SOL    HW1 3227   2.489   5.399   6.283
  776SOL    HW2 3228   2.618   5.303   6.254
  777SOL     OW 3229   2.254   4.076   6.588
  777SOL    HW1 3230   2.171   4.080   6.644
  777SOL    HW2 3231   2.249   3.997   6.528
  778SOL     OW 3232   2.765   6.168   6.768
  778SOL    HW1 3233   2.713   6.169   6.854
  778SOL    HW2 3234   2.853   6.124   6.783
  779SOL     OW 3235   6.945   2.266   3.393
  779SOL    HW1 3236   0.010   2.283   3.452
  779SOL    HW2 3237   6.922   2.350   3.343
  780SOL     OW 3238   0.484   2.305   4.193
  780SOL    HW1 3239   0.471   2.399   4.225
  780SOL    HW2 3240   0.509   2.306   4.096
  781SOL     OW 3241   0.303   4.606   0.104
  781SOL    HW1 3242   0.398   4.581   0.120
  781SOL    HW2 3243   0.244   4.527   0.119
  782SOL     OW 3244   1.742   3.401   4.849
  782SOL    HW1 3245   1.821   3.341   4.836
  782SOL    HW2 3246   1.663   3.362   4.800
  783SOL     OW 3247   6.694   4.630   6.627
  783SOL    HW1 3248   6.606   4.664   6.659
  783SOL    HW2 3249   6.766   4.656   6.693
  784SOL     OW 3250   2.490   5.914   1.011
  784SOL    HW1 3251   2.533   5.824   1.009
  784SOL    HW2 3252   2.522   5.964   1.092
  785SOL     OW 3253   0.945   0.374   4.051
  785SOL    HW1 3254   1.012   0.352   3.980
  785SOL    HW2 3255   0.859   0.402   4.008
  786SOL     OW 3256   6.170   1.169   3.983
  786SOL    HW1 3257   6.253   1.221   3.962
  786SOL    HW2 3258   6.168   1.085   3.930
  787SOL     OW 3259   2.081   6.973   0.779
  787SOL    HW1 3260   2.151   6.948   0.712
  787SOL    HW2 3261   2.101   0.051   0.814
  788SOL     OW 3262   2.073   2.333   1.497
  788SOL    HW1 3263   2.050   2.261   1.431
  788SOL    HW2 3264   1.989   2.366   1.541
  789SOL     OW 3265   4.621   4.854   2.569
  789SOL    HW1 3266   4.628   4.755   2.574
  789SOL    HW2 3267   4.702   4.895   2.611
  790SOL     OW 3268   0.942   2.151   2.782
  790SOL    HW1 3269   0.906   2.084   2.717
  790SOL    HW2 3270   0.905   2.133   2.873
  791SOL     OW 3271   3.109   5.787   4.154
  791SOL    HW1 3272   3.062   5.730   4.087
  791SOL    HW2 3273   3.166   5.729   4.213
  792SOL     OW 3274   1.681   0.427   0.107
  792SOL    HW1 3275   1.627   0.407   0.189
  792SOL    HW2 3276   1.624   0.475   0.040
  793SOL     OW 3277   2.946   5.991   4.099
  793SOL    HW1 3278   3.003   5.917   4.132
  793SOL    HW2 3279   2.991   6.038   4.023
  794SOL     OW 3280   3.708   3.272   2.379
  794SOL    HW1 3281   3.622   3.322   2.376
  794SOL    HW2 3282   3.693   3.177   2.353
  795SOL     OW 3283   3.741   0.431   6.155
  795SOL    HW1 3284   3.734   0.527   6.128
  795SOL    HW2 3285   3.808   0.422   6.228
  796SOL     OW 3286   0.889   2.899   0.606
  796SOL    HW1 3287   0.849   2.852   0.528
  796SOL    HW2 3288   0.817   2.931   0.667
  797SOL     OW 3289   4.649   0.294   0.805
  797SOL    HW1 3290   4.726   0.241   0.841
  797SOL    HW2 3291   4.589   0.233   0.752
  798SOL     OW 3292   4.688   6.578   1.132
  798SOL    HW1 3293   4.692   6.495   1.077
  798SOL    HW2 3294   4.718   6.559   1.225
  799SOL     OW 3295   2.386   1.953   5.350
  799SOL    HW1 3296   2.334   1.990   5.428
  799SOL    HW2 3297   2.482   1.942   5.376
  800SOL     OW 3298   6.177   3.193   2.723
  800SOL    HW1 3299   6.140   3.132   2.793
  800SOL    HW2 3300   6.187   3.285   2.762
  801SOL     OW 3301   2.223   5.912   5.955
  801SOL    HW1 3302   2.193   5.895   5.861
  801SOL    HW2 3303   2.165   5.860   6.018
  802SOL     OW 3304   5.344   2.278   6.985
  802SOL    HW1 3305   5.302   2.288   6.895
  802SOL    HW2 3306   5.338   2.183   0.001
  803SOL     OW 3307   2.268   1.540   4.816
  803SOL    HW1 3308   2.280   1.605   4.740
  803SOL    HW2 3309   2.200   1.472   4.790
  804SOL     OW 3310   5.164   0.254   2.908
  804SOL    HW1 3311   5.239   0.260   2.842
  804SOL    HW2 3312   5.135   0.346   2.934
  805SOL     OW 3313   3.567   1.253   3.975
  805SOL    HW1 3314   3.639   1.234   4.041
  805SOL    HW2 3315   3.484   1.280   4.023
  806SOL     OW 3316   2.412   6.165   5.246
  806SOL    HW1 3317   2.326   6.215   5.237
  806SOL    HW2 3318   2.479   6.222   5.293
  807SOL     OW 3319   1.363   6.183   6.197
  807SOL    HW1 3320   1.344   6.244   6.119
  807SOL    HW2 3321   1.377   6.090   6.164
  808SOL     OW 3322   5.143   2.832   6.015
  808SOL    HW1 3323   5.236   2.868   6.009
  808SOL    HW2 3324   5.145   2.741   6.054
  809SOL     OW 3325   2.108   5.025   0.147
  809SOL    HW1 3326   2.050   5.040   0.067
  809SOL    HW2 3327   2.057   4.971   0.215
  810SOL     OW 3328   3.602   3.061   6.873
  810SOL    HW1 3329   3.527   3.001   6.845
  810SOL    HW2 3330   3.644   3.103   6.792
  811SOL     OW 3331   6.184   4.976   4.748
  811SOL    HW1 3332   6.199   4.932   4.659
  811SOL    HW2 3333   6.260   5.038   4.768
  812SOL     OW 3334   0.160   3.258   2.031
  812SOL    HW1 3335   0.228   3.206   1.979
  812SOL    HW2 3336   0.086   3.196   2.060
  813SOL     OW 3337   1.531   1.815   5.195
  813SOL    HW1 3338   1.466   1.875   5.243
  813SOL    HW2 3339   1.486   1.729   5.171
  814SOL     OW 3340   0.849   5.269   2.872
  814SOL    HW1 3341   0.849   5.171   2.891
  814SOL    HW2 3342   0.775   5.290   2.808
  815SOL     OW 3343   4.391   1.610   4.779
  815SOL    HW1 3344   4.321   1.665   4.734
  815SOL    HW2 3345   4.376   1.513   4.757
  816SOL     OW 3346   6.150   5.054   6.766
  816SOL    HW1 3347   6.108   4.967   6.739
  816SOL    HW2 3348   6.159   5.113   6.686
  817SOL     OW 3349   0.526   4.438   6.957
  817SOL    HW1 3350   0.499   4.357   7.009
  817SOL    HW2 3351   0.613   4.472   6.990
  818SOL     OW 3352   6.809   2.000   4.873
  818SOL    HW1 3353   6.774   2.089   4.847
  818SOL    HW2 3354   6.801   1.936   4.796
  819SOL     OW 3355   4.962   2.984   1.878
  819SOL    HW1 3356   4.990   2.893   1.909
  819SOL    HW2 3357   4.882   3.013   1.931
  820SOL     OW 3358   2.626   1.434   5.103
  820SOL    HW1 3359   2.567   1.378   5.044
  820SOL    HW2 3360   2.652   1.381   5.184
  821SOL     OW 3361   5.098   3.280   6.372
  821SOL    HW1 3362   5.030   3.234   6.315
  821SOL    HW2 3363   5.190   3.251   6.344
  822SOL     OW 3364   0.465   4.859   3.442
  822SOL    HW1 3365   0.367   4.840   3.448
  822SOL    HW2 3366   0.516   4.794   3.499
  823SOL     OW 3367   1.201   3.421   4.770
  823SOL    HW1 3368   1.222   3.495   4.835
  823SOL    HW2 3369   1.236   3.446   4.679
  824SOL     OW 3370   4.691   0.770   6.548
  824SOL    HW1 3371   4.639   0.832   6.607
  824SOL    HW2 3372   4.781   0.810   6.529
  825SOL     OW 3373   6.104   5.841   0.628
  825SOL    HW1 3374   6.094   5.745   0.654
  825SOL    HW2 3375   6.192   5.853   0.582
  826SOL     OW 3376   3.980   2.090   0.119
  826SOL    HW1 3377   3.931   2.060   0.201
  826SOL    HW2 3378   4.000   2.188   0.126
  827SOL     OW 3379   4.134   3.867   5.686
  827SOL    HW1 3380   4.163   3.823   5.601
  827SOL    HW2 3381   4.131   3.966   5.673
  828SOL     OW 3382   6.841   6.371   6.358
  828SOL    HW1 3383   6.804   6.280   6.375
  828SOL    HW2 3384   6.926   6.382   6.409
  829SOL     OW 3385   3.220   3.501   2.338
  829SOL    HW1 3386   3.130   3.510   2.296
  829SOL    HW2 3387   3.215   3.438   2.415
  830SOL     OW 3388   6.910   4.590   0.402
  830SOL    HW1 3389   6.816   4.576   0.370
  830SOL    HW2 3390   6.908   4.636   0.491
  831SOL     OW 3391   4.743   0.143   1.565
  831SOL    HW1 3392   4.816   0.082   1.596
  831SOL    HW2 3393   4.769   0.185   1.478
  832SOL     OW 3394   2.604   1.477   4.673
  832SOL    HW1 3395   2.549   1.409   4.721
  832SOL    HW2 3396   2.679   1.507   4.731
  833SOL     OW 3397   3.646   2.462   0.184
  833SOL    HW1 3398   3.613   2.552   0.156
  833SOL    HW2 3399   3.716   2.431   0.119
  834SOL     OW 3400   6.035   3.068   0.557
  834SOL    HW1 3401   6.069   3.090   0.648
  834SOL    HW2 3402   6.009   2.971   0.553
  835SOL     OW 3403   0.194   0.105   4.508
  835SOL    HW1 3404   0.174   0.186   4.453
  835SOL    HW2 3405   0.108   0.067   4.542
  836SOL     OW 3406   5.059   0.746   4.870
  836SOL    HW1 3407   5.111   0.812   4.923
  836SOL    HW2 3408   5.007   0.686   4.932
  837SOL     OW 3409   1.514   0.612   0.435
  837SOL    HW1 3410   1.422   0.603   0.471
  837SOL    HW2 3411   1.581   0.600   0.509
  838SOL     OW 3412   1.104   5.585   3.367
  838SOL    HW1 3413   1.133   5.660   3.309
  838SOL    HW2 3414   1.005   5.593   3.384
  839SOL     OW 3415   1.527   1.928   0.373
  839SOL    HW1 3416   1.562   1.923   0.280
  839SOL    HW2 3417   1.434   1.891   0.376
  840SOL     OW 3418   4.890   5.264   0.080
  840SOL    HW1 3419   4.871   5.347   0.133
  840SOL    HW2 3420   4.897   5.287   6.997
  841SOL     OW 3421   2.946   4.731   0.396
  841SOL    HW1 3422   2.900   4.809   0.440
  841SOL    HW2 3423   2.945   4.653   0.458
  842SOL     OW 3424   4.157   5.603   0.446
  842SOL    HW1 3425   4.164   5.518   0.393
  842SOL    HW2 3426   4.155   5.580   0.544
  843SOL     OW 3427   0.931   0.746   2.120
  843SOL    HW1 3428   0.867   0.689   2.172
  843SOL    HW2 3429   0.894   0.839   2.112
  844SOL     OW 3430   6.689   0.692   1.471
  844SOL    HW1 3431   6.699   0.747   1.553
  844SOL    HW2 3432   6.773   0.641   1.454
  845SOL     OW 3433   3.319   1.361   2.546
  845SOL    HW1 3434   3.379   1.375   2.467
  845SOL    HW2 3435   3.267   1.445   2.564
  846SOL     OW 3436   2.886   1.995   0.829
  846SOL    HW1 3437   2.947   1.948   0.894
  846SOL    HW2 3438   2.941   2.037   0.757
  847SOL     OW 3439   2.608   3.821   1.716
  847SOL    HW1 3440   2.565   3.908   1.692
  847SOL    HW2 3441   2.705   3.823   1.692
  848SOL     OW 3442   6.909   5.823   0.416
  848SOL    HW1 3443   6.979   5.865   0.474
  848SOL    HW2 3444   6.835   5.788   0.473
  849SOL     OW 3445   6.193   3.687   6.589
  849SOL    HW1 3446   6.260   3.613   6.595
  849SOL    HW2 3447   6.102   3.649   6.574
  850SOL     OW 3448   1.204   0.562   5.365
  850SOL    HW1 3449   1.274   0.561   5.293
  850SOL    HW2 3450   1.248   0.576   5.454
  851SOL     OW 3451   6.092   3.532   6.131
  851SOL    HW1 3452   6.154   3.592   6.181
  851SOL    HW2 3453   5.997   3.562   6.147
  852SOL     OW 3454   0.362   3.956   2.038
  852SOL    HW1 3455   0.307   3.959   1.955
  852SOL    HW2 3456   0.422   3.876   2.035
  853SOL     OW 3457   2.725   2.271   0.115
  853SOL    HW1 3458   2.762   2.194   0.168
  853SOL    HW2 3459   2.800   2.322   0.073
  854SOL     OW 3460   5.811   5.978   6.034
  854SOL    HW1 3461   5.783   6.072   6.013
  854SOL    HW2 3462   5.883   5.950   5.971
  855SOL     OW 3463   5.460   1.424   0.289
  855SOL    HW1 3464   5.425   1.386   0.375
  855SOL    HW2 3465   5.483   1.520   0.302
  856SOL     OW 3466   1.824   5.282   1.609
  856SOL    HW1 3467   1.900   5.238   1.657
  856SOL    HW2 3468   1.856   5.367   1.566
  857SOL     OW 3469   0.032   5.635   5.130
  857SOL    HW1 3470   6.991   5.655   5.212
  857SOL    HW2 3471   0.040   5.536   5.119
  858SOL     OW 3472   4.643   3.330   6.875
  858SOL    HW1 3473   4.655   3.349   6.972
  858SOL    HW2 3474   4.725   3.356   6.825
  859SOL     OW 3475   4.908   6.545   5.409
  859SOL    HW1 3476   4.931   6.627   5.460
  859SOL    HW2 3477   4.814   6.551   5.376
  860SOL     OW 3478   4.891   3.170   6.085
  860SOL    HW1 3479   4.793   3.185   6.100
  860SOL    HW2 3480   4.904   3.083   6.039
  861SOL     OW 3481   1.962   5.785   1.746
  861SOL    HW1 3482   2.015   5.708   1.710
  861SOL    HW2 3483   1.952   5.854   1.675
  862SOL     OW 3484   0.335   3.720   3.895
  862SOL    HW1 3485   0.391   3.798   3.865
  862SOL    HW2 3486   0.270   3.750   3.964
  863SOL     OW 3487   6.280   0.645   0.934
  863SOL    HW1 3488   6.190   0.675   0.902
  863SOL    HW2 3489   6.340   0.724   0.943
  864SOL     OW 3490   5.555   6.327   4.377
  864SOL    HW1 3491   5.591   6.246   4.332
  864SOL    HW2 3492   5.504   6.383   4.311
  865SOL     OW 3493   1.590   5.951   5.099
  865SOL    HW1 3494   1.607   5.876   5.163
  865SOL    HW2 3495   1.593   5.916   5.006
  866SOL     OW 3496   3.667   0.133   1.878
  866SOL    HW1 3497   3.753   0.178   1.902
  866SOL    HW2 3498   3.630   0.174   1.795
  867SOL     OW 3499   5.446   2.308   6.066
  867SOL    HW1 3500   5.471   2.395   6.108
  867SOL    HW2 3501   5.354   2.283   6.093
  868SOL     OW 3502   0.058   1.724   2.414
  868SOL    HW1 3503   0.158   1.732   2.421
  868SOL    HW2 3504   0.024   1.792   2.348
  869SOL     OW 3505   6.954   3.781   3.532
  869SOL    HW1 3506   6.992   3.855   3.477
  869SOL    HW2 3507   6.857   3.798   3.549
  870SOL     OW 3508   3.523   5.332   2.070
  870SOL    HW1 3509   3.492   5.252   2.122
  870SOL    HW2 3510   3.470   5.339   1.985
  871SOL     OW 3511   4.733   1.656   3.177
  871SOL    HW1 3512   4.658   1.644   3.112
  871SOL    HW2 3513   4.704   1.625   3.268
  872SOL     OW 3514   0.391   2.350   4.800
  872SOL    HW1 3515   0.458   2.292   4.752
  872SOL    HW2 3516   0.385   2.438   4.754
  873SOL     OW 3517   4.542   6.794   6.135
  873SOL    HW1 3518   4.571   6.863   6.201
  873SOL    HW2 3519   4.569   6.822   6.043
  874SOL     OW 3520   4.835   3.903   1.476
  874SOL    HW1 3521   4.743   3.876   1.447
  874SOL    HW2 3522   4.831   3.943   1.567
  875SOL     OW 3523   5.125   5.397   1.398
  875SOL    HW1 3524   5.213   5.442   1.412
  875SOL    HW2 3525   5.094   5.413   1.305
  876SOL     OW 3526   7.010   6.714   1.355
  876SOL    HW1 3527   0.040   6.790   1.307
  876SOL    HW2 3528   0.020   6.628   1.310
  877SOL     OW 3529   2.077   2.934   6.332
  877SOL    HW1 3530   2.089   3.014   6.391
  877SOL    HW2 3531   1.998   2.881   6.363
  878SOL     OW 3532   4.258   6.393   4.299
  878SOL    HW1 3533   4.300   6.435   4.380
  878SOL    HW2 3534   4.160   6.411   4.300
  879SOL     OW 3535   5.799   0.124   0.875
  879SOL    HW1 3536   5.872   0.167   0.927
  879SOL    HW2 3537   5.837   0.057   0.811
  880SOL     OW 3538   2.886   3.488   2.486
  880SOL    HW1 3539   2.918   3.393   2.481
  880SOL    HW2 3540   2.853   3.517   2.396
  881SOL     OW 3541   4.160   1.920   0.407
  881SOL    HW1 3542   4.176   1.825   0.379
  881SOL    HW2 3543   4.143   1.923   0.505
  882SOL     OW 3544   1.263   3.464   4.510
  882SOL    HW1 3545   1.232   3.392   4.448
  882SOL    HW2 3546   1.214   3.549   4.490
  883SOL     OW 3547   2.459   0.164   2.487
  883SOL    HW1 3548   2.428   0.069   2.493
  883SOL    HW2 3549   2.396   0.224   2.535
  884SOL     OW 3550   4.748   3.615   5.701
  884SOL    HW1 3551   4.668   3.630   5.759
  884SOL    HW2 3552   4.778   3.703   5.663
  885SOL     OW 3553   3.633   2.880   6.078
  885SOL    HW1 3554   3.697   2.842   6.144
  885SOL    HW2 3555   3.545   2.833   6.085
  886SOL     OW 3556   3.353   0.075   6.795
  886SOL    HW1 3557   3.440   0.037   6.826
  886SOL    HW2 3558   3.334   0.159   6.844
  887SOL     OW 3559   4.973   1.464   4.393
  887SOL    HW1 3560   5.022   1.438   4.476
  887SOL    HW2 3561   4.956   1.562   4.393
  888SOL     OW 3562   6.762   6.658   3.039
  888SOL    HW1 3563   6.826   6.629   3.109
  888SOL    HW2 3564   6.674   6.681   3.081
  889SOL     OW 3565   0.686   3.396   6.868
  889SOL    HW1 3566   0.640   3.310   6.846
  889SOL    HW2 3567   0.780   3.393   6.833
  890SOL     OW 3568   2.767   4.998   4.173
  890SOL    HW1 3569   2.826   5.067   4.215
  890SOL    HW2 3570   2.692   5.043   4.126
  891SOL     OW 3571   5.166   5.674   1.450
  891SOL    HW1 3572   5.134   5.692   1.543
  891SOL    HW2 3573   5.100   5.711   1.385
  892SOL     OW 3574   2.624   4.355   0.378
  892SOL    HW1 3575   2.718   4.374   0.350
  892SOL    HW2 3576   2.624   4.326   0.474
  893SOL     OW 3577   2.347   6.512   2.490
  893SOL    HW1 3578   2.397   6.495   2.574
  893SOL    HW2 3579   2.321   6.425   2.448
  894SOL     OW 3580   1.046   4.064   0.998
  894SOL    HW1 3581   1.029   4.125   1.076
  894SOL    HW2 3582   0.970   3.999   0.989
  895SOL     OW 3583   0.808   5.574   3.866
  895SOL    HW1 3584   0.728   5.514   3.871
  895SOL    HW2 3585   0.871   5.539   3.796
  896SOL     OW 3586   6.833   6.448   5.579
  896SOL    HW1 3587   6.763   6.480   5.642
  896SOL    HW2 3588   6.815   6.353   5.555
  897SOL     OW 3589   5.360   1.022   6.888
  897SOL    HW1 3590   5.371   1.028   6.788
  897SOL    HW2 3591   5.449   1.024   6.932
  898SOL     OW 3592   4.155   6.055   3.068
  898SOL    HW1 3593   4.243   6.024   3.032
  898SOL    HW2 3594   4.156   6.154   3.079
  899SOL     OW 3595   0.273   4.776   0.313
  899SOL    HW1 3596   0.354   4.828   0.287
  899SOL    HW2 3597   0.265   4.695   0.256
  900SOL     OW 3598   5.161   5.270   0.509
  900SOL    HW1 3599   5.247   5.230   0.541
  900SOL    HW2 3600   5.156   5.263   0.410
  901SOL     OW 3601   1.294   1.105   2.466
  901SOL    HW1 3602   1.393   1.101   2.480
  901SOL    HW2 3603   1.265   1.200   2.458
  902SOL     OW 3604   6.418   3.811   1.995
  902SOL    HW1 3605   6.443   3.789   2.089
  902SOL    HW2 3606   6.471   3.890   1.964
  903SOL     OW 3607   0.052   2.691   0.776
  903SOL    HW1 3608   0.112   2.676   0.698
  903SOL    HW2 3609   7.004   2.767   0.757
  904SOL     OW 3610   2.696   1.549   2.621
  904SOL    HW1 3611   2.690   1.641   2.583
  904SOL    HW2 3612   2.623   1.537   2.689
  905SOL     OW 3613   6.055   3.111   6.436
  905SOL    HW1 3614   6.081   3.126   6.341
  905SOL    HW2 3615   6.069   3.196   6.488
  906SOL     OW 3616   6.266   3.810   6.813
  906SOL    HW1 3617   6.245   3.778   6.721
  906SOL    HW2 3618   6.240   3.739   6.879
  907SOL     OW 3619   5.271   4.066   6.919
  907SOL    HW1 3620   5.300   4.112   6.835
  907SOL    HW2 3621   5.274   4.130   6.996
  908SOL     OW 3622   1.979   4.194   2.327
  908SOL    HW1 3623   2.043   4.132   2.281
  908SOL    HW2 3624   2.004   4.288   2.306
  909SOL     OW 3625   5.167   5.115   6.604
  909SOL    HW1 3626   5.245   5.080   6.552
  909SOL    HW2 3627   5.178   5.214   6.617
  910SOL     OW 3628   2.372   3.581   0.892
  910SOL    HW1 3629   2.344   3.584   0.796
  910SOL    HW2 3630   2.305   3.528   0.944
  911SOL     OW 3631   1.298   5.097   6.340
  911SOL    HW1 3632   1.254   5.077   6.253
  911SOL    HW2 3633   1.232   5.087   6.414
  912SOL     OW 3634   4.797   2.120   2.665
  912SOL    HW1 3635   4.859   2.057   2.619
  912SOL    HW2 3636   4.794   2.206   2.615
  913SOL     OW 3637   4.921   6.816   3.245
  913SOL    HW1 3638   4.833   6.857   3.222
  913SOL    HW2 3639   4.994   6.868   3.202
  914SOL     OW 3640   2.953   6.769   0.215
  914SOL    HW1 3641   3.003   6.854   0.232
  914SOL    HW2 3642   3.016   6.691   0.219
  915SOL     OW 3643   5.857   5.275   0.467
  915SOL    HW1 3644   5.830   5.258   0.372
  915SOL    HW2 3645   5.926   5.347   0.470
  916SOL     OW 3646   0.935   2.174   2.408
  916SOL    HW1 3647   1.022   2.213   2.439
  916SOL    HW2 3648   0.893   2.235   2.340
  917SOL     OW 3649   6.447   6.610   0.947
  917SOL    HW1 3650   6.370   6.571   0.996
  917SOL    HW2 3651   6.519   6.541   0.938
  918SOL     OW 3652   2.076   5.407   0.391
  918SOL    HW1 3653   2.024   5.428   0.474
  918SOL    HW2 3654   2.077   5.487   0.331
  919SOL     OW 3655   5.804   2.474   5.022
  919SOL    HW1 3656   5.849   2.392   4.988
  919SOL    HW2 3657   5.712   2.480   4.983
  920SOL     OW 3658   2.798   5.265   2.118
  920SOL    HW1 3659   2.775   5.230   2.027
  920SOL    HW2 3660   2.781   5.193   2.186
  921SOL     OW 3661   4.878   5.017   5.139
  921SOL    HW1 3662   4.930   4.980   5.063
  921SOL    HW2 3663   4.813   5.086   5.105
  922SOL     OW 3664   3.401   2.914   3.721
  922SOL    HW1 3665   3.497   2.900   3.746
  922SOL    HW2 3666   3.395   2.937   3.624
  923SOL     OW 3667   2.204   3.624   5.335
  923SOL    HW1 3668   2.105   3.622   5.323
  923SOL    HW2 3669   2.238   3.532   5.356
  924SOL     OW 3670   0.256   3.972   3.020
  924SOL    HW1 3671   0.234   3.970   2.922
  924SOL    HW2 3672   0.324   3.900   3.039
  925SOL     OW 3673   6.602   1.709   0.072
  925SOL    HW1 3674   6.548   1.714   0.155
  925SOL    HW2 3675   6.619   1.802   0.037
  926SOL     OW 3676   1.228   1.497   2.213
  926SOL    HW1 3677   1.259   1.434   2.141
  926SOL    HW2 3678   1.308   1.537   2.258
  927SOL     OW 3679   5.948   3.832   3.564
  927SOL    HW1 3680   5.955   3.929   3.588
  927SOL    HW2 3681   5.981   3.777   3.640
  928SOL     OW 3682   2.870   4.630   6.298
  928SOL    HW1 3683   2.798   4.676   6.351
  928SOL    HW2 3684   2.908   4.694   6.231
  929SOL     OW 3685   6.845   1.266   5.030
  929SOL    HW1 3686   6.754   1.296   5.057
  929SOL    HW2 3687   6.841   1.225   4.939
  930SOL     OW 3688   5.770   4.918   5.939
  930SOL    HW1 3689   5.854   4.868   5.964
  930SOL    HW2 3690   5.723   4.946   6.023
  931SOL     OW 3691   6.568   1.819   3.350
  931SOL    HW1 3692   6.481   1.823   3.400
  931SOL    HW2 3693   6.567   1.886   3.276
  932SOL     OW 3694   3.626   0.613   3.340
  932SOL    HW1 3695   3.641   0.689   3.278
  932SOL    HW2 3696   3.675   0.629   3.426
  933SOL     OW 3697   1.119   5.766   1.342
  933SOL    HW1 3698   1.137   5.711   1.424
  933SOL    HW2 3699   1.191   5.751   1.275
  934SOL     OW 3700   1.159   3.940   0.368
  934SOL    HW1 3701   1.126   3.895   0.285
  934SOL    HW2 3702   1.170   4.038   0.351
  935SOL     OW 3703   5.943   3.197   4.185
  935SOL    HW1 3704   5.858   3.233   4.221
  935SOL    HW2 3705   6.000   3.162   4.259
  936SOL     OW 3706   1.542   6.916   5.942
  936SOL    HW1 3707   1.473   6.861   5.894
  936SOL    HW2 3708   1.560   6.999   5.890
  937SOL     OW 3709   4.110   1.605   5.859
  937SOL    HW1 3710   4.069   1.520   5.892
  937SOL    HW2 3711   4.109   1.607   5.759
  938SOL     OW 3712   5.623   5.629   4.253
  938SOL    HW1 3713   5.562   5.701   4.219
  938SOL    HW2 3714   5.634   5.640   4.352
  939SOL     OW 3715   0.005   6.699   6.048
  939SOL    HW1 3716   0.073   6.639   6.088
  939SOL    HW2 3717   0.038   6.793   6.050
  940SOL     OW 3718   2.028   4.646   0.059
  940SOL    HW1 3719   2.054   4.716   7.007
  940SOL    HW2 3720   1.936   4.665   0.094
  941SOL     OW 3721   3.576   0.739   0.063
  941SOL    HW1 3722   3.620   0.664   0.112
  941SOL    HW2 3723   3.520   0.702   7.003
  942SOL     OW 3724   0.153   5.397   0.839
  942SOL    HW1 3725   0.143   5.484   0.792
  942SOL    HW2 3726   0.210   5.336   0.785
  943SOL     OW 3727   3.356   5.647   2.056
  943SOL    HW1 3728   3.438   5.667   2.002
  943SOL    HW2 3729   3.384   5.616   2.147
  944SOL     OW 3730   6.236   6.887   3.925
  944SOL    HW1 3731   6.271   6.794   3.936
  944SOL    HW2 3732   6.311   6.952   3.929
  945SOL     OW 3733   0.998   5.823   0.139
  945SOL    HW1 3734   0.923   5.756   0.148
  945SOL    HW2 3735   1.040   5.838   0.228
  946SOL     OW 3736   4.952   2.774   4.260
  946SOL    HW1 3737   4.996   2.685   4.251
  946SOL    HW2 3738   5.013   2.837   4.308
  947SOL     OW 3739   3.957   3.951   3.898
  947SOL    HW1 3740   3.997   3.893   3.827
  947SOL    HW2 3741   4.017   3.952   3.978
  948SOL     OW 3742   4.619   0.789   2.790
  948SOL    HW1 3743   4.569   0.775   2.704
  948SOL    HW2 3744   4.568   0.851   2.849
  949SOL     OW 3745   2.619   6.892   6.065
  949SOL    HW1 3746   2.613   6.991   6.066
  949SOL    HW2 3747   2.620   6.859   5.971
  950SOL     OW 3748   6.873   0.277   1.763
  950SOL    HW1 3749   6.865   0.259   1.665
  950SOL    HW2 3750   6.899   0.192   1.810
  951SOL     OW 3751   2.375   6.430   3.206
  951SOL    HW1 3752   2.392   6.504   3.141
  951SOL    HW2 3753   2.379   6.465   3.299
  952SOL     OW 3754   2.693   1.274   2.565
  952SOL    HW1 3755   2.647   1.253   2.478
  952SOL    HW2 3756   2.702   1.374   2.574
  953SOL     OW 3757   6.545   4.654   5.920
  953SOL    HW1 3758   6.632   4.702   5.904
  953SOL    HW2 3759   6.471   4.705   5.876
  954SOL     OW 3760   4.251   5.710   2.943
  954SOL    HW1 3761   4.318   5.660   2.889
  954SOL    HW2 3762   4.217   5.651   3.017
  955SOL     OW 3763   1.734   4.773   6.595
  955SOL    HW1 3764   1.746   4.747   6.691
  955SOL    HW2 3765   1.673   4.708   6.551
  956SOL     OW 3766   5.225   0.639   1.309
  956SOL    HW1 3767   5.253   0.702   1.382
  956SOL    HW2 3768   5.151   0.581   1.342
  957SOL     OW 3769   5.635   0.920   3.613
  957SOL    HW1 3770   5.723   0.946   3.653
  957SOL    HW2 3771   5.569   0.904   3.687
  958SOL     OW 3772   5.322   6.856   1.829
  958SOL    HW1 3773   5.233   6.828   1.793
  958SOL    HW2 3774   5.316   6.952   1.859
  959SOL     OW 3775   4.195   6.950   4.157
  959SOL    HW1 3776   4.232   0.008   4.098
  959SOL    HW2 3777   4.097   6.940   4.141
  960SOL     OW 3778   1.433   0.277   6.676
  960SOL    HW1 3779   1.453   0.335   6.598
  960SOL    HW2 3780   1.507   0.211   6.688
  961SOL     OW 3781   3.396   6.851   2.909
  961SOL    HW1 3782   3.397   6.751   2.905
  961SOL    HW2 3783   3.304   6.883   2.933
  962SOL     OW 3784   6.191   0.764   5.003
  962SOL    HW1 3785   6.278   0.717   4.989
  962SOL    HW2 3786   6.173   0.772   5.101
  963SOL     OW 3787   5.340   3.415   1.160
  963SOL    HW1 3788   5.264   3.432   1.097
  963SOL    HW2 3789   5.345   3.317   1.180
  964SOL     OW 3790   4.557   4.795   5.389
  964SOL    HW1 3791   4.547   4.894   5.395
  964SOL    HW2 3792   4.508   4.761   5.309
  965SOL     OW 3793   5.726   2.531   3.413
  965SOL    HW1 3794   5.740   2.435   3.439
  965SOL    HW2 3795   5.744   2.590   3.491
  966SOL     OW 3796   4.353   1.349   4.667
  966SOL    HW1 3797   4.389   1.349   4.574
  966SOL    HW2 3798   4.416   1.300   4.727
  967SOL     OW 3799   4.592   3.825   6.349
  967SOL    HW1 3800   4.559   3.734   6.375
  967SOL    HW2 3801   4.641   3.819   6.262
  968SOL     OW 3802   3.869   0.463   1.407
  968SOL    HW1 3803   3.890   0.390   1.471
  968SOL    HW2 3804   3.836   0.543   1.458
  969SOL     OW 3805   3.072   3.969   6.738
  969SOL    HW1 3806   3.030   3.884   6.709
  969SOL    HW2 3807   3.106   4.020   6.658
  970SOL     OW 3808   5.422   6.742   6.052
  970SOL    HW1 3809   5.505   6.691   6.075
  970SOL    HW2 3810   5.376   6.770   6.137
  971SOL     OW 3811   5.259   3.635   3.133
  971SOL    HW1 3812   5.292   3.567   3.198
  971SOL    HW2 3813   5.247   3.593   3.043
  972SOL     OW 3814   0.185   3.040   0.692
  972SOL    HW1 3815   0.153   3.134   0.681
  972SOL    HW2 3816   0.171   2.989   0.608
  973SOL     OW 3817   0.209   2.875   6.079
  973SOL    HW1 3818   0.259   2.938   6.019
  973SOL    HW2 3819   0.238   2.889   6.174
  974SOL     OW 3820   6.907   5.138   2.886
  974SOL    HW1 3821   6.871   5.148   2.979
  974SOL    HW2 3822   6.898   5.225   2.837
  975SOL     OW 3823   3.269   0.957   1.794
  975SOL    HW1 3824   3.173   0.979   1.783
  975SOL    HW2 3825   3.325   1.034   1.764
  976SOL     OW 3826   0.037   3.161   3.081
  976SOL    HW1 3827   0.050   3.247   3.131
  976SOL    HW2 3828   7.013   3.092   3.143
  977SOL     OW 3829   6.564   0.693   2.305
  977SOL    HW1 3830   6.556   0.602   2.264
  977SOL    HW2 3831   6.505   0.698   2.386
  978SOL     OW 3832   5.288   3.403   2.025
  978SOL    HW1 3833   5.374   3.352   2.028
  978SOL    HW2 3834   5.212   3.340   2.014
  979SOL     OW 3835   0.468   4.190   0.066
  979SOL    HW1 3836   0.503   4.201   0.158
  979SOL    HW2 3837   0.370   4.209   0.065
  980SOL     OW 3838   3.490   1.531   4.627
  980SOL    HW1 3839   3.547   1.456   4.593
  980SOL    HW2 3840   3.401   1.494   4.656
  981SOL     OW 3841   6.878   6.927   5.344
  981SOL    HW1 3842   6.801   6.983   5.311
  981SOL    HW2 3843   6.918   6.969   5.425
  982SOL     OW 3844   6.138   1.088   5.457
  982SOL    HW1 3845   6.216   1.143   5.429
  982SOL    HW2 3846   6.069   1.148   5.499
  983SOL     OW 3847   0.495   4.845   4.254
  983SOL    HW1 3848   0.428   4.908   4.215
  983SOL    HW2 3849   0.464   4.751   4.242
  984SOL     OW 3850   0.275   3.421   3.789
  984SOL    HW1 3851   0.177   3.411   3.771
  984SOL    HW2 3852   0.293   3.514   3.822
  985SOL     OW 3853   6.238   4.673   5.368
  985SOL    HW1 3854   6.225   4.628   5.457
  985SOL    HW2 3855   6.185   4.758   5.367
  986SOL     OW 3856   5.042   5.100   1.374
  986SOL    HW1 3857   5.100   5.042   1.432
  986SOL    HW2 3858   5.054   5.196   1.400
  987SOL     OW 3859   4.658   4.259   4.378
  987SOL    HW1 3860   4.642   4.287   4.283
  987SOL    HW2 3861   4.709   4.173   4.379
  988SOL     OW 3862   2.388   4.361   1.839
  988SOL    HW1 3863   2.385   4.459   1.821
  988SOL    HW2 3864   2.482   4.328   1.829
  989SOL     OW 3865   1.238   1.514   0.739
  989SOL    HW1 3866   1.266   1.500   0.644
  989SOL    HW2 3867   1.239   1.427   0.788
  990SOL     OW 3868   3.790   0.207   4.418
  990SOL    HW1 3869   3.724   0.175   4.350
  990SOL    HW2 3870   3.828   0.295   4.390
  991SOL     OW 3871   6.609   5.448   3.376
  991SOL    HW1 3872   6.529   5.508   3.375
  991SOL    HW2 3873   6.692   5.502   3.359
  992SOL     OW 3874   6.939   2.434   0.543
  992SOL    HW1 3875   6.932   2.383   0.628
  992SOL    HW2 3876   0.021   2.460   0.528
  993SOL     OW 3877   1.504   5.151   6.622
  993SOL    HW1 3878   1.520   5.121   6.716
  993SOL    HW2 3879   1.420   5.205   6.617
  994SOL     OW 3880   3.310   6.370   6.976
  994SOL    HW1 3881   3.251   6.313   6.918
  994SOL    HW2 3882   3.303   6.465   6.947
  995SOL     OW 3883   6.112   4.384   5.847
  995SOL    HW1 3884   6.167   4.322   5.791
  995SOL    HW2 3885   6.017   4.353   5.848
  996SOL     OW 3886   3.562   5.753   4.693
  996SOL    HW1 3887   3.482   5.807   4.719
  996SOL    HW2 3888   3.643   5.790   4.739
  997SOL     OW 3889   1.584   6.261   3.144
  997SOL    HW1 3890   1.567   6.241   3.241
  997SOL    HW2 3891   1.496   6.270   3.096
  998SOL     OW 3892   5.426   0.798   6.240
  998SOL    HW1 3893   5.411   0.897   6.239
  998SOL    HW2 3894   5.338   0.751   6.235
  999SOL     OW 3895   4.847   3.740   2.457
  999SOL    HW1 3896   4.901   3.690   2.388
  999SOL    HW2 3897   4.754   3.753   2.423
 1000SOL     OW 3898   4.872   2.470   1.334
 1000SOL    HW1 3899   4.948   2.485   1.397
 1000SOL    HW2 3900   4.834   2.379   1.348
 1001SOL     OW 3901   2.855   0.118   2.286
 1001SOL    HW1 3902   2.816   0.206   2.311
 1001SOL    HW2 3903   2.804   0.081   2.208
 1002SOL     OW 3904   5.228   2.503   1.055
 1002SOL    HW1 3905   5.270   2.593   1.046
 1002SOL    HW2 3906   5.142   2.501   1.003
 1003SOL     OW 3907   0.597   0.583   3.202
 1003SOL    HW1 3908   0.634   0.621   3.287
 1003SOL    HW2 3909   0.650   0.618   3.124
 1004SOL     OW 3910   5.311   1.597   3.735
 1004SOL    HW1 3911   5.251   1.518   3.726
 1004SOL    HW2 3912   5.399   1.568   3.770
 1005SOL     OW 3913   1.112   4.844   1.986
 1005SOL    HW1 3914   1.128   4.869   2.082
 1005SOL    HW2 3915   1.187   4.787   1.953
 1006SOL     OW 3916   2.485   3.872   1.219
 1006SOL    HW1 3917   2.516   3.781   1.189
 1006SOL    HW2 3918   2.409   3.902   1.162
 1007SOL     OW 3919   4.499   0.878   6.730
 1007SOL    HW1 3920   4.529   0.973   6.716
 1007SOL    HW2 3921   4.401   0.870   6.710
 1008SOL     OW 3922   0.273   4.864   5.669
 1008SOL    HW1 3923   0.270   4.962   5.689
 1008SOL    HW2 3924   0.367   4.831   5.678
 1009SOL     OW 3925   0.305   5.491   5.677
 1009SOL    HW1 3926   0.274   5.490   5.582
 1009SOL    HW2 3927   0.402   5.512   5.680
 1010SOL     OW 3928   2.525   3.035   1.015
 1010SOL    HW1 3929   2.458   2.967   1.046
 1010SOL    HW2 3930   2.553   3.013   0.921
 1011SOL     OW 3931   0.096   5.182   2.238
 1011SOL    HW1 3932   0.072   5.103   2.181
 1011SOL    HW2 3933   0.072   5.266   2.190
 1012SOL     OW 3934   4.664   6.845   3.449
 1012SOL    HW1 3935   4.682   6.894   3.364
 1012SOL    HW2 3936   4.624   6.908   3.516
 1013SOL     OW 3937   0.143   6.736   6.608
 1013SOL    HW1 3938   0.153   6.835   6.616
 1013SOL    HW2 3939   0.102   6.700   6.691
 1014SOL     OW 3940   1.105   4.348   5.536
 1014SOL    HW1 3941   1.148   4.327   5.448
 1014SOL    HW2 3942   1.168   4.326   5.610
 1015SOL     OW 3943   2.994   6.454   6.696
 1015SOL    HW1 3944   3.020   6.492   6.607
 1015SOL    HW2 3945   2.965   6.529   6.756
 1016SOL     OW 3946   6.068   3.922   1.740
 1016SOL    HW1 3947   6.101   4.010   1.773
 1016SOL    HW2 3948   6.075   3.920   1.640
 1017SOL     OW 3949   2.166   1.560   1.944
 1017SOL    HW1 3950   2.136   1.481   1.891
 1017SOL    HW2 3951   2.112   1.640   1.919
 1018SOL     OW 3952   6.532   6.559   4.433
 1018SOL    HW1 3953   6.452   6.586   4.486
 1018SOL    HW2 3954   6.585   6.492   4.484
 1019SOL     OW 3955   6.440   4.502   0.984
 1019SOL    HW1 3956   6.380   4.482   0.907
 1019SOL    HW2 3957   6.427   4.596   1.013
 1020SOL     OW 3958   5.676   1.323   1.022
 1020SOL    HW1 3959   5.751   1.361   0.970
 1020SOL    HW2 3960   5.704   1.237   1.063
 1021SOL     OW 3961   0.388   6.822   1.150
 1021SOL    HW1 3962   0.482   6.853   1.144
 1021SOL    HW2 3963   0.355   6.793   1.060
 1022SOL     OW 3964   2.878   5.799   6.972
 1022SOL    HW1 3965   2.895   5.856   6.891
 1022SOL    HW2 3966   2.932   5.715   6.966
 1023SOL     OW 3967   0.765   1.104   3.127
 1023SOL    HW1 3968   0.821   1.067   3.052
 1023SOL    HW2 3969   0.822   1.120   3.207
 1024SOL     OW 3970   1.612   1.700   4.295
 1024SOL    HW1 3971   1.557   1.628   4.254
 1024SOL    HW2 3972   1.582   1.789   4.259
 1025SOL     OW 3973   4.444   3.921   0.197
 1025SOL    HW1 3974   4.386   3.932   0.116
 1025SOL    HW2 3975   4.426   3.996   0.261
 1026SOL     OW 3976   2.924   2.330   1.572
 1026SOL    HW1 3977   3.008   2.384   1.577
 1026SOL    HW2 3978   2.938   2.242   1.617
 1027SOL     OW 3979   1.027   6.819   0.850
 1027SOL    HW1 3980   1.046   6.835   0.947
 1027SOL    HW2 3981   0.996   6.905   0.808
 1028SOL     OW 3982   1.321   5.851   2.129
 1028SOL    HW1 3983   1.411   5.820   2.100
 1028SOL    HW2 3984   1.328   5.894   2.219
 1029SOL     OW 3985   0.677   1.055   5.834
 1029SOL    HW1 3986   0.660   1.109   5.751
 1029SOL    HW2 3987   0.591   1.015   5.866
 1030SOL     OW 3988   3.285   3.189   1.345
 1030SOL    HW1 3989   3.316   3.110   1.396
 1030SOL    HW2 3990   3.247   3.160   1.257
 1031SOL     OW 3991   3.924   2.965   0.962
 1031SOL    HW1 3992   3.833   2.924   0.957
 1031SOL    HW2 3993   3.916   3.058   0.999
 1032SOL     OW 3994   2.219   1.789   6.359
 1032SOL    HW1 3995   2.122   1.781   6.337
 1032SOL    HW2 3996   2.233   1.769   6.456
 1033SOL     OW 3997   0.567   6.539   1.921
 1033SOL    HW1 3998   0.567   6.472   1.995
 1033SOL    HW2 3999   0.600   6.627   1.955
 1034SOL     OW 4000   2.755   0.432   4.322
 1034SOL    HW1 4001   2.737   0.346   4.371
 1034SOL    HW2 4002   2.805   0.494   4.382
 1035SOL     OW 4003   1.591   1.508   6.496
 1035SOL    HW1 4004   1.594   1.567   6.577
 1035SOL    HW2 4005   1.504   1.458   6.494
 1036SOL     OW 4006   4.854   1.403   1.124
 1036SOL    HW1 4007   4.872   1.501   1.114
 1036SOL    HW2 4008   4.877   1.356   1.038
 1037SOL     OW 4009   1.564   2.977   1.767
 1037SOL    HW1 4010   1.553   3.010   1.860
 1037SOL    HW2 4011   1.632   2.903   1.765
 1038SOL     OW 4012   2.638   5.882   0.073
 1038SOL    HW1 4013   2.736   5.862   0.068
 1038SOL    HW2 4014   2.588   5.798   0.094
 1039SOL     OW 4015   3.312   2.919   2.923
 1039SOL    HW1 4016   3.347   2.914   2.830
 1039SOL    HW2 4017   3.388   2.934   2.987
 1040SOL     OW 4018   3.735   1.897   3.178
 1040SOL    HW1 4019   3.754   1.798   3.180
 1040SOL    HW2 4020   3.719   1.926   3.084
 1041SOL     OW 4021   6.880   5.857   6.347
 1041SOL    HW1 4022   6.829   5.885   6.266
 1041SOL    HW2 4023   6.823   5.797   6.403
 1042SOL     OW 4024   5.302   4.435   2.868
 1042SOL    HW1 4025   5.385   4.398   2.828
 1042SOL    HW2 4026   5.291   4.530   2.840
 1043SOL     OW 4027   3.044   2.036   3.514
 1043SOL    HW1 4028   3.055   1.990   3.426
 1043SOL    HW2 4029   3.005   1.973   3.580
 1044SOL     OW 4030   5.662   4.843   1.441
 1044SOL    HW1 4031   5.591   4.789   1.396
 1044SOL    HW2 4032   5.657   4.938   1.409
 1045SOL     OW 4033   2.157   0.351   2.175
 1045SOL    HW1 4034   2.130   0.350   2.079
 1045SOL    HW2 4035   2.089   0.402   2.228
 1046SOL     OW 4036   3.256   1.683   0.928
 1046SOL    HW1 4037   3.217   1.680   0.836
 1046SOL    HW2 4038   3.335   1.622   0.933
 1047SOL     OW 4039   3.898   6.099   3.817
 1047SOL    HW1 4040   3.932   6.074   3.726
 1047SOL    HW2 4041   3.821   6.041   3.841
 1048SOL     OW 4042   1.361   6.006   2.600
 1048SOL    HW1 4043   1.322   5.914   2.602
 1048SOL    HW2 4044   1.356   6.047   2.691
 1049SOL     OW 4045   4.024   6.129   5.012
 1049SOL    HW1 4046   4.090   6.074   5.064
 1049SOL    HW2 4047   4.022   6.222   5.049
 1050SOL     OW 4048   3.037   5.404   2.768
 1050SOL    HW1 4049   3.084   5.360   2.691
 1050SOL    HW2 4050   3.075   5.370   2.854
 1051SOL     OW 4051   0.977   0.862   6.248
 1051SOL    HW1 4052   0.968   0.805   6.330
 1051SOL    HW2 4053   0.926   0.821   6.173
 1052SOL     OW 4054   3.162   1.084   0.242
 1052SOL    HW1 4055   3.257   1.106   0.261
 1052SOL    HW2 4056   3.154   0.987   0.219
 1053SOL     OW 4057   5.206   2.580   3.644
 1053SOL    HW1 4058   5.214   2.576   3.545
 1053SOL    HW2 4059   5.147   2.656   3.670
 1054SOL     OW 4060   3.484   4.826   6.274
 1054SOL    HW1 4061   3.413   4.862   6.334
 1054SOL    HW2 4062   3.565   4.803   6.328
 1055SOL     OW 4063   5.084   5.756   6.441
 1055SOL    HW1 4064   5.009   5.773   6.505
 1055SOL    HW2 4065   5.157   5.822   6.457
 1056SOL     OW 4066   3.094   3.870   0.088
 1056SOL    HW1 4067   3.026   3.810   0.131
 1056SOL    HW2 4068   3.050   3.954   0.058
 1057SOL     OW 4069   2.889   2.346   0.973
 1057SOL    HW1 4070   2.800   2.302   0.987
 1057SOL    HW2 4071   2.962   2.279   0.988
 1058SOL     OW 4072   2.958   2.196   2.636
 1058SOL    HW1 4073   2.941   2.237   2.546
 1058SOL    HW2 4074   3.054   2.172   2.643
 1059SOL     OW 4075   2.405   6.660   1.970
 1059SOL    HW1 4076   2.341   6.736   1.970
 1059SOL    HW2 4077   2.364   6.582   2.017
 1060SOL     OW 4078   6.060   6.702   5.221
 1060SOL    HW1 4079   6.108   6.708   5.308
 1060SOL    HW2 4080   6.013   6.614   5.214
 1061SOL     OW 4081   0.179   3.803   6.194
 1061SOL    HW1 4082   0.250   3.847   6.249
 1061SOL    HW2 4083   0.111   3.761   6.255
 1062SOL     OW 4084   3.550   6.534   4.825
 1062SOL    HW1 4085   3.497   6.450   4.836
 1062SOL    HW2 4086   3.513   6.605   4.884
 1063SOL     OW 4087   3.051   6.779   5.320
 1063SOL    HW1 4088   3.033   6.795   5.417
 1063SOL    HW2 4089   2.971   6.735   5.279
 1064SOL     OW 4090   1.540   3.894   0.409
 1064SOL    HW1 4091   1.517   3.987   0.381
 1064SOL    HW2 4092   1.535   3.833   0.330
 1065SOL     OW 4093   4.750   0.702   4.479
 1065SOL    HW1 4094   4.792   0.695   4.389
 1065SOL    HW2 4095   4.677   0.634   4.488
 1066SOL     OW 4096   5.523   6.654   2.022
 1066SOL    HW1 4097   5.480   6.733   2.065
 1066SOL    HW2 4098   5.544   6.585   2.091
 1067SOL     OW 4099   2.774   1.861   0.062
 1067SOL    HW1 4100   2.702   1.921   0.095
 1067SOL    HW2 4101   2.746   1.766   0.071
 1068SOL     OW 4102   6.708   3.471   1.800
 1068SOL    HW1 4103   6.709   3.542   1.871
 1068SOL    HW2 4104   6.774   3.400   1.823
 1069SOL     OW 4105   6.657   3.702   1.943
 1069SOL    HW1 4106   6.563   3.738   1.948
 1069SOL    HW2 4107   6.710   3.736   2.021
 1070SOL     OW 4108   1.146   6.653   2.165
 1070SOL    HW1 4109   1.148   6.652   2.264
 1070SOL    HW2 4110   1.239   6.655   2.129
 1071SOL     OW 4111   0.137   3.114   5.470
 1071SOL    HW1 4112   0.120   3.072   5.558
 1071SOL    HW2 4113   0.221   3.076   5.430
 1072SOL     OW 4114   1.765   1.686   2.069
 1072SOL    HW1 4115   1.708   1.768   2.073
 1072SOL    HW2 4116   1.855   1.705   2.109
 1073SOL     OW 4117   4.388   2.414   3.423
 1073SOL    HW1 4118   4.383   2.421   3.323
 1073SOL    HW2 4119   4.314   2.468   3.464
 1074SOL     OW 4120   2.722   4.706   1.748
 1074SOL    HW1 4121   2.779   4.644   1.802
 1074SOL    HW2 4122   2.706   4.790   1.801
 1075SOL     OW 4123   6.071   4.106   5.482
 1075SOL    HW1 4124   6.087   4.031   5.418
 1075SOL    HW2 4125   6.080   4.072   5.575
 1076SOL     OW 4126   2.123   4.538   4.946
 1076SOL    HW1 4127   2.220   4.560   4.933
 1076SOL    HW2 4128   2.107   4.442   4.921
 1077SOL     OW 4129   0.156   0.076   0.120
 1077SOL    HW1 4130   0.061   0.053   0.098
 1077SOL    HW2 4131   0.208   0.088   0.036
 1078SOL     OW 4132   6.136   6.966   4.381
 1078SOL    HW1 4133   6.082   6.886   4.406
 1078SOL    HW2 4134   6.089   0.002   4.308
 1079SOL     OW 4135   0.663   0.140   1.807
 1079SOL    HW1 4136   0.633   0.208   1.874
 1079SOL    HW2 4137   0.756   0.110   1.828
 1080SOL     OW 4138   3.284   6.246   6.261
 1080SOL    HW1 4139   3.322   6.209   6.346
 1080SOL    HW2 4140   3.313   6.190   6.184
 1081SOL     OW 4141   6.813   6.015   4.473
 1081SOL    HW1 4142   6.778   5.922   4.467
 1081SOL    HW2 4143   6.750   6.078   4.427
 1082SOL     OW 4144   4.488   6.446   6.455
 1082SOL    HW1 4145   4.585   6.428   6.439
 1082SOL    HW2 4146   4.468   6.541   6.432
 1083SOL     OW 4147   5.246   4.258   1.654
 1083SOL    HW1 4148   5.229   4.256   1.753
 1083SOL    HW2 4149   5.276   4.167   1.624
 1084SOL     OW 4150   6.413   0.634   5.023
 1084SOL    HW1 4151   6.434   0.677   5.111
 1084SOL    HW2 4152   6.418   0.535   5.032
 1085SOL     OW 4153   1.401   3.790   4.557
 1085SOL    HW1 4154   1.450   3.744   4.630
 1085SOL    HW2 4155   1.411   3.889   4.567
 1086SOL     OW 4156   6.045   5.409   0.903
 1086SOL    HW1 4157   5.947   5.393   0.896
 1086SOL    HW2 4158   6.064   5.467   0.982
 1087SOL     OW 4159   3.284   0.541   5.551
 1087SOL    HW1 4160   3.210   0.483   5.517
 1087SOL    HW2 4161   3.364   0.530   5.492
 1088SOL     OW 4162   6.413   4.928   3.431
 1088SOL    HW1 4163   6.490   4.911   3.369
 1088SOL    HW2 4164   6.448   4.963   3.518
 1089SOL     OW 4165   6.494   4.784   4.558
 1089SOL    HW1 4166   6.552   4.853   4.515
 1089SOL    HW2 4167   6.529   4.764   4.649
 1090SOL     OW 4168   5.478   1.928   5.066
 1090SOL    HW1 4169   5.523   1.916   4.977
 1090SOL    HW2 4170   5.412   1.854   5.080
 1091SOL     OW 4171   2.178   2.465   2.667
 1091SOL    HW1 4172   2.235   2.530   2.718
 1091SOL    HW2 4173   2.087   2.504   2.654
 1092SOL     OW 4174   0.442   5.921   0.991
 1092SOL    HW1 4175   0.407   5.944   0.900
 1092SOL    HW2 4176   0.406   5.831   1.018
 1093SOL     OW 4177   2.002   0.372   2.756
 1093SOL    HW1 4178   1.972   0.410   2.669
 1093SOL    HW2 4179   1.949   0.412   2.831
 1094SOL     OW 4180   0.932   0.279   3.093
 1094SOL    HW1 4181   0.855   0.291   3.155
 1094SOL    HW2 4182   1.010   0.334   3.124
 1095SOL     OW 4183   5.104   3.485   0.498
 1095SOL    HW1 4184   5.188   3.532   0.472
 1095SOL    HW2 4185   5.112   3.387   0.477
 1096SOL     OW 4186   2.771   5.868   1.437
 1096SOL    HW1 4187   2.718   5.795   1.394
 1096SOL    HW2 4188   2.784   5.943   1.372
 1097SOL     OW 4189   3.324   5.459   4.609
 1097SOL    HW1 4190   3.270   5.386   4.652
 1097SOL    HW2 4191   3.421   5.439   4.620
 1098SOL     OW 4192   6.113   4.741   0.845
 1098SOL    HW1 4193   6.190   4.775   0.792
 1098SOL    HW2 4194   6.065   4.670   0.793
 1099SOL     OW 4195   4.417   6.641   5.674
 1099SOL    HW1 4196   4.325   6.679   5.684
 1099SOL    HW2 4197   4.416   6.570   5.604
 1100SOL     OW 4198   3.262   1.585   4.395
 1100SOL    HW1 4199   3.228   1.498   4.428
 1100SOL    HW2 4200   3.338   1.615   4.452
 1101SOL     OW 4201   5.911   3.035   6.683
 1101SOL    HW1 4202   5.848   3.102   6.723
 1101SOL    HW2 4203   5.946   3.070   6.596
 1102SOL     OW 4204   2.664   1.150   3.465
 1102SOL    HW1 4205   2.700   1.221   3.526
 1102SOL    HW2 4206   2.616   1.193   3.389
 1103SOL     OW 4207   2.577   6.525   0.276
 1103SOL    HW1 4208   2.586   6.462   0.199
 1103SOL    HW2 4209   2.614   6.614   0.251
 1104SOL     OW 4210   0.637   2.992   4.079
 1104SOL    HW1 4211   0.699   2.950   4.012
 1104SOL    HW2 4212   0.684   3.067   4.125
 1105SOL     OW 4213   5.376   1.229   5.505
 1105SOL    HW1 4214   5.301   1.279   5.549
 1105SOL    HW2 4215   5.347   1.136   5.485
 1106SOL     OW 4216   0.085   1.537   0.516
 1106SOL    HW1 4217   0.169   1.511   0.469
 1106SOL    HW2 4218   0.015   1.561   0.449
 1107SOL     OW 4219   1.112   1.340   6.549
 1107SOL    HW1 4220   1.063   1.423   6.575
 1107SOL    HW2 4221   1.050   1.262   6.556
 1108SOL     OW 4222   2.471   6.857   3.355
 1108SOL    HW1 4223   2.508   6.949   3.367
 1108SOL    HW2 4224   2.486   6.827   3.261
 1109SOL     OW 4225   4.413   1.989   4.587
 1109SOL    HW1 4226   4.344   2.038   4.641
 1109SOL    HW2 4227   4.412   2.023   4.493
 1110SOL     OW 4228   2.713   0.671   2.413
 1110SOL    HW1 4229   2.636   0.608   2.402
 1110SOL    HW2 4230   2.779   0.632   2.478
 1111SOL     OW 4231   5.758   3.975   6.656
 1111SOL    HW1 4232   5.668   4.010   6.628
 1111SOL    HW2 4233   5.829   4.025   6.607
 1112SOL     OW 4234   5.286   0.311   2.286
 1112SOL    HW1 4235   5.325   0.270   2.204
 1112SOL    HW2 4236   5.318   0.261   2.367
 1113SOL     OW 4237   5.592   4.369   2.567
 1113SOL    HW1 4238   5.548   4.411   2.487
 1113SOL    HW2 4239   5.692   4.375   2.557
 1114SOL     OW 4240   3.727   3.976   5.357
 1114SOL    HW1 4241   3.655   3.954   5.291
 1114SOL    HW2 4242   3.795   3.903   5.357
 1115SOL     OW 4243   3.014   4.505   5.610
 1115SOL    HW1 4244   3.085   4.527   5.676
 1115SOL    HW2 4245   3.054   4.455   5.533
 1116SOL     OW 4246   4.494   6.741   6.640
 1116SOL    HW1 4247   4.499   6.807   6.564
 1116SOL    HW2 4248   4.419   6.678   6.624
 1117SOL     OW 4249   1.760   2.275   1.508
 1117SOL    HW1 4250   1.676   2.247   1.554
 1117SOL    HW2 4251   1.739   2.350   1.445
 1118SOL     OW 4252   3.866   4.863   0.527
 1118SOL    HW1 4253   3.779   4.869   0.577
 1118SOL    HW2 4254   3.854   4.802   0.448
 1119SOL     OW 4255   2.897   5.179   4.301
 1119SOL    HW1 4256   2.815   5.192   4.357
 1119SOL    HW2 4257   2.947   5.265   4.294
 1120SOL     OW 4258   6.685   4.070   0.751
 1120SOL    HW1 4259   6.717   3.988   0.798
 1120SOL    HW2 4260   6.622   4.120   0.810
 1121SOL     OW 4261   6.701   4.873   3.986
 1121SOL    HW1 4262   6.654   4.961   3.981
 1121SOL    HW2 4263   6.799   4.886   3.972
 1122SOL     OW 4264   5.723   2.809   1.883
 1122SOL    HW1 4265   5.644   2.855   1.925
 1122SOL    HW2 4266   5.711   2.805   1.784
 1123SOL     OW 4267   3.885   1.227   3.189
 1123SOL    HW1 4268   3.946   1.159   3.229
 1123SOL    HW2 4269   3.861   1.295   3.258
 1124SOL     OW 4270   2.363   2.791   4.362
 1124SOL    HW1 4271   2.451   2.764   4.322
 1124SOL    HW2 4272   2.304   2.827   4.290
 1125SOL     OW 4273   2.259   4.039   3.583
 1125SOL    HW1 4274   2.288   4.022   3.677
 1125SOL    HW2 4275   2.212   4.127   3.578
 1126SOL     OW 4276   3.761   4.879   4.738
 1126SOL    HW1 4277   3.692   4.811   4.716
 1126SOL    HW2 4278   3.734   4.928   4.821
 1127SOL     OW 4279   5.770   0.217   2.396
 1127SOL    HW1 4280   5.796   0.280   2.469
 1127SOL    HW2 4281   5.740   0.130   2.435
 1128SOL     OW 4282   5.311   1.450   4.057
 1128SOL    HW1 4283   5.334   1.547   4.051
 1128SOL    HW2 4284   5.292   1.426   4.152
 1129SOL     OW 4285   1.411   0.893   0.491
 1129SOL    HW1 4286   1.478   0.830   0.451
 1129SOL    HW2 4287   1.413   0.886   0.591
 1130SOL     OW 4288   1.858   4.776   1.933
 1130SOL    HW1 4289   1.795   4.709   1.974
 1130SOL    HW2 4290   1.831   4.795   1.839
 1131SOL     OW 4291   1.051   5.097   4.450
 1131SOL    HW1 4292   1.032   5.190   4.479
 1131SOL    HW2 4293   1.136   5.095   4.398
 1132SOL     OW 4294   2.167   1.373   2.772
 1132SOL    HW1 4295   2.140   1.306   2.842
 1132SOL    HW2 4296   2.265   1.366   2.754
 1133SOL     OW 4297   0.779   6.843   5.463
 1133SOL    HW1 4298   0.785   6.885   5.554
 1133SOL    HW2 4299   0.853   6.877   5.406
 1134SOL     OW 4300   3.665   0.103   1.404
 1134SOL    HW1 4301   3.753   0.079   1.444
 1134SOL    HW2 4302   3.608   0.021   1.396
 1135SOL     OW 4303   2.005   5.357   3.455
 1135SOL    HW1 4304   2.101   5.327   3.448
 1135SOL    HW2 4305   1.945   5.280   3.435
 1136SOL     OW 4306   1.461   5.686   1.518
 1136SOL    HW1 4307   1.418   5.691   1.428
 1136SOL    HW2 4308   1.512   5.769   1.536
 1137SOL     OW 4309   0.989   5.307   5.471
 1137SOL    HW1 4310   0.968   5.405   5.475
 1137SOL    HW2 4311   1.083   5.292   5.503
 1138SOL     OW 4312   1.987   3.627   4.617
 1138SOL    HW1 4313   2.048   3.707   4.621
 1138SOL    HW2 4314   1.909   3.641   4.679
 1139SOL     OW 4315   3.030   5.378   4.929
 1139SOL    HW1 4316   3.094   5.329   4.871
 1139SOL    HW2 4317   3.024   5.332   5.018
 1140SOL     OW 4318   1.553   1.570   0.872
 1140SOL    HW1 4319   1.519   1.660   0.844
 1140SOL    HW2 4320   1.534   1.503   0.800
 1141SOL     OW 4321   6.807   4.502   6.252
 1141SOL    HW1 4322   6.816   4.600   6.231
 1141SOL    HW2 4323   6.882   4.474   6.312
 1142SOL     OW 4324   2.372   6.281   2.328
 1142SOL    HW1 4325   2.467   6.254   2.347
 1142SOL    HW2 4326   2.311   6.205   2.349
 1143SOL     OW 4327   1.001   4.009   1.792
 1143SOL    HW1 4328   1.086   3.970   1.828
 1143SOL    HW2 4329   0.929   4.002   1.861
 1144SOL     OW 4330   5.691   4.483   1.267
 1144SOL    HW1 4331   5.766   4.462   1.330
 1144SOL    HW2 4332   5.621   4.412   1.273
 1145SOL     OW 4333   5.849   0.633   1.166
 1145SOL    HW1 4334   5.895   0.546   1.150
 1145SOL    HW2 4335   5.769   0.640   1.107
 1146SOL     OW 4336   0.724   0.947   1.125
 1146SOL    HW1 4337   0.768   1.009   1.060
 1146SOL    HW2 4338   0.793   0.910   1.187
 1147SOL     OW 4339   2.422   6.478   1.446
 1147SOL    HW1 4340   2.433   6.486   1.545
 1147SOL    HW2 4341   2.348   6.413   1.426
 1148SOL     OW 4342   4.637   5.227   3.487
 1148SOL    HW1 4343   4.697   5.224   3.407
 1148SOL    HW2 4344   4.661   5.306   3.543
 1149SOL     OW 4345   4.624   3.272   1.293
 1149SOL    HW1 4346   4.609   3.370   1.300
 1149SOL    HW2 4347   4.669   3.239   1.376
 1150SOL     OW 4348   1.790   4.060   0.275
 1150SOL    HW1 4349   1.885   4.072   0.247
 1150SOL    HW2 4350   1.732   4.045   0.195
 1151SOL     OW 4351   6.063   5.581   3.917
 1151SOL    HW1 4352   5.981   5.615   3.870
 1151SOL    HW2 4353   6.043   5.570   4.014
 1152SOL     OW 4354   3.863   6.222   6.453
 1152SOL    HW1 4355   3.864   6.170   6.538
 1152SOL    HW2 4356   3.870   6.159   6.376
 1153SOL     OW 4357   5.805   6.928   1.436
 1153SOL    HW1 4358   5.785   6.989   1.359
 1153SOL    HW2 4359   5.824   6.836   1.402
 1154SOL     OW 4360   2.162   2.760   1.060
 1154SOL    HW1 4361   2.164   2.778   0.962
 1154SOL    HW2 4362   2.110   2.833   1.106
 1155SOL     OW 4363   2.545   6.753   4.234
 1155SOL    HW1 4364   2.464   6.696   4.248
 1155SOL    HW2 4365   2.625   6.710   4.276
 1156SOL     OW 4366   2.561   1.724   3.704
 1156SOL    HW1 4367   2.509   1.763   3.628
 1156SOL    HW2 4368   2.528   1.764   3.790
 1157SOL     OW 4369   3.584   0.610   6.789
 1157SOL    HW1 4370   3.589   0.658   6.702
 1157SOL    HW2 4371   3.674   0.576   6.814
 1158SOL     OW 4372   5.842   4.896   3.270
 1158SOL    HW1 4373   5.880   4.914   3.180
 1158SOL    HW2 4374   5.786   4.814   3.268
 1159SOL     OW 4375   6.322   5.737   1.205
 1159SOL    HW1 4376   6.319   5.788   1.291
 1159SOL    HW2 4377   6.315   5.800   1.128
 1160SOL     OW 4378   5.264   1.576   0.627
 1160SOL    HW1 4379   5.216   1.525   0.556
 1160SOL    HW2 4380   5.228   1.669   0.632
 1161SOL     OW 4381   0.747   5.328   0.812
 1161SOL    HW1 4382   0.660   5.280   0.820
 1161SOL    HW2 4383   0.821   5.262   0.803
 1162SOL     OW 4384   2.629   2.164   4.652
 1162SOL    HW1 4385   2.628   2.236   4.583
 1162SOL    HW2 4386   2.581   2.196   4.734
 1163SOL     OW 4387   5.539   3.218   2.004
 1163SOL    HW1 4388   5.530   3.123   1.974
 1163SOL    HW2 4389   5.533   3.221   2.104
 1164SOL     OW 4390   4.654   1.807   5.414
 1164SOL    HW1 4391   4.565   1.820   5.370
 1164SOL    HW2 4392   4.722   1.865   5.370
 1165SOL     OW 4393   4.072   6.428   3.653
 1165SOL    HW1 4394   4.055   6.482   3.736
 1165SOL    HW2 4395   4.023   6.341   3.660
 1166SOL     OW 4396   2.666   4.772   6.433
 1166SOL    HW1 4397   2.658   4.854   6.489
 1166SOL    HW2 4398   2.595   4.707   6.460
 1167SOL     OW 4399   5.501   4.956   2.620
 1167SOL    HW1 4400   5.527   4.952   2.717
 1167SOL    HW2 4401   5.492   4.863   2.585
 1168SOL     OW 4402   6.242   1.009   3.375
 1168SOL    HW1 4403   6.191   1.020   3.460
 1168SOL    HW2 4404   6.198   0.939   3.319
 1169SOL     OW 4405   5.618   1.253   5.610
 1169SOL    HW1 4406   5.530   1.225   5.571
 1169SOL    HW2 4407   5.689   1.245   5.541
 1170SOL     OW 4408   5.128   6.410   4.318
 1170SOL    HW1 4409   5.135   6.351   4.237
 1170SOL    HW2 4410   5.127   6.506   4.289
 1171SOL     OW 4411   0.877   6.887   1.413
 1171SOL    HW1 4412   0.813   6.870   1.339
 1171SOL    HW2 4413   0.883   6.807   1.472
 1172SOL     OW 4414   6.830   3.502   6.568
 1172SOL    HW1 4415   6.866   3.524   6.477
 1172SOL    HW2 4416   6.896   3.530   6.638
 1173SOL     OW 4417   3.835   1.612   0.537
 1173SOL    HW1 4418   3.845   1.690   0.474
 1173SOL    HW2 4419   3.873   1.636   0.626
 1174SOL     OW 4420   2.586   3.440   0.802
 1174SOL    HW1 4421   2.516   3.460   0.870
 1174SOL    HW2 4422   2.664   3.395   0.846
 1175SOL     OW 4423   3.084   3.016   4.041
 1175SOL    HW1 4424   3.045   2.993   3.952
 1175SOL    HW2 4425   3.171   2.969   4.052
 1176SOL     OW 4426   5.710   3.697   6.111
 1176SOL    HW1 4427   5.621   3.734   6.085
 1176SOL    HW2 4428   5.774   3.771   6.127
 1177SOL     OW 4429   6.860   1.822   4.674
 1177SOL    HW1 4430   6.824   1.738   4.631
 1177SOL    HW2 4431   6.944   1.849   4.627
 1178SOL     OW 4432   3.415   5.515   0.143
 1178SOL    HW1 4433   3.418   5.430   0.195
 1178SOL    HW2 4434   3.446   5.499   0.050
 1179SOL     OW 4435   1.813   5.709   0.273
 1179SOL    HW1 4436   1.767   5.661   0.197
 1179SOL    HW2 4437   1.906   5.673   0.283
 1180SOL     OW 4438   3.269   5.807   0.564
 1180SOL    HW1 4439   3.198   5.744   0.535
 1180SOL    HW2 4440   3.227   5.889   0.603
 1181SOL     OW 4441   0.397   5.984   0.727
 1181SOL    HW1 4442   0.438   5.900   0.691
 1181SOL    HW2 4443   0.390   6.052   0.654
 1182SOL     OW 4444   4.660   4.933   2.947
 1182SOL    HW1 4445   4.726   4.948   3.020
 1182SOL    HW2 4446   4.612   4.847   2.961
 1183SOL     OW 4447   2.382   3.171   5.818
 1183SOL    HW1 4448   2.372   3.134   5.910
 1183SOL    HW2 4449   2.383   3.095   5.752
 1184SOL     OW 4450   0.836   6.950   6.026
 1184SOL    HW1 4451   0.845   6.876   6.093
 1184SOL    HW2 4452   0.781   6.918   5.948
 1185SOL     OW 4453   0.048   1.528   6.736
 1185SOL    HW1 4454   0.145   1.546   6.719
 1185SOL    HW2 4455   0.028   1.542   6.833
 1186SOL     OW 4456   5.647   6.341   5.134
 1186SOL    HW1 4457   5.611   6.248   5.124
 1186SOL    HW2 4458   5.573   6.401   5.164
 1187SOL     OW 4459   5.549   0.555   6.168
 1187SOL    HW1 4460   5.576   0.649   6.191
 1187SOL    HW2 4461   5.536   0.502   6.251
 1188SOL     OW 4462   2.813   6.570   5.751
 1188SOL    HW1 4463   2.805   6.500   5.822
 1188SOL    HW2 4464   2.732   6.565   5.692
 1189SOL     OW 4465   5.841   2.970   3.256
 1189SOL    HW1 4466   5.802   3.062   3.259
 1189SOL    HW2 4467   5.808   2.917   3.334
 1190SOL     OW 4468   1.827   6.128   2.604
 1190SOL    HW1 4469   1.814   6.140   2.505
 1190SOL    HW2 4470   1.837   6.031   2.624
 1191SOL     OW 4471   4.161   5.561   2.374
 1191SOL    HW1 4472   4.172   5.567   2.473
 1191SOL    HW2 4473   4.240   5.513   2.334
 1192SOL     OW 4474   5.422   6.277   3.894
 1192SOL    HW1 4475   5.445   6.360   3.843
 1192SOL    HW2 4476   5.337   6.238   3.857
 1193SOL     OW 4477   6.147   5.389   4.166
 1193SOL    HW1 4478   6.236   5.410   4.126
 1193SOL    HW2 4479   6.095   5.332   4.102
 1194SOL     OW 4480   3.956   0.815   1.280
 1194SOL    HW1 4481   4.018   0.761   1.222
 1194SOL    HW2 4482   4.010   0.863   1.350
 1195SOL     OW 4483   5.401   2.317   3.142
 1195SOL    HW1 4484   5.456   2.363   3.072
 1195SOL    HW2 4485   5.415   2.362   3.230
 1196SOL     OW 4486   6.067   6.683   4.884
 1196SOL    HW1 4487   5.998   6.633   4.935
 1196SOL    HW2 4488   6.106   6.755   4.941
 1197SOL     OW 4489   2.294   6.224   0.028
 1197SOL    HW1 4490   2.303   6.297   6.974
 1197SOL    HW2 4491   2.314   6.260   0.119
 1198SOL     OW 4492   1.458   2.629   0.509
 1198SOL    HW1 4493   1.419   2.704   0.563
 1198SOL    HW2 4494   1.418   2.542   0.538
 1199SOL     OW 4495   5.283   4.186   2.257
 1199SOL    HW1 4496   5.256   4.197   2.352
 1199SOL    HW2 4497   5.372   4.229   2.242
 1200SOL     OW 4498   3.266   3.910   1.818
 1200SOL    HW1 4499   3.296   3.821   1.853
 1200SOL    HW2 4500   3.186   3.941   1.868
 1201SOL     OW 4501   1.548   1.923   4.735
 1201SOL    HW1 4502   1.528   1.826   4.745
 1201SOL    HW2 4503   1.641   1.941   4.768
 1202SOL     OW 4504   0.510   5.478   6.515
 1202SOL    HW1 4505   0.489   5.458   6.610
 1202SOL    HW2 4506   0.440   5.438   6.456
 1203SOL     OW 4507   4.347   5.678   5.909
 1203SOL    HW1 4508   4.411   5.662   5.985
 1203SOL    HW2 4509   4.277   5.607   5.908
 1204SOL     OW 4510   1.997   0.039   2.116
 1204SOL    HW1 4511   2.063   6.988   2.152
 1204SOL    HW2 4512   2.011   0.050   2.017
 1205SOL     OW 4513   5.147   4.429   1.982
 1205SOL    HW1 4514   5.087   4.470   1.914
 1205SOL    HW2 4515   5.227   4.488   1.996
 1206SOL     OW 4516   3.361   3.699   5.273
 1206SOL    HW1 4517   3.335   3.667   5.182
 1206SOL    HW2 4518   3.417   3.629   5.318
 1207SOL     OW 4519   1.817   6.439   1.816
 1207SOL    HW1 4520   1.800   6.344   1.793
 1207SOL    HW2 4521   1.769   6.498   1.751
 1208SOL     OW 4522   3.354   3.878   6.375
 1208SOL    HW1 4523   3.389   3.785   6.368
 1208SOL    HW2 4524   3.406   3.938   6.315
 1209SOL     OW 4525   4.063   6.570   5.543
 1209SOL    HW1 4526   4.083   6.657   5.587
 1209SOL    HW2 4527   4.116   6.564   5.458
 1210SOL     OW 4528   3.329   1.136   3.534
 1210SOL    HW1 4529   3.313   1.209   3.599
 1210SOL    HW2 4530   3.366   1.174   3.449
 1211SOL     OW 4531   1.115   3.738   0.177
 1211SOL    HW1 4532   1.203   3.716   0.136
 1211SOL    HW2 4533   1.084   3.661   0.233
 1212SOL     OW 4534   1.079   6.490   6.968
 1212SOL    HW1 4535   1.142   6.530   6.902
 1212SOL    HW2 4536   1.097   6.392   6.976
 1213SOL     OW 4537   5.385   3.053   0.715
 1213SOL    HW1 4538   5.478   3.088   0.712
 1213SOL    HW2 4539   5.335   3.082   0.633
 1214SOL     OW 4540   0.276   2.300   1.713
 1214SOL    HW1 4541   0.230   2.267   1.631
 1214SOL    HW2 4542   0.308   2.223   1.767
 1215SOL     OW 4543   1.356   5.379   4.479
 1215SOL    HW1 4544   1.339   5.297   4.532
 1215SOL    HW2 4545   1.273   5.435   4.475
 1216SOL     OW 4546   4.077   6.679   6.835
 1216SOL    HW1 4547   4.135   6.652   6.758
 1216SOL    HW2 4548   4.096   6.620   6.913
 1217SOL     OW 4549   2.684   4.508   0.085
 1217SOL    HW1 4550   2.669   4.604   0.060
 1217SOL    HW2 4551   2.777   4.496   0.118
 1218SOL     OW 4552   1.750   4.583   3.829
 1218SOL    HW1 4553   1.767   4.591   3.731
 1218SOL    HW2 4554   1.668   4.635   3.854
 1219SOL     OW 4555   4.402   5.942   2.969
 1219SOL    HW1 4556   4.348   5.860   2.987
 1219SOL    HW2 4557   4.472   5.922   2.901
 1220SOL     OW 4558   1.281   4.711   2.742
 1220SOL    HW1 4559   1.316   4.617   2.736
 1220SOL    HW2 4560   1.193   4.710   2.789
 1221SOL     OW 4561   5.875   3.909   6.185
 1221SOL    HW1 4562   5.790   3.958   6.202
 1221SOL    HW2 4563   5.908   3.868   6.270
 1222SOL     OW 4564   6.783   6.488   6.966
 1222SOL    HW1 4565   6.718   6.447   6.902
 1222SOL    HW2 4566   6.833   6.416   7.014
 1223SOL     OW 4567   3.222   6.336   0.238
 1223SOL    HW1 4568   3.178   6.247   0.249
 1223SOL    HW2 4569   3.255   6.345   0.144
 1224SOL     OW 4570   3.215   0.558   2.092
 1224SOL    HW1 4571   3.199   0.593   2.000
 1224SOL    HW2 4572   3.183   0.464   2.098
 1225SOL     OW 4573   2.493   4.097   6.736
 1225SOL    HW1 4574   2.403   4.094   6.691
 1225SOL    HW2 4575   2.481   4.101   6.835
 1226SOL     OW 4576   2.034   4.306   0.946
 1226SOL    HW1 4577   1.958   4.369   0.961
 1226SOL    HW2 4578   2.027   4.266   0.854
 1227SOL     OW 4579   0.246   3.392   6.549
 1227SOL    HW1 4580   0.248   3.393   6.449
 1227SOL    HW2 4581   0.338   3.412   6.584
 1228SOL     OW 4582   3.823   1.600   5.679
 1228SOL    HW1 4583   3.844   1.504   5.698
 1228SOL    HW2 4584   3.884   1.633   5.606
 1229SOL     OW 4585   4.060   4.481   6.397
 1229SOL    HW1 4586   4.135   4.540   6.427
 1229SOL    HW2 4587   4.011   4.446   6.477
 1230SOL     OW 4588   4.510   6.375   3.426
 1230SOL    HW1 4589   4.456   6.459   3.431
 1230SOL    HW2 4590   4.514   6.344   3.331
 1231SOL     OW 4591   1.777   4.292   4.254
 1231SOL    HW1 4592   1.872   4.316   4.272
 1231SOL    HW2 4593   1.757   4.306   4.157
 1232SOL     OW 4594   2.041   2.368   4.478
 1232SOL    HW1 4595   2.019   2.387   4.383
 1232SOL    HW2 4596   2.109   2.435   4.510
 1233SOL     OW 4597   0.944   3.404   4.362
 1233SOL    HW1 4598   1.036   3.443   4.362
 1233SOL    HW2 4599   0.951   3.304   4.362
 1234SOL     OW 4600   6.364   4.258   4.352
 1234SOL    HW1 4601   6.275   4.275   4.310
 1234SOL    HW2 4602   6.374   4.313   4.434
 1235SOL     OW 4603   6.339   5.951   4.316
 1235SOL    HW1 4604   6.316   5.984   4.408
 1235SOL    HW2 4605   6.395   6.020   4.269
 1236SOL     OW 4606   5.298   0.700   0.268
 1236SOL    HW1 4607   5.394   0.708   0.295
 1236SOL    HW2 4608   5.259   0.791   0.256
 1237SOL     OW 4609   2.999   4.511   0.034
 1237SOL    HW1 4610   2.985   4.497   6.950
 1237SOL    HW2 4611   3.079   4.458   0.064
 1238SOL     OW 4612   1.824   1.629   1.385
 1238SOL    HW1 4613   1.830   1.581   1.298
 1238SOL    HW2 4614   1.895   1.700   1.389
 1239SOL     OW 4615   6.987   6.541   6.785
 1239SOL    HW1 4616   6.904   6.527   6.839
 1239SOL    HW2 4617   0.053   6.514   6.839
 1240SOL     OW 4618   4.755   6.085   1.799
 1240SOL    HW1 4619   4.693   6.084   1.878
 1240SOL    HW2 4620   4.752   6.176   1.757
 1241SOL     OW 4621   6.292   3.169   3.422
 1241SOL    HW1 4622   6.286   3.252   3.365
 1241SOL    HW2 4623   6.388   3.145   3.435
 1242SOL     OW 4624   2.434   3.848   6.936
 1242SOL    HW1 4625   2.533   3.849   6.953
 1242SOL    HW2 4626   2.418   3.828   6.839
 1243SOL     OW 4627   2.633   5.420   5.265
 1243SOL    HW1 4628   2.665   5.500   5.215
 1243SOL    HW2 4629   2.706   5.388   5.326
 1244SOL     OW 4630   0.749   0.737   3.463
 1244SOL    HW1 4631   0.751   0.692   3.552
 1244SOL    HW2 4632   0.688   0.816   3.467
 1245SOL     OW 4633   2.970   3.397   6.541
 1245SOL    HW1 4634   3.057   3.350   6.526
 1245SOL    HW2 4635   2.955   3.411   6.639
 1246SOL     OW 4636   1.139   6.296   2.667
 1246SOL    HW1 4637   1.043   6.281   2.645
 1246SOL    HW2 4638   1.171   6.225   2.729
 1247SOL     OW 4639   1.660   6.689   6.615
 1247SOL    HW1 4640   1.614   6.776   6.598
 1247SOL    HW2 4641   1.714   6.664   6.534
 1248SOL     OW 4642   1.824   5.612   3.497
 1248SOL    HW1 4643   1.850   5.670   3.575
 1248SOL    HW2 4644   1.868   5.523   3.506
 1249SOL     OW 4645   6.151   3.313   3.016
 1249SOL    HW1 4646   6.190   3.334   3.106
 1249SOL    HW2 4647   6.111   3.222   3.016
 1250SOL     OW 4648   0.920   4.938   4.663
 1250SOL    HW1 4649   0.952   5.002   4.593
 1250SOL    HW2 4650   0.825   4.915   4.645
 1251SOL     OW 4651   3.699   0.237   5.270
 1251SOL    HW1 4652   3.796   0.249   5.249
 1251SOL    HW2 4653   3.644   0.271   5.193
 1252SOL     OW 4654   3.606   3.390   6.409
 1252SOL    HW1 4655   3.573   3.475   6.367
 1252SOL    HW2 4656   3.531   3.324   6.412
 1253SOL     OW 4657   4.004   5.930   2.823
 1253SOL    HW1 4658   4.051   5.967   2.903
 1253SOL    HW2 4659   4.026   5.833   2.813
 1254SOL     OW 4660   6.858   1.630   2.847
 1254SOL    HW1 4661   6.918   1.562   2.890
 1254SOL    HW2 4662   6.780   1.583   2.805
 1255SOL     OW 4663   6.081   6.959   6.809
 1255SOL    HW1 4664   6.067   6.862   6.829
 1255SOL    HW2 4665   6.035   6.982   6.722
 1256SOL     OW 4666   4.381   1.214   3.666
 1256SOL    HW1 4667   4.452   1.191   3.599
 1256SOL    HW2 4668   4.294   1.227   3.619
 1257SOL     OW 4669   5.984   1.776   4.093
 1257SOL    HW1 4670   6.051   1.848   4.079
 1257SOL    HW2 4671   5.911   1.785   4.025
 1258SOL     OW 4672   7.011   6.667   3.625
 1258SOL    HW1 4673   0.060   6.730   3.580
 1258SOL    HW2 4674   0.036   6.575   3.624
 1259SOL     OW 4675   4.337   2.366   5.287
 1259SOL    HW1 4676   4.352   2.418   5.370
 1259SOL    HW2 4677   4.291   2.424   5.219
 1260SOL     OW 4678   1.198   0.990   6.358
 1260SOL    HW1 4679   1.126   0.947   6.303
 1260SOL    HW2 4680   1.232   1.071   6.309
 1261SOL     OW 4681   6.475   4.222   0.908
 1261SOL    HW1 4682   6.395   4.188   0.859
 1261SOL    HW2 4683   6.452   4.306   0.957
 1262SOL     OW 4684   5.350   5.961   2.304
 1262SOL    HW1 4685   5.444   5.995   2.303
 1262SOL    HW2 4686   5.338   5.894   2.230
 1263SOL     OW 4687   0.865   2.103   3.296
 1263SOL    HW1 4688   0.928   2.121   3.372
 1263SOL    HW2 4689   0.837   2.189   3.255
 1264SOL     OW 4690   0.865   2.577   5.321
 1264SOL    HW1 4691   0.939   2.548   5.260
 1264SOL    HW2 4692   0.808   2.497   5.344
 1265SOL     OW 4693   5.647   6.569   5.337
 1265SOL    HW1 4694   5.668   6.521   5.252
 1265SOL    HW2 4695   5.653   6.668   5.322
 1266SOL     OW 4696   1.717   1.245   4.903
 1266SOL    HW1 4697   1.786   1.311   4.875
 1266SOL    HW2 4698   1.683   1.268   4.994
 1267SOL     OW 4699   3.423   0.450   3.274
 1267SOL    HW1 4700   3.480   0.528   3.300
 1267SOL    HW2 4701   3.481   0.375   3.243
 1268SOL     OW 4702   4.381   2.792   5.557
 1268SOL    HW1 4703   4.330   2.714   5.592
 1268SOL    HW2 4704   4.479   2.780   5.577
 1269SOL     OW 4705   6.272   2.051   4.235
 1269SOL    HW1 4706   6.188   2.097   4.263
 1269SOL    HW2 4707   6.350   2.110   4.253
 1270SOL     OW 4708   6.328   5.720   2.555
 1270SOL    HW1 4709   6.396   5.663   2.508
 1270SOL    HW2 4710   6.240   5.672   2.557
 1271SOL     OW 4711   1.913   1.514   1.148
 1271SOL    HW1 4712   1.995   1.468   1.185
 1271SOL    HW2 4713   1.869   1.454   1.081
 1272SOL     OW 4714   6.314   3.497   5.980
 1272SOL    HW1 4715   6.224   3.510   6.021
 1272SOL    HW2 4716   6.307   3.437   5.901
 1273SOL     OW 4717   1.040   4.685   5.030
 1273SOL    HW1 4718   0.981   4.619   5.076
 1273SOL    HW2 4719   1.112   4.716   5.093
 1274SOL     OW 4720   0.149   5.350   3.277
 1274SOL    HW1 4721   0.091   5.382   3.202
 1274SOL    HW2 4722   0.146   5.416   3.351
 1275SOL     OW 4723   1.912   1.505   3.004
 1275SOL    HW1 4724   1.890   1.410   3.029
 1275SOL    HW2 4725   1.931   1.557   3.087
 1276SOL     OW 4726   5.631   5.047   4.313
 1276SOL    HW1 4727   5.647   5.096   4.228
 1276SOL    HW2 4728   5.616   4.950   4.294
 1277SOL     OW 4729   1.175   6.048   0.401
 1277SOL    HW1 4730   1.119   6.129   0.384
 1277SOL    HW2 4731   1.268   6.065   0.369
 1278SOL     OW 4732   0.872   6.146   2.837
 1278SOL    HW1 4733   0.790   6.118   2.886
 1278SOL    HW2 4734   0.847   6.210   2.764
 1279SOL     OW 4735   2.380   2.782   1.702
 1279SOL    HW1 4736   2.353   2.707   1.763
 1279SOL    HW2 4737   2.476   2.774   1.679
 1280SOL     OW 4738   2.049   2.362   3.887
 1280SOL    HW1 4739   2.039   2.295   3.960
 1280SOL    HW2 4740   2.010   2.450   3.916
 1281SOL     OW 4741   4.933   6.168   4.881
 1281SOL    HW1 4742   5.010   6.197   4.825
 1281SOL    HW2 4743   4.952   6.187   4.977
 1282SOL     OW 4744   6.947   2.674   1.144
 1282SOL    HW1 4745   6.955   2.673   1.244
 1282SOL    HW2 4746   0.002   2.614   1.104
 1283SOL     OW 4747   0.255   3.015   4.639
 1283SOL    HW1 4748   0.343   3.018   4.591
 1283SOL    HW2 4749   0.268   2.973   4.729
 1284SOL     OW 4750   3.936   2.162   1.552
 1284SOL    HW1 4751   3.859   2.114   1.593
 1284SOL    HW2 4752   3.999   2.095   1.512
 1285SOL     OW 4753   4.495   0.981   5.512
 1285SOL    HW1 4754   4.479   1.058   5.449
 1285SOL    HW2 4755   4.591   0.952   5.503
 1286SOL     OW 4756   5.377   2.571   1.390
 1286SOL    HW1 4757   5.433   2.615   1.320
 1286SOL    HW2 4758   5.311   2.510   1.346
 1287SOL     OW 4759   6.675   5.131   4.725
 1287SOL    HW1 4760   6.706   5.068   4.654
 1287SOL    HW2 4761   6.578   5.152   4.711
 1288SOL     OW 4762   4.675   4.181   0.159
 1288SOL    HW1 4763   4.636   4.241   0.090
 1288SOL    HW2 4764   4.640   4.088   0.146
 1289SOL     OW 4765   6.897   0.090   1.528
 1289SOL    HW1 4766   6.851   0.015   1.480
 1289SOL    HW2 4767   6.993   0.093   1.499
 1290SOL     OW 4768   1.528   6.507   5.659
 1290SOL    HW1 4769   1.492   6.586   5.709
 1290SOL    HW2 4770   1.471   6.491   5.579
 1291SOL     OW 4771   6.333   4.631   3.096
 1291SOL    HW1 4772   6.296   4.642   3.188
 1291SOL    HW2 4773   6.425   4.669   3.092
 1292SOL     OW 4774   0.856   6.701   1.835
 1292SOL    HW1 4775   0.804   6.723   1.917
 1292SOL    HW2 4776   0.909   6.618   1.850
 1293SOL     OW 4777   4.404   1.261   7.006
 1293SOL    HW1 4778   4.497   1.291   0.013
 1293SOL    HW2 4779   4.403   1.161   6.999
 1294SOL     OW 4780   2.067   4.307   4.812
 1294SOL    HW1 4781   2.128   4.300   4.733
 1294SOL    HW2 4782   2.074   4.224   4.867
 1295SOL     OW 4783   6.280   4.482   0.753
 1295SOL    HW1 4784   6.318   4.406   0.700
 1295SOL    HW2 4785   6.210   4.529   0.700
 1296SOL     OW 4786   5.645   0.146   5.962
 1296SOL    HW1 4787   5.631   0.124   5.866
 1296SOL    HW2 4788   5.556   0.161   6.007
 1297SOL     OW 4789   0.741   0.549   1.875
 1297SOL    HW1 4790   0.667   0.489   1.905
 1297SOL    HW2 4791   0.825   0.495   1.864
 1298SOL     OW 4792   5.014   7.006   2.357
 1298SOL    HW1 4793   5.064   6.948   2.293
 1298SOL    HW2 4794   5.072   0.011   2.436
 1299SOL     OW 4795   0.692   3.778   4.613
 1299SOL    HW1 4796   0.627   3.841   4.656
 1299SOL    HW2 4797   0.779   3.824   4.599
 1300SOL     OW 4798   1.006   4.748   1.726
 1300SOL    HW1 4799   1.017   4.763   1.825
 1300SOL    HW2 4800   0.941   4.814   1.690
 1301SOL     OW 4801   0.423   0.421   0.484
 1301SOL    HW1 4802   0.367   0.495   0.448
 1301SOL    HW2 4803   0.438   0.353   0.412
 1302SOL     OW 4804   5.882   0.113   5.028
 1302SOL    HW1 4805   5.887   0.152   4.936
 1302SOL    HW2 4806   5.790   0.126   5.065
 1303SOL     OW 4807   3.482   6.326   1.729
 1303SOL    HW1 4808   3.444   6.243   1.770
 1303SOL    HW2 4809   3.557   6.360   1.786
 1304SOL     OW 4810   0.859   0.890   0.670
 1304SOL    HW1 4811   0.886   0.985   0.686
 1304SOL    HW2 4812   0.917   0.829   0.724
 1305SOL     OW 4813   4.534   3.191   6.230
 1305SOL    HW1 4814   4.604   3.238   6.284
 1305SOL    HW2 4815   4.527   3.234   6.140
 1306SOL     OW 4816   2.980   5.440   4.268
 1306SOL    HW1 4817   2.902   5.459   4.207
 1306SOL    HW2 4818   3.064   5.474   4.225
 1307SOL     OW 4819   2.789   2.234   3.520
 1307SOL    HW1 4820   2.886   2.247   3.543
 1307SOL    HW2 4821   2.759   2.144   3.552
 1308SOL     OW 4822   0.694   4.253   6.260
 1308SOL    HW1 4823   0.595   4.258   6.274
 1308SOL    HW2 4824   0.726   4.161   6.283
 1309SOL     OW 4825   5.701   4.526   6.546
 1309SOL    HW1 4826   5.710   4.434   6.507
 1309SOL    HW2 4827   5.786   4.550   6.593
 1310SOL     OW 4828   1.526   3.975   3.377
 1310SOL    HW1 4829   1.452   4.001   3.438
 1310SOL    HW2 4830   1.613   3.982   3.425
 1311SOL     OW 4831   6.085   5.573   0.662
 1311SOL    HW1 4832   6.068   5.541   0.755
 1311SOL    HW2 4833   6.140   5.505   0.612
 1312SOL     OW 4834   2.456   0.878   6.058
 1312SOL    HW1 4835   2.528   0.840   6.000
 1312SOL    HW2 4836   2.374   0.821   6.050
 1313SOL     OW 4837   6.586   6.068   2.424
 1313SOL    HW1 4838   6.588   6.153   2.477
 1313SOL    HW2 4839   6.679   6.036   2.408
 1314SOL     OW 4840   2.408   1.675   4.986
 1314SOL    HW1 4841   2.368   1.622   4.911
 1314SOL    HW2 4842   2.451   1.613   5.052
 1315SOL     OW 4843   5.874   1.513   3.408
 1315SOL    HW1 4844   5.870   1.427   3.357
 1315SOL    HW2 4845   5.858   1.589   3.345
 1316SOL     OW 4846   4.638   0.412   6.462
 1316SOL    HW1 4847   4.577   0.346   6.419
 1316SOL    HW2 4848   4.625   0.411   6.561
 1317SOL     OW 4849   3.230   3.548   5.939
 1317SOL    HW1 4850   3.155   3.586   5.885
 1317SOL    HW2 4851   3.199   3.463   5.984
 1318SOL     OW 4852   2.022   2.247   6.047
 1318SOL    HW1 4853   2.094   2.199   5.997
 1318SOL    HW2 4854   2.057   2.335   6.080
 1319SOL     OW 4855   6.651   6.929   1.120
 1319SOL    HW1 4856   6.652   0.011   1.146
 1319SOL    HW2 4857   6.595   6.917   1.038
 1320SOL     OW 4858   3.171   3.199   5.678
 1320SOL    HW1 4859   3.170   3.274   5.611
 1320SOL    HW2 4860   3.222   3.228   5.759
 1321SOL     OW 4861   6.404   2.664   0.433
 1321SOL    HW1 4862   6.467   2.647   0.509
 1321SOL    HW2 4863   6.398   2.763   0.417
 1322SOL     OW 4864   3.310   2.022   0.591
 1322SOL    HW1 4865   3.390   2.026   0.650
 1322SOL    HW2 4866   3.327   2.074   0.508
 1323SOL     OW 4867   3.483   0.043   0.617
 1323SOL    HW1 4868   3.566   7.006   0.594
 1323SOL    HW2 4869   3.423   6.999   0.672
 1324SOL     OW 4870   1.569   3.624   6.984
 1324SOL    HW1 4871   1.529   3.535   6.960
 1324SOL    HW2 4872   1.662   3.610   0.004
 1325SOL     OW 4873   3.026   5.832   5.561
 1325SOL    HW1 4874   2.982   5.870   5.480
 1325SOL    HW2 4875   2.957   5.801   5.625
 1326SOL     OW 4876   4.696   2.742   3.798
 1326SOL    HW1 4877   4.687   2.685   3.716
 1326SOL    HW2 4878   4.739   2.829   3.773
 1327SOL     OW 4879   5.522   5.634   2.323
 1327SOL    HW1 4880   5.546   5.540   2.298
 1327SOL    HW2 4881   5.423   5.642   2.332
 1328SOL     OW 4882   2.121   2.943   4.929
 1328SOL    HW1 4883   2.114   2.845   4.907
 1328SOL    HW2 4884   2.212   2.963   4.965
 1329SOL     OW 4885   1.164   3.082   3.884
 1329SOL    HW1 4886   1.088   3.108   3.825
 1329SOL    HW2 4887   1.216   3.008   3.840
 1330SOL     OW 4888   6.594   2.823   1.838
 1330SOL    HW1 4889   6.510   2.779   1.871
 1330SOL    HW2 4890   6.667   2.806   1.904
 1331SOL     OW 4891   4.615   1.767   3.753
 1331SOL    HW1 4892   4.515   1.775   3.762
 1331SOL    HW2 4893   4.656   1.857   3.761
 1332SOL     OW 4894   1.555   6.285   0.117
 1332SOL    HW1 4895   1.503   6.366   0.091
 1332SOL    HW2 4896   1.623   6.310   0.186
 1333SOL     OW 4897   3.973   3.910   3.337
 1333SOL    HW1 4898   3.935   3.959   3.415
 1333SOL    HW2 4899   3.924   3.937   3.254
 1334SOL     OW 4900   6.987   3.913   1.977
 1334SOL    HW1 4901   0.043   3.846   1.952
 1334SOL    HW2 4902   6.917   3.869   2.033
 1335SOL     OW 4903   1.115   3.849   2.626
 1335SOL    HW1 4904   1.031   3.873   2.674
 1335SOL    HW2 4905   1.127   3.910   2.548
 1336SOL     OW 4906   2.797   0.306   5.247
 1336SOL    HW1 4907   2.852   0.242   5.302
 1336SOL    HW2 4908   2.753   0.257   5.173
 1337SOL     OW 4909   6.478   1.105   3.415
 1337SOL    HW1 4910   6.462   1.193   3.372
 1337SOL    HW2 4911   6.402   1.043   3.394
 1338SOL     OW 4912   6.633   4.015   5.044
 1338SOL    HW1 4913   6.721   4.062   5.038
 1338SOL    HW2 4914   6.645   3.925   5.086
 1339SOL     OW 4915   0.024   0.297   6.850
 1339SOL    HW1 4916   0.095   0.244   6.896
 1339SOL    HW2 4917   0.010   0.383   6.899
 1340SOL     OW 4918   4.127   2.634   1.481
 1340SOL    HW1 4919   4.156   2.727   1.457
 1340SOL    HW2 4920   4.028   2.627   1.469
 1341SOL     OW 4921   4.781   6.191   0.127
 1341SOL    HW1 4922   4.722   6.250   0.071
 1341SOL    HW2 4923   4.769   6.096   0.099
 1342SOL     OW 4924   2.661   6.707   1.643
 1342SOL    HW1 4925   2.651   6.794   1.596
 1342SOL    HW2 4926   2.757   6.692   1.666
 1343SOL     OW 4927   5.911   5.714   3.256
 1343SOL    HW1 4928   5.894   5.718   3.158
 1343SOL    HW2 4929   5.880   5.626   3.292
 1344SOL     OW 4930   0.653   0.510   4.650
 1344SOL    HW1 4931   0.750   0.488   4.636
 1344SOL    HW2 4932   0.637   0.607   4.630
 1345SOL     OW 4933   0.221   6.309   0.131
 1345SOL    HW1 4934   0.129   6.326   0.166
 1345SOL    HW2 4935   0.226   6.217   0.093
 1346SOL     OW 4936   3.006   5.654   5.229
 1346SOL    HW1 4937   2.937   5.587   5.203
 1346SOL    HW2 4938   2.988   5.740   5.183
 1347SOL     OW 4939   1.263   0.070   6.270
 1347SOL    HW1 4940   1.181   0.013   6.279
 1347SOL    HW2 4941   1.237   0.158   6.231
 1348SOL     OW 4942   0.971   6.209   5.643
 1348SOL    HW1 4943   1.045   6.142   5.641
 1348SOL    HW2 4944   0.906   6.189   5.570
 1349SOL     OW 4945   4.827   3.109   3.875
 1349SOL    HW1 4946   4.817   3.178   3.948
 1349SOL    HW2 4947   4.897   3.042   3.903
 1350SOL     OW 4948   4.239   4.020   6.976
 1350SOL    HW1 4949   4.180   3.956   0.011
 1350SOL    HW2 4950   4.241   4.107   0.011
 1351SOL     OW 4951   0.058   2.701   5.124
 1351SOL    HW1 4952   0.031   2.611   5.159
 1351SOL    HW2 4953   0.156   2.704   5.109
 1352SOL     OW 4954   6.731   0.458   1.996
 1352SOL    HW1 4955   6.709   0.398   1.919
 1352SOL    HW2 4956   6.773   0.404   2.069
 1353SOL     OW 4957   0.502   1.128   0.755
 1353SOL    HW1 4958   0.567   1.163   0.822
 1353SOL    HW2 4959   0.551   1.101   0.672
 1354SOL     OW 4960   5.079   5.121   3.061
 1354SOL    HW1 4961   5.081   5.103   2.963
 1354SOL    HW2 4962   5.057   5.037   3.110
 1355SOL     OW 4963   6.090   3.217   6.161
 1355SOL    HW1 4964   6.150   3.175   6.092
 1355SOL    HW2 4965   6.094   3.317   6.152
 1356SOL     OW 4966   3.039   3.449   0.854
 1356SOL    HW1 4967   3.055   3.535   0.902
 1356SOL    HW2 4968   3.110   3.383   0.878
 1357SOL     OW 4969   0.398   3.438   4.889
 1357SOL    HW1 4970   0.403   3.338   4.884
 1357SOL    HW2 4971   0.455   3.470   4.965
 1358SOL     OW 4972   1.854   6.798   6.839
 1358SOL    HW1 4973   1.868   6.716   6.894
 1358SOL    HW2 4974   1.892   6.783   6.748
 1359SOL     OW 4975   7.012   4.583   2.013
 1359SOL    HW1 4976   6.943   4.551   1.949
 1359SOL    HW2 4977   6.973   4.588   2.105
 1360SOL     OW 4978   2.397   2.485   0.099
 1360SOL    HW1 4979   2.359   2.542   0.172
 1360SOL    HW2 4980   2.325   2.457   0.036
 1361SOL     OW 4981   0.228   5.020   5.151
 1361SOL    HW1 4982   0.139   5.021   5.107
 1361SOL    HW2 4983   0.222   4.972   5.238
 1362SOL     OW 4984   3.095   3.055   2.832
 1362SOL    HW1 4985   3.099   3.043   2.733
 1362SOL    HW2 4986   3.173   3.009   2.874
 1363SOL     OW 4987   1.251   6.093   4.253
 1363SOL    HW1 4988   1.188   6.047   4.191
 1363SOL    HW2 4989   1.338   6.110   4.206
 1364SOL     OW 4990   4.228   4.003   0.912
 1364SOL    HW1 4991   4.265   3.936   0.976
 1364SOL    HW2 4992   4.272   4.092   0.927
 1365SOL     OW 4993   0.605   3.123   6.826
 1365SOL    HW1 4994   0.513   3.118   6.864
 1365SOL    HW2 4995   0.672   3.096   6.895
 1366SOL     OW 4996   3.403   0.034   5.182
 1366SOL    HW1 4997   3.407   0.085   5.097
 1366SOL    HW2 4998   3.480   0.061   5.241
 1367SOL     OW 4999   2.277   1.014   2.859
 1367SOL    HW1 5000   2.179   1.036   2.862
 1367SOL    HW2 5001   2.325   1.068   2.929
 1368SOL     OW 5002   5.308   6.477   3.466
 1368SOL    HW1 5003   5.221   6.481   3.416
 1368SOL    HW2 5004   5.290   6.480   3.564
 1369SOL     OW 5005   1.414   1.146   3.160
 1369SOL    HW1 5006   1.370   1.091   3.090
 1369SOL    HW2 5007   1.479   1.209   3.117
 1370SOL     OW 5008   2.436   0.639   1.389
 1370SOL    HW1 5009   2.462   0.543   1.399
 1370SOL    HW2 5010   2.484   0.694   1.458
 1371SOL     OW 5011   4.095   0.520   6.550
 1371SOL    HW1 5012   4.194   0.511   6.544
 1371SOL    HW2 5013   4.059   0.558   6.465
 1372SOL     OW 5014   3.120   2.070   2.062
 1372SOL    HW1 5015   3.160   2.031   2.145
 1372SOL    HW2 5016   3.058   2.144   2.087
 1373SOL     OW 5017   1.335   6.218   0.820
 1373SOL    HW1 5018   1.288   6.306   0.829
 1373SOL    HW2 5019   1.427   6.233   0.786
 1374SOL     OW 5020   5.002   2.871   0.126
 1374SOL    HW1 5021   4.905   2.875   0.104
 1374SOL    HW2 5022   5.021   2.932   0.203
 1375SOL     OW 5023   0.461   4.097   5.209
 1375SOL    HW1 5024   0.479   4.016   5.153
 1375SOL    HW2 5025   0.541   4.119   5.264
 1376SOL     OW 5026   4.685   1.408   2.541
 1376SOL    HW1 5027   4.726   1.492   2.504
 1376SOL    HW2 5028   4.741   1.329   2.515
 1377SOL     OW 5029   0.720   5.756   4.570
 1377SOL    HW1 5030   0.636   5.811   4.572
 1377SOL    HW2 5031   0.697   5.661   4.590
 1378SOL     OW 5032   2.129   2.019   6.726
 1378SOL    HW1 5033   2.065   1.960   6.677
 1378SOL    HW2 5034   2.110   2.115   6.703
 1379SOL     OW 5035   3.957   6.007   0.980
 1379SOL    HW1 5036   3.857   6.005   0.991
 1379SOL    HW2 5037   3.979   5.992   0.883
 1380SOL     OW 5038   6.502   6.480   2.957
 1380SOL    HW1 5039   6.599   6.499   2.966
 1380SOL    HW2 5040   6.484   6.429   2.873
 1381SOL     OW 5041   6.073   0.622   1.571
 1381SOL    HW1 5042   6.036   0.672   1.649
 1381SOL    HW2 5043   6.023   0.536   1.560
 1382SOL     OW 5044   0.174   5.057   6.260
 1382SOL    HW1 5045   0.166   5.155   6.240
 1382SOL    HW2 5046   0.267   5.036   6.288
 1383SOL     OW 5047   2.411   6.985   0.327
 1383SOL    HW1 5048   2.489   6.987   0.389
 1383SOL    HW2 5049   2.326   6.985   0.380
 1384SOL     OW 5050   2.698   1.848   2.249
 1384SOL    HW1 5051   2.737   1.933   2.212
 1384SOL    HW2 5052   2.709   1.774   2.182
 1385SOL     OW 5053   5.221   2.922   3.095
 1385SOL    HW1 5054   5.140   2.874   3.061
 1385SOL    HW2 5055   5.209   2.941   3.192
 1386SOL     OW 5056   2.402   2.670   4.014
 1386SOL    HW1 5057   2.397   2.735   3.938
 1386SOL    HW2 5058   2.479   2.607   3.999
 1387SOL     OW 5059   2.135   0.444   4.676
 1387SOL    HW1 5060   2.231   0.470   4.684
 1387SOL    HW2 5061   2.120   0.356   4.722
 1388SOL     OW 5062   5.924   1.326   4.938
 1388SOL    HW1 5063   6.018   1.353   4.917
 1388SOL    HW2 5064   5.914   1.227   4.930
 1389SOL     OW 5065   6.416   0.999   4.131
 1389SOL    HW1 5066   6.367   0.969   4.213
 1389SOL    HW2 5067   6.372   1.081   4.094
 1390SOL     OW 5068   4.525   2.435   1.798
 1390SOL    HW1 5069   4.441   2.392   1.832
 1390SOL    HW2 5070   4.544   2.518   1.851
 1391SOL     OW 5071   5.743   1.630   4.616
 1391SOL    HW1 5072   5.759   1.724   4.648
 1391SOL    HW2 5073   5.808   1.569   4.660
 1392SOL     OW 5074   4.608   6.018   5.869
 1392SOL    HW1 5075   4.516   6.022   5.832
 1392SOL    HW2 5076   4.666   5.962   5.810
 1393SOL     OW 5077   4.894   0.580   6.946
 1393SOL    HW1 5078   4.919   0.590   0.028
 1393SOL    HW2 5079   4.976   0.579   6.889
 1394SOL     OW 5080   4.445   0.681   3.838
 1394SOL    HW1 5081   4.541   0.708   3.849
 1394SOL    HW2 5082   4.386   0.756   3.870
 1395SOL     OW 5083   1.320   5.406   2.201
 1395SOL    HW1 5084   1.237   5.351   2.192
 1395SOL    HW2 5085   1.326   5.469   2.124
 1396SOL     OW 5086   1.593   1.047   3.598
 1396SOL    HW1 5087   1.591   0.993   3.682
 1396SOL    HW2 5088   1.554   1.138   3.615
 1397SOL     OW 5089   0.631   5.538   4.703
 1397SOL    HW1 5090   0.535   5.566   4.706
 1397SOL    HW2 5091   0.639   5.444   4.735
 1398SOL     OW 5092   1.922   6.335   6.987
 1398SOL    HW1 5093   1.892   6.430   6.988
 1398SOL    HW2 5094   1.987   6.321   6.913
 1399SOL     OW 5095   3.940   0.108   0.445
 1399SOL    HW1 5096   3.967   0.012   0.453
 1399SOL    HW2 5097   3.865   0.116   0.380
 1400SOL     OW 5098   0.552   1.141   5.039
 1400SOL    HW1 5099   0.573   1.108   5.131
 1400SOL    HW2 5100   0.597   1.229   5.024
 1401SOL     OW 5101   5.432   0.300   2.736
 1401SOL    HW1 5102   5.491   0.300   2.656
 1401SOL    HW2 5103   5.486   0.321   2.818
 1402SOL     OW 5104   6.920   4.596   2.586
 1402SOL    HW1 5105   6.894   4.567   2.678
 1402SOL    HW2 5106   6.970   4.682   2.591
 1403SOL     OW 5107   3.248   3.015   6.564
 1403SOL    HW1 5108   3.289   2.940   6.513
 1403SOL    HW2 5109   3.282   3.015   6.658
 1404SOL     OW 5110   4.321   6.251   0.386
 1404SOL    HW1 5111   4.237   6.201   0.403
 1404SOL    HW2 5112   4.383   6.195   0.331
 1405SOL     OW 5113   0.667   3.880   0.746
 1405SOL    HW1 5114   0.692   3.891   0.842
 1405SOL    HW2 5115   0.568   3.889   0.737
 1406SOL     OW 5116   1.854   3.147   0.542
 1406SOL    HW1 5117   1.756   3.132   0.530
 1406SOL    HW2 5118   1.870   3.245   0.556
 1407SOL     OW 5119   0.706   3.014   1.471
 1407SOL    HW1 5120   0.799   3.051   1.464
 1407SOL    HW2 5121   0.674   3.023   1.565
 1408SOL     OW 5122   5.519   6.429   1.114
 1408SOL    HW1 5123   5.610   6.393   1.096
 1408SOL    HW2 5124   5.473   6.448   1.028
 1409SOL     OW 5125   6.320   1.721   5.803
 1409SOL    HW1 5126   6.256   1.644   5.801
 1409SOL    HW2 5127   6.381   1.712   5.882
 1410SOL     OW 5128   3.289   0.311   6.960
 1410SOL    HW1 5129   3.297   0.311   0.045
 1410SOL    HW2 5130   3.376   0.337   6.919
 1411SOL     OW 5131   3.345   4.543   6.859
 1411SOL    HW1 5132   3.260   4.588   6.832
 1411SOL    HW2 5133   3.363   4.561   6.956
 1412SOL     OW 5134   2.504   2.273   0.494
 1412SOL    HW1 5135   2.494   2.328   0.577
 1412SOL    HW2 5136   2.477   2.179   0.514
 1413SOL     OW 5137   2.174   1.771   5.273
 1413SOL    HW1 5138   2.202   1.675   5.285
 1413SOL    HW2 5139   2.256   1.829   5.270
 1414SOL     OW 5140   0.511   4.794   2.330
 1414SOL    HW1 5141   0.528   4.721   2.396
 1414SOL    HW2 5142   0.562   4.775   2.246
 1415SOL     OW 5143   2.891   1.689   4.779
 1415SOL    HW1 5144   2.939   1.743   4.848
 1415SOL    HW2 5145   2.834   1.749   4.723
 1416SOL     OW 5146   4.427   0.366   4.730
 1416SOL    HW1 5147   4.373   0.289   4.762
 1416SOL    HW2 5148   4.366   0.442   4.707
 1417SOL     OW 5149   3.765   3.467   4.732
 1417SOL    HW1 5150   3.811   3.394   4.782
 1417SOL    HW2 5151   3.671   3.440   4.713
 1418SOL     OW 5152   3.466   4.037   6.183
 1418SOL    HW1 5153   3.440   4.099   6.109
 1418SOL    HW2 5154   3.512   3.957   6.144
 1419SOL     OW 5155   1.614   6.196   2.042
 1419SOL    HW1 5156   1.591   6.108   2.002
 1419SOL    HW2 5157   1.710   6.195   2.072
 1420SOL     OW 5158   2.737   6.487   2.358
 1420SOL    HW1 5159   2.825   6.440   2.356
 1420SOL    HW2 5160   2.696   6.477   2.448
 1421SOL     OW 5161   1.714   5.194   6.408
 1421SOL    HW1 5162   1.690   5.140   6.489
 1421SOL    HW2 5163   1.632   5.213   6.355
 1422SOL     OW 5164   1.560   2.783   6.432
 1422SOL    HW1 5165   1.504   2.846   6.378
 1422SOL    HW2 5166   1.524   2.778   6.525
 1423SOL     OW 5167   4.284   0.724   5.202
 1423SOL    HW1 5168   4.192   0.703   5.234
 1423SOL    HW2 5169   4.296   0.685   5.110
 1424SOL     OW 5170   6.492   3.163   1.232
 1424SOL    HW1 5171   6.556   3.101   1.277
 1424SOL    HW2 5172   6.483   3.138   1.136
 1425SOL     OW 5173   5.419   6.992   3.765
 1425SOL    HW1 5174   5.420   6.893   3.753
 1425SOL    HW2 5175   5.402   0.000   3.861
 1426SOL     OW 5176   4.264   0.680   6.965
 1426SOL    HW1 5177   4.191   0.704   6.902
 1426SOL    HW2 5178   4.284   0.757   0.011
 1427SOL     OW 5179   1.617   0.475   4.051
 1427SOL    HW1 5180   1.704   0.453   4.094
 1427SOL    HW2 5181   1.545   0.416   4.088
 1428SOL     OW 5182   1.518   3.459   4.088
 1428SOL    HW1 5183   1.476   3.487   4.174
 1428SOL    HW2 5184   1.612   3.430   4.105
 1429SOL     OW 5185   6.252   0.552   2.317
 1429SOL    HW1 5186   6.251   0.452   2.318
 1429SOL    HW2 5187   6.293   0.586   2.401
 1430SOL     OW 5188   2.164   3.859   4.514
 1430SOL    HW1 5189   2.203   3.831   4.426
 1430SOL    HW2 5190   2.111   3.943   4.502
 1431SOL     OW 5191   3.095   1.547   0.228
 1431SOL    HW1 5192   3.171   1.590   0.179
 1431SOL    HW2 5193   3.058   1.472   0.174
 1432SOL     OW 5194   3.848   0.093   2.231
 1432SOL    HW1 5195   3.785   0.016   2.241
 1432SOL    HW2 5196   3.805   0.163   2.174
 1433SOL     OW 5197   2.982   1.407   4.251
 1433SOL    HW1 5198   3.005   1.461   4.169
 1433SOL    HW2 5199   2.883   1.404   4.263
 1434SOL     OW 5200   5.469   4.223   0.475
 1434SOL    HW1 5201   5.542   4.266   0.528
 1434SOL    HW2 5202   5.407   4.174   0.537
 1435SOL     OW 5203   1.463   6.962   3.876
 1435SOL    HW1 5204   1.537   6.921   3.929
 1435SOL    HW2 5205   1.410   0.009   3.935
 1436SOL     OW 5206   5.628   1.145   0.702
 1436SOL    HW1 5207   5.565   1.216   0.731
 1436SOL    HW2 5208   5.722   1.180   0.707
 1437SOL     OW 5209   3.881   1.111   0.686
 1437SOL    HW1 5210   3.862   1.018   0.656
 1437SOL    HW2 5211   3.801   1.148   0.732
 1438SOL     OW 5212   2.253   0.338   2.551
 1438SOL    HW1 5213   2.230   0.409   2.484
 1438SOL    HW2 5214   2.189   0.261   2.541
 1439SOL     OW 5215   0.012   5.182   0.002
 1439SOL    HW1 5216   6.949   5.146   6.963
 1439SOL    HW2 5217   0.097   5.140   6.983
 1440SOL     OW 5218   3.457   2.985   2.677
 1440SOL    HW1 5219   3.553   2.957   2.667
 1440SOL    HW2 5220   3.414   2.991   2.587
 1441SOL     OW 5221   6.439   2.268   4.846
 1441SOL    HW1 5222   6.454   2.200   4.918
 1441SOL    HW2 5223   6.378   2.231   4.777
 1442SOL     OW 5224   5.194   0.080   0.105
 1442SOL    HW1 5225   5.126   0.119   0.043
 1442SOL    HW2 5226   5.237   0.000   0.062
 1443SOL     OW 5227   1.596   2.621   3.611
 1443SOL    HW1 5228   1.501   2.640   3.634
 1443SOL    HW2 5229   1.628   2.542   3.664
 1444SOL     OW 5230   5.051   0.037   5.152
 1444SOL    HW1 5231   5.007   0.019   5.064
 1444SOL    HW2 5232   4.987   0.018   5.226
 1445SOL     OW 5233   6.666   2.029   0.297
 1445SOL    HW1 5234   6.677   2.120   0.337
 1445SOL    HW2 5235   6.664   1.961   0.370
 1446SOL     OW 5236   3.623   6.896   1.005
 1446SOL    HW1 5237   3.638   6.973   0.944
 1446SOL    HW2 5238   3.685   6.902   1.083
 1447SOL     OW 5239   6.198   1.411   4.930
 1447SOL    HW1 5240   6.249   1.497   4.921
 1447SOL    HW2 5241   6.261   1.334   4.918
 1448SOL     OW 5242   5.143   0.622   6.807
 1448SOL    HW1 5243   5.159   0.653   6.714
 1448SOL    HW2 5244   5.152   0.699   6.870
 1449SOL     OW 5245   4.895   6.044   0.987
 1449SOL    HW1 5246   4.869   5.951   0.964
 1449SOL    HW2 5247   4.944   6.085   0.910
 1450SOL     OW 5248   5.746   2.249   3.513
 1450SOL    HW1 5249   5.744   2.192   3.430
 1450SOL    HW2 5250   5.777   2.194   3.590
 1451SOL     OW 5251   1.942   6.724   2.022
 1451SOL    HW1 5252   1.911   6.756   2.112
 1451SOL    HW2 5253   1.880   6.759   1.951
 1452SOL     OW 5254   3.973   0.592   5.254
 1452SOL    HW1 5255   3.963   0.493   5.240
 1452SOL    HW2 5256   4.016   0.609   5.343
 1453SOL     OW 5257   4.391   4.793   4.259
 1453SOL    HW1 5258   4.441   4.877   4.280
 1453SOL    HW2 5259   4.301   4.795   4.303
 1454SOL     OW 5260   4.766   4.568   0.909
 1454SOL    HW1 5261   4.775   4.480   0.955
 1454SOL    HW2 5262   4.786   4.556   0.811
 1455SOL     OW 5263   2.579   1.799   1.850
 1455SOL    HW1 5264   2.508   1.855   1.807
 1455SOL    HW2 5265   2.660   1.854   1.868
 1456SOL     OW 5266   6.161   5.441   4.720
 1456SOL    HW1 5267   6.102   5.370   4.682
 1456SOL    HW2 5268   6.107   5.523   4.738
 1457SOL     OW 5269   1.888   0.127   3.231
 1457SOL    HW1 5270   1.976   0.086   3.208
 1457SOL    HW2 5271   1.894   0.227   3.220
 1458SOL     OW 5272   0.136   6.012   0.007
 1458SOL    HW1 5273   0.105   5.951   0.079
 1458SOL    HW2 5274   0.097   5.982   6.933
 1459SOL     OW 5275   2.651   6.951   0.933
 1459SOL    HW1 5276   2.735   6.903   0.909
 1459SOL    HW2 5277   2.594   6.892   0.991
 1460SOL     OW 5278   0.855   7.013   6.973
 1460SOL    HW1 5279   0.896   6.948   0.023
 1460SOL    HW2 5280   0.921   0.020   6.900
 1461SOL     OW 5281   4.439   5.485   2.252
 1461SOL    HW1 5282   4.403   5.396   2.279
 1461SOL    HW2 5283   4.412   5.505   2.158
 1462SOL     OW 5284   5.035   0.378   5.371
 1462SOL    HW1 5285   5.087   0.445   5.423
 1462SOL    HW2 5286   5.039   0.400   5.273
 1463SOL     OW 5287   0.432   1.233   5.420
 1463SOL    HW1 5288   0.517   1.261   5.375
 1463SOL    HW2 5289   0.355   1.252   5.359
 1464SOL     OW 5290   0.053   0.962   1.637
 1464SOL    HW1 5291   6.970   0.949   1.659
 1464SOL    HW2 5292   0.069   0.940   1.541
 1465SOL     OW 5293   0.914   0.249   4.750
 1465SOL    HW1 5294   0.980   0.312   4.709
 1465SOL    HW2 5295   0.825   0.260   4.706
 1466SOL     OW 5296   5.374   5.032   4.740
 1466SOL    HW1 5297   5.339   5.113   4.693
 1466SOL    HW2 5298   5.473   5.041   4.753
 1467SOL     OW 5299   5.629   3.603   3.225
 1467SOL    HW1 5300   5.612   3.506   3.244
 1467SOL    HW2 5301   5.673   3.645   3.304
 1468SOL     OW 5302   5.877   6.811   2.343
 1468SOL    HW1 5303   5.950   6.871   2.375
 1468SOL    HW2 5304   5.843   6.845   2.255
 1469SOL     OW 5305   0.608   0.868   2.286
 1469SOL    HW1 5306   0.550   0.948   2.266
 1469SOL    HW2 5307   0.595   0.841   2.382
 1470SOL     OW 5308   6.934   1.125   3.143
 1470SOL    HW1 5309   6.886   1.096   3.226
 1470SOL    HW2 5310   6.870   1.172   3.083
 1471SOL     OW 5311   6.275   0.426   1.147
 1471SOL    HW1 5312   6.286   0.503   1.085
 1471SOL    HW2 5313   6.356   0.368   1.142
 1472SOL     OW 5314   4.346   5.601   5.000
 1472SOL    HW1 5315   4.369   5.511   5.038
 1472SOL    HW2 5316   4.399   5.671   5.048
 1473SOL     OW 5317   5.610   3.929   3.310
 1473SOL    HW1 5318   5.607   3.931   3.410
 1473SOL    HW2 5319   5.537   3.988   3.274
 1474SOL     OW 5320   4.697   4.958   4.191
 1474SOL    HW1 5321   4.749   5.015   4.127
 1474SOL    HW2 5322   4.639   4.895   4.140
 1475SOL     OW 5323   6.232   0.564   3.687
 1475SOL    HW1 5324   6.266   0.476   3.719
 1475SOL    HW2 5325   6.214   0.558   3.588
 1476SOL     OW 5326   6.486   2.404   1.448
 1476SOL    HW1 5327   6.526   2.313   1.438
 1476SOL    HW2 5328   6.522   2.447   1.530
 1477SOL     OW 5329   2.442   5.791   3.631
 1477SOL    HW1 5330   2.349   5.808   3.597
 1477SOL    HW2 5331   2.500   5.762   3.556
 1478SOL     OW 5332   0.017   4.637   1.485
 1478SOL    HW1 5333   6.991   4.608   1.398
 1478SOL    HW2 5334   0.078   4.566   1.520
 1479SOL     OW 5335   0.707   4.993   0.755
 1479SOL    HW1 5336   0.698   4.903   0.713
 1479SOL    HW2 5337   0.668   4.992   0.847
 1480SOL     OW 5338   2.860   0.968   0.301
 1480SOL    HW1 5339   2.921   1.048   0.309
 1480SOL    HW2 5340   2.817   0.969   0.211
 1481SOL     OW 5341   0.077   2.706   5.910
 1481SOL    HW1 5342   0.114   2.777   5.970
 1481SOL    HW2 5343   0.086   2.617   5.953
 1482SOL     OW 5344   5.402   1.070   6.611
 1482SOL    HW1 5345   5.311   1.031   6.599
 1482SOL    HW2 5346   5.427   1.121   6.529
 1483SOL     OW 5347   6.637   2.652   6.589
 1483SOL    HW1 5348   6.677   2.717   6.653
 1483SOL    HW2 5349   6.541   2.637   6.613
 1484SOL     OW 5350   6.902   6.921   3.037
 1484SOL    HW1 5351   6.845   6.989   2.991
 1484SOL    HW2 5352   6.862   6.830   3.025
 1485SOL     OW 5353   5.820   2.531   3.878
 1485SOL    HW1 5354   5.907   2.483   3.876
 1485SOL    HW2 5355   5.818   2.600   3.805
 1486SOL     OW 5356   5.331   2.564   2.006
 1486SOL    HW1 5357   5.388   2.485   1.985
 1486SOL    HW2 5358   5.244   2.556   1.956
 1487SOL     OW 5359   6.298   1.299   5.782
 1487SOL    HW1 5360   6.247   1.213   5.780
 1487SOL    HW2 5361   6.244   1.368   5.830
 1488SOL     OW 5362   4.991   1.717   3.288
 1488SOL    HW1 5363   4.903   1.706   3.242
 1488SOL    HW2 5364   5.000   1.646   3.359
 1489SOL     OW 5365   4.033   5.335   4.704
 1489SOL    HW1 5366   4.026   5.259   4.768
 1489SOL    HW2 5367   4.100   5.314   4.633
 1490SOL     OW 5368   2.445   2.784   1.257
 1490SOL    HW1 5369   2.356   2.743   1.277
 1490SOL    HW2 5370   2.453   2.871   1.307
 1491SOL     OW 5371   6.625   2.228   5.243
 1491SOL    HW1 5372   6.720   2.199   5.230
 1491SOL    HW2 5373   6.569   2.150   5.272
 1492SOL     OW 5374   5.887   2.914   2.182
 1492SOL    HW1 5375   5.840   2.975   2.117
 1492SOL    HW2 5376   5.933   2.968   2.251
 1493SOL     OW 5377   6.150   1.792   4.809
 1493SOL    HW1 5378   6.076   1.785   4.876
 1493SOL    HW2 5379   6.112   1.797   4.717
 1494SOL     OW 5380   5.804   2.030   4.404
 1494SOL    HW1 5381   5.831   1.947   4.356
 1494SOL    HW2 5382   5.727   2.074   4.358
 1495SOL     OW 5383   1.009   3.006   3.143
 1495SOL    HW1 5384   0.949   2.947   3.197
 1495SOL    HW2 5385   1.003   2.981   3.047
 1496SOL     OW 5386   0.904   0.552   2.957
 1496SOL    HW1 5387   0.958   0.544   3.041
 1496SOL    HW2 5388   0.839   0.628   2.966
 1497SOL     OW 5389   5.076   4.372   5.725
 1497SOL    HW1 5390   5.030   4.316   5.656
 1497SOL    HW2 5391   5.156   4.323   5.761
 1498SOL     OW 5392   2.088   5.641   0.262
 1498SOL    HW1 5393   2.138   5.688   0.189
 1498SOL    HW2 5394   2.120   5.674   0.351
 1499SOL     OW 5395   0.803   4.582   4.686
 1499SOL    HW1 5396   0.898   4.574   4.656
 1499SOL    HW2 5397   0.780   4.679   4.697
 1500SOL     OW 5398   4.637   6.594   5.306
 1500SOL    HW1 5399   4.634   6.557   5.213
 1500SOL    HW2 5400   4.549   6.579   5.350
 1501SOL     OW 5401   4.289   0.307   6.877
 1501SOL    HW1 5402   4.319   0.402   6.871
 1501SOL    HW2 5403   4.313   0.258   6.793
 1502SOL     OW 5404   0.189   6.177   6.749
 1502SOL    HW1 5405   0.196   6.266   6.796
 1502SOL    HW2 5406   0.281   6.144   6.728
 1503SOL     OW 5407   3.364   4.428   5.413
 1503SOL    HW1 5408   3.397   4.345   5.459
 1503SOL    HW2 5409   3.272   4.413   5.379
 1504SOL     OW 5410   2.736   6.371   4.220
 1504SOL    HW1 5411   2.698   6.406   4.305
 1504SOL    HW2 5412   2.686   6.409   4.142
 1505SOL     OW 5413   4.989   5.733   2.247
 1505SOL    HW1 5414   4.900   5.697   2.219
 1505SOL    HW2 5415   5.008   5.817   2.196
 1506SOL     OW 5416   1.087   6.690   2.967
 1506SOL    HW1 5417   1.050   6.609   3.012
 1506SOL    HW2 5418   1.086   6.677   2.868
 1507SOL     OW 5419   2.911   2.049   6.436
 1507SOL    HW1 5420   2.985   2.113   6.455
 1507SOL    HW2 5421   2.873   2.067   6.345
 1508SOL     OW 5422   4.318   0.352   0.511
 1508SOL    HW1 5423   4.377   0.326   0.435
 1508SOL    HW2 5424   4.222   0.336   0.485
 1509SOL     OW 5425   5.433   1.419   0.016
 1509SOL    HW1 5426   5.499   1.370   6.974
 1509SOL    HW2 5427   5.462   1.416   0.112
 1510SOL     OW 5428   0.301   1.954   3.385
 1510SOL    HW1 5429   0.239   1.996   3.451
 1510SOL    HW2 5430   0.369   1.899   3.432
 1511SOL     OW 5431   1.821   2.762   0.664
 1511SOL    HW1 5432   1.749   2.776   0.732
 1511SOL    HW2 5433   1.803   2.679   0.612
 1512SOL     OW 5434   6.143   0.713   2.665
 1512SOL    HW1 5435   6.051   0.694   2.630
 1512SOL    HW2 5436   6.137   0.777   2.741
 1513SOL     OW 5437   3.726   1.132   2.420
 1513SOL    HW1 5438   3.685   1.041   2.408
 1513SOL    HW2 5439   3.823   1.128   2.397
 1514SOL     OW 5440   4.949   1.224   6.400
 1514SOL    HW1 5441   4.876   1.164   6.432
 1514SOL    HW2 5442   4.999   1.180   6.326
 1515SOL     OW 5443   6.377   5.453   5.242
 1515SOL    HW1 5444   6.421   5.426   5.156
 1515SOL    HW2 5445   6.376   5.375   5.304
 1516SOL     OW 5446   0.315   0.971   0.992
 1516SOL    HW1 5447   0.343   1.048   0.935
 1516SOL    HW2 5448   0.228   0.991   1.036
 1517SOL     OW 5449   3.768   5.178   3.714
 1517SOL    HW1 5450   3.698   5.125   3.667
 1517SOL    HW2 5451   3.797   5.129   3.797
 1518SOL     OW 5452   0.625   4.969   1.011
 1518SOL    HW1 5453   0.659   4.875   1.016
 1518SOL    HW2 5454   0.677   5.026   1.075
 1519SOL     OW 5455   0.164   4.126   1.443
 1519SOL    HW1 5456   0.176   4.033   1.476
 1519SOL    HW2 5457   0.243   4.151   1.386
 1520SOL     OW 5458   1.579   2.829   2.510
 1520SOL    HW1 5459   1.674   2.860   2.517
 1520SOL    HW2 5460   1.534   2.839   2.598
 1521SOL     OW 5461   2.785   4.251   5.368
 1521SOL    HW1 5462   2.812   4.327   5.309
 1521SOL    HW2 5463   2.849   4.174   5.355
 1522SOL     OW 5464   1.182   2.562   6.306
 1522SOL    HW1 5465   1.151   2.519   6.222
 1522SOL    HW2 5466   1.109   2.619   6.344
 1523SOL     OW 5467   6.572   1.277   0.630
 1523SOL    HW1 5468   6.513   1.250   0.553
 1523SOL    HW2 5469   6.514   1.306   0.707
 1524SOL     OW 5470   6.190   0.524   3.427
 1524SOL    HW1 5471   6.233   0.436   3.404
 1524SOL    HW2 5472   6.092   0.517   3.410
 1525SOL     OW 5473   4.527   1.606   5.871
 1525SOL    HW1 5474   4.477   1.587   5.956
 1525SOL    HW2 5475   4.504   1.536   5.803
 1526SOL     OW 5476   6.807   1.644   6.916
 1526SOL    HW1 5477   6.875   1.570   6.926
 1526SOL    HW2 5478   6.737   1.634   6.987
 1527SOL     OW 5479   2.918   1.446   5.656
 1527SOL    HW1 5480   2.911   1.470   5.560
 1527SOL    HW2 5481   2.828   1.415   5.689
 1528SOL     OW 5482   5.043   5.567   4.211
 1528SOL    HW1 5483   4.960   5.512   4.217
 1528SOL    HW2 5484   5.100   5.532   4.136
 1529SOL     OW 5485   3.030   0.816   4.971
 1529SOL    HW1 5486   2.974   0.803   4.890
 1529SOL    HW2 5487   3.011   0.906   5.011
 1530SOL     OW 5488   3.122   0.067   2.228
 1530SOL    HW1 5489   3.031   0.096   2.255
 1530SOL    HW2 5490   3.115   7.008   2.160
 1531SOL     OW 5491   5.776   0.124   6.273
 1531SOL    HW1 5492   5.731   0.112   6.184
 1531SOL    HW2 5493   5.840   0.049   6.288
 1532SOL     OW 5494   3.249   2.532   5.382
 1532SOL    HW1 5495   3.233   2.458   5.317
 1532SOL    HW2 5496   3.304   2.498   5.458
 1533SOL     OW 5497   5.397   2.703   6.800
 1533SOL    HW1 5498   5.374   2.641   6.725
 1533SOL    HW2 5499   5.320   2.708   6.864
 1534SOL     OW 5500   6.655   7.008   1.995
 1534SOL    HW1 5501   6.672   0.019   1.899
 1534SOL    HW2 5502   6.707   0.055   2.055
 1535SOL     OW 5503   4.759   4.649   4.001
 1535SOL    HW1 5504   4.677   4.661   3.943
 1535SOL    HW2 5505   4.777   4.551   4.012
 1536SOL     OW 5506   3.198   5.342   3.356
 1536SOL    HW1 5507   3.207   5.299   3.446
 1536SOL    HW2 5508   3.206   5.273   3.285
 1537SOL     OW 5509   2.347   5.722   4.247
 1537SOL    HW1 5510   2.423   5.664   4.220
 1537SOL    HW2 5511   2.290   5.673   4.313
 1538SOL     OW 5512   3.290   4.954   6.484
 1538SOL    HW1 5513   3.327   4.981   6.573
 1538SOL    HW2 5514   3.198   4.916   6.495
 1539SOL     OW 5515   3.742   5.203   1.689
 1539SOL    HW1 5516   3.666   5.268   1.691
 1539SOL    HW2 5517   3.769   5.182   1.783
 1540SOL     OW 5518   5.925   0.360   5.439
 1540SOL    HW1 5519   6.014   0.368   5.393
 1540SOL    HW2 5520   5.910   0.441   5.496
 1541SOL     OW 5521   4.562   1.481   0.952
 1541SOL    HW1 5522   4.641   1.486   0.891
 1541SOL    HW2 5523   4.489   1.539   0.918
 1542SOL     OW 5524   0.970   6.518   0.845
 1542SOL    HW1 5525   0.966   6.613   0.878
 1542SOL    HW2 5526   1.066   6.489   0.841
 1543SOL     OW 5527   3.655   3.974   3.377
 1543SOL    HW1 5528   3.750   3.994   3.354
 1543SOL    HW2 5529   3.599   3.982   3.294
 1544SOL     OW 5530   3.417   3.749   2.735
 1544SOL    HW1 5531   3.409   3.760   2.834
 1544SOL    HW2 5532   3.442   3.836   2.694
 1545SOL     OW 5533   6.885   0.328   4.259
 1545SOL    HW1 5534   6.820   0.319   4.334
 1545SOL    HW2 5535   6.879   0.248   4.199
 1546SOL     OW 5536   6.292   6.823   6.380
 1546SOL    HW1 5537   6.297   6.923   6.377
 1546SOL    HW2 5538   6.211   6.792   6.330
 1547SOL     OW 5539   3.235   5.915   6.969
 1547SOL    HW1 5540   3.221   6.001   6.921
 1547SOL    HW2 5541   3.233   5.930   0.054
 1548SOL     OW 5542   5.884   4.232   4.269
 1548SOL    HW1 5543   5.863   4.315   4.320
 1548SOL    HW2 5544   5.837   4.154   4.311
 1549SOL     OW 5545   6.521   2.171   0.619
 1549SOL    HW1 5546   6.584   2.223   0.561
 1549SOL    HW2 5547   6.459   2.118   0.562
 1550SOL     OW 5548   2.308   5.814   2.505
 1550SOL    HW1 5549   2.240   5.746   2.533
 1550SOL    HW2 5550   2.384   5.768   2.459
 1551SOL     OW 5551   0.689   3.630   1.070
 1551SOL    HW1 5552   0.669   3.546   1.122
 1551SOL    HW2 5553   0.604   3.671   1.039
 1552SOL     OW 5554   0.828   6.690   1.575
 1552SOL    HW1 5555   0.884   6.614   1.542
 1552SOL    HW2 5556   0.814   6.681   1.674
 1553SOL     OW 5557   5.497   1.519   6.149
 1553SOL    HW1 5558   5.574   1.577   6.176
 1553SOL    HW2 5559   5.497   1.507   6.050
 1554SOL     OW 5560   2.366   2.181   1.389
 1554SOL    HW1 5561   2.346   2.170   1.292
 1554SOL    HW2 5562   2.463   2.203   1.400
 1555SOL     OW 5563   3.892   0.833   6.962
 1555SOL    HW1 5564   3.872   0.735   6.967
 1555SOL    HW2 5565   3.971   0.848   6.902
 1556SOL     OW 5566   4.296   2.158   6.514
 1556SOL    HW1 5567   4.263   2.214   6.438
 1556SOL    HW2 5568   4.274   2.062   6.497
 1557SOL     OW 5569   1.651   3.687   0.560
 1557SOL    HW1 5570   1.592   3.760   0.523
 1557SOL    HW2 5571   1.593   3.614   0.596
 1558SOL     OW 5572   5.196   2.973   6.375
 1558SOL    HW1 5573   5.098   2.974   6.395
 1558SOL    HW2 5574   5.234   3.065   6.385
 1559SOL     OW 5575   3.288   5.910   3.151
 1559SOL    HW1 5576   3.310   5.924   3.054
 1559SOL    HW2 5577   3.240   5.990   3.186
 1560SOL     OW 5578   3.502   2.336   1.212
 1560SOL    HW1 5579   3.560   2.284   1.149
 1560SOL    HW2 5580   3.552   2.354   1.296
 1561SOL     OW 5581   5.900   6.562   1.033
 1561SOL    HW1 5582   5.884   6.552   0.935
 1561SOL    HW2 5583   5.882   6.476   1.080
 1562SOL     OW 5584   3.433   0.388   2.616
 1562SOL    HW1 5585   3.406   0.373   2.711
 1562SOL    HW2 5586   3.519   0.440   2.613
 1563SOL     OW 5587   2.088   2.100   3.996
 1563SOL    HW1 5588   2.030   2.155   4.056
 1563SOL    HW2 5589   2.151   2.046   4.051
 1564SOL     OW 5590   0.359   0.941   2.938
 1564SOL    HW1 5591   0.335   0.960   3.033
 1564SOL    HW2 5592   0.313   0.858   2.908
 1565SOL     OW 5593   3.951   1.377   4.560
 1565SOL    HW1 5594   4.010   1.309   4.604
 1565SOL    HW2 5595   3.951   1.461   4.614
 1566SOL     OW 5596   6.173   4.058   3.881
 1566SOL    HW1 5597   6.116   4.124   3.832
 1566SOL    HW2 5598   6.198   3.983   3.820
 1567SOL     OW 5599   5.238   0.271   5.136
 1567SOL    HW1 5600   5.196   0.181   5.135
 1567SOL    HW2 5601   5.168   0.341   5.124
 1568SOL     OW 5602   2.830   4.870   1.559
 1568SOL    HW1 5603   2.823   4.805   1.635
 1568SOL    HW2 5604   2.820   4.821   1.472
 1569SOL     OW 5605   3.118   0.729   2.750
 1569SOL    HW1 5606   3.077   0.792   2.816
 1569SOL    HW2 5607   3.166   0.781   2.680
 1570SOL     OW 5608   2.317   6.117   6.095
 1570SOL    HW1 5609   2.395   6.090   6.153
 1570SOL    HW2 5610   2.305   6.048   6.023
 1571SOL     OW 5611   6.729   3.448   3.852
 1571SOL    HW1 5612   6.699   3.424   3.944
 1571SOL    HW2 5613   6.713   3.546   3.836
 1572SOL     OW 5614   2.986   5.645   2.555
 1572SOL    HW1 5615   2.889   5.634   2.576
 1572SOL    HW2 5616   3.035   5.562   2.582
 1573SOL     OW 5617   5.056   6.180   0.131
 1573SOL    HW1 5618   4.969   6.219   0.158
 1573SOL    HW2 5619   5.085   6.113   0.200
 1574SOL     OW 5620   0.749   4.708   2.872
 1574SOL    HW1 5621   0.713   4.667   2.955
 1574SOL    HW2 5622   0.767   4.637   2.804
 1575SOL     OW 5623   6.997   2.750   0.130
 1575SOL    HW1 5624   0.016   2.675   0.072
 1575SOL    HW2 5625   6.907   2.728   0.166
 1576SOL     OW 5626   1.924   6.004   1.586
 1576SOL    HW1 5627   2.023   6.002   1.595
 1576SOL    HW2 5628   1.886   6.076   1.644
 1577SOL     OW 5629   3.969   5.730   4.548
 1577SOL    HW1 5630   3.956   5.829   4.559
 1577SOL    HW2 5631   4.007   5.711   4.458
 1578SOL     OW 5632   5.037   1.182   1.923
 1578SOL    HW1 5633   5.021   1.267   1.973
 1578SOL    HW2 5634   5.135   1.163   1.919
 1579SOL     OW 5635   1.462   2.740   1.998
 1579SOL    HW1 5636   1.548   2.748   1.948
 1579SOL    HW2 5637   1.454   2.815   2.063
 1580SOL     OW 5638   2.955   3.745   2.612
 1580SOL    HW1 5639   2.931   3.648   2.604
 1580SOL    HW2 5640   2.971   3.768   2.708
 1581SOL     OW 5641   6.180   4.438   5.219
 1581SOL    HW1 5642   6.191   4.525   5.267
 1581SOL    HW2 5643   6.086   4.430   5.186
 1582SOL     OW 5644   4.563   5.686   5.170
 1582SOL    HW1 5645   4.596   5.600   5.209
 1582SOL    HW2 5646   4.637   5.730   5.118
 1583SOL     OW 5647   1.373   5.526   4.995
 1583SOL    HW1 5648   1.434   5.498   5.069
 1583SOL    HW2 5649   1.368   5.454   4.926
 1584SOL     OW 5650   6.901   3.783   0.385
 1584SOL    HW1 5651   6.956   3.761   0.304
 1584SOL    HW2 5652   6.804   3.786   0.361
 1585SOL     OW 5653   4.339   6.586   3.607
 1585SOL    HW1 5654   4.378   6.562   3.696
 1585SOL    HW2 5655   4.266   6.521   3.585
 1586SOL     OW 5656   3.472   6.361   3.286
 1586SOL    HW1 5657   3.517   6.287   3.237
 1586SOL    HW2 5658   3.534   6.398   3.355
 1587SOL     OW 5659   2.580   6.383   6.348
 1587SOL    HW1 5660   2.651   6.450   6.368
 1587SOL    HW2 5661   2.536   6.355   6.434
 1588SOL     OW 5662   6.637   1.484   3.900
 1588SOL    HW1 5663   6.571   1.539   3.951
 1588SOL    HW2 5664   6.594   1.449   3.817
 1589SOL     OW 5665   6.586   4.271   4.181
 1589SOL    HW1 5666   6.491   4.285   4.210
 1589SOL    HW2 5667   6.648   4.299   4.254
 1590SOL     OW 5668   6.911   1.897   3.593
 1590SOL    HW1 5669   6.896   1.848   3.507
 1590SOL    HW2 5670   6.930   1.832   3.667
 1591SOL     OW 5671   1.728   6.252   1.324
 1591SOL    HW1 5672   1.752   6.231   1.229
 1591SOL    HW2 5673   1.734   6.350   1.339
 1592SOL     OW 5674   0.241   3.491   6.264
 1592SOL    HW1 5675   0.298   3.572   6.276
 1592SOL    HW2 5676   0.163   3.513   6.205
 1593SOL     OW 5677   3.580   6.969   6.947
 1593SOL    HW1 5678   3.493   6.973   6.996
 1593SOL    HW2 5679   3.629   6.886   6.973
 1594SOL     OW 5680   5.706   1.022   2.614
 1594SOL    HW1 5681   5.622   0.999   2.663
 1594SOL    HW2 5682   5.726   0.951   2.546
 1595SOL     OW 5683   0.680   3.389   0.124
 1595SOL    HW1 5684   0.740   3.450   0.176
 1595SOL    HW2 5685   0.690   3.409   0.027
 1596SOL     OW 5686   4.976   4.803   2.955
 1596SOL    HW1 5687   4.923   4.850   3.026
 1596SOL    HW2 5688   5.064   4.775   2.993
 1597SOL     OW 5689   3.629   5.981   7.005
 1597SOL    HW1 5690   3.727   5.960   7.004
 1597SOL    HW2 5691   3.583   5.928   6.935
 1598SOL     OW 5692   0.810   4.506   6.271
 1598SOL    HW1 5693   0.897   4.521   6.223
 1598SOL    HW2 5694   0.777   4.413   6.251
 1599SOL     OW 5695   4.460   5.178   3.041
 1599SOL    HW1 5696   4.536   5.130   2.997
 1599SOL    HW2 5697   4.374   5.136   3.015
 1600SOL     OW 5698   3.914   0.297   1.860
 1600SOL    HW1 5699   3.860   0.381   1.872
 1600SOL    HW2 5700   3.994   0.300   1.919
 1601SOL     OW 5701   6.373   0.973   4.914
 1601SOL    HW1 5702   6.297   0.916   4.880
 1601SOL    HW2 5703   6.455   0.954   4.860
 1602SOL     OW 5704   4.189   6.018   4.155
 1602SOL    HW1 5705   4.162   6.023   4.251
 1602SOL    HW2 5706   4.263   6.082   4.138
 1603SOL     OW 5707   2.920   4.754   3.020
 1603SOL    HW1 5708   2.831   4.709   3.027
 1603SOL    HW2 5709   2.967   4.749   3.108
 1604SOL     OW 5710   4.470   5.169   2.649
 1604SOL    HW1 5711   4.550   5.208   2.694
 1604SOL    HW2 5712   4.391   5.228   2.665
 1605SOL     OW 5713   4.897   4.813   0.666
 1605SOL    HW1 5714   4.876   4.874   0.589
 1605SOL    HW2 5715   4.898   4.865   0.751
 1606SOL     OW 5716   3.081   6.067   4.461
 1606SOL    HW1 5717   3.180   6.070   4.470
 1606SOL    HW2 5718   3.050   5.972   4.462
 1607SOL     OW 5719   4.404   5.092   3.511
 1607SOL    HW1 5720   4.365   5.083   3.603
 1607SOL    HW2 5721   4.493   5.136   3.517
 1608SOL     OW 5722   5.440   1.896   3.518
 1608SOL    HW1 5723   5.368   1.872   3.582
 1608SOL    HW2 5724   5.440   1.831   3.442
 1609SOL     OW 5725   2.468   7.007   1.414
 1609SOL    HW1 5726   2.428   6.924   1.452
 1609SOL    HW2 5727   2.568   7.002   1.420
 1610SOL     OW 5728   5.431   0.089   1.244
 1610SOL    HW1 5729   5.478   0.100   1.156
 1610SOL    HW2 5730   5.422   7.006   1.265
 1611SOL     OW 5731   1.375   4.431   0.343
 1611SOL    HW1 5732   1.341   4.508   0.397
 1611SOL    HW2 5733   1.475   4.434   0.340
 1612SOL     OW 5734   4.733   0.479   2.426
 1612SOL    HW1 5735   4.688   0.419   2.360
 1612SOL    HW2 5736   4.825   0.501   2.393
 1613SOL     OW 5737   6.738   5.408   2.243
 1613SOL    HW1 5738   6.696   5.426   2.155
 1613SOL    HW2 5739   6.710   5.477   2.309
 1614SOL     OW 5740   6.319   1.776   6.093
 1614SOL    HW1 5741   6.247   1.840   6.065
 1614SOL    HW2 5742   6.312   1.760   6.192
 1615SOL     OW 5743   0.327   3.882   5.999
 1615SOL    HW1 5744   0.345   3.864   5.902
 1615SOL    HW2 5745   0.238   3.844   6.024
 1616SOL     OW 5746   0.779   0.459   3.824
 1616SOL    HW1 5747   0.697   0.495   3.779
 1616SOL    HW2 5748   0.808   0.375   3.779
 1617SOL     OW 5749   6.133   5.834   3.585
 1617SOL    HW1 5750   6.141   5.873   3.493
 1617SOL    HW2 5751   6.216   5.852   3.636
 1618SOL     OW 5752   3.521   5.609   3.455
 1618SOL    HW1 5753   3.424   5.601   3.430
 1618SOL    HW2 5754   3.531   5.682   3.524
 1619SOL     OW 5755   0.856   4.315   0.014
 1619SOL    HW1 5756   0.876   4.288   0.108
 1619SOL    HW2 5757   0.838   4.414   0.010
 1620SOL     OW 5758   3.621   5.716   4.403
 1620SOL    HW1 5759   3.675   5.795   4.375
 1620SOL    HW2 5760   3.616   5.713   4.503
 1621SOL     OW 5761   5.004   5.618   0.647
 1621SOL    HW1 5762   5.021   5.585   0.740
 1621SOL    HW2 5763   4.985   5.540   0.588
 1622SOL     OW 5764   6.629   4.325   4.638
 1622SOL    HW1 5765   6.681   4.319   4.552
 1622SOL    HW2 5766   6.547   4.380   4.623
 1623SOL     OW 5767   0.220   1.672   3.006
 1623SOL    HW1 5768   0.139   1.730   2.994
 1623SOL    HW2 5769   0.290   1.724   3.054
 1624SOL     OW 5770   4.036   3.034   0.623
 1624SOL    HW1 5771   3.990   2.958   0.668
 1624SOL    HW2 5772   4.034   3.021   0.524
 1625SOL     OW 5773   0.736   6.811   1.190
 1625SOL    HW1 5774   0.704   6.889   1.136
 1625SOL    HW2 5775   0.707   6.726   1.146
 1626SOL     OW 5776   2.700   1.656   2.052
 1626SOL    HW1 5777   2.790   1.647   2.008
 1626SOL    HW2 5778   2.641   1.713   1.995
 1627SOL     OW 5779   3.436   1.941   5.728
 1627SOL    HW1 5780   3.447   2.024   5.783
 1627SOL    HW2 5781   3.507   1.874   5.754
 1628SOL     OW 5782   5.592   6.685   1.197
 1628SOL    HW1 5783   5.692   6.682   1.199
 1628SOL    HW2 5784   5.556   6.593   1.184
 1629SOL     OW 5785   1.741   0.083   3.454
 1629SOL    HW1 5786   1.785   0.097   3.365
 1629SOL    HW2 5787   1.651   0.042   3.440
 1630SOL     OW 5788   0.689   3.518   6.358
 1630SOL    HW1 5789   0.785   3.501   6.384
 1630SOL    HW2 5790   0.675   3.616   6.344
 1631SOL     OW 5791   6.618   3.764   0.235
 1631SOL    HW1 5792   6.601   3.667   0.254
 1631SOL    HW2 5793   6.568   3.819   0.301
 1632SOL     OW 5794   6.568   5.606   2.406
 1632SOL    HW1 5795   6.556   5.606   2.307
 1632SOL    HW2 5796   6.586   5.699   2.437
 1633SOL     OW 5797   5.498   3.807   5.236
 1633SOL    HW1 5798   5.513   3.708   5.230
 1633SOL    HW2 5799   5.526   3.850   5.150
 1634SOL     OW 5800   6.698   1.711   5.223
 1634SOL    HW1 5801   6.659   1.783   5.165
 1634SOL    HW2 5802   6.781   1.746   5.267
 1635SOL     OW 5803   3.253   6.229   3.332
 1635SOL    HW1 5804   3.332   6.286   3.312
 1635SOL    HW2 5805   3.183   6.244   3.262
 1636SOL     OW 5806   6.132   6.258   1.337
 1636SOL    HW1 5807   6.067   6.283   1.264
 1636SOL    HW2 5808   6.087   6.196   1.401
 1637SOL     OW 5809   0.986   0.864   3.069
 1637SOL    HW1 5810   0.994   0.964   3.067
 1637SOL    HW2 5811   1.047   0.824   3.000
 1638SOL     OW 5812   5.902   2.617   2.192
 1638SOL    HW1 5813   5.891   2.715   2.212
 1638SOL    HW2 5814   5.813   2.578   2.170
 1639SOL     OW 5815   5.227   2.690   2.326
 1639SOL    HW1 5816   5.216   2.782   2.364
 1639SOL    HW2 5817   5.144   2.637   2.342
 1640SOL     OW 5818   6.089   0.287   6.681
 1640SOL    HW1 5819   6.002   0.298   6.729
 1640SOL    HW2 5820   6.072   0.277   6.583
 1641SOL     OW 5821   6.197   2.228   2.971
 1641SOL    HW1 5822   6.114   2.176   2.950
 1641SOL    HW2 5823   6.187   2.273   3.059
 1642SOL     OW 5824   0.091   3.190   6.667
 1642SOL    HW1 5825   0.049   3.143   6.589
 1642SOL    HW2 5826   0.148   3.265   6.635
 1643SOL     OW 5827   2.380   5.685   3.880
 1643SOL    HW1 5828   2.394   5.712   3.785
 1643SOL    HW2 5829   2.391   5.764   3.940
 1644SOL     OW 5830   6.077   2.345   1.902
 1644SOL    HW1 5831   6.106   2.388   1.988
 1644SOL    HW2 5832   6.137   2.376   1.828
 1645SOL     OW 5833   2.505   0.444   5.737
 1645SOL    HW1 5834   2.509   0.478   5.831
 1645SOL    HW2 5835   2.415   0.464   5.697
 1646SOL     OW 5836   1.246   4.665   0.476
 1646SOL    HW1 5837   1.181   4.600   0.517
 1646SOL    HW2 5838   1.198   4.750   0.455
 1647SOL     OW 5839   5.199   2.918   4.384
 1647SOL    HW1 5840   5.277   2.944   4.326
 1647SOL    HW2 5841   5.179   2.991   4.448
 1648SOL     OW 5842   5.286   6.242   1.639
 1648SOL    HW1 5843   5.272   6.154   1.593
 1648SOL    HW2 5844   5.197   6.280   1.666
 1649SOL     OW 5845   3.791   1.614   3.124
 1649SOL    HW1 5846   3.739   1.619   3.038
 1649SOL    HW2 5847   3.742   1.557   3.189
 1650SOL     OW 5848   3.108   4.005   6.044
 1650SOL    HW1 5849   3.155   3.935   6.098
 1650SOL    HW2 5850   3.133   3.995   5.948
 1651SOL     OW 5851   1.051   2.470   3.885
 1651SOL    HW1 5852   0.994   2.447   3.963
 1651SOL    HW2 5853   1.015   2.427   3.803
 1652SOL     OW 5854   0.618   3.172   1.743
 1652SOL    HW1 5855   0.647   3.228   1.821
 1652SOL    HW2 5856   0.571   3.230   1.677
 1653SOL     OW 5857   0.200   5.023   2.485
 1653SOL    HW1 5858   0.184   5.076   2.568
 1653SOL    HW2 5859   0.154   5.067   2.407
 1654SOL     OW 5860   0.478   3.185   2.410
 1654SOL    HW1 5861   0.439   3.097   2.382
 1654SOL    HW2 5862   0.487   3.186   2.510
 1655SOL     OW 5863   6.980   0.491   5.189
 1655SOL    HW1 5864   6.883   0.516   5.197
 1655SOL    HW2 5865   6.988   0.393   5.174
 1656SOL     OW 5866   1.914   4.226   2.943
 1656SOL    HW1 5867   1.983   4.154   2.951
 1656SOL    HW2 5868   1.946   4.307   2.992
 1657SOL     OW 5869   0.424   6.597   5.858
 1657SOL    HW1 5870   0.403   6.519   5.917
 1657SOL    HW2 5871   0.457   6.564   5.770
 1658SOL     OW 5872   5.609   6.284   6.386
 1658SOL    HW1 5873   5.529   6.281   6.326
 1658SOL    HW2 5874   5.637   6.378   6.401
 1659SOL     OW 5875   3.909   6.771   5.989
 1659SOL    HW1 5876   3.864   6.773   6.078
 1659SOL    HW2 5877   4.007   6.758   6.001
 1660SOL     OW 5878   2.312   0.990   1.918
 1660SOL    HW1 5879   2.310   0.938   1.832
 1660SOL    HW2 5880   2.397   0.969   1.967
 1661SOL     OW 5881   4.934   4.225   2.657
 1661SOL    HW1 5882   4.875   4.223   2.576
 1661SOL    HW2 5883   4.889   4.276   2.730
 1662SOL     OW 5884   0.713   2.106   3.783
 1662SOL    HW1 5885   0.789   2.114   3.847
 1662SOL    HW2 5886   0.723   2.022   3.730
 1663SOL     OW 5887   5.250   4.764   0.671
 1663SOL    HW1 5888   5.203   4.825   0.735
 1663SOL    HW2 5889   5.349   4.778   0.678
 1664SOL     OW 5890   0.796   0.280   6.363
 1664SOL    HW1 5891   0.734   0.328   6.424
 1664SOL    HW2 5892   0.750   0.201   6.324
 1665SOL     OW 5893   2.820   4.270   6.993
 1665SOL    HW1 5894   2.817   4.298   0.075
 1665SOL    HW2 5895   2.757   4.326   6.939
 1666SOL     OW 5896   5.174   6.524   5.946
 1666SOL    HW1 5897   5.079   6.509   5.921
 1666SOL    HW2 5898   5.214   6.595   5.887
 1667SOL     OW 5899   6.736   6.365   1.162
 1667SOL    HW1 5900   6.726   6.402   1.070
 1667SOL    HW2 5901   6.827   6.323   1.172
 1668SOL     OW 5902   5.938   3.727   2.257
 1668SOL    HW1 5903   5.861   3.761   2.203
 1668SOL    HW2 5904   5.919   3.739   2.354
 1669SOL     OW 5905   6.718   3.570   5.355
 1669SOL    HW1 5906   6.806   3.539   5.389
 1669SOL    HW2 5907   6.656   3.587   5.433
 1670SOL     OW 5908   2.397   4.747   5.832
 1670SOL    HW1 5909   2.494   4.742   5.856
 1670SOL    HW2 5910   2.346   4.787   5.908
 1671SOL     OW 5911   6.142   2.318   0.801
 1671SOL    HW1 5912   6.080   2.351   0.729
 1671SOL    HW2 5913   6.218   2.381   0.812
 1672SOL     OW 5914   0.592   2.669   0.891
 1672SOL    HW1 5915   0.507   2.630   0.926
 1672SOL    HW2 5916   0.579   2.765   0.869
 1673SOL     OW 5917   1.642   0.278   4.479
 1673SOL    HW1 5918   1.680   0.366   4.505
 1673SOL    HW2 5919   1.654   0.264   4.380
 1674SOL     OW 5920   4.610   1.906   2.648
 1674SOL    HW1 5921   4.662   1.987   2.676
 1674SOL    HW2 5922   4.546   1.881   2.721
 1675SOL     OW 5923   4.907   0.541   1.607
 1675SOL    HW1 5924   4.824   0.519   1.658
 1675SOL    HW2 5925   4.956   0.457   1.584
 1676SOL     OW 5926   1.014   2.530   2.973
 1676SOL    HW1 5927   0.915   2.521   2.978
 1676SOL    HW2 5928   1.050   2.557   3.063
 1677SOL     OW 5929   3.405   2.943   3.446
 1677SOL    HW1 5930   3.499   2.938   3.412
 1677SOL    HW2 5931   3.342   2.928   3.370
 1678SOL     OW 5932   1.314   0.439   0.773
 1678SOL    HW1 5933   1.394   0.465   0.720
 1678SOL    HW2 5934   1.310   0.340   0.783
 1679SOL     OW 5935   0.042   1.932   7.013
 1679SOL    HW1 5936   0.024   1.843   0.041
 1679SOL    HW2 5937   0.108   1.983   0.054
 1680SOL     OW 5938   5.509   2.711   3.317
 1680SOL    HW1 5939   5.419   2.666   3.321
 1680SOL    HW2 5940   5.580   2.645   3.343
 1681SOL     OW 5941   2.758   6.622   4.613
 1681SOL    HW1 5942   2.809   6.567   4.680
 1681SOL    HW2 5943   2.715   6.699   4.659
 1682SOL     OW 5944   3.625   0.563   4.133
 1682SOL    HW1 5945   3.607   0.661   4.127
 1682SOL    HW2 5946   3.623   0.523   4.042
 1683SOL     OW 5947   6.243   3.771   3.009
 1683SOL    HW1 5948   6.295   3.713   2.945
 1683SOL    HW2 5949   6.168   3.718   3.048
 1684SOL     OW 5950   2.436   5.128   2.146
 1684SOL    HW1 5951   2.444   5.153   2.050
 1684SOL    HW2 5952   2.379   5.046   2.154
 1685SOL     OW 5953   0.149   1.023   5.694
 1685SOL    HW1 5954   0.154   0.930   5.730
 1685SOL    HW2 5955   0.162   1.021   5.595
 1686SOL     OW 5956   4.744   5.262   2.755
 1686SOL    HW1 5957   4.789   5.306   2.832
 1686SOL    HW2 5958   4.799   5.184   2.724
 1687SOL     OW 5959   5.155   4.686   1.096
 1687SOL    HW1 5960   5.162   4.592   1.061
 1687SOL    HW2 5961   5.060   4.717   1.090
 1688SOL     OW 5962   1.180   0.833   2.430
 1688SOL    HW1 5963   1.235   0.911   2.400
 1688SOL    HW2 5964   1.187   0.759   2.362
 1689SOL     OW 5965   4.447   0.612   1.638
 1689SOL    HW1 5966   4.391   0.562   1.572
 1689SOL    HW2 5967   4.499   0.683   1.591
 1690SOL     OW 5968   0.097   5.026   3.506
 1690SOL    HW1 5969   7.013   5.032   3.522
 1690SOL    HW2 5970   0.116   5.033   3.408
 1691SOL     OW 5971   4.383   2.680   5.261
 1691SOL    HW1 5972   4.365   2.722   5.350
 1691SOL    HW2 5973   4.301   2.632   5.230
 1692SOL     OW 5974   4.930   4.694   1.588
 1692SOL    HW1 5975   4.886   4.780   1.616
 1692SOL    HW2 5976   4.999   4.668   1.654
 1693SOL     OW 5977   5.687   6.659   5.724
 1693SOL    HW1 5978   5.733   6.690   5.808
 1693SOL    HW2 5979   5.705   6.562   5.711
 1694SOL     OW 5980   4.676   1.751   6.264
 1694SOL    HW1 5981   4.667   1.788   6.172
 1694SOL    HW2 5982   4.699   1.824   6.328
 1695SOL     OW 5983   3.305   0.572   6.799
 1695SOL    HW1 5984   3.405   0.577   6.799
 1695SOL    HW2 5985   3.274   0.507   6.730
 1696SOL     OW 5986   4.882   6.164   0.727
 1696SOL    HW1 5987   4.801   6.162   0.785
 1696SOL    HW2 5988   4.937   6.244   0.750
 1697SOL     OW 5989   4.825   2.773   2.146
 1697SOL    HW1 5990   4.901   2.747   2.087
 1697SOL    HW2 5991   4.798   2.867   2.126
 1698SOL     OW 5992   4.323   1.063   1.620
 1698SOL    HW1 5993   4.399   1.005   1.589
 1698SOL    HW2 5994   4.356   1.125   1.691
 1699SOL     OW 5995   2.227   0.064   0.159
 1699SOL    HW1 5996   2.250   0.045   0.063
 1699SOL    HW2 5997   2.301   0.033   0.218
 1700SOL     OW 5998   5.244   2.590   2.894
 1700SOL    HW1 5999   5.237   2.492   2.873
 1700SOL    HW2 6000   5.305   2.634   2.828
 1701SOL     OW 6001   0.064   6.222   5.416
 1701SOL    HW1 6002   0.064   6.138   5.471
 1701SOL    HW2 6003   6.987   6.238   5.378
 1702SOL     OW 6004   2.617   2.420   6.857
 1702SOL    HW1 6005   2.590   2.398   6.951
 1702SOL    HW2 6006   2.537   2.451   6.806
 1703SOL     OW 6007   1.339   1.776   2.002
 1703SOL    HW1 6008   1.323   1.690   1.954
 1703SOL    HW2 6009   1.300   1.770   2.094
 1704SOL     OW 6010   3.510   2.231   0.597
 1704SOL    HW1 6011   3.440   2.260   0.663
 1704SOL    HW2 6012   3.476   2.245   0.504
 1705SOL     OW 6013   4.546   2.864   0.591
 1705SOL    HW1 6014   4.634   2.911   0.593
 1705SOL    HW2 6015   4.559   2.767   0.608
 1706SOL     OW 6016   5.831   2.621   6.335
 1706SOL    HW1 6017   5.860   2.549   6.273
 1706SOL    HW2 6018   5.860   2.600   6.428
 1707SOL     OW 6019   4.479   1.690   2.197
 1707SOL    HW1 6020   4.558   1.645   2.154
 1707SOL    HW2 6021   4.458   1.645   2.284
 1708SOL     OW 6022   3.095   4.806   2.170
 1708SOL    HW1 6023   3.045   4.724   2.142
 1708SOL    HW2 6024   3.191   4.795   2.146
 1709SOL     OW 6025   5.036   5.344   0.847
 1709SOL    HW1 6026   5.081   5.258   0.873
 1709SOL    HW2 6027   5.102   5.419   0.855
 1710SOL     OW 6028   4.867   4.499   2.681
 1710SOL    HW1 6029   4.849   4.518   2.778
 1710SOL    HW2 6030   4.782   4.510   2.629
 1711SOL     OW 6031   3.940   4.574   6.759
 1711SOL    HW1 6032   3.886   4.517   6.821
 1711SOL    HW2 6033   3.893   4.579   6.670
 1712SOL     OW 6034   0.942   1.787   1.836
 1712SOL    HW1 6035   0.912   1.712   1.776
 1712SOL    HW2 6036   1.010   1.842   1.788
 1713SOL     OW 6037   3.959   1.277   2.927
 1713SOL    HW1 6038   3.900   1.219   2.870
 1713SOL    HW2 6039   3.939   1.260   3.023
 1714SOL     OW 6040   3.323   3.697   0.605
 1714SOL    HW1 6041   3.398   3.654   0.655
 1714SOL    HW2 6042   3.307   3.789   0.640
 1715SOL     OW 6043   2.304   6.513   2.172
 1715SOL    HW1 6044   2.309   6.582   2.245
 1715SOL    HW2 6045   2.340   6.426   2.206
 1716SOL     OW 6046   4.263   0.973   2.983
 1716SOL    HW1 6047   4.172   0.949   2.949
 1716SOL    HW2 6048   4.299   0.898   3.039
 1717SOL     OW 6049   3.316   5.954   4.770
 1717SOL    HW1 6050   3.297   5.867   4.725
 1717SOL    HW2 6051   3.320   6.027   4.702
 1718SOL     OW 6052   1.537   3.015   1.489
 1718SOL    HW1 6053   1.610   2.964   1.442
 1718SOL    HW2 6054   1.547   3.003   1.588
 1719SOL     OW 6055   0.666   5.412   2.693
 1719SOL    HW1 6056   0.661   5.407   2.594
 1719SOL    HW2 6057   0.730   5.484   2.720
 1720SOL     OW 6058   0.545   3.259   5.357
 1720SOL    HW1 6059   0.473   3.191   5.372
 1720SOL    HW2 6060   0.621   3.217   5.307
 1721SOL     OW 6061   1.846   2.644   0.170
 1721SOL    HW1 6062   1.750   2.657   0.148
 1721SOL    HW2 6063   1.856   2.633   0.269
 1722SOL     OW 6064   2.667   2.288   4.239
 1722SOL    HW1 6065   2.660   2.197   4.280
 1722SOL    HW2 6066   2.669   2.358   4.311
 1723SOL     OW 6067   6.130   4.337   1.182
 1723SOL    HW1 6068   6.225   4.341   1.214
 1723SOL    HW2 6069   6.069   4.335   1.261
 1724SOL     OW 6070   5.668   2.884   1.082
 1724SOL    HW1 6071   5.653   2.975   1.120
 1724SOL    HW2 6072   5.766   2.864   1.081
 1725SOL     OW 6073   1.748   6.264   6.114
 1725SOL    HW1 6074   1.685   6.290   6.187
 1725SOL    HW2 6075   1.773   6.168   6.126
 1726SOL     OW 6076   5.328   4.016   2.935
 1726SOL    HW1 6077   5.267   3.939   2.916
 1726SOL    HW2 6078   5.285   4.101   2.904
 1727SOL     OW 6079   3.295   4.129   3.224
 1727SOL    HW1 6080   3.219   4.069   3.251
 1727SOL    HW2 6081   3.293   4.211   3.281
 1728SOL     OW 6082   5.409   2.874   4.135
 1728SOL    HW1 6083   5.497   2.919   4.153
 1728SOL    HW2 6084   5.410   2.783   4.177
 1729SOL     OW 6085   1.437   3.115   3.197
 1729SOL    HW1 6086   1.415   3.024   3.161
 1729SOL    HW2 6087   1.444   3.180   3.121
 1730SOL     OW 6088   1.936   5.729   4.321
 1730SOL    HW1 6089   1.926   5.772   4.411
 1730SOL    HW2 6090   2.000   5.782   4.266
 1731SOL     OW 6091   5.933   5.090   3.725
 1731SOL    HW1 6092   5.859   5.093   3.791
 1731SOL    HW2 6093   5.896   5.085   3.632
 1732SOL     OW 6094   2.515   3.466   5.367
 1732SOL    HW1 6095   2.417   3.449   5.370
 1732SOL    HW2 6096   2.534   3.558   5.401
 1733SOL     OW 6097   1.926   3.062   5.748
 1733SOL    HW1 6098   1.973   3.046   5.662
 1733SOL    HW2 6099   1.932   3.159   5.771
 1734SOL     OW 6100   6.544   3.078   0.976
 1734SOL    HW1 6101   6.478   3.107   0.906
 1734SOL    HW2 6102   6.632   3.122   0.960
 1735SOL     OW 6103   3.524   5.318   6.468
 1735SOL    HW1 6104   3.571   5.406   6.461
 1735SOL    HW2 6105   3.485   5.295   6.379
 1736SOL     OW 6106   4.935   2.162   6.859
 1736SOL    HW1 6107   4.905   2.250   6.895
 1736SOL    HW2 6108   4.857   2.102   6.846
 1737SOL     OW 6109   3.814   1.263   5.786
 1737SOL    HW1 6110   3.726   1.239   5.826
 1737SOL    HW2 6111   3.847   1.187   5.731
 1738SOL     OW 6112   2.034   2.918   3.646
 1738SOL    HW1 6113   2.010   2.968   3.562
 1738SOL    HW2 6114   2.128   2.886   3.639
 1739SOL     OW 6115   5.282   0.199   3.139
 1739SOL    HW1 6116   5.229   0.239   3.065
 1739SOL    HW2 6117   5.353   0.139   3.102
 1740SOL     OW 6118   5.811   3.197   4.738
 1740SOL    HW1 6119   5.815   3.193   4.838
 1740SOL    HW2 6120   5.716   3.192   4.708
 1741SOL     OW 6121   0.063   2.047   4.786
 1741SOL    HW1 6122   6.979   2.026   4.783
 1741SOL    HW2 6123   0.114   1.973   4.741
 1742SOL     OW 6124   6.376   6.716   6.624
 1742SOL    HW1 6125   6.445   6.782   6.653
 1742SOL    HW2 6126   6.322   6.753   6.550
 1743SOL     OW 6127   1.409   1.666   2.316
 1743SOL    HW1 6128   1.503   1.672   2.282
 1743SOL    HW2 6129   1.380   1.755   2.350
 1744SOL     OW 6130   3.516   2.083   5.336
 1744SOL    HW1 6131   3.464   2.058   5.255
 1744SOL    HW2 6132   3.586   2.150   5.312
 1745SOL     OW 6133   5.875   6.680   1.330
 1745SOL    HW1 6134   5.809   6.631   1.387
 1745SOL    HW2 6135   5.934   6.614   1.284
 1746SOL     OW 6136   2.707   4.699   3.314
 1746SOL    HW1 6137   2.688   4.627   3.247
 1746SOL    HW2 6138   2.684   4.665   3.406
 1747SOL     OW 6139   4.074   0.195   2.658
 1747SOL    HW1 6140   4.111   0.126   2.721
 1747SOL    HW2 6141   3.994   0.158   2.611
 1748SOL     OW 6142   0.372   2.602   4.713
 1748SOL    HW1 6143   0.368   2.667   4.789
 1748SOL    HW2 6144   0.299   2.621   4.648
 1749SOL     OW 6145   0.221   5.212   1.588
 1749SOL    HW1 6146   0.208   5.199   1.489
 1749SOL    HW2 6147   0.319   5.211   1.609
 1750SOL     OW 6148   3.170   0.595   0.032
 1750SOL    HW1 6149   3.240   0.539   7.003
 1750SOL    HW2 6150   3.079   0.562   0.006
 1751SOL     OW 6151   5.512   3.219   4.675
 1751SOL    HW1 6152   5.451   3.264   4.741
 1751SOL    HW2 6153   5.556   3.141   4.719
 1752SOL     OW 6154   0.044   0.945   2.507
 1752SOL    HW1 6155   6.995   0.867   2.500
 1752SOL    HW2 6156   0.018   1.014   2.440
 1753SOL     OW 6157   6.374   1.631   1.542
 1753SOL    HW1 6158   6.347   1.574   1.464
 1753SOL    HW2 6159   6.434   1.704   1.509
 1754SOL     OW 6160   3.249   5.619   3.399
 1754SOL    HW1 6161   3.194   5.649   3.478
 1754SOL    HW2 6162   3.215   5.531   3.366
 1755SOL     OW 6163   6.460   6.616   5.345
 1755SOL    HW1 6164   6.462   6.712   5.317
 1755SOL    HW2 6165   6.445   6.610   5.444
 1756SOL     OW 6166   4.957   5.767   0.396
 1756SOL    HW1 6167   4.951   5.731   0.488
 1756SOL    HW2 6168   4.942   5.693   0.330
 1757SOL     OW 6169   2.716   4.836   5.197
 1757SOL    HW1 6170   2.748   4.773   5.126
 1757SOL    HW2 6171   2.722   4.791   5.286
 1758SOL     OW 6172   1.342   5.902   3.935
 1758SOL    HW1 6173   1.336   5.803   3.943
 1758SOL    HW2 6174   1.400   5.939   4.007
 1759SOL     OW 6175   1.097   6.210   6.978
 1759SOL    HW1 6176   1.023   6.175   6.921
 1759SOL    HW2 6177   1.172   6.144   6.981
 1760SOL     OW 6178   6.975   1.438   4.549
 1760SOL    HW1 6179   0.048   1.415   4.593
 1760SOL    HW2 6180   6.991   1.501   4.473
 1761SOL     OW 6181   5.406   0.982   2.706
 1761SOL    HW1 6182   5.434   1.019   2.794
 1761SOL    HW2 6183   5.319   1.023   2.679
 1762SOL     OW 6184   0.627   1.573   5.507
 1762SOL    HW1 6185   0.717   1.561   5.549
 1762SOL    HW2 6186   0.623   1.520   5.422
 1763SOL     OW 6187   1.388   4.583   3.915
 1763SOL    HW1 6188   1.399   4.603   3.817
 1763SOL    HW2 6189   1.451   4.641   3.967
 1764SOL     OW 6190   1.274   5.880   3.093
 1764SOL    HW1 6191   1.355   5.821   3.086
 1764SOL    HW2 6192   1.193   5.824   3.112
 1765SOL     OW 6193   5.705   3.827   2.144
 1765SOL    HW1 6194   5.642   3.770   2.091
 1765SOL    HW2 6195   5.759   3.883   2.081
 1766SOL     OW 6196   4.276   4.708   3.906
 1766SOL    HW1 6197   4.248   4.725   3.811
 1766SOL    HW2 6198   4.210   4.647   3.950
 1767SOL     OW 6199   0.441   5.057   2.326
 1767SOL    HW1 6200   0.354   5.081   2.370
 1767SOL    HW2 6201   0.448   4.957   2.320
 1768SOL     OW 6202   5.492   4.967   1.908
 1768SOL    HW1 6203   5.547   4.893   1.868
 1768SOL    HW2 6204   5.399   4.934   1.921
 1769SOL     OW 6205   5.350   0.340   0.775
 1769SOL    HW1 6206   5.415   0.296   0.838
 1769SOL    HW2 6207   5.373   0.437   0.766
 1770SOL     OW 6208   1.529   4.981   0.512
 1770SOL    HW1 6209   1.463   5.001   0.585
 1770SOL    HW2 6210   1.594   5.056   0.504
 1771SOL     OW 6211   1.679   3.221   5.936
 1771SOL    HW1 6212   1.713   3.296   5.993
 1771SOL    HW2 6213   1.737   3.211   5.855
 1772SOL     OW 6214   2.234   4.071   2.274
 1772SOL    HW1 6215   2.253   4.088   2.177
 1772SOL    HW2 6216   2.180   3.987   2.282
 1773SOL     OW 6217   2.065   6.063   6.246
 1773SOL    HW1 6218   2.026   5.991   6.188
 1773SOL    HW2 6219   2.148   6.098   6.204
 1774SOL     OW 6220   5.641   5.548   1.080
 1774SOL    HW1 6221   5.630   5.642   1.047
 1774SOL    HW2 6222   5.662   5.549   1.177
 1775SOL     OW 6223   2.052   5.139   0.857
 1775SOL    HW1 6224   2.141   5.123   0.900
 1775SOL    HW2 6225   1.990   5.064   0.879
 1776SOL     OW 6226   4.537   2.810   5.881
 1776SOL    HW1 6227   4.482   2.851   5.954
 1776SOL    HW2 6228   4.571   2.883   5.821
 1777SOL     OW 6229   4.621   6.038   0.316
 1777SOL    HW1 6230   4.605   5.989   0.230
 1777SOL    HW2 6231   4.719   6.042   0.335
 1778SOL     OW 6232   6.229   0.228   4.552
 1778SOL    HW1 6233   6.242   0.160   4.480
 1778SOL    HW2 6234   6.280   0.311   4.530
 1779SOL     OW 6235   5.595   0.545   4.192
 1779SOL    HW1 6236   5.665   0.519   4.124
 1779SOL    HW2 6237   5.552   0.463   4.228
 1780SOL     OW 6238   2.209   5.446   5.570
 1780SOL    HW1 6239   2.279   5.403   5.514
 1780SOL    HW2 6240   2.247   5.526   5.617
 1781SOL     OW 6241   4.276   0.382   5.397
 1781SOL    HW1 6242   4.260   0.477   5.423
 1781SOL    HW2 6243   4.198   0.326   5.423
 1782SOL     OW 6244   5.536   1.684   2.533
 1782SOL    HW1 6245   5.591   1.750   2.585
 1782SOL    HW2 6246   5.583   1.596   2.530
 1783SOL     OW 6247   1.857   3.970   6.945
 1783SOL    HW1 6248   1.774   3.999   6.993
 1783SOL    HW2 6249   1.936   3.990   7.002
 1784SOL     OW 6250   2.833   0.222   1.938
 1784SOL    HW1 6251   2.911   0.278   1.910
 1784SOL    HW2 6252   2.763   0.281   1.979
 1785SOL     OW 6253   1.357   6.517   4.819
 1785SOL    HW1 6254   1.318   6.465   4.894
 1785SOL    HW2 6255   1.314   6.607   4.815
 1786SOL     OW 6256   0.997   6.508   1.477
 1786SOL    HW1 6257   0.980   6.540   1.383
 1786SOL    HW2 6258   1.061   6.431   1.474
 1787SOL     OW 6259   2.058   3.024   5.479
 1787SOL    HW1 6260   2.136   3.015   5.417
 1787SOL    HW2 6261   1.990   2.954   5.458
 1788SOL     OW 6262   4.426   3.489   0.856
 1788SOL    HW1 6263   4.435   3.408   0.798
 1788SOL    HW2 6264   4.345   3.479   0.915
 1789SOL     OW 6265   6.661   3.450   2.457
 1789SOL    HW1 6266   6.741   3.392   2.442
 1789SOL    HW2 6267   6.582   3.411   2.410
 1790SOL     OW 6268   1.644   2.186   5.011
 1790SOL    HW1 6269   1.564   2.220   5.060
 1790SOL    HW2 6270   1.691   2.118   5.067
 1791SOL     OW 6271   4.919   0.443   3.948
 1791SOL    HW1 6272   4.881   0.505   3.880
 1791SOL    HW2 6273   4.848   0.419   4.015
 1792SOL     OW 6274   0.561   2.328   6.766
 1792SOL    HW1 6275   0.620   2.333   6.685
 1792SOL    HW2 6276   0.475   2.283   6.741
 1793SOL     OW 6277   6.504   0.927   5.507
 1793SOL    HW1 6278   6.604   0.920   5.505
 1793SOL    HW2 6279   6.476   1.016   5.471
 1794SOL     OW 6280   0.354   0.871   6.419
 1794SOL    HW1 6281   0.289   0.947   6.431
 1794SOL    HW2 6282   0.329   0.796   6.481
 1795SOL     OW 6283   5.425   4.645   0.910
 1795SOL    HW1 6284   5.390   4.556   0.880
 1795SOL    HW2 6285   5.417   4.653   1.009
 1796SOL     OW 6286   6.821   0.077   0.713
 1796SOL    HW1 6287   6.741   0.022   0.694
 1796SOL    HW2 6288   6.903   0.021   0.705
 1797SOL     OW 6289   2.716   5.536   5.601
 1797SOL    HW1 6290   2.777   5.596   5.652
 1797SOL    HW2 6291   2.768   5.484   5.533
 1798SOL     OW 6292   2.217   3.904   5.300
 1798SOL    HW1 6293   2.195   3.807   5.313
 1798SOL    HW2 6294   2.311   3.912   5.266
 1799SOL     OW 6295   2.956   1.391   1.460
 1799SOL    HW1 6296   2.973   1.397   1.559
 1799SOL    HW2 6297   3.040   1.363   1.413
 1800SOL     OW 6298   6.256   3.009   5.684
 1800SOL    HW1 6299   6.324   2.991   5.613
 1800SOL    HW2 6300   6.246   2.928   5.742
 1801SOL     OW 6301   0.355   0.444   3.181
 1801SOL    HW1 6302   0.447   0.483   3.192
 1801SOL    HW2 6303   0.363   0.351   3.146
 1802SOL     OW 6304   6.486   5.038   4.092
 1802SOL    HW1 6305   6.426   5.010   4.167
 1802SOL    HW2 6306   6.436   5.098   4.030
 1803SOL     OW 6307   0.104   0.355   3.503
 1803SOL    HW1 6308   0.164   0.276   3.515
 1803SOL    HW2 6309   0.121   0.397   3.414
 1804SOL     OW 6310   2.015   2.693   6.197
 1804SOL    HW1 6311   1.918   2.691   6.173
 1804SOL    HW2 6312   2.048   2.788   6.193
 1805SOL     OW 6313   6.357   4.836   0.785
 1805SOL    HW1 6314   6.453   4.807   0.781
 1805SOL    HW2 6315   6.342   4.910   0.719
 1806SOL     OW 6316   0.022   1.301   0.713
 1806SOL    HW1 6317   0.001   1.340   0.623
 1806SOL    HW2 6318   0.011   1.372   0.783
 1807SOL     OW 6319   6.410   2.812   2.911
 1807SOL    HW1 6320   6.323   2.852   2.882
 1807SOL    HW2 6321   6.396   2.714   2.930
 1808SOL     OW 6322   5.225   1.457   6.184
 1808SOL    HW1 6323   5.175   1.467   6.271
 1808SOL    HW2 6324   5.321   1.482   6.198
 1809SOL     OW 6325   4.987   0.121   5.431
 1809SOL    HW1 6326   4.998   0.219   5.420
 1809SOL    HW2 6327   5.027   0.092   5.518
 1810SOL     OW 6328   1.282   0.458   3.976
 1810SOL    HW1 6329   1.243   0.547   4.000
 1810SOL    HW2 6330   1.226   0.415   3.905
 1811SOL     OW 6331   3.679   5.830   1.715
 1811SOL    HW1 6332   3.664   5.928   1.732
 1811SOL    HW2 6333   3.775   5.808   1.729
 1812SOL     OW 6334   4.529   6.223   6.728
 1812SOL    HW1 6335   4.468   6.299   6.752
 1812SOL    HW2 6336   4.617   6.235   6.775
 1813SOL     OW 6337   5.019   3.831   2.067
 1813SOL    HW1 6338   5.098   3.814   2.125
 1813SOL    HW2 6339   5.049   3.854   1.975
 1814SOL     OW 6340   6.486   6.138   0.392
 1814SOL    HW1 6341   6.447   6.048   0.412
 1814SOL    HW2 6342   6.575   6.126   0.348
 1815SOL     OW 6343   5.593   6.084   1.437
 1815SOL    HW1 6344   5.647   6.001   1.451
 1815SOL    HW2 6345   5.499   6.068   1.467
 1816SOL     OW 6346   4.261   4.838   5.452
 1816SOL    HW1 6347   4.302   4.759   5.498
 1816SOL    HW2 6348   4.274   4.919   5.508
 1817SOL     OW 6349   0.095   2.695   3.381
 1817SOL    HW1 6350   0.049   2.771   3.335
 1817SOL    HW2 6351   0.193   2.699   3.362
 1818SOL     OW 6352   2.827   1.034   0.716
 1818SOL    HW1 6353   2.776   0.956   0.680
 1818SOL    HW2 6354   2.803   1.116   0.664
 1819SOL     OW 6355   1.721   4.057   2.332
 1819SOL    HW1 6356   1.796   4.119   2.356
 1819SOL    HW2 6357   1.753   3.962   2.337
 1820SOL     OW 6358   3.079   0.257   4.426
 1820SOL    HW1 6359   3.112   0.179   4.373
 1820SOL    HW2 6360   3.133   0.338   4.403
 1821SOL     OW 6361   3.612   1.650   2.701
 1821SOL    HW1 6362   3.536   1.651   2.636
 1821SOL    HW2 6363   3.577   1.638   2.794
 1822SOL     OW 6364   0.666   4.019   3.154
 1822SOL    HW1 6365   0.630   4.001   3.246
 1822SOL    HW2 6366   0.649   3.940   3.095
 1823SOL     OW 6367   4.213   6.754   2.838
 1823SOL    HW1 6368   4.246   6.787   2.750
 1823SOL    HW2 6369   4.251   6.663   2.855
 1824SOL     OW 6370   4.428   3.143   1.699
 1824SOL    HW1 6371   4.469   3.085   1.629
 1824SOL    HW2 6372   4.466   3.121   1.788
 1825SOL     OW 6373   0.764   2.974   5.789
 1825SOL    HW1 6374   0.691   2.980   5.721
 1825SOL    HW2 6375   0.730   3.002   5.878
 1826SOL     OW 6376   3.221   2.321   1.187
 1826SOL    HW1 6377   3.320   2.327   1.200
 1826SOL    HW2 6378   3.177   2.300   1.274
 1827SOL     OW 6379   5.476   5.008   0.793
 1827SOL    HW1 6380   5.470   5.060   0.878
 1827SOL    HW2 6381   5.536   4.929   0.806
 1828SOL     OW 6382   1.434   4.042   5.027
 1828SOL    HW1 6383   1.502   4.047   5.101
 1828SOL    HW2 6384   1.344   4.023   5.066
 1829SOL     OW 6385   3.699   6.529   2.183
 1829SOL    HW1 6386   3.721   6.440   2.143
 1829SOL    HW2 6387   3.783   6.581   2.196
 1830SOL     OW 6388   4.427   1.096   6.183
 1830SOL    HW1 6389   4.407   1.169   6.249
 1830SOL    HW2 6390   4.444   1.136   6.093
 1831SOL     OW 6391   3.265   4.566   0.671
 1831SOL    HW1 6392   3.223   4.657   0.664
 1831SOL    HW2 6393   3.364   4.575   0.672
 1832SOL     OW 6394   2.475   3.054   6.075
 1832SOL    HW1 6395   2.499   3.143   6.113
 1832SOL    HW2 6396   2.554   2.992   6.085
 1833SOL     OW 6397   5.917   1.100   0.043
 1833SOL    HW1 6398   5.950   1.010   0.016
 1833SOL    HW2 6399   5.988   1.147   0.096
 1834SOL     OW 6400   0.737   3.441   6.103
 1834SOL    HW1 6401   0.722   3.480   6.195
 1834SOL    HW2 6402   0.653   3.451   6.050
 1835SOL     OW 6403   6.941   6.159   1.239
 1835SOL    HW1 6404   6.858   6.138   1.291
 1835SOL    HW2 6405   0.005   6.113   1.281
 1836SOL     OW 6406   5.049   1.993   2.567
 1836SOL    HW1 6407   5.074   2.073   2.513
 1836SOL    HW2 6408   5.012   1.922   2.506
 1837SOL     OW 6409   2.873   2.053   6.881
 1837SOL    HW1 6410   2.914   1.976   6.831
 1837SOL    HW2 6411   2.801   2.019   6.942
 1838SOL     OW 6412   4.790   1.232   1.319
 1838SOL    HW1 6413   4.785   1.318   1.268
 1838SOL    HW2 6414   4.857   1.172   1.276
 1839SOL     OW 6415   6.039   0.424   0.356
 1839SOL    HW1 6416   6.084   0.339   0.327
 1839SOL    HW2 6417   6.067   0.499   0.297
 1840SOL     OW 6418   3.966   6.435   4.288
 1840SOL    HW1 6419   3.936   6.413   4.380
 1840SOL    HW2 6420   3.956   6.355   4.229
 1841SOL     OW 6421   1.290   0.695   1.748
 1841SOL    HW1 6422   1.308   0.737   1.836
 1841SOL    HW2 6423   1.241   0.760   1.689
 1842SOL     OW 6424   0.703   5.183   1.460
 1842SOL    HW1 6425   0.744   5.269   1.490
 1842SOL    HW2 6426   0.610   5.200   1.428
 1843SOL     OW 6427   2.547   0.702   6.971
 1843SOL    HW1 6428   2.450   0.707   6.993
 1843SOL    HW2 6429   2.584   0.615   7.003
 1844SOL     OW 6430   5.579   2.658   6.358
 1844SOL    HW1 6431   5.675   2.649   6.333
 1844SOL    HW2 6432   5.569   2.729   6.428
 1845SOL     OW 6433   1.083   2.709   3.545
 1845SOL    HW1 6434   0.986   2.698   3.566
 1845SOL    HW2 6435   1.102   2.805   3.522
 1846SOL     OW 6436   2.614   1.578   1.644
 1846SOL    HW1 6437   2.553   1.556   1.720
 1846SOL    HW2 6438   2.608   1.506   1.575
 1847SOL     OW 6439   2.165   5.503   5.943
 1847SOL    HW1 6440   2.126   5.581   5.991
 1847SOL    HW2 6441   2.111   5.421   5.962
 1848SOL     OW 6442   3.677   6.830   3.537
 1848SOL    HW1 6443   3.629   6.853   3.622
 1848SOL    HW2 6444   3.718   6.739   3.546
 1849SOL     OW 6445   4.800   2.596   2.369
 1849SOL    HW1 6446   4.859   2.522   2.340
 1849SOL    HW2 6447   4.813   2.675   2.309
 1850SOL     OW 6448   4.274   2.149   0.649
 1850SOL    HW1 6449   4.289   2.213   0.574
 1850SOL    HW2 6450   4.320   2.183   0.731
 1851SOL     OW 6451   6.899   4.969   4.566
 1851SOL    HW1 6452   6.945   4.902   4.507
 1851SOL    HW2 6453   6.966   5.016   4.622
 1852SOL     OW 6454   0.741   0.273   2.858
 1852SOL    HW1 6455   0.777   0.344   2.918
 1852SOL    HW2 6456   0.775   0.184   2.885
 1853SOL     OW 6457   0.523   2.184   5.609
 1853SOL    HW1 6458   0.444   2.227   5.654
 1853SOL    HW2 6459   0.587   2.151   5.678
 1854SOL     OW 6460   0.521   6.818   3.298
 1854SOL    HW1 6461   0.452   6.826   3.225
 1854SOL    HW2 6462   0.608   6.789   3.258
 1855SOL     OW 6463   5.879   2.640   4.781
 1855SOL    HW1 6464   5.880   2.617   4.878
 1855SOL    HW2 6465   5.842   2.732   4.769
 1856SOL     OW 6466   4.415   3.483   0.153
 1856SOL    HW1 6467   4.416   3.424   0.234
 1856SOL    HW2 6468   4.323   3.483   0.114
 1857SOL     OW 6469   3.753   1.062   6.671
 1857SOL    HW1 6470   3.687   1.008   6.618
 1857SOL    HW2 6471   3.707   1.141   6.711
 1858SOL     OW 6472   5.237   2.206   4.210
 1858SOL    HW1 6473   5.315   2.230   4.153
 1858SOL    HW2 6474   5.176   2.145   4.159
 1859SOL     OW 6475   0.243   0.744   4.370
 1859SOL    HW1 6476   0.188   0.706   4.296
 1859SOL    HW2 6477   0.289   0.669   4.418
 1860SOL     OW 6478   2.735   1.183   6.644
 1860SOL    HW1 6479   2.654   1.134   6.675
 1860SOL    HW2 6480   2.757   1.155   6.550
 1861SOL     OW 6481   6.301   6.608   4.611
 1861SOL    HW1 6482   6.285   6.519   4.653
 1861SOL    HW2 6483   6.213   6.652   4.592
 1862SOL     OW 6484   3.259   5.694   5.648
 1862SOL    HW1 6485   3.180   5.741   5.607
 1862SOL    HW2 6486   3.337   5.757   5.652
 1863SOL     OW 6487   6.457   1.768   0.805
 1863SOL    HW1 6488   6.555   1.772   0.826
 1863SOL    HW2 6489   6.416   1.693   0.856
 1864SOL     OW 6490   3.199   5.829   1.768
 1864SOL    HW1 6491   3.147   5.870   1.692
 1864SOL    HW2 6492   3.296   5.829   1.745
 1865SOL     OW 6493   6.493   2.590   5.913
 1865SOL    HW1 6494   6.470   2.517   5.977
 1865SOL    HW2 6495   6.544   2.552   5.836
 1866SOL     OW 6496   0.823   5.453   3.627
 1866SOL    HW1 6497   0.764   5.388   3.578
 1866SOL    HW2 6498   0.806   5.546   3.592
 1867SOL     OW 6499   0.563   2.281   1.466
 1867SOL    HW1 6500   0.589   2.250   1.557
 1867SOL    HW2 6501   0.618   2.233   1.398
 1868SOL     OW 6502   5.899   3.504   6.443
 1868SOL    HW1 6503   5.965   3.430   6.453
 1868SOL    HW2 6504   5.806   3.466   6.441
 1869SOL     OW 6505   5.249   0.974   4.966
 1869SOL    HW1 6506   5.289   0.933   5.048
 1869SOL    HW2 6507   5.284   1.068   4.956
 1870SOL     OW 6508   6.358   0.381   5.940
 1870SOL    HW1 6509   6.384   0.473   5.969
 1870SOL    HW2 6510   6.296   0.341   6.007
 1871SOL     OW 6511   0.780   6.450   6.670
 1871SOL    HW1 6512   0.813   6.493   6.586
 1871SOL    HW2 6513   0.771   6.520   6.741
 1872SOL     OW 6514   2.713   3.030   1.510
 1872SOL    HW1 6515   2.786   3.098   1.500
 1872SOL    HW2 6516   2.735   2.950   1.454
 1873SOL     OW 6517   6.423   1.371   1.114
 1873SOL    HW1 6518   6.353   1.373   1.186
 1873SOL    HW2 6519   6.500   1.315   1.144
 1874SOL     OW 6520   1.225   5.744   7.007
 1874SOL    HW1 6521   1.258   5.712   0.082
 1874SOL    HW2 6522   1.132   5.779   0.003
 1875SOL     OW 6523   0.346   5.983   2.203
 1875SOL    HW1 6524   0.379   6.062   2.255
 1875SOL    HW2 6525   0.259   5.952   2.242
 1876SOL     OW 6526   0.402   4.826   0.590
 1876SOL    HW1 6527   0.372   4.877   0.670
 1876SOL    HW2 6528   0.322   4.793   0.539
 1877SOL     OW 6529   1.376   2.111   2.205
 1877SOL    HW1 6530   1.465   2.158   2.204
 1877SOL    HW2 6531   1.327   2.130   2.120
 1878SOL     OW 6532   5.443   3.978   4.196
 1878SOL    HW1 6533   5.376   3.991   4.269
 1878SOL    HW2 6534   5.422   4.040   4.120
 1879SOL     OW 6535   4.697   6.189   4.722
 1879SOL    HW1 6536   4.715   6.269   4.666
 1879SOL    HW2 6537   4.765   6.184   4.796
 1880SOL     OW 6538   0.467   1.357   4.475
 1880SOL    HW1 6539   0.381   1.387   4.432
 1880SOL    HW2 6540   0.542   1.415   4.443
 1881SOL     OW 6541   2.143   1.175   3.671
 1881SOL    HW1 6542   2.238   1.206   3.678
 1881SOL    HW2 6543   2.137   1.080   3.701
 1882SOL     OW 6544   2.225   5.247   0.236
 1882SOL    HW1 6545   2.179   5.168   0.195
 1882SOL    HW2 6546   2.159   5.299   0.290
 1883SOL     OW 6547   2.525   2.473   2.970
 1883SOL    HW1 6548   2.619   2.441   2.966
 1883SOL    HW2 6549   2.515   2.542   3.041
 1884SOL     OW 6550   4.573   1.214   0.606
 1884SOL    HW1 6551   4.586   1.162   0.691
 1884SOL    HW2 6552   4.620   1.302   0.613
 1885SOL     OW 6553   0.347   1.830   0.548
 1885SOL    HW1 6554   0.276   1.789   0.605
 1885SOL    HW2 6555   0.411   1.882   0.605
 1886SOL     OW 6556   3.287   2.899   5.925
 1886SOL    HW1 6557   3.193   2.933   5.920
 1886SOL    HW2 6558   3.287   2.799   5.921
 1887SOL     OW 6559   0.711   6.383   5.016
 1887SOL    HW1 6560   0.794   6.366   4.963
 1887SOL    HW2 6561   0.661   6.297   5.027
 1888SOL     OW 6562   1.839   2.051   5.513
 1888SOL    HW1 6563   1.842   2.090   5.605
 1888SOL    HW2 6564   1.770   2.099   5.459
 1889SOL     OW 6565   2.613   3.243   0.451
 1889SOL    HW1 6566   2.550   3.166   0.443
 1889SOL    HW2 6567   2.691   3.229   0.391
 1890SOL     OW 6568   6.299   6.088   6.705
 1890SOL    HW1 6569   6.228   6.033   6.750
 1890SOL    HW2 6570   6.382   6.088   6.761
 1891SOL     OW 6571   5.515   3.714   6.711
 1891SOL    HW1 6572   5.615   3.708   6.715
 1891SOL    HW2 6573   5.483   3.781   6.778
 1892SOL     OW 6574   4.381   0.181   2.264
 1892SOL    HW1 6575   4.291   0.141   2.247
 1892SOL    HW2 6576   4.449   0.108   2.271
 1893SOL     OW 6577   2.915   1.018   5.502
 1893SOL    HW1 6578   2.964   0.971   5.429
 1893SOL    HW2 6579   2.819   1.028   5.476
 1894SOL     OW 6580   5.061   3.764   1.417
 1894SOL    HW1 6581   5.029   3.706   1.343
 1894SOL    HW2 6582   4.987   3.824   1.447
 1895SOL     OW 6583   4.229   6.097   3.385
 1895SOL    HW1 6584   4.287   6.091   3.304
 1895SOL    HW2 6585   4.211   6.194   3.406
 1896SOL     OW 6586   6.175   2.065   6.029
 1896SOL    HW1 6587   6.157   2.159   5.998
 1896SOL    HW2 6588   6.121   2.001   5.976
 1897SOL     OW 6589   5.996   4.760   3.471
 1897SOL    HW1 6590   5.972   4.806   3.386
 1897SOL    HW2 6591   6.073   4.807   3.514
 1898SOL     OW 6592   5.586   6.504   6.887
 1898SOL    HW1 6593   5.582   6.549   6.798
 1898SOL    HW2 6594   5.610   6.571   6.957
 1899SOL     OW 6595   1.564   2.336   3.256
 1899SOL    HW1 6596   1.520   2.265   3.312
 1899SOL    HW2 6597   1.594   2.296   3.169
 1900SOL     OW 6598   2.725   6.363   1.874
 1900SOL    HW1 6599   2.686   6.405   1.956
 1900SOL    HW2 6600   2.825   6.365   1.879
 1901SOL     OW 6601   1.137   0.963   5.893
 1901SOL    HW1 6602   1.230   0.930   5.876
 1901SOL    HW2 6603   1.072   0.910   5.839
 1902SOL     OW 6604   1.295   2.403   5.397
 1902SOL    HW1 6605   1.310   2.369   5.490
 1902SOL    HW2 6606   1.247   2.491   5.402
 1903SOL     OW 6607   6.915   4.553   3.984
 1903SOL    HW1 6608   6.912   4.453   3.985
 1903SOL    HW2 6609   6.909   4.585   3.889
 1904SOL     OW 6610   0.673   0.309   4.259
 1904SOL    HW1 6611   0.628   0.259   4.184
 1904SOL    HW2 6612   0.617   0.302   4.342
 1905SOL     OW 6613   6.488   2.984   4.247
 1905SOL    HW1 6614   6.458   3.078   4.235
 1905SOL    HW2 6615   6.460   2.952   4.338
 1906SOL     OW 6616   3.000   6.008   6.362
 1906SOL    HW1 6617   2.939   6.066   6.416
 1906SOL    HW2 6618   3.078   5.980   6.417
 1907SOL     OW 6619   4.964   6.069   3.778
 1907SOL    HW1 6620   4.882   6.082   3.722
 1907SOL    HW2 6621   4.998   5.976   3.765
 1908SOL     OW 6622   4.641   6.705   0.630
 1908SOL    HW1 6623   4.706   6.763   0.679
 1908SOL    HW2 6624   4.550   6.717   0.670
 1909SOL     OW 6625   4.583   5.361   4.072
 1909SOL    HW1 6626   4.575   5.382   4.169
 1909SOL    HW2 6627   4.503   5.396   4.023
 1910SOL     OW 6628   5.070   3.323   5.237
 1910SOL    HW1 6629   4.987   3.313   5.182
 1910SOL    HW2 6630   5.075   3.417   5.272
 1911SOL     OW 6631   0.393   3.477   5.731
 1911SOL    HW1 6632   0.422   3.409   5.664
 1911SOL    HW2 6633   0.382   3.566   5.686
 1912SOL     OW 6634   2.677   5.557   3.144
 1912SOL    HW1 6635   2.682   5.457   3.134
 1912SOL    HW2 6636   2.582   5.587   3.133
 1913SOL     OW 6637   1.541   4.755   5.212
 1913SOL    HW1 6638   1.627   4.726   5.170
 1913SOL    HW2 6639   1.524   4.700   5.294
 1914SOL     OW 6640   4.618   1.254   5.642
 1914SOL    HW1 6641   4.583   1.347   5.653
 1914SOL    HW2 6642   4.557   1.203   5.581
 1915SOL     OW 6643   3.058   0.581   5.121
 1915SOL    HW1 6644   3.066   0.667   5.070
 1915SOL    HW2 6645   3.147   0.555   5.157
 1916SOL     OW 6646   4.219   6.270   2.513
 1916SOL    HW1 6647   4.187   6.360   2.540
 1916SOL    HW2 6648   4.141   6.208   2.504
 1917SOL     OW 6649   3.198   3.443   4.719
 1917SOL    HW1 6650   3.164   3.354   4.688
 1917SOL    HW2 6651   3.170   3.514   4.655
 1918SOL     OW 6652   6.556   6.338   5.255
 1918SOL    HW1 6653   6.563   6.350   5.156
 1918SOL    HW2 6654   6.579   6.423   5.301
 1919SOL     OW 6655   6.386   0.227   2.075
 1919SOL    HW1 6656   6.417   0.221   1.980
 1919SOL    HW2 6657   6.435   0.301   2.122
 1920SOL     OW 6658   6.350   6.319   4.801
 1920SOL    HW1 6659   6.257   6.288   4.786
 1920SOL    HW2 6660   6.348   6.410   4.844
 1921SOL     OW 6661   1.326   6.923   6.822
 1921SOL    HW1 6662   1.422   6.936   6.845
 1921SOL    HW2 6663   1.314   6.927   6.723
 1922SOL     OW 6664   3.971   4.095   0.944
 1922SOL    HW1 6665   4.058   4.047   0.938
 1922SOL    HW2 6666   3.912   4.067   0.868
 1923SOL     OW 6667   2.021   2.859   0.187
 1923SOL    HW1 6668   2.003   2.850   0.285
 1923SOL    HW2 6669   1.988   2.777   0.140
 1924SOL     OW 6670   0.455   4.140   1.388
 1924SOL    HW1 6671   0.552   4.130   1.367
 1924SOL    HW2 6672   0.443   4.153   1.487
 1925SOL     OW 6673   3.958   3.880   0.463
 1925SOL    HW1 6674   3.942   3.967   0.511
 1925SOL    HW2 6675   4.051   3.848   0.483
 1926SOL     OW 6676   0.702   0.298   3.252
 1926SOL    HW1 6677   0.654   0.246   3.322
 1926SOL    HW2 6678   0.665   0.391   3.249
 1927SOL     OW 6679   4.431   3.674   0.623
 1927SOL    HW1 6680   4.460   3.767   0.645
 1927SOL    HW2 6681   4.422   3.621   0.707
 1928SOL     OW 6682   0.392   5.443   4.976
 1928SOL    HW1 6683   0.478   5.492   4.964
 1928SOL    HW2 6684   0.315   5.503   4.952
 1929SOL     OW 6685   1.874   5.861   2.709
 1929SOL    HW1 6686   1.826   5.834   2.793
 1929SOL    HW2 6687   1.894   5.779   2.655
 1930SOL     OW 6688   6.807   5.123   6.897
 1930SOL    HW1 6689   6.716   5.084   6.906
 1930SOL    HW2 6690   6.831   5.130   6.800
 1931SOL     OW 6691   0.615   1.964   4.902
 1931SOL    HW1 6692   0.543   1.989   4.966
 1931SOL    HW2 6693   0.585   1.981   4.809
 1932SOL     OW 6694   5.902   2.883   2.843
 1932SOL    HW1 6695   5.841   2.926   2.776
 1932SOL    HW2 6696   5.851   2.815   2.896
 1933SOL     OW 6697   1.926   4.753   0.571
 1933SOL    HW1 6698   1.962   4.687   0.505
 1933SOL    HW2 6699   1.854   4.710   0.624
 1934SOL     OW 6700   6.964   6.356   4.335
 1934SOL    HW1 6701   7.011   6.442   4.353
 1934SOL    HW2 6702   6.996   6.317   4.249
 1935SOL     OW 6703   2.265   0.751   3.482
 1935SOL    HW1 6704   2.249   0.681   3.552
 1935SOL    HW2 6705   2.235   0.716   3.393
 1936SOL     OW 6706   6.996   6.051   5.652
 1936SOL    HW1 6707   0.001   6.130   5.711
 1936SOL    HW2 6708   6.900   6.051   5.627
 1937SOL     OW 6709   4.419   0.727   2.999
 1937SOL    HW1 6710   4.398   0.761   2.908
 1937SOL    HW2 6711   4.337   0.686   3.039
 1938SOL     OW 6712   5.207   0.713   4.244
 1938SOL    HW1 6713   5.236   0.807   4.228
 1938SOL    HW2 6714   5.255   0.677   4.325
 1939SOL     OW 6715   2.768   0.206   3.626
 1939SOL    HW1 6716   2.746   0.134   3.691
 1939SOL    HW2 6717   2.771   0.294   3.673
 1940SOL     OW 6718   6.610   5.020   6.541
 1940SOL    HW1 6719   6.706   5.046   6.529
 1940SOL    HW2 6720   6.591   5.010   6.639
 1941SOL     OW 6721   5.657   4.882   2.859
 1941SOL    HW1 6722   5.639   4.923   2.949
 1941SOL    HW2 6723   5.746   4.913   2.826
 1942SOL     OW 6724   6.410   4.164   3.136
 1942SOL    HW1 6725   6.447   4.071   3.129
 1942SOL    HW2 6726   6.483   4.227   3.160
 1943SOL     OW 6727   2.784   5.907   1.906
 1943SOL    HW1 6728   2.831   5.987   1.868
 1943SOL    HW2 6729   2.838   5.825   1.888
 1944SOL     OW 6730   6.954   6.852   1.988
 1944SOL    HW1 6731   6.940   6.821   1.894
 1944SOL    HW2 6732   6.866   6.872   2.030
 1945SOL     OW 6733   3.247   5.051   3.876
 1945SOL    HW1 6734   3.187   4.976   3.906
 1945SOL    HW2 6735   3.314   5.071   3.947
 1946SOL     OW 6736   2.077   6.803   0.156
 1946SOL    HW1 6737   2.113   6.876   0.098
 1946SOL    HW2 6738   2.149   6.768   0.215
 1947SOL     OW 6739   5.405   6.736   3.807
 1947SOL    HW1 6740   5.462   6.739   3.889
 1947SOL    HW2 6741   5.311   6.761   3.831
 1948SOL     OW 6742   6.910   3.918   5.323
 1948SOL    HW1 6743   6.946   3.875   5.240
 1948SOL    HW2 6744   6.973   3.901   5.399
 1949SOL     OW 6745   5.363   3.984   6.361
 1949SOL    HW1 6746   5.307   4.010   6.282
 1949SOL    HW2 6747   5.304   3.952   6.435
 1950SOL     OW 6748   3.041   4.879   1.081
 1950SOL    HW1 6749   2.985   4.851   1.003
 1950SOL    HW2 6750   3.136   4.853   1.065
 1951SOL     OW 6751   6.921   3.173   0.206
 1951SOL    HW1 6752   6.951   3.264   0.178
 1951SOL    HW2 6753   6.840   3.147   0.154
 1952SOL     OW 6754   3.503   2.825   5.105
 1952SOL    HW1 6755   3.440   2.841   5.181
 1952SOL    HW2 6756   3.591   2.793   5.141
 1953SOL     OW 6757   7.011   3.022   5.025
 1953SOL    HW1 6758   0.031   3.115   5.012
 1953SOL    HW2 6759   0.004   2.997   5.121
 1954SOL     OW 6760   2.292   2.450   3.757
 1954SOL    HW1 6761   2.213   2.423   3.812
 1954SOL    HW2 6762   2.374   2.404   3.791
 1955SOL     OW 6763   6.224   5.429   1.791
 1955SOL    HW1 6764   6.214   5.387   1.881
 1955SOL    HW2 6765   6.144   5.409   1.735
 1956SOL     OW 6766   5.229   6.421   2.466
 1956SOL    HW1 6767   5.188   6.507   2.436
 1956SOL    HW2 6768   5.206   6.405   2.562
 1957SOL     OW 6769   0.899   6.568   5.530
 1957SOL    HW1 6770   0.976   6.533   5.476
 1957SOL    HW2 6771   0.899   6.524   5.620
 1958SOL     OW 6772   4.188   3.002   5.869
 1958SOL    HW1 6773   4.169   3.076   5.934
 1958SOL    HW2 6774   4.103   2.959   5.841
 1959SOL     OW 6775   2.186   1.991   0.219
 1959SOL    HW1 6776   2.281   1.999   0.249
 1959SOL    HW2 6777   2.177   2.027   0.126
 1960SOL     OW 6778   4.810   6.253   2.444
 1960SOL    HW1 6779   4.811   6.348   2.411
 1960SOL    HW2 6780   4.792   6.192   2.367
 1961SOL     OW 6781   5.768   5.289   5.226
 1961SOL    HW1 6782   5.675   5.278   5.261
 1961SOL    HW2 6783   5.795   5.385   5.234
 1962SOL     OW 6784   6.577   6.905   3.385
 1962SOL    HW1 6785   6.491   6.855   3.381
 1962SOL    HW2 6786   6.583   6.955   3.472
 1963SOL     OW 6787   2.813   0.184   3.085
 1963SOL    HW1 6788   2.793   0.231   3.171
 1963SOL    HW2 6789   2.909   0.198   3.061
 1964SOL     OW 6790   5.841   4.042   2.037
 1964SOL    HW1 6791   5.851   4.048   2.136
 1964SOL    HW2 6792   5.839   4.134   1.998
 1965SOL     OW 6793   2.134   5.101   3.848
 1965SOL    HW1 6794   2.127   5.002   3.832
 1965SOL    HW2 6795   2.067   5.149   3.792
 1966SOL     OW 6796   6.383   6.487   6.419
 1966SOL    HW1 6797   6.320   6.496   6.341
 1966SOL    HW2 6798   6.375   6.568   6.477
 1967SOL     OW 6799   4.881   3.551   4.507
 1967SOL    HW1 6800   4.819   3.629   4.496
 1967SOL    HW2 6801   4.894   3.533   4.605
 1968SOL     OW 6802   3.823   5.448   5.618
 1968SOL    HW1 6803   3.904   5.408   5.576
 1968SOL    HW2 6804   3.766   5.490   5.547
 1969SOL     OW 6805   6.472   2.208   1.744
 1969SOL    HW1 6806   6.404   2.137   1.760
 1969SOL    HW2 6807   6.551   2.167   1.698
 1970SOL     OW 6808   2.118   6.550   3.418
 1970SOL    HW1 6809   2.086   6.500   3.499
 1970SOL    HW2 6810   2.080   6.508   3.336
 1971SOL     OW 6811   0.234   0.746   6.115
 1971SOL    HW1 6812   0.293   0.706   6.044
 1971SOL    HW2 6813   0.261   0.711   6.204
 1972SOL     OW 6814   1.421   5.317   4.030
 1972SOL    HW1 6815   1.379   5.385   4.091
 1972SOL    HW2 6816   1.508   5.287   4.069
 1973SOL     OW 6817   2.851   2.703   6.632
 1973SOL    HW1 6818   2.868   2.713   6.534
 1973SOL    HW2 6819   2.763   2.743   6.656
 1974SOL     OW 6820   5.631   7.011   4.364
 1974SOL    HW1 6821   5.609   0.022   4.459
 1974SOL    HW2 6822   5.553   6.964   4.323
 1975SOL     OW 6823   2.929   0.669   3.573
 1975SOL    HW1 6824   2.980   0.635   3.494
 1975SOL    HW2 6825   2.901   0.763   3.557
 1976SOL     OW 6826   6.988   4.440   6.932
 1976SOL    HW1 6827   6.952   4.380   6.860
 1976SOL    HW2 6828   7.009   4.386   7.013
 1977SOL     OW 6829   2.846   2.277   5.005
 1977SOL    HW1 6830   2.923   2.339   4.991
 1977SOL    HW2 6831   2.854   2.233   5.095
 1978SOL     OW 6832   6.825   1.551   4.949
 1978SOL    HW1 6833   6.766   1.589   5.020
 1978SOL    HW2 6834   6.770   1.521   4.871
 1979SOL     OW 6835   5.862   4.415   2.862
 1979SOL    HW1 6836   5.869   4.317   2.883
 1979SOL    HW2 6837   5.942   4.443   2.809
 1980SOL     OW 6838   3.721   0.859   1.143
 1980SOL    HW1 6839   3.806   0.849   1.196
 1980SOL    HW2 6840   3.671   0.773   1.145
 1981SOL     OW 6841   4.940   3.339   1.807
 1981SOL    HW1 6842   5.024   3.320   1.756
 1981SOL    HW2 6843   4.861   3.332   1.746
 1982SOL     OW 6844   5.906   0.003   5.507
 1982SOL    HW1 6845   5.819   0.051   5.492
 1982SOL    HW2 6846   5.939   6.980   5.421
 1983SOL     OW 6847   0.730   4.293   2.288
 1983SOL    HW1 6848   0.705   4.211   2.236
 1983SOL    HW2 6849   0.821   4.323   2.261
 1984SOL     OW 6850   4.485   1.196   5.934
 1984SOL    HW1 6851   4.459   1.168   5.842
 1984SOL    HW2 6852   4.434   1.279   5.960
 1985SOL     OW 6853   1.798   0.263   1.205
 1985SOL    HW1 6854   1.748   0.185   1.242
 1985SOL    HW2 6855   1.795   0.260   1.105
 1986SOL     OW 6856   0.764   2.179   6.238
 1986SOL    HW1 6857   0.772   2.130   6.325
 1986SOL    HW2 6858   0.769   2.115   6.162
 1987SOL     OW 6859   2.676   4.063   0.370
 1987SOL    HW1 6860   2.633   4.151   0.347
 1987SOL    HW2 6861   2.775   4.073   0.368
 1988SOL     OW 6862   4.702   3.375   0.133
 1988SOL    HW1 6863   4.652   3.456   0.165
 1988SOL    HW2 6864   4.796   3.378   0.168
 1989SOL     OW 6865   2.560   0.558   4.172
 1989SOL    HW1 6866   2.624   0.526   4.242
 1989SOL    HW2 6867   2.607   0.620   4.110
 1990SOL     OW 6868   2.337   1.243   3.011
 1990SOL    HW1 6869   2.271   1.275   3.080
 1990SOL    HW2 6870   2.430   1.261   3.043
 1991SOL     OW 6871   4.655   5.390   3.741
 1991SOL    HW1 6872   4.704   5.439   3.669
 1991SOL    HW2 6873   4.707   5.394   3.826
 1992SOL     OW 6874   2.177   6.654   5.317
 1992SOL    HW1 6875   2.120   6.734   5.337
 1992SOL    HW2 6876   2.157   6.582   5.384
 1993SOL     OW 6877   3.048   3.121   4.331
 1993SOL    HW1 6878   3.045   3.059   4.252
 1993SOL    HW2 6879   3.121   3.091   4.393
 1994SOL     OW 6880   6.179   2.471   2.167
 1994SOL    HW1 6881   6.208   2.564   2.189
 1994SOL    HW2 6882   6.079   2.466   2.168
 1995SOL     OW 6883   4.767   2.573   1.111
 1995SOL    HW1 6884   4.792   2.546   1.204
 1995SOL    HW2 6885   4.667   2.577   1.103
 1996SOL     OW 6886   3.054   4.099   5.785
 1996SOL    HW1 6887   3.029   4.042   5.706
 1996SOL    HW2 6888   2.972   4.145   5.820
 1997SOL     OW 6889   5.470   0.092   4.020
 1997SOL    HW1 6890   5.400   0.162   4.029
 1997SOL    HW2 6891   5.434   0.004   4.050
 1998SOL     OW 6892   2.731   4.994   4.922
 1998SOL    HW1 6893   2.642   4.952   4.941
 1998SOL    HW2 6894   2.789   4.928   4.874
 1999SOL     OW 6895   1.858   1.045   2.153
 1999SOL    HW1 6896   1.950   1.027   2.118
 1999SOL    HW2 6897   1.792   1.042   2.078
 2000SOL     OW 6898   4.189   1.753   4.674
 2000SOL    HW1 6899   4.095   1.723   4.655
 2000SOL    HW2 6900   4.186   1.837   4.727
 2001SOL     OW 6901   2.676   3.539   0.331
 2001SOL    HW1 6902   2.664   3.447   0.368
 2001SOL    HW2 6903   2.627   3.547   0.244
 2002SOL     OW 6904   1.923   5.365   4.683
 2002SOL    HW1 6905   1.983   5.285   4.684
 2002SOL    HW2 6906   1.967   5.439   4.632
 2003SOL     OW 6907   6.274   4.654   3.368
 2003SOL    HW1 6908   6.278   4.669   3.466
 2003SOL    HW2 6909   6.221   4.727   3.325
 2004SOL     OW 6910   3.210   0.531   6.229
 2004SOL    HW1 6911   3.122   0.578   6.221
 2004SOL    HW2 6912   3.221   0.466   6.154
 2005SOL     OW 6913   2.917   6.522   5.356
 2005SOL    HW1 6914   3.015   6.537   5.355
 2005SOL    HW2 6915   2.898   6.424   5.367
 2006SOL     OW 6916   4.138   5.601   3.561
 2006SOL    HW1 6917   4.039   5.595   3.575
 2006SOL    HW2 6918   4.162   5.553   3.476
 2007SOL     OW 6919   6.660   5.114   0.382
 2007SOL    HW1 6920   6.704   5.199   0.412
 2007SOL    HW2 6921   6.725   5.060   0.329
 2008SOL     OW 6922   6.611   6.381   4.632
 2008SOL    HW1 6923   6.675   6.450   4.666
 2008SOL    HW2 6924   6.529   6.380   4.690
 2009SOL     OW 6925   0.276   0.662   0.864
 2009SOL    HW1 6926   0.279   0.734   0.933
 2009SOL    HW2 6927   0.254   0.575   0.907
 2010SOL     OW 6928   0.921   0.020   0.720
 2010SOL    HW1 6929   0.920   0.120   0.718
 2010SOL    HW2 6930   0.831   7.000   0.749
 2011SOL     OW 6931   6.881   2.725   4.878
 2011SOL    HW1 6932   6.810   2.794   4.892
 2011SOL    HW2 6933   6.965   2.755   4.924
 2012SOL     OW 6934   0.113   3.611   0.971
 2012SOL    HW1 6935   0.207   3.607   1.003
 2012SOL    HW2 6936   0.101   3.690   0.911
 2013SOL     OW 6937   4.661   1.057   2.399
 2013SOL    HW1 6938   4.589   1.115   2.362
 2013SOL    HW2 6939   4.741   1.114   2.421
 2014SOL     OW 6940   2.752   5.288   3.165
 2014SOL    HW1 6941   2.785   5.221   3.231
 2014SOL    HW2 6942   2.782   5.262   3.073
 2015SOL     OW 6943   3.202   6.864   6.906
 2015SOL    HW1 6944   3.267   6.908   6.969
 2015SOL    HW2 6945   3.186   6.924   6.828
 2016SOL     OW 6946   6.242   4.800   3.598
 2016SOL    HW1 6947   6.250   4.851   3.684
 2016SOL    HW2 6948   6.315   4.827   3.536
 2017SOL     OW 6949   2.460   5.459   1.803
 2017SOL    HW1 6950   2.555   5.481   1.784
 2017SOL    HW2 6951   2.420   5.412   1.725
 2018SOL     OW 6952   0.420   4.227   6.255
 2018SOL    HW1 6953   0.344   4.218   6.320
 2018SOL    HW2 6954   0.395   4.183   6.169
 2019SOL     OW 6955   5.404   1.650   3.013
 2019SOL    HW1 6956   5.431   1.738   2.975
 2019SOL    HW2 6957   5.486   1.594   3.029
 2020SOL     OW 6958   2.032   5.484   2.942
 2020SOL    HW1 6959   1.968   5.426   2.892
 2020SOL    HW2 6960   2.060   5.561   2.884
 2021SOL     OW 6961   1.454   6.871   1.514
 2021SOL    HW1 6962   1.499   6.919   1.438
 2021SOL    HW2 6963   1.356   6.864   1.496
 2022SOL     OW 6964   2.402   4.381   0.984
 2022SOL    HW1 6965   2.357   4.294   1.004
 2022SOL    HW2 6966   2.347   4.456   1.020
 2023SOL     OW 6967   6.568   1.645   6.523
 2023SOL    HW1 6968   6.667   1.637   6.518
 2023SOL    HW2 6969   6.539   1.729   6.477
 2024SOL     OW 6970   5.906   0.393   3.138
 2024SOL    HW1 6971   5.947   0.473   3.093
 2024SOL    HW2 6972   5.973   0.319   3.142
 2025SOL     OW 6973   6.543   0.899   0.470
 2025SOL    HW1 6974   6.611   0.840   0.513
 2025SOL    HW2 6975   6.477   0.928   0.539
 2026SOL     OW 6976   1.453   1.766   5.522
 2026SOL    HW1 6977   1.546   1.765   5.486
 2026SOL    HW2 6978   1.399   1.695   5.477
 2027SOL     OW 6979   0.424   1.505   2.467
 2027SOL    HW1 6980   0.331   1.506   2.431
 2027SOL    HW2 6981   0.448   1.596   2.501
 2028SOL     OW 6982   3.620   3.793   6.081
 2028SOL    HW1 6983   3.568   3.759   6.002
 2028SOL    HW2 6984   3.716   3.804   6.055
 2029SOL     OW 6985   1.541   0.343   0.337
 2029SOL    HW1 6986   1.538   0.433   0.380
 2029SOL    HW2 6987   1.614   0.289   0.377
 2030SOL     OW 6988   1.304   1.692   2.954
 2030SOL    HW1 6989   1.347   1.716   3.041
 2030SOL    HW2 6990   1.205   1.704   2.961
 2031SOL     OW 6991   5.028   0.037   2.877
 2031SOL    HW1 6992   5.086   0.118   2.884
 2031SOL    HW2 6993   4.932   0.064   2.881
 2032SOL     OW 6994   5.357   6.574   1.708
 2032SOL    HW1 6995   5.331   6.557   1.613
 2032SOL    HW2 6996   5.353   6.489   1.759
 2033SOL     OW 6997   0.248   5.015   6.663
 2033SOL    HW1 6998   0.341   4.979   6.656
 2033SOL    HW2 6999   0.184   4.938   6.670
 2034SOL     OW 7000   3.135   6.801   3.075
 2034SOL    HW1 7001   3.115   6.868   3.003
 2034SOL    HW2 7002   3.210   6.743   3.046
 2035SOL     OW 7003   1.184   3.272   1.802
 2035SOL    HW1 7004   1.251   3.339   1.769
 2035SOL    HW2 7005   1.211   3.180   1.774
 2036SOL     OW 7006   1.068   4.229   0.504
 2036SOL    HW1 7007   1.075   4.159   0.575
 2036SOL    HW2 7008   1.080   4.319   0.545
 2037SOL     OW 7009   6.941   1.024   6.248
 2037SOL    HW1 7010   6.937   0.926   6.267
 2037SOL    HW2 7011   0.023   1.053   6.245
 2038SOL     OW 7012   0.892   7.010   4.814
 2038SOL    HW1 7013   0.895   0.096   4.817
 2038SOL    HW2 7014   0.805   6.980   4.774
 2039SOL     OW 7015   0.958   5.137   2.070
 2039SOL    HW1 7016   0.957   5.103   1.976
 2039SOL    HW2 7017   0.906   5.222   2.075
 2040SOL     OW 7018   3.479   3.559   4.481
 2040SOL    HW1 7019   3.486   3.520   4.573
 2040SOL    HW2 7020   3.434   3.493   4.421
 2041SOL     OW 7021   6.335   3.913   6.513
 2041SOL    HW1 7022   6.283   3.831   6.536
 2041SOL    HW2 7023   6.292   3.993   6.555
 2042SOL     OW 7024   3.827   5.585   0.058
 2042SOL    HW1 7025   3.746   5.546   0.014
 2042SOL    HW2 7026   3.886   5.512   0.091
 2043SOL     OW 7027   4.418   4.523   2.336
 2043SOL    HW1 7028   4.454   4.530   2.243
 2043SOL    HW2 7029   4.332   4.472   2.334
 2044SOL     OW 7030   6.297   0.825   2.001
 2044SOL    HW1 7031   6.212   0.801   1.954
 2044SOL    HW2 7032   6.275   0.867   2.089
 2045SOL     OW 7033   2.033   5.234   6.027
 2045SOL    HW1 7034   1.987   5.249   5.939
 2045SOL    HW2 7035   1.973   5.182   6.088
 2046SOL     OW 7036   5.989   0.632   4.853
 2046SOL    HW1 7037   6.033   0.597   4.770
 2046SOL    HW2 7038   6.057   0.677   4.910
 2047SOL     OW 7039   5.885   3.032   0.086
 2047SOL    HW1 7040   5.956   3.047   0.018
 2047SOL    HW2 7041   5.880   2.934   0.108
 2048SOL     OW 7042   4.146   6.779   5.671
 2048SOL    HW1 7043   4.182   6.864   5.633
 2048SOL    HW2 7044   4.049   6.789   5.692
 2049SOL     OW 7045   4.660   6.272   0.468
 2049SOL    HW1 7046   4.726   6.203   0.496
 2049SOL    HW2 7047   4.603   6.236   0.394
 2050SOL     OW 7048   5.454   1.675   4.050
 2050SOL    HW1 7049   5.420   1.755   4.001
 2050SOL    HW2 7050   5.523   1.704   4.117
 2051SOL     OW 7051   1.886   5.084   0.559
 2051SOL    HW1 7052   1.800   5.134   0.569
 2051SOL    HW2 7053   1.898   5.022   0.637
 2052SOL     OW 7054   1.376   2.855   0.693
 2052SOL    HW1 7055   1.341   2.912   0.767
 2052SOL    HW2 7056   1.395   2.912   0.613
 2053SOL     OW 7057   5.186   0.863   0.913
 2053SOL    HW1 7058   5.095   0.887   0.948
 2053SOL    HW2 7059   5.248   0.941   0.925
 2054SOL     OW 7060   6.470   3.317   1.773
 2054SOL    HW1 7061   6.438   3.331   1.680
 2054SOL    HW2 7062   6.549   3.377   1.790
 2055SOL     OW 7063   6.696   2.193   4.074
 2055SOL    HW1 7064   6.703   2.093   4.070
 2055SOL    HW2 7065   6.602   2.219   4.096
 2056SOL     OW 7066   1.418   0.598   2.437
 2056SOL    HW1 7067   1.433   0.652   2.355
 2056SOL    HW2 7068   1.320   0.585   2.451
 2057SOL     OW 7069   6.628   2.509   4.030
 2057SOL    HW1 7070   6.694   2.528   4.103
 2057SOL    HW2 7071   6.584   2.421   4.048
 2058SOL     OW 7072   0.082   2.189   1.154
 2058SOL    HW1 7073   0.142   2.219   1.228
 2058SOL    HW2 7074   0.023   2.264   1.126
 2059SOL     OW 7075   1.520   1.140   6.454
 2059SOL    HW1 7076   1.611   1.108   6.427
 2059SOL    HW2 7077   1.520   1.162   6.551
 2060SOL     OW 7078   0.465   5.424   2.148
 2060SOL    HW1 7079   0.392   5.419   2.217
 2060SOL    HW2 7080   0.518   5.340   2.151
 2061SOL     OW 7081   6.916   1.232   1.966
 2061SOL    HW1 7082   6.922   1.332   1.969
 2061SOL    HW2 7083   6.993   1.195   1.915
 2062SOL     OW 7084   4.445   0.509   3.257
 2062SOL    HW1 7085   4.356   0.547   3.235
 2062SOL    HW2 7086   4.443   0.471   3.350
 2063SOL     OW 7087   2.505   1.815   0.292
 2063SOL    HW1 7088   2.523   1.756   0.371
 2063SOL    HW2 7089   2.507   1.760   0.208
 2064SOL     OW 7090   0.812   2.325   0.168
 2064SOL    HW1 7091   0.745   2.369   0.228
 2064SOL    HW2 7092   0.874   2.269   0.222
 2065SOL     OW 7093   6.284   2.737   2.193
 2065SOL    HW1 7094   6.275   2.835   2.179
 2065SOL    HW2 7095   6.378   2.715   2.219
 2066SOL     OW 7096   2.437   6.392   3.654
 2066SOL    HW1 7097   2.490   6.454   3.597
 2066SOL    HW2 7098   2.342   6.423   3.657
 2067SOL     OW 7099   0.064   0.017   1.023
 2067SOL    HW1 7100   0.136   0.060   0.969
 2067SOL    HW2 7101   7.003   7.004   0.962
 2068SOL     OW 7102   1.912   1.675   5.296
 2068SOL    HW1 7103   1.976   1.613   5.339
 2068SOL    HW2 7104   1.959   1.760   5.271
 2069SOL     OW 7105   0.446   2.072   1.745
 2069SOL    HW1 7106   0.541   2.041   1.746
 2069SOL    HW2 7107   0.400   2.043   1.829
 2070SOL     OW 7108   0.622   1.002   2.859
 2070SOL    HW1 7109   0.536   0.958   2.885
 2070SOL    HW2 7110   0.613   1.101   2.869
 2071SOL     OW 7111   1.472   5.944   4.547
 2071SOL    HW1 7112   1.471   5.881   4.625
 2071SOL    HW2 7113   1.410   6.020   4.565
 2072SOL     OW 7114   4.979   4.920   2.222
 2072SOL    HW1 7115   5.029   4.976   2.156
 2072SOL    HW2 7116   5.032   4.839   2.244
 2073SOL     OW 7117   2.994   0.143   5.380
 2073SOL    HW1 7118   3.045   0.115   5.299
 2073SOL    HW2 7119   3.004   0.075   5.451
 2074SOL     OW 7120   5.852   1.884   1.664
 2074SOL    HW1 7121   5.946   1.853   1.661
 2074SOL    HW2 7122   5.807   1.850   1.747
 2075SOL     OW 7123   4.648   3.490   6.188
 2075SOL    HW1 7124   4.615   3.425   6.120
 2075SOL    HW2 7125   4.727   3.540   6.151
 2076SOL     OW 7126   4.835   0.310   1.335
 2076SOL    HW1 7127   4.835   0.360   1.248
 2076SOL    HW2 7128   4.920   0.329   1.384
 2077SOL     OW 7129   5.426   1.584   3.471
 2077SOL    HW1 7130   5.361   1.591   3.546
 2077SOL    HW2 7131   5.388   1.628   3.390
 2078SOL     OW 7132   4.195   5.952   5.535
 2078SOL    HW1 7133   4.113   5.900   5.558
 2078SOL    HW2 7134   4.267   5.889   5.507
 2079SOL     OW 7135   5.717   1.627   3.705
 2079SOL    HW1 7136   5.656   1.556   3.741
 2079SOL    HW2 7137   5.754   1.598   3.617
 2080SOL     OW 7138   3.172   2.102   4.774
 2080SOL    HW1 7139   3.186   2.146   4.862
 2080SOL    HW2 7140   3.083   2.130   4.736
 2081SOL     OW 7141   0.449   6.438   5.118
 2081SOL    HW1 7142   0.392   6.377   5.062
 2081SOL    HW2 7143   0.531   6.463   5.067
 2082SOL     OW 7144   5.051   0.317   1.507
 2082SOL    HW1 7145   5.028   0.246   1.574
 2082SOL    HW2 7146   5.149   0.316   1.490
 2083SOL     OW 7147   3.717   5.551   5.387
 2083SOL    HW1 7148   3.645   5.494   5.347
 2083SOL    HW2 7149   3.796   5.554   5.326
 2084SOL     OW 7150   0.327   3.216   2.979
 2084SOL    HW1 7151   0.233   3.185   2.967
 2084SOL    HW2 7152   0.389   3.154   2.930
 2085SOL     OW 7153   5.487   6.636   6.657
 2085SOL    HW1 7154   5.393   6.628   6.625
 2085SOL    HW2 7155   5.537   6.698   6.596
 2086SOL     OW 7156   2.562   4.940   1.259
 2086SOL    HW1 7157   2.595   5.025   1.218
 2086SOL    HW2 7158   2.516   4.885   1.189
 2087SOL     OW 7159   5.660   6.508   3.573
 2087SOL    HW1 7160   5.678   6.511   3.475
 2087SOL    HW2 7161   5.699   6.423   3.611
 2088SOL     OW 7162   2.926   6.630   0.801
 2088SOL    HW1 7163   2.841   6.586   0.772
 2088SOL    HW2 7164   2.924   6.727   0.779
 2089SOL     OW 7165   3.037   0.038   6.636
 2089SOL    HW1 7166   3.005   6.957   6.637
 2089SOL    HW2 7167   3.128   0.042   6.596
 2090SOL     OW 7168   3.018   3.269   3.972
 2090SOL    HW1 7169   3.004   3.243   3.876
 2090SOL    HW2 7170   3.061   3.193   4.021
 2091SOL     OW 7171   1.911   4.911   0.336
 2091SOL    HW1 7172   1.891   4.836   0.398
 2091SOL    HW2 7173   1.890   4.998   0.380
 2092SOL     OW 7174   6.171   6.669   0.774
 2092SOL    HW1 7175   6.169   6.723   0.859
 2092SOL    HW2 7176   6.220   6.721   0.704
 2093SOL     OW 7177   1.336   1.908   1.463
 2093SOL    HW1 7178   1.285   1.822   1.463
 2093SOL    HW2 7179   1.402   1.908   1.538
 2094SOL     OW 7180   5.846   0.362   2.603
 2094SOL    HW1 7181   5.867   0.318   2.691
 2094SOL    HW2 7182   5.795   0.447   2.619
 2095SOL     OW 7183   7.012   4.958   4.990
 2095SOL    HW1 7184   0.029   4.935   4.897
 2095SOL    HW2 7185   6.912   4.955   4.993
 2096SOL     OW 7186   4.875   3.638   2.904
 2096SOL    HW1 7187   4.905   3.651   2.810
 2096SOL    HW2 7188   4.868   3.727   2.950
 2097SOL     OW 7189   0.084   2.913   6.785
 2097SOL    HW1 7190   0.108   2.983   6.718
 2097SOL    HW2 7191   0.017   2.949   6.849
 2098SOL     OW 7192   4.536   0.532   4.498
 2098SOL    HW1 7193   4.494   0.464   4.559
 2098SOL    HW2 7194   4.539   0.496   4.405
 2099SOL     OW 7195   2.696   1.431   4.246
 2099SOL    HW1 7196   2.650   1.501   4.301
 2099SOL    HW2 7197   2.729   1.472   4.161
 2100SOL     OW 7198   3.643   3.835   6.825
 2100SOL    HW1 7199   3.551   3.814   6.793
 2100SOL    HW2 7200   3.647   3.930   6.857
 2101SOL     OW 7201   6.908   0.517   3.650
 2101SOL    HW1 7202   6.979   0.460   3.609
 2101SOL    HW2 7203   6.923   0.523   3.749
 2102SOL     OW 7204   0.015   4.844   2.246
 2102SOL    HW1 7205   0.018   4.887   2.155
 2102SOL    HW2 7206   6.950   4.878   2.296
 2103SOL     OW 7207   2.923   3.742   6.693
 2103SOL    HW1 7208   2.916   3.744   6.593
 2103SOL    HW2 7209   2.854   3.678   6.729
 2104SOL     OW 7210   1.265   3.641   4.972
 2104SOL    HW1 7211   1.349   3.619   5.022
 2104SOL    HW2 7212   1.189   3.644   5.036
 2105SOL     OW 7213   5.922   5.624   1.571
 2105SOL    HW1 7214   5.996   5.644   1.636
 2105SOL    HW2 7215   5.959   5.570   1.495
 2106SOL     OW 7216   5.153   5.996   6.975
 2106SOL    HW1 7217   5.252   5.999   6.972
 2106SOL    HW2 7218   5.120   6.041   0.044
 2107SOL     OW 7219   3.506   4.141   6.601
 2107SOL    HW1 7220   3.486   4.212   6.668
 2107SOL    HW2 7221   3.481   4.052   6.639
 2108SOL     OW 7222   5.247   4.663   5.654
 2108SOL    HW1 7223   5.260   4.629   5.561
 2108SOL    HW2 7224   5.191   4.746   5.652
 2109SOL     OW 7225   5.515   0.060   3.069
 2109SOL    HW1 7226   5.543   7.009   3.140
 2109SOL    HW2 7227   5.593   0.118   3.044
 2110SOL     OW 7228   2.610   4.998   5.808
 2110SOL    HW1 7229   2.638   5.017   5.714
 2110SOL    HW2 7230   2.631   4.903   5.831
 2111SOL     OW 7231   1.488   2.766   6.694
 2111SOL    HW1 7232   1.477   2.864   6.706
 2111SOL    HW2 7233   1.470   2.719   6.781
 2112SOL     OW 7234   5.141   3.412   0.992
 2112SOL    HW1 7235   5.046   3.383   1.006
 2112SOL    HW2 7236   5.190   3.344   0.938
 2113SOL     OW 7237   7.006   1.342   3.343
 2113SOL    HW1 7238   6.933   1.297   3.292
 2113SOL    HW2 7239   6.990   1.441   3.343
 2114SOL     OW 7240   1.593   4.294   6.940
 2114SOL    HW1 7241   1.516   4.358   6.941
 2114SOL    HW2 7242   1.617   4.272   6.846
 2115SOL     OW 7243   2.632   4.937   2.408
 2115SOL    HW1 7244   2.699   4.888   2.464
 2115SOL    HW2 7245   2.678   5.005   2.351
 2116SOL     OW 7246   6.983   4.314   3.285
 2116SOL    HW1 7247   0.036   4.284   3.218
 2116SOL    HW2 7248   7.002   4.409   3.311
 2117SOL     OW 7249   6.577   5.023   0.974
 2117SOL    HW1 7250   6.538   4.946   0.924
 2117SOL    HW2 7251   6.639   4.989   1.045
 2118SOL     OW 7252   6.758   4.143   2.147
 2118SOL    HW1 7253   6.795   4.175   2.234
 2118SOL    HW2 7254   6.830   4.145   2.078
 2119SOL     OW 7255   3.245   6.002   1.285
 2119SOL    HW1 7256   3.295   5.940   1.346
 2119SOL    HW2 7257   3.287   6.093   1.288
 2120SOL     OW 7258   0.159   5.416   2.026
 2120SOL    HW1 7259   0.079   5.473   2.044
 2120SOL    HW2 7260   0.184   5.423   1.929
 2121SOL     OW 7261   0.659   4.803   4.782
 2121SOL    HW1 7262   0.561   4.823   4.778
 2121SOL    HW2 7263   0.693   4.821   4.874
 2122SOL     OW 7264   4.546   4.461   5.171
 2122SOL    HW1 7265   4.614   4.534   5.163
 2122SOL    HW2 7266   4.472   4.477   5.106
 2123SOL     OW 7267   5.663   4.241   3.141
 2123SOL    HW1 7268   5.751   4.279   3.171
 2123SOL    HW2 7269   5.662   4.234   3.041
 2124SOL     OW 7270   2.478   1.617   0.842
 2124SOL    HW1 7271   2.390   1.579   0.873
 2124SOL    HW2 7272   2.531   1.647   0.922
 2125SOL     OW 7273   2.892   6.797   1.191
 2125SOL    HW1 7274   2.872   6.699   1.187
 2125SOL    HW2 7275   2.988   6.813   1.170
 2126SOL     OW 7276   2.549   0.957   2.048
 2126SOL    HW1 7277   2.540   0.921   2.141
 2126SOL    HW2 7278   2.625   0.912   2.002
 2127SOL     OW 7279   5.227   3.042   4.804
 2127SOL    HW1 7280   5.301   2.983   4.835
 2127SOL    HW2 7281   5.256   3.138   4.809
 2128SOL     OW 7282   0.327   5.091   4.203
 2128SOL    HW1 7283   0.405   5.118   4.146
 2128SOL    HW2 7284   0.261   5.165   4.207
 2129SOL     OW 7285   3.675   1.779   5.832
 2129SOL    HW1 7286   3.734   1.741   5.761
 2129SOL    HW2 7287   3.727   1.789   5.917
 2130SOL     OW 7288   4.148   6.367   3.358
 2130SOL    HW1 7289   4.201   6.450   3.336
 2130SOL    HW2 7290   4.093   6.384   3.440
 2131SOL     OW 7291   5.742   2.312   0.199
 2131SOL    HW1 7292   5.680   2.373   0.249
 2131SOL    HW2 7293   5.829   2.359   0.184
 2132SOL     OW 7294   2.320   2.626   0.330
 2132SOL    HW1 7295   2.245   2.630   0.396
 2132SOL    HW2 7296   2.407   2.635   0.377
 2133SOL     OW 7297   2.982   3.647   5.839
 2133SOL    HW1 7298   2.930   3.682   5.917
 2133SOL    HW2 7299   2.952   3.554   5.819
 2134SOL     OW 7300   1.183   0.020   1.012
 2134SOL    HW1 7301   1.224   0.096   1.063
 2134SOL    HW2 7302   1.236   0.003   0.929
 2135SOL     OW 7303   0.153   4.395   4.173
 2135SOL    HW1 7304   0.251   4.374   4.170
 2135SOL    HW2 7305   0.121   4.416   4.080
 2136SOL     OW 7306   1.559   5.251   1.492
 2136SOL    HW1 7307   1.633   5.278   1.553
 2136SOL    HW2 7308   1.471   5.272   1.534
 2137SOL     OW 7309   1.709   5.749   4.131
 2137SOL    HW1 7310   1.774   5.693   4.183
 2137SOL    HW2 7311   1.681   5.828   4.185
 2138SOL     OW 7312   5.205   1.787   1.681
 2138SOL    HW1 7313   5.129   1.851   1.690
 2138SOL    HW2 7314   5.288   1.837   1.656
 2139SOL     OW 7315   2.719   0.778   5.311
 2139SOL    HW1 7316   2.670   0.767   5.225
 2139SOL    HW2 7317   2.727   0.876   5.332
 2140SOL     OW 7318   2.128   1.290   4.899
 2140SOL    HW1 7319   2.135   1.198   4.938
 2140SOL    HW2 7320   2.055   1.340   4.946
 2141SOL     OW 7321   6.654   3.913   2.758
 2141SOL    HW1 7322   6.611   3.823   2.747
 2141SOL    HW2 7323   6.713   3.912   2.839
 2142SOL     OW 7324   1.261   2.107   2.760
 2142SOL    HW1 7325   1.206   2.079   2.682
 2142SOL    HW2 7326   1.353   2.133   2.729
 2143SOL     OW 7327   0.990   4.503   0.290
 2143SOL    HW1 7328   1.061   4.446   0.249
 2143SOL    HW2 7329   0.999   4.597   0.256
 2144SOL     OW 7330   5.840   4.651   3.667
 2144SOL    HW1 7331   5.894   4.692   3.593
 2144SOL    HW2 7332   5.782   4.579   3.629
 2145SOL     OW 7333   4.077   0.503   3.598
 2145SOL    HW1 7334   4.041   0.480   3.507
 2145SOL    HW2 7335   4.077   0.602   3.610
 2146SOL     OW 7336   2.196   2.716   6.795
 2146SOL    HW1 7337   2.184   2.812   6.768
 2146SOL    HW2 7338   2.120   2.689   6.855
 2147SOL     OW 7339   5.975   0.304   4.464
 2147SOL    HW1 7340   5.948   0.241   4.391
 2147SOL    HW2 7341   6.066   0.281   4.496
 2148SOL     OW 7342   0.532   3.229   6.368
 2148SOL    HW1 7343   0.435   3.216   6.345
 2148SOL    HW2 7344   0.549   3.327   6.382
 2149SOL     OW 7345   0.652   0.489   0.163
 2149SOL    HW1 7346   0.661   0.407   0.219
 2149SOL    HW2 7347   0.678   0.569   0.218
 2150SOL     OW 7348   2.331   2.566   1.380
 2150SOL    HW1 7349   2.332   2.516   1.467
 2150SOL    HW2 7350   2.406   2.534   1.322
 2151SOL     OW 7351   1.371   5.445   0.361
 2151SOL    HW1 7352   1.313   5.367   0.338
 2151SOL    HW2 7353   1.340   5.486   0.447
 2152SOL     OW 7354   5.285   5.671   4.358
 2152SOL    HW1 7355   5.210   5.616   4.322
 2152SOL    HW2 7356   5.329   5.720   4.283
 2153SOL     OW 7357   4.616   1.547   3.398
 2153SOL    HW1 7358   4.525   1.527   3.362
 2153SOL    HW2 7359   4.623   1.515   3.492
 2154SOL     OW 7360   3.434   0.220   3.568
 2154SOL    HW1 7361   3.338   0.242   3.552
 2154SOL    HW2 7362   3.481   0.212   3.480
 2155SOL     OW 7363   4.589   0.526   0.913
 2155SOL    HW1 7364   4.606   0.434   0.878
 2155SOL    HW2 7365   4.493   0.534   0.940
 2156SOL     OW 7366   5.118   1.644   4.995
 2156SOL    HW1 7367   5.021   1.669   5.004
 2156SOL    HW2 7368   5.169   1.721   4.959
 2157SOL     OW 7369   3.422   6.258   3.892
 2157SOL    HW1 7370   3.491   6.289   3.957
 2157SOL    HW2 7371   3.341   6.228   3.941
 2158SOL     OW 7372   3.598   0.762   0.492
 2158SOL    HW1 7373   3.506   0.733   0.519
 2158SOL    HW2 7374   3.625   0.712   0.409
 2159SOL     OW 7375   0.423   1.253   5.688
 2159SOL    HW1 7376   0.418   1.213   5.596
 2159SOL    HW2 7377   0.346   1.315   5.701
 2160SOL     OW 7378   5.774   6.828   0.291
 2160SOL    HW1 7379   5.841   6.769   0.245
 2160SOL    HW2 7380   5.811   6.920   0.300
 2161SOL     OW 7381   1.462   2.405   1.764
 2161SOL    HW1 7382   1.547   2.457   1.758
 2161SOL    HW2 7383   1.476   2.312   1.728
 2162SOL     OW 7384   0.900   6.961   1.854
 2162SOL    HW1 7385   0.944   7.004   1.774
 2162SOL    HW2 7386   0.889   6.863   1.837
 2163SOL     OW 7387   2.000   2.744   2.661
 2163SOL    HW1 7388   1.953   2.656   2.657
 2163SOL    HW2 7389   2.035   2.759   2.753
 2164SOL     OW 7390   2.012   2.763   2.947
 2164SOL    HW1 7391   1.969   2.850   2.971
 2164SOL    HW2 7392   2.111   2.770   2.958
 2165SOL     OW 7393   0.041   1.419   3.890
 2165SOL    HW1 7394   6.974   1.397   3.836
 2165SOL    HW2 7395   0.115   1.356   3.866
 2166SOL     OW 7396   6.987   4.457   2.845
 2166SOL    HW1 7397   0.016   4.371   2.818
 2166SOL    HW2 7398   6.905   4.438   2.899
 2167SOL     OW 7399   2.298   1.778   3.294
 2167SOL    HW1 7400   2.320   1.681   3.302
 2167SOL    HW2 7401   2.364   1.823   3.233
 2168SOL     OW 7402   1.477   2.099   3.399
 2168SOL    HW1 7403   1.505   2.029   3.465
 2168SOL    HW2 7404   1.431   2.056   3.321
 2169SOL     OW 7405   0.489   0.383   1.680
 2169SOL    HW1 7406   0.570   0.345   1.636
 2169SOL    HW2 7407   0.475   0.477   1.648
 2170SOL     OW 7408   1.046   3.623   5.141
 2170SOL    HW1 7409   0.978   3.685   5.103
 2170SOL    HW2 7410   1.022   3.529   5.117
 2171SOL     OW 7411   0.059   5.424   1.694
 2171SOL    HW1 7412   0.121   5.371   1.635
 2171SOL    HW2 7413   6.995   5.368   1.718
 2172SOL     OW 7414   1.443   1.539   5.091
 2172SOL    HW1 7415   1.446   1.484   5.007
 2172SOL    HW2 7416   1.474   1.484   5.168
 2173SOL     OW 7417   6.269   0.764   5.338
 2173SOL    HW1 7418   6.290   0.862   5.340
 2173SOL    HW2 7419   6.334   0.715   5.395
 2174SOL     OW 7420   6.141   0.255   6.084
 2174SOL    HW1 7421   6.104   0.231   5.994
 2174SOL    HW2 7422   6.174   0.172   6.130
 2175SOL     OW 7423   2.594   3.748   5.373
 2175SOL    HW1 7424   2.572   3.779   5.465
 2175SOL    HW2 7425   2.547   3.805   5.306
 2176SOL     OW 7426   5.709   2.493   2.434
 2176SOL    HW1 7427   5.622   2.537   2.457
 2176SOL    HW2 7428   5.693   2.396   2.416
 2177SOL     OW 7429   0.456   0.289   4.412
 2177SOL    HW1 7430   0.398   0.367   4.438
 2177SOL    HW2 7431   0.408   0.204   4.434
 2178SOL     OW 7432   0.285   1.679   2.716
 2178SOL    HW1 7433   0.349   1.644   2.785
 2178SOL    HW2 7434   0.191   1.661   2.746
 2179SOL     OW 7435   1.047   4.113   6.212
 2179SOL    HW1 7436   0.951   4.090   6.230
 2179SOL    HW2 7437   1.106   4.060   6.273
 2180SOL     OW 7438   0.596   6.076   2.606
 2180SOL    HW1 7439   0.638   6.158   2.644
 2180SOL    HW2 7440   0.657   6.036   2.537
 2181SOL     OW 7441   3.289   4.910   4.614
 2181SOL    HW1 7442   3.284   4.900   4.714
 2181SOL    HW2 7443   3.197   4.903   4.576
 2182SOL     OW 7444   0.042   6.529   2.982
 2182SOL    HW1 7445   6.981   6.468   2.958
 2182SOL    HW2 7446   0.129   6.481   2.973
 2183SOL     OW 7447   3.316   2.774   6.473
 2183SOL    HW1 7448   3.319   2.675   6.489
 2183SOL    HW2 7449   3.272   2.792   6.385
 2184SOL     OW 7450   6.577   1.779   6.784
 2184SOL    HW1 7451   6.606   1.750   6.693
 2184SOL    HW2 7452   6.623   1.723   6.853
 2185SOL     OW 7453   1.052   6.959   6.774
 2185SOL    HW1 7454   1.049   6.973   6.675
 2185SOL    HW2 7455   1.143   6.928   6.801
 2186SOL     OW 7456   0.311   5.255   5.865
 2186SOL    HW1 7457   0.378   5.181   5.860
 2186SOL    HW2 7458   0.337   5.327   5.800
 2187SOL     OW 7459   0.813   6.012   2.451
 2187SOL    HW1 7460   0.908   6.027   2.426
 2187SOL    HW2 7461   0.802   5.920   2.490
 2188SOL     OW 7462   2.320   0.220   0.620
 2188SOL    HW1 7463   2.380   0.301   0.618
 2188SOL    HW2 7464   2.352   0.156   0.690
 2189SOL     OW 7465   2.001   1.445   1.572
 2189SOL    HW1 7466   1.931   1.377   1.592
 2189SOL    HW2 7467   1.962   1.519   1.517
 2190SOL     OW 7468   6.561   4.079   1.933
 2190SOL    HW1 7469   6.597   4.089   1.840
 2190SOL    HW2 7470   6.632   4.103   1.999
 2191SOL     OW 7471   2.700   6.734   0.156
 2191SOL    HW1 7472   2.795   6.737   0.187
 2191SOL    HW2 7473   2.696   6.759   0.059
 2192SOL     OW 7474   4.751   1.905   1.431
 2192SOL    HW1 7475   4.803   1.820   1.422
 2192SOL    HW2 7476   4.662   1.895   1.386
 2193SOL     OW 7477   1.758   6.761   5.995
 2193SOL    HW1 7478   1.846   6.807   6.000
 2193SOL    HW2 7479   1.685   6.830   5.988
 2194SOL     OW 7480   1.102   3.642   5.819
 2194SOL    HW1 7481   1.183   3.625   5.875
 2194SOL    HW2 7482   1.020   3.611   5.868
 2195SOL     OW 7483   0.174   3.618   5.410
 2195SOL    HW1 7484   0.190   3.620   5.311
 2195SOL    HW2 7485   0.245   3.563   5.454
 2196SOL     OW 7486   2.880   0.351   6.496
 2196SOL    HW1 7487   2.966   0.372   6.449
 2196SOL    HW2 7488   2.842   0.266   6.459
 2197SOL     OW 7489   3.637   5.578   5.799
 2197SOL    HW1 7490   3.576   5.636   5.745
 2197SOL    HW2 7491   3.696   5.525   5.737
 2198SOL     OW 7492   0.794   0.403   6.898
 2198SOL    HW1 7493   0.765   0.478   6.838
 2198SOL    HW2 7494   0.783   0.432   6.994
 2199SOL     OW 7495   3.791   6.403   4.904
 2199SOL    HW1 7496   3.756   6.314   4.936
 2199SOL    HW2 7497   3.716   6.454   4.861
 2200SOL     OW 7498   2.640   1.784   4.106
 2200SOL    HW1 7499   2.615   1.708   4.047
 2200SOL    HW2 7500   2.736   1.775   4.133
 2201SOL     OW 7501   6.847   4.164   4.694
 2201SOL    HW1 7502   6.770   4.227   4.680
 2201SOL    HW2 7503   6.859   4.148   4.791
 2202SOL     OW 7504   3.490   6.411   1.470
 2202SOL    HW1 7505   3.483   6.394   1.568
 2202SOL    HW2 7506   3.584   6.439   1.447
 2203SOL     OW 7507   2.240   3.882   1.045
 2203SOL    HW1 7508   2.255   3.832   0.960
 2203SOL    HW2 7509   2.154   3.851   1.087
 2204SOL     OW 7510   5.469   3.604   1.290
 2204SOL    HW1 7511   5.394   3.548   1.255
 2204SOL    HW2 7512   5.556   3.558   1.274
 2205SOL     OW 7513   0.692   5.503   0.352
 2205SOL    HW1 7514   0.594   5.503   0.373
 2205SOL    HW2 7515   0.721   5.409   0.334
 2206SOL     OW 7516   3.230   2.365   5.855
 2206SOL    HW1 7517   3.281   2.284   5.884
 2206SOL    HW2 7518   3.147   2.374   5.911
 2207SOL     OW 7519   4.561   5.885   1.087
 2207SOL    HW1 7520   4.593   5.965   1.137
 2207SOL    HW2 7521   4.465   5.897   1.063
 2208SOL     OW 7522   6.645   6.413   3.594
 2208SOL    HW1 7523   6.657   6.511   3.607
 2208SOL    HW2 7524   6.725   6.374   3.549
 2209SOL     OW 7525   3.002   5.609   3.956
 2209SOL    HW1 7526   2.969   5.684   3.898
 2209SOL    HW2 7527   2.956   5.524   3.931
 2210SOL     OW 7528   4.850   0.139   0.915
 2210SOL    HW1 7529   4.826   0.128   1.012
 2210SOL    HW2 7530   4.947   0.162   0.908
 2211SOL     OW 7531   0.245   2.090   0.917
 2211SOL    HW1 7532   0.201   2.107   1.005
 2211SOL    HW2 7533   0.185   2.121   0.843
 2212SOL     OW 7534   2.945   5.953   6.734
 2212SOL    HW1 7535   2.875   5.917   6.673
 2212SOL    HW2 7536   3.018   5.885   6.745
 2213SOL     OW 7537   3.514   1.665   4.988
 2213SOL    HW1 7538   3.591   1.632   4.934
 2213SOL    HW2 7539   3.458   1.587   5.018
 2214SOL     OW 7540   4.574   3.856   6.892
 2214SOL    HW1 7541   4.615   3.805   6.967
 2214SOL    HW2 7542   4.613   3.825   6.805
 2215SOL     OW 7543   4.052   6.915   6.977
 2215SOL    HW1 7544   4.088   6.829   6.941
 2215SOL    HW2 7545   4.097   6.937   0.049
 2216SOL     OW 7546   0.280   0.258   6.540
 2216SOL    HW1 7547   0.254   0.332   6.602
 2216SOL    HW2 7548   0.230   0.268   6.454
 2217SOL     OW 7549   4.155   0.905   3.836
 2217SOL    HW1 7550   4.120   0.949   3.918
 2217SOL    HW2 7551   4.251   0.930   3.822
 2218SOL     OW 7552   0.705   5.971   5.672
 2218SOL    HW1 7553   0.606   5.980   5.665
 2218SOL    HW2 7554   0.738   6.029   5.747
 2219SOL     OW 7555   6.034   0.958   0.897
 2219SOL    HW1 7556   5.986   1.018   0.833
 2219SOL    HW2 7557   6.066   1.011   0.975
 2220SOL     OW 7558   0.525   5.776   5.136
 2220SOL    HW1 7559   0.546   5.680   5.116
 2220SOL    HW2 7560   0.496   5.822   5.052
 2221SOL     OW 7561   6.515   1.402   3.625
 2221SOL    HW1 7562   6.467   1.486   3.600
 2221SOL    HW2 7563   6.596   1.391   3.567
 2222SOL     OW 7564   5.082   6.615   2.353
 2222SOL    HW1 7565   5.007   6.633   2.416
 2222SOL    HW2 7566   5.119   6.701   2.319
 2223SOL     OW 7567   0.287   6.224   5.665
 2223SOL    HW1 7568   0.221   6.225   5.740
 2223SOL    HW2 7569   0.294   6.315   5.625
 2224SOL     OW 7570   5.933   3.979   0.914
 2224SOL    HW1 7571   5.873   3.933   0.848
 2224SOL    HW2 7572   5.941   3.923   0.996
 2225SOL     OW 7573   6.763   6.674   2.758
 2225SOL    HW1 7574   6.831   6.636   2.696
 2225SOL    HW2 7575   6.768   6.627   2.846
 2226SOL     OW 7576   2.272   4.862   0.920
 2226SOL    HW1 7577   2.291   4.832   0.826
 2226SOL    HW2 7578   2.283   4.961   0.925
 2227SOL     OW 7579   3.731   2.115   1.721
 2227SOL    HW1 7580   3.813   2.072   1.761
 2227SOL    HW2 7581   3.691   2.178   1.787
 2228SOL     OW 7582   5.694   5.019   6.714
 2228SOL    HW1 7583   5.780   5.017   6.766
 2228SOL    HW2 7584   5.627   5.074   6.763
 2229SOL     OW 7585   3.305   3.272   3.712
 2229SOL    HW1 7586   3.367   3.327   3.769
 2229SOL    HW2 7587   3.357   3.233   3.636
 2230SOL     OW 7588   5.248   0.490   0.463
 2230SOL    HW1 7589   5.321   0.431   0.431
 2230SOL    HW2 7590   5.246   0.573   0.407
 2231SOL     OW 7591   1.329   0.042   6.571
 2231SOL    HW1 7592   1.306   0.070   6.477
 2231SOL    HW2 7593   1.326   0.121   6.631
 2232SOL     OW 7594   0.777   0.711   5.147
 2232SOL    HW1 7595   0.730   0.799   5.146
 2232SOL    HW2 7596   0.875   0.726   5.132
 2233SOL     OW 7597   2.835   4.072   1.019
 2233SOL    HW1 7598   2.879   4.162   1.012
 2233SOL    HW2 7599   2.903   4.000   1.006
 2234SOL     OW 7600   5.165   1.661   1.278
 2234SOL    HW1 7601   5.178   1.679   1.181
 2234SOL    HW2 7602   5.240   1.702   1.330
 2235SOL     OW 7603   1.219   1.785   3.288
 2235SOL    HW1 7604   1.305   1.834   3.271
 2235SOL    HW2 7605   1.146   1.825   3.233
 2236SOL     OW 7606   1.815   4.465   5.292
 2236SOL    HW1 7607   1.834   4.540   5.230
 2236SOL    HW2 7608   1.902   4.426   5.324
 2237SOL     OW 7609   6.882   5.439   5.819
 2237SOL    HW1 7610   6.953   5.500   5.855
 2237SOL    HW2 7611   6.816   5.493   5.766
 2238SOL     OW 7612   5.665   4.585   2.028
 2238SOL    HW1 7613   5.664   4.493   1.988
 2238SOL    HW2 7614   5.745   4.594   2.087
 2239SOL     OW 7615   4.151   6.815   3.344
 2239SOL    HW1 7616   4.060   6.843   3.372
 2239SOL    HW2 7617   4.214   6.821   3.421
 2240SOL     OW 7618   4.895   4.800   3.357
 2240SOL    HW1 7619   4.896   4.702   3.339
 2240SOL    HW2 7620   4.983   4.840   3.330
 2241SOL     OW 7621   0.591   0.938   1.720
 2241SOL    HW1 7622   0.665   0.946   1.652
 2241SOL    HW2 7623   0.555   1.028   1.741
 2242SOL     OW 7624   4.775   2.860   3.339
 2242SOL    HW1 7625   4.770   2.923   3.416
 2242SOL    HW2 7626   4.702   2.792   3.346
 2243SOL     OW 7627   1.575   6.192   0.701
 2243SOL    HW1 7628   1.611   6.143   0.621
 2243SOL    HW2 7629   1.631   6.273   0.718
 2244SOL     OW 7630   2.939   0.776   0.523
 2244SOL    HW1 7631   2.846   0.741   0.539
 2244SOL    HW2 7632   2.940   0.833   0.442
 2245SOL     OW 7633   0.451   0.245   0.258
 2245SOL    HW1 7634   0.433   0.257   0.160
 2245SOL    HW2 7635   0.389   0.174   0.294
 2246SOL     OW 7636   2.811   0.685   4.832
 2246SOL    HW1 7637   2.794   0.669   4.735
 2246SOL    HW2 7638   2.816   0.597   4.880
 2247SOL     OW 7639   3.095   4.004   2.580
 2247SOL    HW1 7640   3.086   4.034   2.675
 2247SOL    HW2 7641   3.065   3.909   2.572
 2248SOL     OW 7642   4.841   4.031   5.005
 2248SOL    HW1 7643   4.873   3.975   5.082
 2248SOL    HW2 7644   4.780   4.103   5.040
 2249SOL     OW 7645   2.072   5.901   3.073
 2249SOL    HW1 7646   2.083   5.808   3.108
 2249SOL    HW2 7647   2.058   5.964   3.149
 2250SOL     OW 7648   4.612   5.151   6.127
 2250SOL    HW1 7649   4.676   5.208   6.075
 2250SOL    HW2 7650   4.654   5.126   6.215
 2251SOL     OW 7651   5.535   6.311   5.911
 2251SOL    HW1 7652   5.498   6.340   5.823
 2251SOL    HW2 7653   5.467   6.328   5.983
 2252SOL     OW 7654   4.494   1.641   3.019
 2252SOL    HW1 7655   4.446   1.582   3.084
 2252SOL    HW2 7656   4.546   1.584   2.955
 2253SOL     OW 7657   0.307   3.518   1.193
 2253SOL    HW1 7658   0.272   3.429   1.162
 2253SOL    HW2 7659   0.407   3.518   1.187
 2254SOL     OW 7660   3.695   3.687   2.548
 2254SOL    HW1 7661   3.774   3.627   2.559
 2254SOL    HW2 7662   3.612   3.638   2.572
 2255SOL     OW 7663   3.429   3.610   6.252
 2255SOL    HW1 7664   3.478   3.652   6.176
 2255SOL    HW2 7665   3.341   3.575   6.219
 2256SOL     OW 7666   4.508   0.176   2.028
 2256SOL    HW1 7667   4.452   0.182   2.110
 2256SOL    HW2 7668   4.547   0.084   2.020
 2257SOL     OW 7669   0.682   0.942   4.884
 2257SOL    HW1 7670   0.625   0.995   4.947
 2257SOL    HW2 7671   0.778   0.970   4.894
 2258SOL     OW 7672   2.975   5.824   3.757
 2258SOL    HW1 7673   2.908   5.898   3.757
 2258SOL    HW2 7674   3.065   5.860   3.783
 2259SOL     OW 7675   6.066   2.197   4.361
 2259SOL    HW1 7676   5.981   2.224   4.316
 2259SOL    HW2 7677   6.103   2.275   4.412
 2260SOL     OW 7678   1.329   3.879   1.316
 2260SOL    HW1 7679   1.254   3.813   1.320
 2260SOL    HW2 7680   1.333   3.921   1.226
 2261SOL     OW 7681   5.525   4.134   6.569
 2261SOL    HW1 7682   5.481   4.118   6.481
 2261SOL    HW2 7683   5.494   4.222   6.606
 2262SOL     OW 7684   6.676   0.277   4.457
 2262SOL    HW1 7685   6.700   0.230   4.542
 2262SOL    HW2 7686   6.627   0.362   4.479
 2263SOL     OW 7687   2.003   4.286   6.567
 2263SOL    HW1 7688   1.985   4.376   6.605
 2263SOL    HW2 7689   2.083   4.289   6.508
 2264SOL     OW 7690   2.649   0.152   5.495
 2264SOL    HW1 7691   2.571   0.191   5.446
 2264SOL    HW2 7692   2.716   0.223   5.513
 2265SOL     OW 7693   0.755   6.451   4.678
 2265SOL    HW1 7694   0.662   6.484   4.693
 2265SOL    HW2 7695   0.815   6.491   4.748
 2266SOL     OW 7696   4.581   1.714   6.719
 2266SOL    HW1 7697   4.625   1.803   6.737
 2266SOL    HW2 7698   4.569   1.703   6.620
 2267SOL     OW 7699   4.850   2.445   4.397
 2267SOL    HW1 7700   4.928   2.483   4.347
 2267SOL    HW2 7701   4.836   2.497   4.482
 2268SOL     OW 7702   0.569   5.379   5.442
 2268SOL    HW1 7703   0.641   5.326   5.398
 2268SOL    HW2 7704   0.480   5.336   5.423
 2269SOL     OW 7705   2.046   2.200   5.146
 2269SOL    HW1 7706   2.055   2.112   5.191
 2269SOL    HW2 7707   1.976   2.255   5.194
 2270SOL     OW 7708   4.663   1.856   6.033
 2270SOL    HW1 7709   4.597   1.875   5.960
 2270SOL    HW2 7710   4.755   1.851   5.995
 2271SOL     OW 7711   5.141   5.017   6.051
 2271SOL    HW1 7712   5.131   4.931   6.001
 2271SOL    HW2 7713   5.081   5.086   6.010
 2272SOL     OW 7714   5.577   1.329   5.858
 2272SOL    HW1 7715   5.652   1.330   5.924
 2272SOL    HW2 7716   5.612   1.303   5.768
 2273SOL     OW 7717   1.367   2.574   2.540
 2273SOL    HW1 7718   1.346   2.560   2.443
 2273SOL    HW2 7719   1.318   2.505   2.594
 2274SOL     OW 7720   0.360   1.509   6.302
 2274SOL    HW1 7721   0.459   1.515   6.304
 2274SOL    HW2 7722   0.331   1.418   6.333
 2275SOL     OW 7723   5.628   5.064   2.402
 2275SOL    HW1 7724   5.582   5.029   2.483
 2275SOL    HW2 7725   5.726   5.075   2.421
 2276SOL     OW 7726   1.321   2.247   1.157
 2276SOL    HW1 7727   1.260   2.222   1.232
 2276SOL    HW2 7728   1.343   2.166   1.103
 2277SOL     OW 7729   3.518   3.220   3.462
 2277SOL    HW1 7730   3.493   3.236   3.367
 2277SOL    HW2 7731   3.587   3.287   3.490
 2278SOL     OW 7732   0.557   2.294   3.918
 2278SOL    HW1 7733   0.581   2.372   3.860
 2278SOL    HW2 7734   0.626   2.222   3.908
 2279SOL     OW 7735   0.587   6.150   5.049
 2279SOL    HW1 7736   0.621   6.135   5.142
 2279SOL    HW2 7737   0.502   6.203   5.053
 2280SOL     OW 7738   4.779   1.414   4.950
 2280SOL    HW1 7739   4.779   1.491   5.014
 2280SOL    HW2 7740   4.870   1.405   4.910
 2281SOL     OW 7741   5.355   0.142   2.505
 2281SOL    HW1 7742   5.451   0.128   2.530
 2281SOL    HW2 7743   5.298   0.074   2.552
 2282SOL     OW 7744   4.336   6.077   5.739
 2282SOL    HW1 7745   4.344   6.174   5.715
 2282SOL    HW2 7746   4.265   6.035   5.682
 2283SOL     OW 7747   0.300   0.258   3.752
 2283SOL    HW1 7748   0.368   0.226   3.817
 2283SOL    HW2 7749   0.255   0.180   3.708
 2284SOL     OW 7750   1.484   3.305   6.634
 2284SOL    HW1 7751   1.579   3.320   6.660
 2284SOL    HW2 7752   1.426   3.374   6.677
 2285SOL     OW 7753   1.203   3.911   6.311
 2285SOL    HW1 7754   1.282   3.934   6.367
 2285SOL    HW2 7755   1.232   3.859   6.231
 2286SOL     OW 7756   4.400   5.841   4.082
 2286SOL    HW1 7757   4.454   5.832   3.998
 2286SOL    HW2 7758   4.334   5.915   4.072
 2287SOL     OW 7759   1.853   1.111   3.352
 2287SOL    HW1 7760   1.769   1.067   3.321
 2287SOL    HW2 7761   1.922   1.042   3.372
 2288SOL     OW 7762   0.310   6.441   2.990
 2288SOL    HW1 7763   0.305   6.350   3.030
 2288SOL    HW2 7764   0.395   6.486   3.021
 2289SOL     OW 7765   0.983   5.676   1.802
 2289SOL    HW1 7766   1.003   5.731   1.883
 2289SOL    HW2 7767   0.990   5.734   1.721
 2290SOL     OW 7768   0.654   5.550   0.647
 2290SOL    HW1 7769   0.688   5.488   0.718
 2290SOL    HW2 7770   0.720   5.556   0.573
 2291SOL     OW 7771   2.649   1.769   6.183
 2291SOL    HW1 7772   2.560   1.764   6.138
 2291SOL    HW2 7773   2.638   1.810   6.274
 2292SOL     OW 7774   1.455   0.968   4.628
 2292SOL    HW1 7775   1.520   1.044   4.623
 2292SOL    HW2 7776   1.470   0.907   4.550
 2293SOL     OW 7777   5.528   5.176   2.150
 2293SOL    HW1 7778   5.535   5.122   2.066
 2293SOL    HW2 7779   5.546   5.117   2.229
 2294SOL     OW 7780   4.064   6.445   6.436
 2294SOL    HW1 7781   4.042   6.400   6.522
 2294SOL    HW2 7782   3.989   6.431   6.371
 2295SOL     OW 7783   0.489   2.394   1.070
 2295SOL    HW1 7784   0.577   2.349   1.058
 2295SOL    HW2 7785   0.491   2.448   1.154
 2296SOL     OW 7786   3.473   6.683   0.128
 2296SOL    HW1 7787   3.443   6.637   0.044
 2296SOL    HW2 7788   3.558   6.641   0.160
 2297SOL     OW 7789   4.261   5.261   5.818
 2297SOL    HW1 7790   4.317   5.215   5.749
 2297SOL    HW2 7791   4.297   5.241   5.909
 2298SOL     OW 7792   4.077   3.015   0.340
 2298SOL    HW1 7793   3.993   3.034   0.288
 2298SOL    HW2 7794   4.153   3.066   0.300
 2299SOL     OW 7795   4.795   5.722   7.003
 2299SOL    HW1 7796   4.813   5.655   0.062
 2299SOL    HW2 7797   4.882   5.756   6.967
 2300SOL     OW 7798   1.734   5.238   1.266
 2300SOL    HW1 7799   1.663   5.247   1.335
 2300SOL    HW2 7800   1.814   5.194   1.305
 2301SOL     OW 7801   3.980   3.353   2.791
 2301SOL    HW1 7802   4.029   3.311   2.867
 2301SOL    HW2 7803   3.975   3.452   2.805
 2302SOL     OW 7804   3.281   5.528   2.396
 2302SOL    HW1 7805   3.287   5.621   2.360
 2302SOL    HW2 7806   3.371   5.485   2.391
 2303SOL     OW 7807   1.443   2.433   4.843
 2303SOL    HW1 7808   1.355   2.473   4.815
 2303SOL    HW2 7809   1.458   2.348   4.794
 2304SOL     OW 7810   2.107   0.877   3.753
 2304SOL    HW1 7811   2.049   0.863   3.834
 2304SOL    HW2 7812   2.153   0.791   3.730
 2305SOL     OW 7813   3.351   5.227   1.852
 2305SOL    HW1 7814   3.399   5.248   1.767
 2305SOL    HW2 7815   3.334   5.129   1.858
 2306SOL     OW 7816   1.258   3.874   1.038
 2306SOL    HW1 7817   1.183   3.939   1.026
 2306SOL    HW2 7818   1.317   3.875   0.958
 2307SOL     OW 7819   0.429   2.387   2.907
 2307SOL    HW1 7820   0.478   2.303   2.882
 2307SOL    HW2 7821   0.450   2.411   3.001
 2308SOL     OW 7822   0.056   0.105   0.370
 2308SOL    HW1 7823   0.106   0.082   0.287
 2308SOL    HW2 7824   0.052   0.204   0.381
 2309SOL     OW 7825   3.392   5.546   6.201
 2309SOL    HW1 7826   3.296   5.521   6.214
 2309SOL    HW2 7827   3.432   5.573   6.289
 2310SOL     OW 7828   5.609   0.932   1.834
 2310SOL    HW1 7829   5.610   0.865   1.759
 2310SOL    HW2 7830   5.514   0.950   1.860
 2311SOL     OW 7831   3.053   0.304   2.974
 2311SOL    HW1 7832   3.141   0.266   3.001
 2311SOL    HW2 7833   3.065   0.398   2.943
 2312SOL     OW 7834   4.011   0.877   2.880
 2312SOL    HW1 7835   4.074   0.851   2.807
 2312SOL    HW2 7836   3.926   0.910   2.839
 2313SOL     OW 7837   5.168   4.080   2.018
 2313SOL    HW1 7838   5.232   4.005   1.999
 2313SOL    HW2 7839   5.211   4.145   2.081
 2314SOL     OW 7840   6.463   0.338   3.147
 2314SOL    HW1 7841   6.531   0.276   3.186
 2314SOL    HW2 7842   6.485   0.358   3.052
 2315SOL     OW 7843   4.383   4.616   5.650
 2315SOL    HW1 7844   4.388   4.681   5.726
 2315SOL    HW2 7845   4.403   4.524   5.683
 2316SOL     OW 7846   2.895   0.960   6.064
 2316SOL    HW1 7847   2.844   0.921   5.988
 2316SOL    HW2 7848   2.889   1.060   6.061
 2317SOL     OW 7849   5.916   5.711   3.705
 2317SOL    HW1 7850   6.004   5.744   3.670
 2317SOL    HW2 7851   5.843   5.772   3.675
 2318SOL     OW 7852   1.709   4.731   4.781
 2318SOL    HW1 7853   1.631   4.756   4.723
 2318SOL    HW2 7854   1.780   4.689   4.725
 2319SOL     OW 7855   2.507   5.061   4.325
 2319SOL    HW1 7856   2.530   5.093   4.234
 2319SOL    HW2 7857   2.529   5.133   4.392
 2320SOL     OW 7858   1.288   3.323   5.052
 2320SOL    HW1 7859   1.298   3.405   5.108
 2320SOL    HW2 7860   1.376   3.299   5.012
 2321SOL     OW 7861   2.885   5.078   6.357
 2321SOL    HW1 7862   2.883   5.004   6.290
 2321SOL    HW2 7863   2.874   5.166   6.310
 2322SOL     OW 7864   1.522   3.612   2.414
 2322SOL    HW1 7865   1.472   3.692   2.449
 2322SOL    HW2 7866   1.615   3.612   2.451
 2323SOL     OW 7867   2.143   4.918   1.633
 2323SOL    HW1 7868   2.077   4.993   1.644
 2323SOL    HW2 7869   2.215   4.927   1.701
 2324SOL     OW 7870   0.502   5.277   1.673
 2324SOL    HW1 7871   0.479   5.340   1.747
 2324SOL    HW2 7872   0.580   5.220   1.701
 2325SOL     OW 7873   6.706   5.410   1.928
 2325SOL    HW1 7874   6.781   5.358   1.886
 2325SOL    HW2 7875   6.620   5.383   1.885
 2326SOL     OW 7876   0.948   0.463   6.582
 2326SOL    HW1 7877   0.870   0.439   6.524
 2326SOL    HW2 7878   0.963   0.389   6.649
 2327SOL     OW 7879   6.471   0.307   2.437
 2327SOL    HW1 7880   6.516   0.356   2.511
 2327SOL    HW2 7881   6.411   0.236   2.475
 2328SOL     OW 7882   1.580   2.276   2.113
 2328SOL    HW1 7883   1.610   2.238   2.026
 2328SOL    HW2 7884   1.659   2.311   2.163
 2329SOL     OW 7885   0.995   5.263   3.738
 2329SOL    HW1 7886   0.923   5.323   3.704
 2329SOL    HW2 7887   1.085   5.304   3.721
 2330SOL     OW 7888   6.679   3.083   0.127
 2330SOL    HW1 7889   6.604   3.125   0.075
 2330SOL    HW2 7890   6.642   3.035   0.207
 2331SOL     OW 7891   3.886   5.858   6.933
 2331SOL    HW1 7892   3.958   5.880   7.000
 2331SOL    HW2 7893   3.863   5.761   6.939
 2332SOL     OW 7894   5.272   6.806   6.263
 2332SOL    HW1 7895   5.265   6.834   6.359
 2332SOL    HW2 7896   5.208   6.731   6.246
 2333SOL     OW 7897   0.186   5.234   2.698
 2333SOL    HW1 7898   0.189   5.202   2.793
 2333SOL    HW2 7899   0.162   5.331   2.696
 2334SOL     OW 7900   2.870   0.773   5.753
 2334SOL    HW1 7901   2.951   0.743   5.803
 2334SOL    HW2 7902   2.898   0.821   5.670
 2335SOL     OW 7903   6.328   1.866   3.539
 2335SOL    HW1 7904   6.272   1.875   3.621
 2335SOL    HW2 7905   6.274   1.893   3.459
 2336SOL     OW 7906   2.201   2.005   2.920
 2336SOL    HW1 7907   2.245   2.094   2.921
 2336SOL    HW2 7908   2.176   1.981   2.826
 2337SOL     OW 7909   3.915   2.145   1.245
 2337SOL    HW1 7910   3.866   2.091   1.313
 2337SOL    HW2 7911   3.953   2.227   1.289
 2338SOL     OW 7912   0.551   3.550   4.007
 2338SOL    HW1 7913   0.517   3.489   4.079
 2338SOL    HW2 7914   0.475   3.602   3.969
 2339SOL     OW 7915   2.946   3.235   2.404
 2339SOL    HW1 7916   2.897   3.153   2.433
 2339SOL    HW2 7917   2.972   3.227   2.308
 2340SOL     OW 7918   1.005   4.745   6.684
 2340SOL    HW1 7919   0.981   4.689   6.604
 2340SOL    HW2 7920   0.936   4.735   6.754
 2341SOL     OW 7921   2.449   4.483   3.040
 2341SOL    HW1 7922   2.425   4.488   2.943
 2341SOL    HW2 7923   2.403   4.405   3.082
 2342SOL     OW 7924   3.032   6.560   4.188
 2342SOL    HW1 7925   3.044   6.463   4.209
 2342SOL    HW2 7926   3.004   6.571   4.092
 2343SOL     OW 7927   1.985   6.466   2.715
 2343SOL    HW1 7928   1.974   6.470   2.616
 2343SOL    HW2 7929   2.050   6.537   2.744
 2344SOL     OW 7930   6.363   4.762   1.057
 2344SOL    HW1 7931   6.323   4.773   0.966
 2344SOL    HW2 7932   6.355   4.847   1.108
 2345SOL     OW 7933   3.026   5.478   4.549
 2345SOL    HW1 7934   2.987   5.480   4.456
 2345SOL    HW2 7935   2.992   5.557   4.600
 2346SOL     OW 7936   4.032   3.589   6.106
 2346SOL    HW1 7937   4.009   3.640   6.189
 2346SOL    HW2 7938   4.130   3.595   6.090
 2347SOL     OW 7939   1.185   1.926   1.770
 2347SOL    HW1 7940   1.249   1.880   1.832
 2347SOL    HW2 7941   1.165   2.017   1.805
 2348SOL     OW 7942   1.514   5.740   3.146
 2348SOL    HW1 7943   1.590   5.698   3.097
 2348SOL    HW2 7944   1.549   5.788   3.227
 2349SOL     OW 7945   0.794   4.015   6.331
 2349SOL    HW1 7946   0.710   3.964   6.349
 2349SOL    HW2 7947   0.851   4.015   6.413
 2350SOL     OW 7948   6.261   4.254   5.616
 2350SOL    HW1 7949   6.304   4.336   5.577
 2350SOL    HW2 7950   6.206   4.208   5.546
 2351SOL     OW 7951   2.649   4.666   2.969
 2351SOL    HW1 7952   2.647   4.670   2.869
 2351SOL    HW2 7953   2.588   4.594   3.001
 2352SOL     OW 7954   0.138   3.130   3.429
 2352SOL    HW1 7955   0.116   3.055   3.491
 2352SOL    HW2 7956   0.123   3.218   3.476
 2353SOL     OW 7957   4.081   5.341   5.612
 2353SOL    HW1 7958   4.127   5.428   5.594
 2353SOL    HW2 7959   4.117   5.301   5.696
 2354SOL     OW 7960   2.683   2.030   4.318
 2354SOL    HW1 7961   2.629   1.982   4.388
 2354SOL    HW2 7962   2.776   1.993   4.316
 2355SOL     OW 7963   2.361   6.028   4.705
 2355SOL    HW1 7964   2.420   5.979   4.640
 2355SOL    HW2 7965   2.408   6.111   4.736
 2356SOL     OW 7966   0.781   2.700   6.771
 2356SOL    HW1 7967   0.876   2.727   6.758
 2356SOL    HW2 7968   0.739   2.680   6.682
 2357SOL     OW 7969   3.209   1.119   2.599
 2357SOL    HW1 7970   3.240   1.205   2.559
 2357SOL    HW2 7971   3.275   1.089   2.668
 2358SOL     OW 7972   3.077   4.399   5.915
 2358SOL    HW1 7973   3.023   4.344   5.851
 2358SOL    HW2 7974   3.153   4.442   5.867
 2359SOL     OW 7975   1.381   0.098   5.362
 2359SOL    HW1 7976   1.298   0.105   5.305
 2359SOL    HW2 7977   1.365   0.143   5.449
 2360SOL     OW 7978   6.224   3.754   1.110
 2360SOL    HW1 7979   6.279   3.742   1.193
 2360SOL    HW2 7980   6.176   3.668   1.090
 2361SOL     OW 7981   3.051   1.193   5.668
 2361SOL    HW1 7982   3.003   1.281   5.669
 2361SOL    HW2 7983   3.012   1.134   5.598
 2362SOL     OW 7984   3.301   4.904   3.628
 2362SOL    HW1 7985   3.398   4.883   3.615
 2362SOL    HW2 7986   3.287   4.935   3.723
 2363SOL     OW 7987   3.660   1.795   3.594
 2363SOL    HW1 7988   3.572   1.795   3.547
 2363SOL    HW2 7989   3.693   1.889   3.603
 2364SOL     OW 7990   1.162   2.549   1.537
 2364SOL    HW1 7991   1.185   2.595   1.623
 2364SOL    HW2 7992   1.067   2.520   1.539
 2365SOL     OW 7993   5.992   2.395   0.191
 2365SOL    HW1 7994   6.027   2.306   0.222
 2365SOL    HW2 7995   6.068   2.451   0.157
 2366SOL     OW 7996   3.694   5.480   0.447
 2366SOL    HW1 7997   3.781   5.446   0.410
 2366SOL    HW2 7998   3.664   5.420   0.521
 2367SOL     OW 7999   2.198   3.177   0.210
 2367SOL    HW1 8000   2.137   3.102   0.183
 2367SOL    HW2 8001   2.250   3.208   0.130
 2368SOL     OW 8002   5.957   6.800   3.906
 2368SOL    HW1 8003   5.959   6.780   3.809
 2368SOL    HW2 8004   6.027   6.868   3.928
 2369SOL     OW 8005   1.921   0.066   4.025
 2369SOL    HW1 8006   2.011   0.068   4.068
 2369SOL    HW2 8007   1.921   0.122   3.942
 2370SOL     OW 8008   5.758   2.805   6.708
 2370SOL    HW1 8009   5.667   2.831   6.675
 2370SOL    HW2 8010   5.821   2.882   6.697
 2371SOL     OW 8011   2.388   0.196   1.647
 2371SOL    HW1 8012   2.389   0.101   1.616
 2371SOL    HW2 8013   2.294   0.232   1.643
 2372SOL     OW 8014   0.165   2.418   2.028
 2372SOL    HW1 8015   0.067   2.403   2.023
 2372SOL    HW2 8016   0.187   2.509   1.994
 2373SOL     OW 8017   2.068   3.663   5.664
 2373SOL    HW1 8018   2.025   3.617   5.587
 2373SOL    HW2 8019   2.150   3.710   5.633
 2374SOL     OW 8020   6.602   1.914   5.056
 2374SOL    HW1 8021   6.534   1.951   4.992
 2374SOL    HW2 8022   6.684   1.970   5.053
 2375SOL     OW 8023   3.713   5.836   5.497
 2375SOL    HW1 8024   3.697   5.750   5.447
 2375SOL    HW2 8025   3.811   5.844   5.517
 2376SOL     OW 8026   6.183   3.463   3.629
 2376SOL    HW1 8027   6.214   3.384   3.683
 2376SOL    HW2 8028   6.084   3.472   3.638
 2377SOL     OW 8029   2.959   3.551   3.906
 2377SOL    HW1 8030   2.937   3.456   3.928
 2377SOL    HW2 8031   2.964   3.605   3.990
 2378SOL     OW 8032   5.067   2.162   0.166
 2378SOL    HW1 8033   5.158   2.138   0.132
 2378SOL    HW2 8034   4.997   2.120   0.108
 2379SOL     OW 8035   6.363   0.962   0.689
 2379SOL    HW1 8036   6.415   0.924   0.765
 2379SOL    HW2 8037   6.326   1.051   0.714
 2380SOL     OW 8038   6.581   2.788   0.942
 2380SOL    HW1 8039   6.589   2.883   0.973
 2380SOL    HW2 8040   6.594   2.726   1.019
 2381SOL     OW 8041   1.665   5.474   2.950
 2381SOL    HW1 8042   1.739   5.541   2.946
 2381SOL    HW2 8043   1.646   5.440   2.858
 2382SOL     OW 8044   1.937   3.232   4.738
 2382SOL    HW1 8045   1.904   3.263   4.649
 2382SOL    HW2 8046   2.032   3.204   4.730
 2383SOL     OW 8047   6.517   6.485   1.351
 2383SOL    HW1 8048   6.547   6.578   1.329
 2383SOL    HW2 8049   6.573   6.419   1.300
 2384SOL     OW 8050   5.146   2.095   1.990
 2384SOL    HW1 8051   5.117   2.179   2.035
 2384SOL    HW2 8052   5.243   2.078   2.010
 2385SOL     OW 8053   6.972   0.844   6.993
 2385SOL    HW1 8054   6.876   0.854   6.967
 2385SOL    HW2 8055   6.982   0.860   0.077
 2386SOL     OW 8056   5.085   5.967   5.281
 2386SOL    HW1 8057   5.118   5.894   5.340
 2386SOL    HW2 8058   5.156   6.036   5.270
 2387SOL     OW 8059   1.792   1.092   3.881
 2387SOL    HW1 8060   1.831   1.114   3.791
 2387SOL    HW2 8061   1.713   1.031   3.870
 2388SOL     OW 8062   6.602   2.810   3.627
 2388SOL    HW1 8063   6.607   2.755   3.711
 2388SOL    HW2 8064   6.535   2.883   3.640
 2389SOL     OW 8065   4.424   4.559   3.461
 2389SOL    HW1 8066   4.470   4.524   3.379
 2389SOL    HW2 8067   4.396   4.654   3.445
 2390SOL     OW 8068   3.966   3.615   2.856
 2390SOL    HW1 8069   3.871   3.646   2.847
 2390SOL    HW2 8070   4.007   3.655   2.938
 2391SOL     OW 8071   4.647   4.805   6.253
 2391SOL    HW1 8072   4.662   4.734   6.323
 2391SOL    HW2 8073   4.663   4.766   6.163
 2392SOL     OW 8074   2.731   6.919   6.449
 2392SOL    HW1 8075   2.797   6.850   6.480
 2392SOL    HW2 8076   2.683   6.956   6.528
 2393SOL     OW 8077   4.417   4.595   6.232
 2393SOL    HW1 8078   4.486   4.666   6.220
 2393SOL    HW2 8079   4.366   4.582   6.147
 2394SOL     OW 8080   0.094   4.459   4.709
 2394SOL    HW1 8081   0.126   4.475   4.616
 2394SOL    HW2 8082   0.080   4.362   4.724
 2395SOL     OW 8083   4.352   6.559   6.083
 2395SOL    HW1 8084   4.380   6.646   6.122
 2395SOL    HW2 8085   4.428   6.519   6.032
 2396SOL     OW 8086   4.091   5.134   0.874
 2396SOL    HW1 8087   4.152   5.192   0.928
 2396SOL    HW2 8088   4.137   5.048   0.853
 2397SOL     OW 8089   0.485   4.148   4.421
 2397SOL    HW1 8090   0.558   4.169   4.486
 2397SOL    HW2 8091   0.524   4.132   4.331
 2398SOL     OW 8092   5.210   4.754   5.955
 2398SOL    HW1 8093   5.231   4.729   5.860
 2398SOL    HW2 8094   5.292   4.746   6.011
 2399SOL     OW 8095   4.434   1.599   1.603
 2399SOL    HW1 8096   4.495   1.549   1.541
 2399SOL    HW2 8097   4.475   1.688   1.624
 2400SOL     OW 8098   2.309   4.606   0.782
 2400SOL    HW1 8099   2.326   4.508   0.793
 2400SOL    HW2 8100   2.292   4.627   0.686
 2401SOL     OW 8101   6.385   5.974   6.144
 2401SOL    HW1 8102   6.425   5.885   6.167
 2401SOL    HW2 8103   6.326   6.004   6.218
 2402SOL     OW 8104   0.785   6.722   4.229
 2402SOL    HW1 8105   0.818   6.667   4.306
 2402SOL    HW2 8106   0.856   6.726   4.159
 2403SOL     OW 8107   1.070   2.430   5.231
 2403SOL    HW1 8108   1.075   2.394   5.138
 2403SOL    HW2 8109   1.120   2.369   5.293
 2404SOL     OW 8110   1.972   0.528   0.936
 2404SOL    HW1 8111   2.031   0.497   1.010
 2404SOL    HW2 8112   2.008   0.492   0.849
 2405SOL     OW 8113   3.360   4.001   2.528
 2405SOL    HW1 8114   3.357   3.914   2.479
 2405SOL    HW2 8115   3.268   4.023   2.560
 2406SOL     OW 8116   4.165   1.918   0.681
 2406SOL    HW1 8117   4.171   2.015   0.660
 2406SOL    HW2 8118   4.256   1.882   0.700
 2407SOL     OW 8119   5.011   1.091   3.728
 2407SOL    HW1 8120   4.976   1.087   3.634
 2407SOL    HW2 8121   5.100   1.045   3.732
 2408SOL     OW 8122   4.609   4.488   1.932
 2408SOL    HW1 8123   4.691   4.495   1.875
 2408SOL    HW2 8124   4.585   4.391   1.944
 2409SOL     OW 8125   2.037   3.701   1.019
 2409SOL    HW1 8126   1.952   3.678   1.067
 2409SOL    HW2 8127   2.091   3.618   1.006
 2410SOL     OW 8128   3.106   3.413   3.494
 2410SOL    HW1 8129   3.156   3.499   3.493
 2410SOL    HW2 8130   3.124   3.365   3.580
 2411SOL     OW 8131   5.422   6.723   4.765
 2411SOL    HW1 8132   5.375   6.810   4.752
 2411SOL    HW2 8133   5.393   6.658   4.695
 2412SOL     OW 8134   5.127   3.942   1.204
 2412SOL    HW1 8135   5.186   4.014   1.239
 2412SOL    HW2 8136   5.108   3.876   1.276
 2413SOL     OW 8137   4.967   0.426   1.979
 2413SOL    HW1 8138   4.898   0.361   1.950
 2413SOL    HW2 8139   4.923   0.509   2.015
 2414SOL     OW 8140   5.155   3.202   4.074
 2414SOL    HW1 8141   5.205   3.238   4.153
 2414SOL    HW2 8142   5.153   3.270   4.002
 2415SOL     OW 8143   5.273   0.703   2.961
 2415SOL    HW1 8144   5.211   0.770   2.921
 2415SOL    HW2 8145   5.347   0.751   3.009
 2416SOL     OW 8146   5.160   1.626   5.951
 2416SOL    HW1 8147   5.183   1.570   6.031
 2416SOL    HW2 8148   5.240   1.678   5.922
 2417SOL     OW 8149   2.968   3.168   4.872
 2417SOL    HW1 8150   2.993   3.192   4.778
 2417SOL    HW2 8151   2.917   3.082   4.871
 2418SOL     OW 8152   3.466   3.347   3.191
 2418SOL    HW1 8153   3.476   3.265   3.133
 2418SOL    HW2 8154   3.369   3.369   3.201
 2419SOL     OW 8155   0.380   6.857   3.048
 2419SOL    HW1 8156   0.307   6.876   2.982
 2419SOL    HW2 8157   0.460   6.912   3.026
 2420SOL     OW 8158   2.757   0.224   1.651
 2420SOL    HW1 8159   2.832   0.289   1.643
 2420SOL    HW2 8160   2.693   0.255   1.722
 2421SOL     OW 8161   1.963   2.100   4.833
 2421SOL    HW1 8162   1.909   2.017   4.844
 2421SOL    HW2 8163   1.982   2.139   4.923
 2422SOL     OW 8164   4.822   1.650   1.035
 2422SOL    HW1 8165   4.858   1.740   1.059
 2422SOL    HW2 8166   4.882   1.608   0.967
 2423SOL     OW 8167   2.480   5.664   2.369
 2423SOL    HW1 8168   2.491   5.583   2.311
 2423SOL    HW2 8169   2.513   5.745   2.321
 2424SOL     OW 8170   6.171   1.277   0.538
 2424SOL    HW1 8171   6.239   1.226   0.485
 2424SOL    HW2 8172   6.208   1.297   0.629
 2425SOL     OW 8173   6.501   6.811   3.767
 2425SOL    HW1 8174   6.477   6.736   3.829
 2425SOL    HW2 8175   6.427   6.823   3.700
 2426SOL     OW 8176   2.515   4.530   4.087
 2426SOL    HW1 8177   2.562   4.520   4.175
 2426SOL    HW2 8178   2.431   4.583   4.099
 2427SOL     OW 8179   6.462   6.577   5.608
 2427SOL    HW1 8180   6.544   6.578   5.665
 2427SOL    HW2 8181   6.383   6.605   5.662
 2428SOL     OW 8182   0.531   0.778   1.046
 2428SOL    HW1 8183   0.606   0.836   1.078
 2428SOL    HW2 8184   0.455   0.835   1.016
 2429SOL     OW 8185   4.724   6.145   2.210
 2429SOL    HW1 8186   4.687   6.064   2.255
 2429SOL    HW2 8187   4.659   6.220   2.217
 2430SOL     OW 8188   6.062   0.581   3.037
 2430SOL    HW1 8189   6.141   0.627   3.079
 2430SOL    HW2 8190   5.993   0.649   3.012
 2431SOL     OW 8191   4.199   0.753   2.018
 2431SOL    HW1 8192   4.281   0.706   1.983
 2431SOL    HW2 8193   4.199   0.847   1.986
 2432SOL     OW 8194   3.589   6.207   2.065
 2432SOL    HW1 8195   3.508   6.166   2.024
 2432SOL    HW2 8196   3.663   6.209   1.998
 2433SOL     OW 8197   4.180   0.254   0.120
 2433SOL    HW1 8198   4.177   0.160   0.153
 2433SOL    HW2 8199   4.222   0.256   0.029
 2434SOL     OW 8200   3.699   2.159   5.926
 2434SOL    HW1 8201   3.619   2.112   5.964
 2434SOL    HW2 8202   3.770   2.091   5.907
 2435SOL     OW 8203   5.959   5.773   5.102
 2435SOL    HW1 8204   5.962   5.773   5.202
 2435SOL    HW2 8205   6.036   5.826   5.066
 2436SOL     OW 8206   2.887   5.534   0.332
 2436SOL    HW1 8207   2.953   5.461   0.314
 2436SOL    HW2 8208   2.932   5.608   0.383
 2437SOL     OW 8209   6.991   6.984   6.003
 2437SOL    HW1 8210   6.931   0.020   6.065
 2437SOL    HW2 8211   6.944   6.967   5.917
 2438SOL     OW 8212   2.446   2.746   0.981
 2438SOL    HW1 8213   2.412   2.776   1.070
 2438SOL    HW2 8214   2.543   2.721   0.989
 2439SOL     OW 8215   5.896   4.422   5.196
 2439SOL    HW1 8216   5.854   4.472   5.272
 2439SOL    HW2 8217   5.831   4.415   5.121
 2440SOL     OW 8218   5.890   5.166   6.484
 2440SOL    HW1 8219   5.864   5.236   6.552
 2440SOL    HW2 8220   5.868   5.199   6.392
 2441SOL     OW 8221   6.007   2.677   1.186
 2441SOL    HW1 8222   6.071   2.685   1.109
 2441SOL    HW2 8223   6.058   2.677   1.272
 2442SOL     OW 8224   0.001   3.759   4.583
 2442SOL    HW1 8225   0.000   3.837   4.520
 2442SOL    HW2 8226   6.949   3.775   4.656
 2443SOL     OW 8227   2.975   4.729   5.841
 2443SOL    HW1 8228   2.948   4.824   5.856
 2443SOL    HW2 8229   3.029   4.697   5.918
 2444SOL     OW 8230   2.925   3.946   5.578
 2444SOL    HW1 8231   2.853   3.937   5.646
 2444SOL    HW2 8232   2.905   3.888   5.499
 2445SOL     OW 8233   1.067   0.712   0.774
 2445SOL    HW1 8234   1.037   0.622   0.805
 2445SOL    HW2 8235   1.074   0.774   0.853
 2446SOL     OW 8236   6.326   3.925   6.086
 2446SOL    HW1 8237   6.383   3.881   6.017
 2446SOL    HW2 8238   6.358   4.018   6.102
 2447SOL     OW 8239   0.396   1.991   6.855
 2447SOL    HW1 8240   0.319   2.001   6.791
 2447SOL    HW2 8241   0.393   2.064   6.923
 2448SOL     OW 8242   0.805   0.005   4.429
 2448SOL    HW1 8243   0.867   0.083   4.420
 2448SOL    HW2 8244   0.763   6.999   4.340
 2449SOL     OW 8245   0.297   2.770   5.379
 2449SOL    HW1 8246   0.206   2.765   5.421
 2449SOL    HW2 8247   0.363   2.724   5.438
 2450SOL     OW 8248   1.988   3.345   3.039
 2450SOL    HW1 8249   1.888   3.343   3.049
 2450SOL    HW2 8250   2.019   3.440   3.037
 2451SOL     OW 8251   2.600   6.353   3.885
 2451SOL    HW1 8252   2.560   6.374   3.796
 2451SOL    HW2 8253   2.531   6.367   3.956
 2452SOL     OW 8254   1.181   2.272   4.210
 2452SOL    HW1 8255   1.118   2.344   4.182
 2452SOL    HW2 8256   1.253   2.311   4.268
 2453SOL     OW 8257   6.972   3.545   1.205
 2453SOL    HW1 8258   0.015   3.593   1.139
 2453SOL    HW2 8259   7.000   3.571   1.298
 2454SOL     OW 8260   2.313   0.645   2.208
 2454SOL    HW1 8261   2.235   0.600   2.251
 2454SOL    HW2 8262   2.314   0.742   2.235
 2455SOL     OW 8263   5.517   4.787   0.525
 2455SOL    HW1 8264   5.445   4.836   0.475
 2455SOL    HW2 8265   5.504   4.689   0.514
 2456SOL     OW 8266   3.491   6.323   0.969
 2456SOL    HW1 8267   3.478   6.411   0.924
 2456SOL    HW2 8268   3.501   6.251   0.900
 2457SOL     OW 8269   5.775   6.298   1.539
 2457SOL    HW1 8270   5.719   6.237   1.482
 2457SOL    HW2 8271   5.738   6.391   1.534
 2458SOL     OW 8272   0.448   5.864   3.757
 2458SOL    HW1 8273   0.506   5.900   3.831
 2458SOL    HW2 8274   0.425   5.769   3.777
 2459SOL     OW 8275   1.354   0.873   0.774
 2459SOL    HW1 8276   1.352   0.970   0.797
 2459SOL    HW2 8277   1.266   0.831   0.795
 2460SOL     OW 8278   3.460   5.102   1.363
 2460SOL    HW1 8279   3.428   5.148   1.445
 2460SOL    HW2 8280   3.515   5.022   1.388
 2461SOL     OW 8281   4.900   1.211   3.152
 2461SOL    HW1 8282   4.918   1.114   3.164
 2461SOL    HW2 8283   4.941   1.242   3.066
 2462SOL     OW 8284   2.435   4.605   6.462
 2462SOL    HW1 8285   2.456   4.599   6.560
 2462SOL    HW2 8286   2.435   4.513   6.423
 2463SOL     OW 8287   0.347   1.640   4.183
 2463SOL    HW1 8288   0.359   1.733   4.218
 2463SOL    HW2 8289   0.424   1.617   4.124
 2464SOL     OW 8290   0.955   3.382   1.149
 2464SOL    HW1 8291   0.998   3.300   1.187
 2464SOL    HW2 8292   0.861   3.388   1.181
 2465SOL     OW 8293   6.233   5.315   3.429
 2465SOL    HW1 8294   6.305   5.272   3.484
 2465SOL    HW2 8295   6.221   5.410   3.460
 2466SOL     OW 8296   3.713   1.623   2.120
 2466SOL    HW1 8297   3.732   1.528   2.093
 2466SOL    HW2 8298   3.712   1.681   2.039
 2467SOL     OW 8299   6.404   1.286   5.506
 2467SOL    HW1 8300   6.358   1.336   5.579
 2467SOL    HW2 8301   6.495   1.259   5.535
 2468SOL     OW 8302   6.967   4.003   0.535
 2468SOL    HW1 8303   6.959   3.928   0.469
 2468SOL    HW2 8304   6.884   4.060   0.530
 2469SOL     OW 8305   2.912   3.459   5.473
 2469SOL    HW1 8306   2.995   3.404   5.476
 2469SOL    HW2 8307   2.936   3.555   5.460
 2470SOL     OW 8308   5.810   3.147   0.354
 2470SOL    HW1 8309   5.809   3.119   0.258
 2470SOL    HW2 8310   5.897   3.192   0.375
 2471SOL     OW 8311   0.504   0.151   3.457
 2471SOL    HW1 8312   0.415   0.141   3.501
 2471SOL    HW2 8313   0.512   0.085   3.382
 2472SOL     OW 8314   5.127   1.358   3.659
 2472SOL    HW1 8315   5.187   1.294   3.610
 2472SOL    HW2 8316   5.046   1.310   3.692
 2473SOL     OW 8317   0.237   6.905   5.483
 2473SOL    HW1 8318   0.329   6.939   5.466
 2473SOL    HW2 8319   0.240   6.806   5.499
 2474SOL     OW 8320   5.793   5.948   4.763
 2474SOL    HW1 8321   5.709   5.906   4.796
 2474SOL    HW2 8322   5.848   5.880   4.714
 2475SOL     OW 8323   4.601   2.329   6.197
 2475SOL    HW1 8324   4.638   2.266   6.129
 2475SOL    HW2 8325   4.573   2.278   6.279
 2476SOL     OW 8326   0.779   1.605   3.878
 2476SOL    HW1 8327   0.838   1.686   3.887
 2476SOL    HW2 8328   0.823   1.539   3.816
 2477SOL     OW 8329   4.369   5.239   2.310
 2477SOL    HW1 8330   4.318   5.206   2.389
 2477SOL    HW2 8331   4.350   5.181   2.231
 2478SOL     OW 8332   6.446   6.891   2.957
 2478SOL    HW1 8333   6.349   6.915   2.964
 2478SOL    HW2 8334   6.465   6.811   3.013
 2479SOL     OW 8335   0.929   3.156   0.027
 2479SOL    HW1 8336   0.942   3.163   6.942
 2479SOL    HW2 8337   1.012   3.186   0.074
 2480SOL     OW 8338   0.938   4.598   2.040
 2480SOL    HW1 8339   0.993   4.682   2.047
 2480SOL    HW2 8340   0.960   4.538   2.117
 2481SOL     OW 8341   3.887   5.363   2.741
 2481SOL    HW1 8342   3.881   5.344   2.643
 2481SOL    HW2 8343   3.845   5.289   2.793
 2482SOL     OW 8344   4.795   2.326   3.967
 2482SOL    HW1 8345   4.707   2.281   3.951
 2482SOL    HW2 8346   4.781   2.425   3.973
 2483SOL     OW 8347   0.841   2.452   6.918
 2483SOL    HW1 8348   0.775   2.523   6.896
 2483SOL    HW2 8349   0.829   2.423   7.013
 2484SOL     OW 8350   3.436   2.665   6.190
 2484SOL    HW1 8351   3.444   2.631   6.097
 2484SOL    HW2 8352   3.496   2.613   6.251
 2485SOL     OW 8353   1.118   6.016   1.279
 2485SOL    HW1 8354   1.140   6.023   1.182
 2485SOL    HW2 8355   1.127   5.920   1.308
 2486SOL     OW 8356   0.462   5.371   3.228
 2486SOL    HW1 8357   0.487   5.320   3.146
 2486SOL    HW2 8358   0.363   5.364   3.242
 2487SOL     OW 8359   3.238   1.014   1.059
 2487SOL    HW1 8360   3.337   1.021   1.060
 2487SOL    HW2 8361   3.202   1.060   0.978
 2488SOL     OW 8362   3.235   6.514   6.192
 2488SOL    HW1 8363   3.313   6.501   6.131
 2488SOL    HW2 8364   3.225   6.434   6.251
 2489SOL     OW 8365   6.485   5.808   4.566
 2489SOL    HW1 8366   6.387   5.790   4.567
 2489SOL    HW2 8367   6.513   5.834   4.474
 2490SOL     OW 8368   5.365   3.605   1.799
 2490SOL    HW1 8369   5.380   3.665   1.721
 2490SOL    HW2 8370   5.268   3.604   1.824
 2491SOL     OW 8371   0.180   4.636   2.788
 2491SOL    HW1 8372   0.206   4.676   2.876
 2491SOL    HW2 8373   0.150   4.542   2.802
 2492SOL     OW 8374   4.490   2.183   5.589
 2492SOL    HW1 8375   4.439   2.098   5.573
 2492SOL    HW2 8376   4.494   2.201   5.687
 2493SOL     OW 8377   6.698   1.303   4.298
 2493SOL    HW1 8378   6.687   1.401   4.311
 2493SOL    HW2 8379   6.712   1.283   4.202
 2494SOL     OW 8380   4.347   4.791   1.386
 2494SOL    HW1 8381   4.312   4.821   1.297
 2494SOL    HW2 8382   4.384   4.699   1.378
 2495SOL     OW 8383   6.858   0.872   3.869
 2495SOL    HW1 8384   6.913   0.926   3.932
 2495SOL    HW2 8385   6.764   0.905   3.870
 2496SOL     OW 8386   1.871   5.720   6.379
 2496SOL    HW1 8387   1.850   5.687   6.287
 2496SOL    HW2 8388   1.843   5.816   6.388
 2497SOL     OW 8389   5.703   1.272   6.988
 2497SOL    HW1 8390   5.669   1.250   6.897
 2497SOL    HW2 8391   5.755   1.195   0.011
 2498SOL     OW 8392   0.973   3.295   4.658
 2498SOL    HW1 8393   1.005   3.245   4.577
 2498SOL    HW2 8394   1.044   3.358   4.688
 2499SOL     OW 8395   5.444   0.202   6.856
 2499SOL    HW1 8396   5.367   0.243   6.905
 2499SOL    HW2 8397   5.529   0.244   6.887
 2500SOL     OW 8398   4.561   3.550   6.441
 2500SOL    HW1 8399   4.611   3.530   6.357
 2500SOL    HW2 8400   4.466   3.519   6.432
 2501SOL     OW 8401   6.351   5.038   1.159
 2501SOL    HW1 8402   6.409   5.095   1.099
 2501SOL    HW2 8403   6.259   5.032   1.120
 2502SOL     OW 8404   1.408   6.591   2.851
 2502SOL    HW1 8405   1.349   6.657   2.898
 2502SOL    HW2 8406   1.503   6.607   2.878
 2503SOL     OW 8407   4.790   6.900   4.440
 2503SOL    HW1 8408   4.835   6.830   4.496
 2503SOL    HW2 8409   4.859   6.947   4.385
 2504SOL     OW 8410   2.068   4.300   3.341
 2504SOL    HW1 8411   1.969   4.291   3.330
 2504SOL    HW2 8412   2.091   4.300   3.439
 2505SOL     OW 8413   4.999   4.477   4.642
 2505SOL    HW1 8414   5.058   4.396   4.644
 2505SOL    HW2 8415   4.903   4.448   4.646
 2506SOL     OW 8416   0.499   2.045   0.965
 2506SOL    HW1 8417   0.532   1.999   0.883
 2506SOL    HW2 8418   0.403   2.072   0.952
 2507SOL     OW 8419   6.587   6.139   1.028
 2507SOL    HW1 8420   6.493   6.152   1.061
 2507SOL    HW2 8421   6.647   6.204   1.075
 2508SOL     OW 8422   2.380   2.337   1.915
 2508SOL    HW1 8423   2.346   2.392   1.839
 2508SOL    HW2 8424   2.478   2.350   1.925
 2509SOL     OW 8425   4.818   1.329   3.384
 2509SOL    HW1 8426   4.734   1.384   3.376
 2509SOL    HW2 8427   4.837   1.285   3.296
 2510SOL     OW 8428   4.135   5.778   1.430
 2510SOL    HW1 8429   4.104   5.807   1.339
 2510SOL    HW2 8430   4.122   5.680   1.439
 2511SOL     OW 8431   0.838   6.347   4.003
 2511SOL    HW1 8432   0.854   6.295   4.086
 2511SOL    HW2 8433   0.782   6.293   3.940
 2512SOL     OW 8434   5.225   2.694   4.526
 2512SOL    HW1 8435   5.209   2.629   4.452
 2512SOL    HW2 8436   5.239   2.785   4.488
 2513SOL     OW 8437   0.312   4.741   1.720
 2513SOL    HW1 8438   0.348   4.750   1.813
 2513SOL    HW2 8439   0.365   4.799   1.658
 2514SOL     OW 8440   0.653   1.827   3.695
 2514SOL    HW1 8441   0.624   1.739   3.731
 2514SOL    HW2 8442   0.737   1.816   3.642
 2515SOL     OW 8443   0.738   4.789   0.233
 2515SOL    HW1 8444   0.802   4.792   0.310
 2515SOL    HW2 8445   0.765   4.858   0.166
 2516SOL     OW 8446   4.927   6.276   4.453
 2516SOL    HW1 8447   4.844   6.321   4.422
 2516SOL    HW2 8448   5.007   6.324   4.416
 2517SOL     OW 8449   2.435   5.228   0.692
 2517SOL    HW1 8450   2.363   5.216   0.623
 2517SOL    HW2 8451   2.477   5.318   0.681
 2518SOL     OW 8452   2.356   2.783   6.501
 2518SOL    HW1 8453   2.322   2.693   6.474
 2518SOL    HW2 8454   2.278   2.844   6.518
 2519SOL     OW 8455   5.227   3.902   5.335
 2519SOL    HW1 8456   5.317   3.892   5.292
 2519SOL    HW2 8457   5.225   3.988   5.387
 2520SOL     OW 8458   3.176   5.471   1.845
 2520SOL    HW1 8459   3.221   5.547   1.891
 2520SOL    HW2 8460   3.245   5.403   1.818
 2521SOL     OW 8461   6.077   6.712   6.274
 2521SOL    HW1 8462   6.079   6.677   6.368
 2521SOL    HW2 8463   6.072   6.636   6.210
 2522SOL     OW 8464   2.020   4.424   4.264
 2522SOL    HW1 8465   2.019   4.519   4.233
 2522SOL    HW2 8466   2.097   4.376   4.223
 2523SOL     OW 8467   0.120   3.014   5.726
 2523SOL    HW1 8468   0.041   2.965   5.761
 2523SOL    HW2 8469   0.203   2.981   5.772
 2524SOL     OW 8470   1.210   6.739   4.849
 2524SOL    HW1 8471   1.192   6.728   4.947
 2524SOL    HW2 8472   1.194   6.835   4.823
 2525SOL     OW 8473   1.649   4.122   2.977
 2525SOL    HW1 8474   1.578   4.150   2.912
 2525SOL    HW2 8475   1.735   4.167   2.954
 2526SOL     OW 8476   0.439   2.497   5.028
 2526SOL    HW1 8477   0.405   2.431   4.961
 2526SOL    HW2 8478   0.531   2.470   5.057
 2527SOL     OW 8479   6.272   6.837   3.622
 2527SOL    HW1 8480   6.199   6.771   3.636
 2527SOL    HW2 8481   6.255   6.918   3.677
 2528SOL     OW 8482   6.122   5.289   0.548
 2528SOL    HW1 8483   6.045   5.276   0.611
 2528SOL    HW2 8484   6.127   5.211   0.485
 2529SOL     OW 8485   5.458   3.960   4.754
 2529SOL    HW1 8486   5.382   4.013   4.791
 2529SOL    HW2 8487   5.464   3.872   4.802
 2530SOL     OW 8488   1.173   6.434   3.489
 2530SOL    HW1 8489   1.153   6.497   3.564
 2530SOL    HW2 8490   1.156   6.340   3.519
 2531SOL     OW 8491   4.891   1.261   0.336
 2531SOL    HW1 8492   4.937   1.229   0.253
 2531SOL    HW2 8493   4.820   1.196   0.362
 2532SOL     OW 8494   1.028   4.238   5.901
 2532SOL    HW1 8495   1.098   4.309   5.916
 2532SOL    HW2 8496   0.953   4.251   5.965
 2533SOL     OW 8497   5.932   6.516   5.565
 2533SOL    HW1 8498   5.839   6.480   5.565
 2533SOL    HW2 8499   5.929   6.616   5.565
 2534SOL     OW 8500   6.977   1.768   3.340
 2534SOL    HW1 8501   0.057   1.739   3.318
 2534SOL    HW2 8502   6.955   1.852   3.290
 2535SOL     OW 8503   1.631   1.609   2.945
 2535SOL    HW1 8504   1.583   1.602   2.858
 2535SOL    HW2 8505   1.724   1.573   2.935
 2536SOL     OW 8506   0.534   0.530   4.149
 2536SOL    HW1 8507   0.438   0.503   4.156
 2536SOL    HW2 8508   0.592   0.454   4.179
 2537SOL     OW 8509   3.958   5.539   1.710
 2537SOL    HW1 8510   3.871   5.499   1.739
 2537SOL    HW2 8511   4.003   5.582   1.788
 2538SOL     OW 8512   1.417   4.366   4.703
 2538SOL    HW1 8513   1.359   4.323   4.773
 2538SOL    HW2 8514   1.495   4.409   4.748
 2539SOL     OW 8515   2.541   0.639   5.497
 2539SOL    HW1 8516   2.579   0.631   5.588
 2539SOL    HW2 8517   2.612   0.668   5.433
 2540SOL     OW 8518   5.249   1.669   2.481
 2540SOL    HW1 8519   5.195   1.739   2.528
 2540SOL    HW2 8520   5.344   1.676   2.508
 2541SOL     OW 8521   0.443   0.159   6.091
 2541SOL    HW1 8522   0.484   0.213   6.017
 2541SOL    HW2 8523   0.384   0.088   6.052
 2542SOL     OW 8524   3.980   2.074   3.478
 2542SOL    HW1 8525   3.941   2.051   3.567
 2542SOL    HW2 8526   3.906   2.095   3.414
 2543SOL     OW 8527   0.105   1.936   4.166
 2543SOL    HW1 8528   0.196   1.907   4.196
 2543SOL    HW2 8529   0.102   2.035   4.157
 2544SOL     OW 8530   6.641   6.024   1.883
 2544SOL    HW1 8531   6.729   6.054   1.920
 2544SOL    HW2 8532   6.650   6.009   1.784
 2545SOL     OW 8533   6.014   1.605   0.321
 2545SOL    HW1 8534   6.016   1.505   0.319
 2545SOL    HW2 8535   5.940   1.638   0.263
 2546SOL     OW 8536   6.781   3.841   2.148
 2546SOL    HW1 8537   6.771   3.937   2.172
 2546SOL    HW2 8538   6.749   3.784   2.224
 2547SOL     OW 8539   5.421   4.437   1.547
 2547SOL    HW1 8540   5.452   4.397   1.461
 2547SOL    HW2 8541   5.336   4.393   1.576
 2548SOL     OW 8542   6.164   0.378   5.734
 2548SOL    HW1 8543   6.229   0.393   5.809
 2548SOL    HW2 8544   6.140   0.280   5.730
 2549SOL     OW 8545   2.578   3.607   0.595
 2549SOL    HW1 8546   2.603   3.534   0.659
 2549SOL    HW2 8547   2.641   3.607   0.517
 2550SOL     OW 8548   4.116   5.860   0.175
 2550SOL    HW1 8549   4.135   5.783   0.114
 2550SOL    HW2 8550   4.039   5.837   0.234
 2551SOL     OW 8551   3.543   4.851   0.919
 2551SOL    HW1 8552   3.577   4.760   0.943
 2551SOL    HW2 8553   3.579   4.919   0.983
 2552SOL     OW 8554   2.212   4.851   1.954
 2552SOL    HW1 8555   2.169   4.940   1.972
 2552SOL    HW2 8556   2.159   4.779   1.998
 2553SOL     OW 8557   4.698   1.581   0.191
 2553SOL    HW1 8558   4.725   1.651   0.256
 2553SOL    HW2 8559   4.616   1.612   0.142
 2554SOL     OW 8560   1.177   5.695   1.039
 2554SOL    HW1 8561   1.269   5.716   1.005
 2554SOL    HW2 8562   1.109   5.719   0.970
 2555SOL     OW 8563   6.192   6.860   5.045
 2555SOL    HW1 8564   6.155   6.806   5.120
 2555SOL    HW2 8565   6.291   6.868   5.057
 2556SOL     OW 8566   3.961   6.762   0.729
 2556SOL    HW1 8567   3.943   6.859   0.743
 2556SOL    HW2 8568   3.980   6.746   0.632
 2557SOL     OW 8569   3.119   0.766   6.820
 2557SOL    HW1 8570   3.040   0.756   6.760
 2557SOL    HW2 8571   3.183   0.691   6.804
 2558SOL     OW 8572   5.091   2.551   1.477
 2558SOL    HW1 8573   5.057   2.558   1.570
 2558SOL    HW2 8574   5.151   2.629   1.457
 2559SOL     OW 8575   6.833   5.064   3.549
 2559SOL    HW1 8576   6.765   5.115   3.602
 2559SOL    HW2 8577   6.805   4.968   3.544
 2560SOL     OW 8578   4.992   2.411   2.889
 2560SOL    HW1 8579   4.998   2.349   2.811
 2560SOL    HW2 8580   4.898   2.442   2.899
 2561SOL     OW 8581   3.896   6.975   4.407
 2561SOL    HW1 8582   3.821   0.017   4.442
 2561SOL    HW2 8583   3.971   0.021   4.379
 2562SOL     OW 8584   1.900   0.030   4.571
 2562SOL    HW1 8585   1.895   6.976   4.645
 2562SOL    HW2 8586   1.869   0.119   4.604
 2563SOL     OW 8587   3.685   2.332   6.417
 2563SOL    HW1 8588   3.675   2.261   6.488
 2563SOL    HW2 8589   3.616   2.402   6.432
 2564SOL     OW 8590   1.083   1.641   0.205
 2564SOL    HW1 8591   1.088   1.604   0.298
 2564SOL    HW2 8592   1.049   1.735   0.209
 2565SOL     OW 8593   1.097   0.800   0.443
 2565SOL    HW1 8594   1.170   0.756   0.495
 2565SOL    HW2 8595   1.009   0.763   0.471
 2566SOL     OW 8596   2.749   0.852   1.103
 2566SOL    HW1 8597   2.842   0.875   1.075
 2566SOL    HW2 8598   2.711   0.925   1.159
 2567SOL     OW 8599   1.304   0.647   6.380
 2567SOL    HW1 8600   1.331   0.732   6.425
 2567SOL    HW2 8601   1.281   0.666   6.284
 2568SOL     OW 8602   1.999   5.806   0.949
 2568SOL    HW1 8603   2.090   5.847   0.946
 2568SOL    HW2 8604   2.007   5.711   0.978
 2569SOL     OW 8605   1.606   0.001   0.565
 2569SOL    HW1 8606   1.666   6.952   0.616
 2569SOL    HW2 8607   1.662   0.068   0.516
 2570SOL     OW 8608   0.572   6.079   4.620
 2570SOL    HW1 8609   0.589   6.073   4.522
 2570SOL    HW2 8610   0.514   6.158   4.640
 2571SOL     OW 8611   3.532   4.145   3.956
 2571SOL    HW1 8612   3.570   4.178   4.042
 2571SOL    HW2 8613   3.433   4.158   3.955
 2572SOL     OW 8614   1.630   5.266   2.049
 2572SOL    HW1 8615   1.623   5.341   2.115
 2572SOL    HW2 8616   1.689   5.294   1.973
 2573SOL     OW 8617   0.420   1.577   3.789
 2573SOL    HW1 8618   0.325   1.596   3.814
 2573SOL    HW2 8619   0.476   1.577   3.872
 2574SOL     OW 8620   0.767   3.735   2.446
 2574SOL    HW1 8621   0.853   3.695   2.476
 2574SOL    HW2 8622   0.704   3.662   2.418
 2575SOL     OW 8623   5.315   3.290   6.019
 2575SOL    HW1 8624   5.348   3.234   6.094
 2575SOL    HW2 8625   5.392   3.333   5.973
 2576SOL     OW 8626   1.743   7.002   3.023
 2576SOL    HW1 8627   1.751   0.022   3.117
 2576SOL    HW2 8628   1.797   6.918   3.013
 2577SOL     OW 8629   1.769   5.552   1.231
 2577SOL    HW1 8630   1.749   5.458   1.205
 2577SOL    HW2 8631   1.766   5.560   1.331
 2578SOL     OW 8632   4.218   2.241   4.338
 2578SOL    HW1 8633   4.285   2.175   4.304
 2578SOL    HW2 8634   4.161   2.274   4.262
 2579SOL     OW 8635   0.072   1.517   6.308
 2579SOL    HW1 8636   0.171   1.509   6.316
 2579SOL    HW2 8637   0.041   1.596   6.360
 2580SOL     OW 8638   1.536   1.700   6.065
 2580SOL    HW1 8639   1.612   1.664   6.118
 2580SOL    HW2 8640   1.520   1.641   5.985
 2581SOL     OW 8641   6.420   0.114   4.741
 2581SOL    HW1 8642   6.421   0.018   4.713
 2581SOL    HW2 8643   6.326   0.147   4.743
 2582SOL     OW 8644   0.432   5.775   2.821
 2582SOL    HW1 8645   0.441   5.819   2.732
 2582SOL    HW2 8646   0.519   5.780   2.871
 2583SOL     OW 8647   2.396   0.788   6.553
 2583SOL    HW1 8648   2.459   0.809   6.479
 2583SOL    HW2 8649   2.416   0.697   6.590
 2584SOL     OW 8650   5.375   6.751   2.731
 2584SOL    HW1 8651   5.456   6.727   2.679
 2584SOL    HW2 8652   5.366   6.850   2.735
 2585SOL     OW 8653   4.214   1.010   1.866
 2585SOL    HW1 8654   4.126   1.059   1.863
 2585SOL    HW2 8655   4.245   0.992   1.773
 2586SOL     OW 8656   6.424   1.276   4.046
 2586SOL    HW1 8657   6.523   1.270   4.058
 2586SOL    HW2 8658   6.394   1.369   4.067
 2587SOL     OW 8659   6.669   6.185   2.935
 2587SOL    HW1 8660   6.572   6.174   2.956
 2587SOL    HW2 8661   6.698   6.111   2.875
 2588SOL     OW 8662   5.274   0.097   1.898
 2588SOL    HW1 8663   5.246   0.118   1.992
 2588SOL    HW2 8664   5.333   0.171   1.864
 2589SOL     OW 8665   5.566   6.163   0.713
 2589SOL    HW1 8666   5.575   6.192   0.617
 2589SOL    HW2 8667   5.603   6.071   0.723
 2590SOL     OW 8668   3.564   6.639   3.162
 2590SOL    HW1 8669   3.577   6.543   3.188
 2590SOL    HW2 8670   3.493   6.645   3.092
 2591SOL     OW 8671   6.038   0.326   1.539
 2591SOL    HW1 8672   6.103   0.315   1.614
 2591SOL    HW2 8673   5.960   0.265   1.554
 2592SOL     OW 8674   3.282   4.647   1.510
 2592SOL    HW1 8675   3.228   4.707   1.450
 2592SOL    HW2 8676   3.220   4.597   1.571
 2593SOL     OW 8677   3.448   6.772   2.476
 2593SOL    HW1 8678   3.408   6.712   2.407
 2593SOL    HW2 8679   3.511   6.719   2.533
 2594SOL     OW 8680   1.270   6.755   6.526
 2594SOL    HW1 8681   1.320   6.839   6.505
 2594SOL    HW2 8682   1.277   6.692   6.449
 2595SOL     OW 8683   6.118   3.117   3.999
 2595SOL    HW1 8684   6.076   3.027   3.985
 2595SOL    HW2 8685   6.088   3.155   4.087
 2596SOL     OW 8686   4.072   2.345   1.355
 2596SOL    HW1 8687   4.031   2.330   1.445
 2596SOL    HW2 8688   4.171   2.359   1.366
 2597SOL     OW 8689   2.155   2.333   6.370
 2597SOL    HW1 8690   2.185   2.348   6.276
 2597SOL    HW2 8691   2.066   2.287   6.370
 2598SOL     OW 8692   5.951   1.861   3.124
 2598SOL    HW1 8693   5.883   1.876   3.052
 2598SOL    HW2 8694   6.023   1.801   3.089
 2599SOL     OW 8695   4.447   4.507   6.590
 2599SOL    HW1 8696   4.374   4.575   6.589
 2599SOL    HW2 8697   4.417   4.424   6.545
 2600SOL     OW 8698   6.721   3.100   3.630
 2600SOL    HW1 8699   6.761   3.021   3.586
 2600SOL    HW2 8700   6.781   3.133   3.703
 2601SOL     OW 8701   3.796   3.380   5.087
 2601SOL    HW1 8702   3.812   3.478   5.082
 2601SOL    HW2 8703   3.722   3.361   5.152
 2602SOL     OW 8704   6.320   5.982   5.721
 2602SOL    HW1 8705   6.277   5.975   5.631
 2602SOL    HW2 8706   6.414   5.948   5.717
 2603SOL     OW 8707   2.159   2.367   6.955
 2603SOL    HW1 8708   2.144   2.286   7.011
 2603SOL    HW2 8709   2.169   2.340   6.859
 2604SOL     OW 8710   6.088   1.755   1.684
 2604SOL    HW1 8711   6.148   1.697   1.629
 2604SOL    HW2 8712   6.040   1.699   1.751
 2605SOL     OW 8713   4.856   3.744   3.853
 2605SOL    HW1 8714   4.870   3.720   3.757
 2605SOL    HW2 8715   4.927   3.702   3.909
 2606SOL     OW 8716   6.781   4.632   0.960
 2606SOL    HW1 8717   6.859   4.570   0.951
 2606SOL    HW2 8718   6.720   4.599   1.032
 2607SOL     OW 8719   0.904   1.804   4.660
 2607SOL    HW1 8720   0.940   1.818   4.752
 2607SOL    HW2 8721   0.980   1.780   4.598
 2608SOL     OW 8722   5.466   6.933   0.602
 2608SOL    HW1 8723   5.507   6.922   0.693
 2608SOL    HW2 8724   5.519   6.879   0.536
 2609SOL     OW 8725   0.471   2.611   4.151
 2609SOL    HW1 8726   0.486   2.651   4.060
 2609SOL    HW2 8727   0.441   2.682   4.214
 2610SOL     OW 8728   5.302   5.494   5.148
 2610SOL    HW1 8729   5.369   5.481   5.075
 2610SOL    HW2 8730   5.324   5.578   5.198
 2611SOL     OW 8731   2.905   6.114   1.785
 2611SOL    HW1 8732   2.922   6.203   1.828
 2611SOL    HW2 8733   2.960   6.106   1.702
 2612SOL     OW 8734   6.478   6.928   5.216
 2612SOL    HW1 8735   6.542   7.004   5.211
 2612SOL    HW2 8736   6.486   6.871   5.135
 2613SOL     OW 8737   3.663   0.890   0.857
 2613SOL    HW1 8738   3.750   0.868   0.813
 2613SOL    HW2 8739   3.675   0.890   0.956
 2614SOL     OW 8740   6.615   6.373   6.790
 2614SOL    HW1 8741   6.578   6.280   6.792
 2614SOL    HW2 8742   6.662   6.388   6.703
 2615SOL     OW 8743   5.524   5.194   1.792
 2615SOL    HW1 8744   5.618   5.224   1.813
 2615SOL    HW2 8745   5.503   5.111   1.843
 2616SOL     OW 8746   3.859   3.438   2.524
 2616SOL    HW1 8747   3.899   3.386   2.599
 2616SOL    HW2 8748   3.800   3.378   2.470
 2617SOL     OW 8749   3.336   0.567   1.026
 2617SOL    HW1 8750   3.343   0.550   0.928
 2617SOL    HW2 8751   3.246   0.607   1.047
 2618SOL     OW 8752   0.770   0.710   0.302
 2618SOL    HW1 8753   0.855   0.719   0.250
 2618SOL    HW2 8754   0.791   0.691   0.398
 2619SOL     OW 8755   5.472   1.283   1.508
 2619SOL    HW1 8756   5.498   1.262   1.602
 2619SOL    HW2 8757   5.468   1.383   1.496
 2620SOL     OW 8758   1.521   4.994   4.211
 2620SOL    HW1 8759   1.546   4.996   4.308
 2620SOL    HW2 8760   1.546   4.906   4.171
 2621SOL     OW 8761   0.763   5.153   3.892
 2621SOL    HW1 8762   0.780   5.196   3.981
 2621SOL    HW2 8763   0.830   5.186   3.826
 2622SOL     OW 8764   2.818   3.181   6.169
 2622SOL    HW1 8765   2.776   3.095   6.140
 2622SOL    HW2 8766   2.850   3.232   6.089
 2623SOL     OW 8767   3.622   0.982   6.268
 2623SOL    HW1 8768   3.592   0.957   6.361
 2623SOL    HW2 8769   3.617   0.901   6.209
 2624SOL     OW 8770   0.032   1.871   3.908
 2624SOL    HW1 8771   0.077   1.897   3.993
 2624SOL    HW2 8772   6.974   1.937   3.886
 2625SOL     OW 8773   4.794   0.398   5.663
 2625SOL    HW1 8774   4.808   0.308   5.704
 2625SOL    HW2 8775   4.799   0.390   5.563
 2626SOL     OW 8776   2.463   0.261   2.229
 2626SOL    HW1 8777   2.485   0.195   2.301
 2626SOL    HW2 8778   2.365   0.280   2.229
 2627SOL     OW 8779   0.099   1.062   4.690
 2627SOL    HW1 8780   0.172   1.117   4.730
 2627SOL    HW2 8781   0.087   1.088   4.594
 2628SOL     OW 8782   3.840   5.896   6.282
 2628SOL    HW1 8783   3.889   5.978   6.253
 2628SOL    HW2 8784   3.891   5.815   6.253
 2629SOL     OW 8785   2.978   3.742   1.420
 2629SOL    HW1 8786   3.071   3.777   1.412
 2629SOL    HW2 8787   2.980   3.642   1.420
 2630SOL     OW 8788   2.881   2.225   2.367
 2630SOL    HW1 8789   2.905   2.257   2.275
 2630SOL    HW2 8790   2.788   2.255   2.389
 2631SOL     OW 8791   4.508   6.668   4.666
 2631SOL    HW1 8792   4.412   6.640   4.673
 2631SOL    HW2 8793   4.518   6.761   4.701
 2632SOL     OW 8794   5.805   1.419   1.391
 2632SOL    HW1 8795   5.836   1.486   1.324
 2632SOL    HW2 8796   5.795   1.463   1.480
 2633SOL     OW 8797   6.859   2.983   5.942
 2633SOL    HW1 8798   6.832   2.953   5.850
 2633SOL    HW2 8799   6.870   2.903   6.001
 2634SOL     OW 8800   3.048   5.139   1.225
 2634SOL    HW1 8801   3.144   5.123   1.200
 2634SOL    HW2 8802   2.992   5.062   1.192
 2635SOL     OW 8803   5.648   4.471   3.556
 2635SOL    HW1 8804   5.693   4.384   3.536
 2635SOL    HW2 8805   5.563   4.477   3.502
 2636SOL     OW 8806   5.641   0.186   5.131
 2636SOL    HW1 8807   5.660   0.217   5.225
 2636SOL    HW2 8808   5.576   0.248   5.088
 2637SOL     OW 8809   4.918   6.530   3.124
 2637SOL    HW1 8810   4.954   6.539   3.031
 2637SOL    HW2 8811   4.902   6.622   3.162
 2638SOL     OW 8812   5.657   5.631   0.602
 2638SOL    HW1 8813   5.603   5.553   0.632
 2638SOL    HW2 8814   5.720   5.601   0.530
 2639SOL     OW 8815   6.613   6.617   0.334
 2639SOL    HW1 8816   6.612   6.652   0.240
 2639SOL    HW2 8817   6.551   6.538   0.341
 2640SOL     OW 8818   6.277   0.185   6.481
 2640SOL    HW1 8819   6.275   0.282   6.458
 2640SOL    HW2 8820   6.184   0.151   6.494
 2641SOL     OW 8821   5.894   5.382   6.887
 2641SOL    HW1 8822   5.978   5.416   6.930
 2641SOL    HW2 8823   5.893   5.282   6.891
 2642SOL     OW 8824   6.650   0.150   3.259
 2642SOL    HW1 8825   6.726   0.182   3.316
 2642SOL    HW2 8826   6.608   0.070   3.302
 2643SOL     OW 8827   1.247   0.420   2.160
 2643SOL    HW1 8828   1.340   0.424   2.123
 2643SOL    HW2 8829   1.229   0.327   2.193
 2644SOL     OW 8830   0.754   5.616   6.392
 2644SOL    HW1 8831   0.691   5.682   6.350
 2644SOL    HW2 8832   0.707   5.528   6.403
 2645SOL     OW 8833   5.884   5.025   5.699
 2645SOL    HW1 8834   5.818   5.006   5.771
 2645SOL    HW2 8835   5.961   5.077   5.737
 2646SOL     OW 8836   6.545   6.157   0.092
 2646SOL    HW1 8837   6.468   6.220   0.099
 2646SOL    HW2 8838   6.514   6.064   0.113
 2647SOL     OW 8839   3.480   3.066   0.599
 2647SOL    HW1 8840   3.534   3.067   0.515
 2647SOL    HW2 8841   3.396   3.119   0.585
 2648SOL     OW 8842   3.565   1.099   3.020
 2648SOL    HW1 8843   3.639   1.091   3.088
 2648SOL    HW2 8844   3.587   1.043   2.940
 2649SOL     OW 8845   3.353   2.790   5.339
 2649SOL    HW1 8846   3.322   2.817   5.430
 2649SOL    HW2 8847   3.357   2.691   5.333
 2650SOL     OW 8848   0.041   6.596   1.921
 2650SOL    HW1 8849   0.138   6.579   1.902
 2650SOL    HW2 8850   0.031   6.679   1.974
 2651SOL     OW 8851   0.659   6.917   3.512
 2651SOL    HW1 8852   0.581   6.952   3.564
 2651SOL    HW2 8853   0.626   6.878   3.426
 2652SOL     OW 8854   3.099   3.028   2.546
 2652SOL    HW1 8855   3.038   2.970   2.493
 2652SOL    HW2 8856   3.187   3.035   2.499
 2653SOL     OW 8857   6.618   5.434   6.752
 2653SOL    HW1 8858   6.577   5.348   6.783
 2653SOL    HW2 8859   6.606   5.443   6.653
 2654SOL     OW 8860   5.160   1.989   6.087
 2654SOL    HW1 8861   5.242   1.945   6.123
 2654SOL    HW2 8862   5.183   2.039   6.003
 2655SOL     OW 8863   4.697   5.423   5.212
 2655SOL    HW1 8864   4.737   5.391   5.298
 2655SOL    HW2 8865   4.742   5.377   5.135
 2656SOL     OW 8866   5.161   3.421   3.891
 2656SOL    HW1 8867   5.086   3.368   3.854
 2656SOL    HW2 8868   5.129   3.513   3.915
 2657SOL     OW 8869   2.492   2.172   5.637
 2657SOL    HW1 8870   2.511   2.169   5.735
 2657SOL    HW2 8871   2.465   2.265   5.612
 2658SOL     OW 8872   5.435   4.595   5.825
 2658SOL    HW1 8873   5.353   4.613   5.770
 2658SOL    HW2 8874   5.500   4.541   5.772
 2659SOL     OW 8875   6.910   2.030   3.267
 2659SOL    HW1 8876   6.931   2.124   3.294
 2659SOL    HW2 8877   6.878   2.029   3.172
 2660SOL     OW 8878   6.425   1.883   2.898
 2660SOL    HW1 8879   6.486   1.849   2.826
 2660SOL    HW2 8880   6.422   1.983   2.894
 2661SOL     OW 8881   4.166   6.523   1.782
 2661SOL    HW1 8882   4.241   6.569   1.734
 2661SOL    HW2 8883   4.086   6.583   1.786
 2662SOL     OW 8884   3.745   0.018   3.834
 2662SOL    HW1 8885   3.782   6.971   3.903
 2662SOL    HW2 8886   3.686   6.981   3.771
 2663SOL     OW 8887   1.079   4.625   2.919
 2663SOL    HW1 8888   1.028   4.540   2.907
 2663SOL    HW2 8889   1.130   4.622   3.005
 2664SOL     OW 8890   4.079   3.700   1.970
 2664SOL    HW1 8891   4.056   3.756   2.049
 2664SOL    HW2 8892   4.120   3.757   1.899
 2665SOL     OW 8893   4.203   1.146   4.277
 2665SOL    HW1 8894   4.300   1.149   4.255
 2665SOL    HW2 8895   4.187   1.081   4.351
 2666SOL     OW 8896   5.500   6.172   2.092
 2666SOL    HW1 8897   5.460   6.238   2.155
 2666SOL    HW2 8898   5.598   6.161   2.112
 2667SOL     OW 8899   1.673   4.992   3.772
 2667SOL    HW1 8900   1.726   5.060   3.822
 2667SOL    HW2 8901   1.579   5.025   3.761
 2668SOL     OW 8902   6.639   2.566   5.691
 2668SOL    HW1 8903   6.644   2.632   5.616
 2668SOL    HW2 8904   6.653   2.474   5.655
 2669SOL     OW 8905   4.048   5.088   5.513
 2669SOL    HW1 8906   4.134   5.041   5.535
 2669SOL    HW2 8907   4.060   5.186   5.522
 2670SOL     OW 8908   1.768   0.424   6.074
 2670SOL    HW1 8909   1.703   0.489   6.034
 2670SOL    HW2 8910   1.803   0.364   6.002
 2671SOL     OW 8911   3.327   3.823   5.945
 2671SOL    HW1 8912   3.311   3.853   5.851
 2671SOL    HW2 8913   3.295   3.728   5.955
 2672SOL     OW 8914   0.869   3.860   0.547
 2672SOL    HW1 8915   0.787   3.853   0.605
 2672SOL    HW2 8916   0.929   3.782   0.566
 2673SOL     OW 8917   4.738   2.016   3.723
 2673SOL    HW1 8918   4.837   2.010   3.732
 2673SOL    HW2 8919   4.702   2.082   3.789
 2674SOL     OW 8920   5.826   5.435   5.618
 2674SOL    HW1 8921   5.865   5.504   5.679
 2674SOL    HW2 8922   5.893   5.363   5.602
 2675SOL     OW 8923   0.149   3.848   5.543
 2675SOL    HW1 8924   0.180   3.918   5.478
 2675SOL    HW2 8925   0.132   3.763   5.494
 2676SOL     OW 8926   4.124   0.336   2.058
 2676SOL    HW1 8927   4.065   0.362   2.135
 2676SOL    HW2 8928   4.174   0.252   2.082
 2677SOL     OW 8929   2.834   4.787   2.527
 2677SOL    HW1 8930   2.877   4.781   2.617
 2677SOL    HW2 8931   2.901   4.817   2.460
 2678SOL     OW 8932   0.008   6.142   6.386
 2678SOL    HW1 8933   6.982   6.079   6.320
 2678SOL    HW2 8934   0.108   6.137   6.382
 2679SOL     OW 8935   2.707   4.550   1.160
 2679SOL    HW1 8936   2.720   4.451   1.168
 2679SOL    HW2 8937   2.636   4.569   1.093
 2680SOL     OW 8938   0.921   1.930   1.488
 2680SOL    HW1 8939   1.018   1.951   1.501
 2680SOL    HW2 8940   0.865   1.999   1.535
 2681SOL     OW 8941   1.211   1.367   2.468
 2681SOL    HW1 8942   1.211   1.424   2.386
 2681SOL    HW2 8943   1.232   1.423   2.548
 2682SOL     OW 8944   6.430   2.455   3.360
 2682SOL    HW1 8945   6.487   2.449   3.442
 2682SOL    HW2 8946   6.484   2.431   3.279
 2683SOL     OW 8947   1.370   0.019   1.959
 2683SOL    HW1 8948   1.292   6.973   1.976
 2683SOL    HW2 8949   1.388   0.075   2.040
 2684SOL     OW 8950   2.604   5.892   2.637
 2684SOL    HW1 8951   2.655   5.865   2.720
 2684SOL    HW2 8952   2.507   5.899   2.659
 2685SOL     OW 8953   5.561   6.080   5.183
 2685SOL    HW1 8954   5.641   6.093   5.241
 2685SOL    HW2 8955   5.574   5.999   5.125
 2686SOL     OW 8956   0.992   3.138   4.445
 2686SOL    HW1 8957   0.940   3.053   4.452
 2686SOL    HW2 8958   1.088   3.116   4.425
 2687SOL     OW 8959   5.125   4.903   3.228
 2687SOL    HW1 8960   5.172   4.938   3.308
 2687SOL    HW2 8961   5.191   4.859   3.167
 2688SOL     OW 8962   3.271   5.314   5.974
 2688SOL    HW1 8963   3.338   5.358   6.034
 2688SOL    HW2 8964   3.318   5.268   5.899
 2689SOL     OW 8965   0.169   2.986   4.187
 2689SOL    HW1 8966   0.124   2.989   4.276
 2689SOL    HW2 8967   0.236   3.060   4.180
 2690SOL     OW 8968   2.888   3.675   3.177
 2690SOL    HW1 8969   2.832   3.701   3.256
 2690SOL    HW2 8970   2.882   3.577   3.163
 2691SOL     OW 8971   1.421   6.148   1.085
 2691SOL    HW1 8972   1.335   6.102   1.107
 2691SOL    HW2 8973   1.419   6.179   0.990
 2692SOL     OW 8974   6.755   5.560   3.130
 2692SOL    HW1 8975   6.803   5.587   3.213
 2692SOL    HW2 8976   6.820   5.517   3.067
 2693SOL     OW 8977   1.794   3.531   3.573
 2693SOL    HW1 8978   1.695   3.520   3.561
 2693SOL    HW2 8979   1.826   3.471   3.646
 2694SOL     OW 8980   2.800   0.765   2.925
 2694SOL    HW1 8981   2.789   0.683   2.871
 2694SOL    HW2 8982   2.789   0.743   3.022
 2695SOL     OW 8983   3.879   2.181   2.809
 2695SOL    HW1 8984   3.968   2.225   2.820
 2695SOL    HW2 8985   3.858   2.170   2.712
 2696SOL     OW 8986   4.194   3.312   5.261
 2696SOL    HW1 8987   4.124   3.243   5.276
 2696SOL    HW2 8988   4.282   3.278   5.296
 2697SOL     OW 8989   2.275   2.059   4.409
 2697SOL    HW1 8990   2.276   2.159   4.401
 2697SOL    HW2 8991   2.225   2.033   4.492
 2698SOL     OW 8992   2.235   3.373   6.667
 2698SOL    HW1 8993   2.323   3.351   6.709
 2698SOL    HW2 8994   2.178   3.423   6.732
 2699SOL     OW 8995   3.712   5.673   2.129
 2699SOL    HW1 8996   3.777   5.734   2.083
 2699SOL    HW2 8997   3.634   5.726   2.162
 2700SOL     OW 8998   1.254   3.609   2.959
 2700SOL    HW1 8999   1.247   3.708   2.942
 2700SOL    HW2 9000   1.174   3.578   3.010
 2701SOL     OW 9001   3.412   6.920   6.174
 2701SOL    HW1 9002   3.347   6.844   6.171
 2701SOL    HW2 9003   3.438   6.946   6.082
 2702SOL     OW 9004   0.160   6.931   2.922
 2702SOL    HW1 9005   0.067   6.950   2.956
 2702SOL    HW2 9006   0.191   7.007   2.865
 2703SOL     OW 9007   1.570   1.378   3.092
 2703SOL    HW1 9008   1.593   1.399   3.187
 2703SOL    HW2 9009   1.574   1.461   3.037
 2704SOL     OW 9010   1.619   6.016   0.507
 2704SOL    HW1 9011   1.582   5.933   0.465
 2704SOL    HW2 9012   1.715   6.025   0.483
 2705SOL     OW 9013   0.431   4.684   2.678
 2705SOL    HW1 9014   0.457   4.629   2.598
 2705SOL    HW2 9015   0.346   4.647   2.717
 2706SOL     OW 9016   6.599   1.717   2.086
 2706SOL    HW1 9017   6.554   1.729   1.998
 2706SOL    HW2 9018   6.531   1.705   2.158
 2707SOL     OW 9019   2.364   1.361   5.514
 2707SOL    HW1 9020   2.382   1.459   5.502
 2707SOL    HW2 9021   2.304   1.348   5.593
 2708SOL     OW 9022   1.815   3.284   0.820
 2708SOL    HW1 9023   1.873   3.214   0.862
 2708SOL    HW2 9024   1.865   3.329   0.746
 2709SOL     OW 9025   4.290   6.400   1.986
 2709SOL    HW1 9026   4.211   6.395   2.047
 2709SOL    HW2 9027   4.259   6.428   1.895
 2710SOL     OW 9028   6.028   4.046   2.485
 2710SOL    HW1 9029   6.074   3.958   2.468
 2710SOL    HW2 9030   5.999   4.051   2.580
 2711SOL     OW 9031   1.118   6.934   2.049
 2711SOL    HW1 9032   1.044   6.962   1.988
 2711SOL    HW2 9033   1.102   6.839   2.077
 2712SOL     OW 9034   3.303   5.071   1.156
 2712SOL    HW1 9035   3.316   4.976   1.127
 2712SOL    HW2 9036   3.357   5.088   1.239
 2713SOL     OW 9037   1.906   2.961   4.778
 2713SOL    HW1 9038   1.966   2.960   4.859
 2713SOL    HW2 9039   1.899   3.055   4.744
 2714SOL     OW 9040   5.401   6.679   5.412
 2714SOL    HW1 9041   5.411   6.760   5.470
 2714SOL    HW2 9042   5.492   6.647   5.383
 2715SOL     OW 9043   6.701   0.631   6.895
 2715SOL    HW1 9044   6.641   0.619   6.974
 2715SOL    HW2 9045   6.795   0.611   6.921
 2716SOL     OW 9046   0.655   6.591   2.789
 2716SOL    HW1 9047   0.647   6.597   2.889
 2716SOL    HW2 9048   0.657   6.494   2.762
 2717SOL     OW 9049   1.171   0.659   2.667
 2717SOL    HW1 9050   1.180   0.719   2.588
 2717SOL    HW2 9051   1.082   0.612   2.663
 2718SOL     OW 9052   1.246   4.868   3.321
 2718SOL    HW1 9053   1.266   4.915   3.407
 2718SOL    HW2 9054   1.258   4.769   3.334
 2719SOL     OW 9055   4.087   4.779   2.454
 2719SOL    HW1 9056   4.119   4.871   2.429
 2719SOL    HW2 9057   4.018   4.787   2.526
 2720SOL     OW 9058   1.130   5.590   3.964
 2720SOL    HW1 9059   1.113   5.628   4.055
 2720SOL    HW2 9060   1.056   5.527   3.940
 2721SOL     OW 9061   4.526   6.918   4.726
 2721SOL    HW1 9062   4.622   6.922   4.756
 2721SOL    HW2 9063   4.501   7.005   4.684
 2722SOL     OW 9064   1.386   5.736   1.257
 2722SOL    HW1 9065   1.364   5.713   1.162
 2722SOL    HW2 9066   1.466   5.796   1.260
 2723SOL     OW 9067   1.262   1.227   5.191
 2723SOL    HW1 9068   1.254   1.213   5.290
 2723SOL    HW2 9069   1.356   1.249   5.168
 2724SOL     OW 9070   2.954   5.620   6.313
 2724SOL    HW1 9071   2.990   5.566   6.237
 2724SOL    HW2 9072   2.909   5.702   6.277
 2725SOL     OW 9073   3.204   4.932   3.372
 2725SOL    HW1 9074   3.227   4.911   3.466
 2725SOL    HW2 9075   3.112   4.896   3.351
 2726SOL     OW 9076   4.656   5.885   2.280
 2726SOL    HW1 9077   4.709   5.833   2.348
 2726SOL    HW2 9078   4.692   5.865   2.188
 2727SOL     OW 9079   2.276   5.290   3.380
 2727SOL    HW1 9080   2.333   5.364   3.417
 2727SOL    HW2 9081   2.299   5.276   3.284
 2728SOL     OW 9082   3.696   0.017   5.448
 2728SOL    HW1 9083   3.677   0.111   5.420
 2728SOL    HW2 9084   3.795   0.004   5.456
 2729SOL     OW 9085   6.521   4.847   2.475
 2729SOL    HW1 9086   6.506   4.849   2.574
 2729SOL    HW2 9087   6.433   4.832   2.429
 2730SOL     OW 9088   1.430   4.388   1.471
 2730SOL    HW1 9089   1.399   4.296   1.446
 2730SOL    HW2 9090   1.367   4.427   1.538
 2731SOL     OW 9091   2.858   3.863   1.658
 2731SOL    HW1 9092   2.898   3.874   1.749
 2731SOL    HW2 9093   2.914   3.801   1.603
 2732SOL     OW 9094   5.466   2.332   3.434
 2732SOL    HW1 9095   5.553   2.300   3.472
 2732SOL    HW2 9096   5.399   2.258   3.439
 2733SOL     OW 9097   1.599   0.659   5.416
 2733SOL    HW1 9098   1.601   0.593   5.341
 2733SOL    HW2 9099   1.619   0.612   5.502
 2734SOL     OW 9100   2.531   6.041   3.692
 2734SOL    HW1 9101   2.439   6.080   3.679
 2734SOL    HW2 9102   2.531   5.947   3.659
 2735SOL     OW 9103   2.261   4.667   1.711
 2735SOL    HW1 9104   2.208   4.749   1.687
 2735SOL    HW2 9105   2.208   4.585   1.689
 2736SOL     OW 9106   3.884   7.001   6.540
 2736SOL    HW1 9107   3.801   0.043   6.537
 2736SOL    HW2 9108   3.866   6.918   6.591
 2737SOL     OW 9109   4.375   3.655   5.993
 2737SOL    HW1 9110   4.345   3.745   5.964
 2737SOL    HW2 9111   4.423   3.610   5.917
 2738SOL     OW 9112   5.932   4.766   4.159
 2738SOL    HW1 9113   5.878   4.753   4.076
 2738SOL    HW2 9114   5.873   4.796   4.234
 2739SOL     OW 9115   5.708   3.632   1.021
 2739SOL    HW1 9116   5.615   3.612   0.990
 2739SOL    HW2 9117   5.716   3.608   1.118
 2740SOL     OW 9118   6.739   2.557   3.078
 2740SOL    HW1 9119   6.796   2.529   3.155
 2740SOL    HW2 9120   6.775   2.641   3.037
 2741SOL     OW 9121   1.421   2.072   5.823
 2741SOL    HW1 9122   1.502   2.021   5.795
 2741SOL    HW2 9123   1.418   2.160   5.775
 2742SOL     OW 9124   1.845   6.556   6.172
 2742SOL    HW1 9125   1.899   6.509   6.102
 2742SOL    HW2 9126   1.805   6.639   6.134
 2743SOL     OW 9127   5.742   4.773   0.668
 2743SOL    HW1 9128   5.656   4.774   0.616
 2743SOL    HW2 9129   5.722   4.791   0.764
 2744SOL     OW 9130   4.090   0.713   6.766
 2744SOL    HW1 9131   4.060   0.643   6.701
 2744SOL    HW2 9132   4.150   0.778   6.720
 2745SOL     OW 9133   2.419   5.667   1.161
 2745SOL    HW1 9134   2.344   5.620   1.116
 2745SOL    HW2 9135   2.382   5.738   1.221
 2746SOL     OW 9136   1.694   1.928   6.136
 2746SOL    HW1 9137   1.618   1.868   6.109
 2746SOL    HW2 9138   1.716   1.912   6.232
 2747SOL     OW 9139   5.411   5.808   4.141
 2747SOL    HW1 9140   5.320   5.811   4.100
 2747SOL    HW2 9141   5.438   5.900   4.169
 2748SOL     OW 9142   3.755   1.320   4.320
 2748SOL    HW1 9143   3.661   1.288   4.323
 2748SOL    HW2 9144   3.788   1.338   4.413
 2749SOL     OW 9145   4.535   4.937   3.916
 2749SOL    HW1 9146   4.533   4.884   3.831
 2749SOL    HW2 9147   4.516   5.033   3.896
 2750SOL     OW 9148   0.422   6.036   1.685
 2750SOL    HW1 9149   0.402   6.131   1.708
 2750SOL    HW2 9150   0.428   5.982   1.769
 2751SOL     OW 9151   1.832   6.935   0.194
 2751SOL    HW1 9152   1.839   0.016   0.163
 2751SOL    HW2 9153   1.922   6.892   0.190
 2752SOL     OW 9154   6.593   6.158   5.764
 2752SOL    HW1 9155   6.534   6.206   5.699
 2752SOL    HW2 9156   6.587   6.060   5.748
 2753SOL     OW 9157   3.017   5.884   5.090
 2753SOL    HW1 9158   3.071   5.940   5.027
 2753SOL    HW2 9159   2.922   5.914   5.089
 2754SOL     OW 9160   0.980   5.948   4.209
 2754SOL    HW1 9161   0.938   5.954   4.300
 2754SOL    HW2 9162   1.031   5.862   4.201
 2755SOL     OW 9163   3.302   5.809   2.327
 2755SOL    HW1 9164   3.251   5.835   2.245
 2755SOL    HW2 9165   3.253   5.839   2.408
 2756SOL     OW 9166   0.414   3.006   5.376
 2756SOL    HW1 9167   0.439   2.999   5.279
 2756SOL    HW2 9168   0.363   2.924   5.403
 2757SOL     OW 9169   4.328   3.349   6.547
 2757SOL    HW1 9170   4.267   3.367   6.469
 2757SOL    HW2 9171   4.289   3.391   6.629
 2758SOL     OW 9172   6.931   6.797   1.727
 2758SOL    HW1 9173   6.995   6.724   1.704
 2758SOL    HW2 9174   6.878   6.821   1.645
 2759SOL     OW 9175   3.659   3.457   5.631
 2759SOL    HW1 9176   3.731   3.398   5.666
 2759SOL    HW2 9177   3.689   3.553   5.637
 2760SOL     OW 9178   5.981   5.902   2.579
 2760SOL    HW1 9179   6.008   5.880   2.673
 2760SOL    HW2 9180   5.990   6.001   2.565
 2761SOL     OW 9181   1.384   3.201   3.451
 2761SOL    HW1 9182   1.401   3.166   3.359
 2761SOL    HW2 9183   1.460   3.175   3.511
 2762SOL     OW 9184   3.065   2.131   0.686
 2762SOL    HW1 9185   3.158   2.097   0.681
 2762SOL    HW2 9186   3.060   2.207   0.751
 2763SOL     OW 9187   6.323   1.530   4.129
 2763SOL    HW1 9188   6.339   1.523   4.228
 2763SOL    HW2 9189   6.320   1.626   4.103
 2764SOL     OW 9190   0.297   3.335   3.259
 2764SOL    HW1 9191   0.201   3.345   3.284
 2764SOL    HW2 9192   0.304   3.296   3.167
 2765SOL     OW 9193   5.689   6.552   6.409
 2765SOL    HW1 9194   5.673   6.648   6.431
 2765SOL    HW2 9195   5.787   6.533   6.411
 2766SOL     OW 9196   4.437   6.833   0.177
 2766SOL    HW1 9197   4.468   6.747   0.138
 2766SOL    HW2 9198   4.493   6.908   0.142
 2767SOL     OW 9199   0.748   5.148   6.269
 2767SOL    HW1 9200   0.697   5.168   6.353
 2767SOL    HW2 9201   0.694   5.176   6.190
 2768SOL     OW 9202   4.156   6.923   1.605
 2768SOL    HW1 9203   4.219   6.895   1.533
 2768SOL    HW2 9204   4.108   6.843   1.641
 2769SOL     OW 9205   0.583   4.819   5.601
 2769SOL    HW1 9206   0.565   4.796   5.506
 2769SOL    HW2 9207   0.634   4.905   5.606
 2770SOL     OW 9208   2.471   6.156   0.837
 2770SOL    HW1 9209   2.391   6.099   0.815
 2770SOL    HW2 9210   2.458   6.199   0.926
 2771SOL     OW 9211   4.354   0.357   5.140
 2771SOL    HW1 9212   4.311   0.370   5.229
 2771SOL    HW2 9213   4.451   0.382   5.145
 2772SOL     OW 9214   4.583   0.970   3.546
 2772SOL    HW1 9215   4.630   0.908   3.609
 2772SOL    HW2 9216   4.581   0.930   3.454
 2773SOL     OW 9217   5.838   2.500   4.530
 2773SOL    HW1 9218   5.848   2.550   4.616
 2773SOL    HW2 9219   5.928   2.482   4.491
 2774SOL     OW 9220   5.631   1.780   4.258
 2774SOL    HW1 9221   5.698   1.736   4.199
 2774SOL    HW2 9222   5.658   1.769   4.354
 2775SOL     OW 9223   6.792   3.194   4.025
 2775SOL    HW1 9224   6.883   3.231   4.043
 2775SOL    HW2 9225   6.723   3.261   4.051
 2776SOL     OW 9226   5.197   4.946   6.313
 2776SOL    HW1 9227   5.163   4.977   6.224
 2776SOL    HW2 9228   5.208   4.847   6.311
 2777SOL     OW 9229   2.439   2.096   6.592
 2777SOL    HW1 9230   2.535   2.123   6.591
 2777SOL    HW2 9231   2.397   2.121   6.679
 2778SOL     OW 9232   2.559   0.840   6.325
 2778SOL    HW1 9233   2.595   0.749   6.308
 2778SOL    HW2 9234   2.499   0.867   6.249
 2779SOL     OW 9235   4.839   0.885   1.266
 2779SOL    HW1 9236   4.746   0.916   1.251
 2779SOL    HW2 9237   4.844   0.832   1.351
 2780SOL     OW 9238   0.094   1.257   4.942
 2780SOL    HW1 9239   0.158   1.194   4.986
 2780SOL    HW2 9240   0.007   1.256   4.991
 2781SOL     OW 9241   5.627   0.395   3.644
 2781SOL    HW1 9242   5.556   0.325   3.638
 2781SOL    HW2 9243   5.643   0.419   3.740
 2782SOL     OW 9244   5.355   0.745   5.946
 2782SOL    HW1 9245   5.447   0.750   5.982
 2782SOL    HW2 9246   5.289   0.754   6.020
 2783SOL     OW 9247   6.206   3.691   1.835
 2783SOL    HW1 9248   6.139   3.764   1.833
 2783SOL    HW2 9249   6.285   3.719   1.889
 2784SOL     OW 9250   0.851   2.994   1.012
 2784SOL    HW1 9251   0.793   2.998   0.930
 2784SOL    HW2 9252   0.869   2.899   1.035
 2785SOL     OW 9253   6.430   3.335   2.368
 2785SOL    HW1 9254   6.361   3.325   2.440
 2785SOL    HW2 9255   6.391   3.388   2.292
 2786SOL     OW 9256   0.958   6.616   6.515
 2786SOL    HW1 9257   1.035   6.602   6.452
 2786SOL    HW2 9258   0.897   6.686   6.478
 2787SOL     OW 9259   0.478   5.823   6.579
 2787SOL    HW1 9260   0.518   5.822   6.487
 2787SOL    HW2 9261   0.435   5.734   6.597
 2788SOL     OW 9262   2.588   0.148   6.102
 2788SOL    HW1 9263   2.606   0.233   6.053
 2788SOL    HW2 9264   2.609   0.160   6.199
 2789SOL     OW 9265   1.254   2.243   4.671
 2789SOL    HW1 9266   1.353   2.233   4.665
 2789SOL    HW2 9267   1.231   2.336   4.700
 2790SOL     OW 9268   1.000   5.396   1.745
 2790SOL    HW1 9269   0.982   5.490   1.775
 2790SOL    HW2 9270   0.941   5.333   1.795
 2791SOL     OW 9271   0.809   2.974   3.869
 2791SOL    HW1 9272   0.858   2.887   3.866
 2791SOL    HW2 9273   0.859   3.041   3.814
 2792SOL     OW 9274   3.561   1.952   6.247
 2792SOL    HW1 9275   3.556   1.998   6.336
 2792SOL    HW2 9276   3.513   1.865   6.251
 2793SOL     OW 9277   3.830   3.605   0.509
 2793SOL    HW1 9278   3.896   3.534   0.534
 2793SOL    HW2 9279   3.880   3.689   0.484
 2794SOL     OW 9280   1.579   2.621   0.195
 2794SOL    HW1 9281   1.535   2.707   0.221
 2794SOL    HW2 9282   1.560   2.552   0.265
 2795SOL     OW 9283   1.703   6.185   1.059
 2795SOL    HW1 9284   1.716   6.262   0.996
 2795SOL    HW2 9285   1.608   6.155   1.055
 2796SOL     OW 9286   1.732   6.176   6.819
 2796SOL    HW1 9287   1.805   6.227   6.865
 2796SOL    HW2 9288   1.725   6.206   6.724
 2797SOL     OW 9289   5.301   4.763   3.056
 2797SOL    HW1 9290   5.396   4.779   3.083
 2797SOL    HW2 9291   5.296   4.745   2.958
 2798SOL     OW 9292   5.346   1.018   1.869
 2798SOL    HW1 9293   5.289   1.031   1.788
 2798SOL    HW2 9294   5.305   0.947   1.927
 2799SOL     OW 9295   3.549   6.809   4.433
 2799SOL    HW1 9296   3.636   6.811   4.483
 2799SOL    HW2 9297   3.506   6.719   4.447
 2800SOL     OW 9298   4.970   0.676   6.541
 2800SOL    HW1 9299   5.049   0.615   6.546
 2800SOL    HW2 9300   4.892   0.635   6.589
 2801SOL     OW 9301   0.427   4.400   3.985
 2801SOL    HW1 9302   0.517   4.443   3.988
 2801SOL    HW2 9303   0.438   4.300   3.983
 2802SOL     OW 9304   1.663   5.150   5.014
 2802SOL    HW1 9305   1.620   5.107   5.094
 2802SOL    HW2 9306   1.706   5.236   5.042
 2803SOL     OW 9307   3.642   2.425   6.159
 2803SOL    HW1 9308   3.721   2.417   6.099
 2803SOL    HW2 9309   3.671   2.409   6.254
 2804SOL     OW 9310   6.979   2.506   3.586
 2804SOL    HW1 9311   0.028   2.565   3.534
 2804SOL    HW2 9312   0.017   2.444   3.644
 2805SOL     OW 9313   3.412   3.782   0.885
 2805SOL    HW1 9314   3.362   3.707   0.927
 2805SOL    HW2 9315   3.348   3.853   0.856
 2806SOL     OW 9316   0.339   2.941   5.844
 2806SOL    HW1 9317   0.385   3.025   5.873
 2806SOL    HW2 9318   0.401   2.863   5.859
 2807SOL     OW 9319   4.255   1.378   3.926
 2807SOL    HW1 9320   4.185   1.311   3.950
 2807SOL    HW2 9321   4.317   1.339   3.858
 2808SOL     OW 9322   0.744   5.342   5.741
 2808SOL    HW1 9323   0.759   5.348   5.840
 2808SOL    HW2 9324   0.780   5.256   5.707
 2809SOL     OW 9325   6.762   5.659   1.817
 2809SOL    HW1 9326   6.734   5.582   1.875
 2809SOL    HW2 9327   6.851   5.692   1.846
 2810SOL     OW 9328   1.566   6.899   2.810
 2810SOL    HW1 9329   1.618   6.848   2.741
 2810SOL    HW2 9330   1.619   6.903   2.895
 2811SOL     OW 9331   1.203   1.310   0.923
 2811SOL    HW1 9332   1.134   1.341   0.988
 2811SOL    HW2 9333   1.215   1.211   0.931
 2812SOL     OW 9334   1.507   2.149   0.575
 2812SOL    HW1 9335   1.546   2.093   0.502
 2812SOL    HW2 9336   1.577   2.166   0.645
 2813SOL     OW 9337   0.697   3.273   1.984
 2813SOL    HW1 9338   0.665   3.256   2.078
 2813SOL    HW2 9339   0.797   3.268   1.982
 2814SOL     OW 9340   2.646   3.929   6.591
 2814SOL    HW1 9341   2.746   3.922   6.593
 2814SOL    HW2 9342   2.617   4.012   6.639
 2815SOL     OW 9343   6.745   5.505   4.484
 2815SOL    HW1 9344   6.822   5.444   4.501
 2815SOL    HW2 9345   6.675   5.457   4.431
 2816SOL     OW 9346   0.705   5.782   4.859
 2816SOL    HW1 9347   0.728   5.778   4.762
 2816SOL    HW2 9348   0.608   5.802   4.870
 2817SOL     OW 9349   3.208   0.861   2.541
 2817SOL    HW1 9350   3.187   0.826   2.449
 2817SOL    HW2 9351   3.199   0.960   2.541
 2818SOL     OW 9352   1.849   0.713   0.403
 2818SOL    HW1 9353   1.812   0.733   0.312
 2818SOL    HW2 9354   1.946   0.690   0.396
 2819SOL     OW 9355   0.641   0.381   6.550
 2819SOL    HW1 9356   0.570   0.310   6.546
 2819SOL    HW2 9357   0.611   0.454   6.611
 2820SOL     OW 9358   1.522   1.859   0.068
 2820SOL    HW1 9359   1.506   1.944   0.017
 2820SOL    HW2 9360   1.441   1.838   0.124
 2821SOL     OW 9361   3.170   3.470   6.272
 2821SOL    HW1 9362   3.175   3.389   6.213
 2821SOL    HW2 9363   3.145   3.443   6.365
 2822SOL     OW 9364   4.964   2.688   0.336
 2822SOL    HW1 9365   5.002   2.726   0.251
 2822SOL    HW2 9366   4.972   2.588   0.334
 2823SOL     OW 9367   4.703   3.393   1.675
 2823SOL    HW1 9368   4.606   3.413   1.691
 2823SOL    HW2 9369   4.711   3.322   1.606
 2824SOL     OW 9370   1.063   4.469   4.847
 2824SOL    HW1 9371   0.998   4.528   4.895
 2824SOL    HW2 9372   1.111   4.522   4.777
 2825SOL     OW 9373   5.121   1.276   5.985
 2825SOL    HW1 9374   5.078   1.208   6.044
 2825SOL    HW2 9375   5.162   1.348   6.041
 2826SOL     OW 9376   2.575   2.834   6.705
 2826SOL    HW1 9377   2.503   2.778   6.664
 2826SOL    HW2 9378   2.593   2.913   6.646
 2827SOL     OW 9379   5.633   1.886   6.762
 2827SOL    HW1 9380   5.536   1.875   6.740
 2827SOL    HW2 9381   5.684   1.806   6.730
 2828SOL     OW 9382   1.683   3.354   1.444
 2828SOL    HW1 9383   1.668   3.292   1.520
 2828SOL    HW2 9384   1.774   3.339   1.405
 2829SOL     OW 9385   3.312   3.670   1.981
 2829SOL    HW1 9386   3.369   3.591   2.006
 2829SOL    HW2 9387   3.297   3.727   2.062
 2830SOL     OW 9388   2.929   6.195   4.645
 2830SOL    HW1 9389   3.000   6.165   4.581
 2830SOL    HW2 9390   2.859   6.123   4.653
 2831SOL     OW 9391   6.454   1.724   1.864
 2831SOL    HW1 9392   6.385   1.654   1.884
 2831SOL    HW2 9393   6.518   1.689   1.795
 2832SOL     OW 9394   0.875   3.887   2.777
 2832SOL    HW1 9395   0.862   3.800   2.824
 2832SOL    HW2 9396   0.787   3.923   2.747
 2833SOL     OW 9397   0.728   2.721   2.705
 2833SOL    HW1 9398   0.710   2.708   2.607
 2833SOL    HW2 9399   0.750   2.817   2.721
 2834SOL     OW 9400   3.804   6.739   4.277
 2834SOL    HW1 9401   3.879   6.716   4.215
 2834SOL    HW2 9402   3.829   6.820   4.331
 2835SOL     OW 9403   5.964   0.772   6.530
 2835SOL    HW1 9404   5.947   0.708   6.605
 2835SOL    HW2 9405   5.949   0.865   6.562
 2836SOL     OW 9406   3.268   5.960   2.859
 2836SOL    HW1 9407   3.323   5.949   2.777
 2836SOL    HW2 9408   3.190   5.896   2.856
 2837SOL     OW 9409   5.018   4.417   1.525
 2837SOL    HW1 9410   4.998   4.504   1.569
 2837SOL    HW2 9411   5.070   4.360   1.589
 2838SOL     OW 9412   6.911   4.022   5.921
 2838SOL    HW1 9413   6.856   4.103   5.901
 2838SOL    HW2 9414   6.976   4.006   5.847
 2839SOL     OW 9415   5.903   3.130   5.405
 2839SOL    HW1 9416   5.901   3.172   5.496
 2839SOL    HW2 9417   5.815   3.089   5.385
 2840SOL     OW 9418   5.985   6.484   3.953
 2840SOL    HW1 9419   5.980   6.578   3.919
 2840SOL    HW2 9420   5.956   6.482   4.049
 2841SOL     OW 9421   5.642   4.063   2.318
 2841SOL    HW1 9422   5.725   4.105   2.355
 2841SOL    HW2 9423   5.667   3.981   2.265
 2842SOL     OW 9424   0.854   6.758   3.625
 2842SOL    HW1 9425   0.770   6.809   3.606
 2842SOL    HW2 9426   0.868   6.689   3.554
 2843SOL     OW 9427   2.411   2.379   3.360
 2843SOL    HW1 9428   2.427   2.300   3.301
 2843SOL    HW2 9429   2.321   2.370   3.403
 2844SOL     OW 9430   4.878   3.615   0.738
 2844SOL    HW1 9431   4.943   3.638   0.811
 2844SOL    HW2 9432   4.918   3.637   0.649
 2845SOL     OW 9433   2.392   1.473   1.797
 2845SOL    HW1 9434   2.339   1.518   1.724
 2845SOL    HW2 9435   2.346   1.487   1.885
 2846SOL     OW 9436   6.539   0.162   6.602
 2846SOL    HW1 9437   6.441   0.168   6.583
 2846SOL    HW2 9438   6.556   0.085   6.664
 2847SOL     OW 9439   4.820   5.703   1.077
 2847SOL    HW1 9440   4.739   5.752   1.044
 2847SOL    HW2 9441   4.792   5.614   1.113
 2848SOL     OW 9442   0.594   4.333   5.544
 2848SOL    HW1 9443   0.502   4.363   5.519
 2848SOL    HW2 9444   0.661   4.396   5.505
 2849SOL     OW 9445   5.442   0.593   1.750
 2849SOL    HW1 9446   5.358   0.586   1.804
 2849SOL    HW2 9447   5.420   0.584   1.653
 2850SOL     OW 9448   1.192   0.211   1.885
 2850SOL    HW1 9449   1.254   0.138   1.914
 2850SOL    HW2 9450   1.244   0.295   1.870
 2851SOL     OW 9451   2.995   3.247   1.131
 2851SOL    HW1 9452   3.072   3.185   1.121
 2851SOL    HW2 9453   2.909   3.196   1.125
 2852SOL     OW 9454   0.102   5.114   5.728
 2852SOL    HW1 9455   0.160   5.188   5.761
 2852SOL    HW2 9456   0.032   5.094   5.797
 2853SOL     OW 9457   0.088   4.346   5.460
 2853SOL    HW1 9458   0.009   4.305   5.505
 2853SOL    HW2 9459   0.056   4.406   5.386
 2854SOL     OW 9460   3.193   0.778   6.487
 2854SOL    HW1 9461   3.241   0.709   6.434
 2854SOL    HW2 9462   3.120   0.735   6.540
 2855SOL     OW 9463   2.205   1.167   4.211
 2855SOL    HW1 9464   2.149   1.122   4.281
 2855SOL    HW2 9465   2.166   1.256   4.188
 2856SOL     OW 9466   0.385   5.613   3.835
 2856SOL    HW1 9467   0.309   5.662   3.877
 2856SOL    HW2 9468   0.430   5.556   3.904
 2857SOL     OW 9469   6.912   4.378   0.888
 2857SOL    HW1 9470   7.011   4.385   0.873
 2857SOL    HW2 9471   6.892   4.293   0.937
 2858SOL     OW 9472   5.149   4.683   2.192
 2858SOL    HW1 9473   5.096   4.606   2.228
 2858SOL    HW2 9474   5.242   4.653   2.171
 2859SOL     OW 9475   5.476   5.172   1.490
 2859SOL    HW1 9476   5.478   5.185   1.589
 2859SOL    HW2 9477   5.394   5.120   1.465
 2860SOL     OW 9478   1.079   0.290   2.825
 2860SOL    HW1 9479   1.051   0.366   2.767
 2860SOL    HW2 9480   1.021   0.287   2.907
 2861SOL     OW 9481   4.977   4.245   5.983
 2861SOL    HW1 9482   4.997   4.213   6.075
 2861SOL    HW2 9483   5.056   4.296   5.947
 2862SOL     OW 9484   4.794   1.824   0.673
 2862SOL    HW1 9485   4.843   1.899   0.630
 2862SOL    HW2 9486   4.722   1.860   0.732
 2863SOL     OW 9487   6.001   2.286   4.960
 2863SOL    HW1 9488   6.049   2.345   4.896
 2863SOL    HW2 9489   6.067   2.245   5.023
 2864SOL     OW 9490   3.885   4.151   0.495
 2864SOL    HW1 9491   3.872   4.198   0.582
 2864SOL    HW2 9492   3.876   4.216   0.420
 2865SOL     OW 9493   5.491   5.294   5.332
 2865SOL    HW1 9494   5.400   5.333   5.347
 2865SOL    HW2 9495   5.482   5.202   5.295
 2866SOL     OW 9496   3.533   4.595   0.674
 2866SOL    HW1 9497   3.555   4.688   0.644
 2866SOL    HW2 9498   3.540   4.591   0.774
 2867SOL     OW 9499   6.280   6.327   3.001
 2867SOL    HW1 9500   6.200   6.386   3.002
 2867SOL    HW2 9501   6.361   6.380   2.974
 2868SOL     OW 9502   0.244   0.253   5.803
 2868SOL    HW1 9503   0.276   0.168   5.844
 2868SOL    HW2 9504   0.321   0.315   5.791
 2869SOL     OW 9505   6.098   4.653   3.890
 2869SOL    HW1 9506   6.149   4.736   3.911
 2869SOL    HW2 9507   6.032   4.671   3.818
 2870SOL     OW 9508   6.992   1.669   1.666
 2870SOL    HW1 9509   7.006   1.717   1.579
 2870SOL    HW2 9510   7.003   1.734   1.742
 2871SOL     OW 9511   4.978   1.638   2.701
 2871SOL    HW1 9512   5.068   1.628   2.743
 2871SOL    HW2 9513   4.914   1.675   2.769
 2872SOL     OW 9514   2.176   2.175   2.392
 2872SOL    HW1 9515   2.155   2.272   2.384
 2872SOL    HW2 9516   2.254   2.153   2.334
 2873SOL     OW 9517   1.228   0.279   1.164
 2873SOL    HW1 9518   1.167   0.354   1.139
 2873SOL    HW2 9519   1.236   0.274   1.264
 2874SOL     OW 9520   1.930   1.598   3.277
 2874SOL    HW1 9521   2.013   1.650   3.297
 2874SOL    HW2 9522   1.937   1.507   3.318
 2875SOL     OW 9523   2.554   6.838   3.099
 2875SOL    HW1 9524   2.652   6.823   3.114
 2875SOL    HW2 9525   2.541   6.919   3.042
 2876SOL     OW 9526   2.005   6.420   1.425
 2876SOL    HW1 9527   1.915   6.444   1.388
 2876SOL    HW2 9528   2.025   6.479   1.503
 2877SOL     OW 9529   1.563   2.326   6.348
 2877SOL    HW1 9530   1.597   2.419   6.359
 2877SOL    HW2 9531   1.607   2.283   6.269
 2878SOL     OW 9532   3.954   3.205   4.442
 2878SOL    HW1 9533   3.997   3.179   4.356
 2878SOL    HW2 9534   4.015   3.266   4.492
 2879SOL     OW 9535   5.397   4.528   0.180
 2879SOL    HW1 9536   5.464   4.596   0.147
 2879SOL    HW2 9537   5.305   4.565   0.170
 2880SOL     OW 9538   1.870   1.184   3.640
 2880SOL    HW1 9539   1.969   1.201   3.641
 2880SOL    HW2 9540   1.851   1.104   3.583
 2881SOL     OW 9541   5.389   5.160   0.567
 2881SOL    HW1 9542   5.439   5.129   0.486
 2881SOL    HW2 9543   5.418   5.106   0.646
 2882SOL     OW 9544   4.182   6.280   6.949
 2882SOL    HW1 9545   4.206   6.189   6.916
 2882SOL    HW2 9546   4.102   6.273   7.009
 2883SOL     OW 9547   5.969   6.729   3.627
 2883SOL    HW1 9548   5.926   6.644   3.595
 2883SOL    HW2 9549   5.968   6.797   3.554
 2884SOL     OW 9550   6.072   5.573   4.345
 2884SOL    HW1 9551   5.977   5.563   4.372
 2884SOL    HW2 9552   6.092   5.512   4.268
 2885SOL     OW 9553   1.697   2.391   3.743
 2885SOL    HW1 9554   1.773   2.349   3.694
 2885SOL    HW2 9555   1.644   2.320   3.789
 2886SOL     OW 9556   2.357   4.554   5.518
 2886SOL    HW1 9557   2.424   4.565   5.591
 2886SOL    HW2 9558   2.402   4.524   5.434
 2887SOL     OW 9559   0.046   5.847   2.804
 2887SOL    HW1 9560   0.139   5.813   2.805
 2887SOL    HW2 9561   0.009   5.848   2.897
 2888SOL     OW 9562   5.303   0.230   6.584
 2888SOL    HW1 9563   5.355   0.220   6.669
 2888SOL    HW2 9564   5.363   0.214   6.506
 2889SOL     OW 9565   4.387   6.208   4.145
 2889SOL    HW1 9566   4.438   6.255   4.074
 2889SOL    HW2 9567   4.334   6.275   4.198
 2890SOL     OW 9568   1.080   2.061   0.948
 2890SOL    HW1 9569   1.036   1.983   0.903
 2890SOL    HW2 9570   1.030   2.085   1.031
 2891SOL     OW 9571   0.438   1.957   5.135
 2891SOL    HW1 9572   0.489   1.982   5.217
 2891SOL    HW2 9573   0.422   1.858   5.135
 2892SOL     OW 9574   5.410   4.280   2.012
 2892SOL    HW1 9575   5.320   4.317   2.035
 2892SOL    HW2 9576   5.473   4.295   2.088
 2893SOL     OW 9577   6.565   5.836   5.012
 2893SOL    HW1 9578   6.620   5.855   4.930
 2893SOL    HW2 9579   6.494   5.770   4.990
 2894SOL     OW 9580   2.053   5.425   1.836
 2894SOL    HW1 9581   2.125   5.413   1.905
 2894SOL    HW2 9582   2.080   5.498   1.773
 2895SOL     OW 9583   4.172   6.758   6.040
 2895SOL    HW1 9584   4.226   6.673   6.036
 2895SOL    HW2 9585   4.231   6.835   6.016
 2896SOL     OW 9586   5.473   0.340   4.972
 2896SOL    HW1 9587   5.479   0.287   4.887
 2896SOL    HW2 9588   5.388   0.319   5.019
 2897SOL     OW 9589   3.643   4.907   3.080
 2897SOL    HW1 9590   3.621   4.840   3.151
 2897SOL    HW2 9591   3.624   4.999   3.114
 2898SOL     OW 9592   4.954   2.396   2.281
 2898SOL    HW1 9593   4.935   2.303   2.313
 2898SOL    HW2 9594   5.017   2.392   2.203
 2899SOL     OW 9595   6.794   3.499   0.775
 2899SOL    HW1 9596   6.759   3.532   0.862
 2899SOL    HW2 9597   6.856   3.567   0.736
 2900SOL     OW 9598   2.693   3.065   5.647
 2900SOL    HW1 9599   2.654   3.156   5.640
 2900SOL    HW2 9600   2.688   3.019   5.559
 2901SOL     OW 9601   1.005   4.371   2.922
 2901SOL    HW1 9602   0.929   4.337   2.866
 2901SOL    HW2 9603   1.065   4.295   2.946
 2902SOL     OW 9604   5.897   5.455   3.626
 2902SOL    HW1 9605   5.909   5.550   3.654
 2902SOL    HW2 9606   5.819   5.416   3.675
 2903SOL     OW 9607   5.961   4.563   0.720
 2903SOL    HW1 9608   5.898   4.639   0.737
 2903SOL    HW2 9609   5.913   4.490   0.673
 2904SOL     OW 9610   2.214   4.651   5.206
 2904SOL    HW1 9611   2.280   4.582   5.236
 2904SOL    HW2 9612   2.155   4.613   5.135
 2905SOL     OW 9613   2.152   5.515   1.287
 2905SOL    HW1 9614   2.133   5.603   1.329
 2905SOL    HW2 9615   2.208   5.528   1.205
 2906SOL     OW 9616   6.104   6.231   4.855
 2906SOL    HW1 9617   6.067   6.222   4.947
 2906SOL    HW2 9618   6.098   6.144   4.807
 2907SOL     OW 9619   0.890   0.422   5.108
 2907SOL    HW1 9620   0.825   0.348   5.095
 2907SOL    HW2 9621   0.844   0.510   5.093
 2908SOL     OW 9622   4.664   6.818   2.905
 2908SOL    HW1 9623   4.630   6.756   2.835
 2908SOL    HW2 9624   4.717   6.891   2.862
 2909SOL     OW 9625   6.806   6.306   1.514
 2909SOL    HW1 9626   6.718   6.260   1.505
 2909SOL    HW2 9627   6.817   6.371   1.438
 2910SOL     OW 9628   0.932   0.466   4.564
 2910SOL    HW1 9629   0.996   0.530   4.607
 2910SOL    HW2 9630   0.927   0.485   4.466
 2911SOL     OW 9631   6.862   4.285   5.554
 2911SOL    HW1 9632   6.843   4.187   5.550
 2911SOL    HW2 9633   6.861   4.316   5.649
 2912SOL     OW 9634   1.004   1.196   1.273
 2912SOL    HW1 9635   0.959   1.131   1.212
 2912SOL    HW2 9636   0.938   1.232   1.338
 2913SOL     OW 9637   2.476   6.509   2.736
 2913SOL    HW1 9638   2.573   6.530   2.719
 2913SOL    HW2 9639   2.469   6.423   2.786
 2914SOL     OW 9640   3.889   5.371   0.913
 2914SOL    HW1 9641   3.797   5.331   0.913
 2914SOL    HW2 9642   3.949   5.317   0.854
 2915SOL     OW 9643   3.038   0.163   3.626
 2915SOL    HW1 9644   3.096   0.153   3.545
 2915SOL    HW2 9645   2.942   0.150   3.600
 2916SOL     OW 9646   1.704   5.549   0.071
 2916SOL    HW1 9647   1.664   5.623   0.017
 2916SOL    HW2 9648   1.752   5.485   0.010
 2917SOL     OW 9649   2.725   6.581   2.720
 2917SOL    HW1 9650   2.749   6.605   2.814
 2917SOL    HW2 9651   2.808   6.551   2.672
 2918SOL     OW 9652   5.359   2.972   1.793
 2918SOL    HW1 9653   5.370   3.015   1.704
 2918SOL    HW2 9654   5.292   3.023   1.847
 2919SOL     OW 9655   0.432   5.818   4.877
 2919SOL    HW1 9656   0.349   5.794   4.927
 2919SOL    HW2 9657   0.408   5.862   4.791
 2920SOL     OW 9658   2.487   2.049   2.059
 2920SOL    HW1 9659   2.412   1.983   2.055
 2920SOL    HW2 9660   2.485   2.107   1.977
 2921SOL     OW 9661   1.700   5.963   3.296
 2921SOL    HW1 9662   1.731   6.015   3.217
 2921SOL    HW2 9663   1.652   6.025   3.359
 2922SOL     OW 9664   4.223   4.942   4.037
 2922SOL    HW1 9665   4.149   4.937   4.103
 2922SOL    HW2 9666   4.246   4.850   4.004
 2923SOL     OW 9667   0.184   5.602   4.911
 2923SOL    HW1 9668   0.124   5.609   4.991
 2923SOL    HW2 9669   0.134   5.556   4.837
 2924SOL     OW 9670   5.984   2.048   6.626
 2924SOL    HW1 9671   6.059   2.109   6.650
 2924SOL    HW2 9672   5.897   2.092   6.647
 2925SOL     OW 9673   5.881   6.952   4.728
 2925SOL    HW1 9674   5.827   6.912   4.802
 2925SOL    HW2 9675   5.845   0.029   4.707
 2926SOL     OW 9676   6.786   2.349   3.849
 2926SOL    HW1 9677   6.789   2.301   3.936
 2926SOL    HW2 9678   6.785   2.448   3.866
 2927SOL     OW 9679   0.756   2.144   1.654
 2927SOL    HW1 9680   0.762   2.239   1.682
 2927SOL    HW2 9681   0.773   2.084   1.732
 2928SOL     OW 9682   6.417   3.311   0.396
 2928SOL    HW1 9683   6.417   3.267   0.486
 2928SOL    HW2 9684   6.457   3.250   0.329
 2929SOL     OW 9685   1.911   2.244   4.176
 2929SOL    HW1 9686   1.899   2.198   4.264
 2929SOL    HW2 9687   1.826   2.242   4.124
 2930SOL     OW 9688   0.214   3.921   4.067
 2930SOL    HW1 9689   0.232   3.878   4.156
 2930SOL    HW2 9690   0.116   3.937   4.057
 2931SOL     OW 9691   5.268   4.263   5.903
 2931SOL    HW1 9692   5.280   4.342   5.964
 2931SOL    HW2 9693   5.356   4.220   5.886
 2932SOL     OW 9694   5.952   4.961   1.510
 2932SOL    HW1 9695   5.884   5.007   1.453
 2932SOL    HW2 9696   6.040   4.960   1.462
 2933SOL     OW 9697   0.994   6.502   0.198
 2933SOL    HW1 9698   0.896   6.508   0.215
 2933SOL    HW2 9699   1.011   6.504   0.099
 2934SOL     OW 9700   4.253   5.334   1.232
 2934SOL    HW1 9701   4.273   5.237   1.243
 2934SOL    HW2 9702   4.164   5.355   1.273
 2935SOL     OW 9703   0.991   2.714   6.037
 2935SOL    HW1 9704   0.989   2.757   5.946
 2935SOL    HW2 9705   1.009   2.616   6.027
 2936SOL     OW 9706   4.847   6.595   2.011
 2936SOL    HW1 9707   4.762   6.602   1.959
 2936SOL    HW2 9708   4.827   6.609   2.108
 2937SOL     OW 9709   5.553   3.915   2.809
 2937SOL    HW1 9710   5.546   3.964   2.723
 2937SOL    HW2 9711   5.465   3.915   2.856
 2938SOL     OW 9712   0.749   6.098   6.249
 2938SOL    HW1 9713   0.812   6.173   6.230
 2938SOL    HW2 9714   0.792   6.034   6.313
 2939SOL     OW 9715   0.161   6.025   1.300
 2939SOL    HW1 9716   0.208   5.971   1.370
 2939SOL    HW2 9717   0.201   6.117   1.297
 2940SOL     OW 9718   4.724   6.432   3.574
 2940SOL    HW1 9719   4.636   6.413   3.532
 2940SOL    HW2 9720   4.747   6.529   3.561
 2941SOL     OW 9721   2.235   4.714   2.907
 2941SOL    HW1 9722   2.266   4.660   2.829
 2941SOL    HW2 9723   2.309   4.723   2.973
 2942SOL     OW 9724   3.104   1.579   1.666
 2942SOL    HW1 9725   3.012   1.619   1.670
 2942SOL    HW2 9726   3.123   1.531   1.751
 2943SOL     OW 9727   5.843   3.733   2.934
 2943SOL    HW1 9728   5.902   3.739   2.853
 2943SOL    HW2 9729   5.885   3.670   3.001
 2944SOL     OW 9730   2.009   5.878   2.436
 2944SOL    HW1 9731   2.062   5.794   2.423
 2944SOL    HW2 9732   2.070   5.951   2.467
 2945SOL     OW 9733   4.725   4.137   1.272
 2945SOL    HW1 9734   4.728   4.038   1.278
 2945SOL    HW2 9735   4.643   4.171   1.318
 2946SOL     OW 9736   3.457   3.207   4.513
 2946SOL    HW1 9737   3.549   3.204   4.473
 2946SOL    HW2 9738   3.395   3.253   4.450
 2947SOL     OW 9739   6.495   5.826   0.887
 2947SOL    HW1 9740   6.472   5.730   0.873
 2947SOL    HW2 9741   6.571   5.833   0.953
 2948SOL     OW 9742   0.045   3.542   2.352
 2948SOL    HW1 9743   0.143   3.525   2.347
 2948SOL    HW2 9744   0.028   3.637   2.377
 2949SOL     OW 9745   2.087   6.265   0.327
 2949SOL    HW1 9746   2.050   6.352   0.358
 2949SOL    HW2 9747   2.153   6.281   0.254
 2950SOL     OW 9748   6.208   5.937   2.391
 2950SOL    HW1 9749   6.118   5.912   2.428
 2950SOL    HW2 9750   6.279   5.888   2.442
 2951SOL     OW 9751   0.618   1.488   1.557
 2951SOL    HW1 9752   0.595   1.525   1.467
 2951SOL    HW2 9753   0.554   1.523   1.625
 2952SOL     OW 9754   6.850   1.627   5.516
 2952SOL    HW1 9755   6.916   1.692   5.480
 2952SOL    HW2 9756   6.763   1.674   5.532
 2953SOL     OW 9757   1.591   4.957   3.369
 2953SOL    HW1 9758   1.574   4.979   3.273
 2953SOL    HW2 9759   1.561   5.032   3.427
 2954SOL     OW 9760   0.583   3.753   6.086
 2954SOL    HW1 9761   0.504   3.810   6.108
 2954SOL    HW2 9762   0.551   3.670   6.039
 2955SOL     OW 9763   1.293   4.506   6.413
 2955SOL    HW1 9764   1.284   4.448   6.333
 2955SOL    HW2 9765   1.204   4.515   6.459
 2956SOL     OW 9766   5.235   4.803   4.712
 2956SOL    HW1 9767   5.275   4.893   4.723
 2956SOL    HW2 9768   5.147   4.810   4.664
 2957SOL     OW 9769   2.423   5.405   1.374
 2957SOL    HW1 9770   2.513   5.384   1.413
 2957SOL    HW2 9771   2.352   5.389   1.442
 2958SOL     OW 9772   1.428   4.187   2.822
 2958SOL    HW1 9773   1.340   4.163   2.862
 2958SOL    HW2 9774   1.449   4.123   2.747
 2959SOL     OW 9775   0.012   3.529   3.522
 2959SOL    HW1 9776   7.004   3.472   3.601
 2959SOL    HW2 9777   7.006   3.624   3.543
 2960SOL     OW 9778   5.083   0.068   1.353
 2960SOL    HW1 9779   5.029   0.036   1.275
 2960SOL    HW2 9780   5.145   0.140   1.322
 2961SOL     OW 9781   5.858   3.041   1.922
 2961SOL    HW1 9782   5.797   2.964   1.905
 2961SOL    HW2 9783   5.952   3.015   1.901
 2962SOL     OW 9784   6.861   0.295   3.393
 2962SOL    HW1 9785   6.889   0.289   3.297
 2962SOL    HW2 9786   6.937   0.269   3.452
 2963SOL     OW 9787   1.339   0.840   5.088
 2963SOL    HW1 9788   1.406   0.792   5.031
 2963SOL    HW2 9789   1.380   0.862   5.176
 2964SOL     OW 9790   1.611   0.863   6.308
 2964SOL    HW1 9791   1.682   0.823   6.367
 2964SOL    HW2 9792   1.523   0.863   6.357
 2965SOL     OW 9793   6.466   0.399   6.228
 2965SOL    HW1 9794   6.565   0.407   6.232
 2965SOL    HW2 9795   6.427   0.428   6.315
 2966SOL     OW 9796   2.946   5.719   1.792
 2966SOL    HW1 9797   2.991   5.642   1.837
 2966SOL    HW2 9798   3.015   5.783   1.757
 2967SOL     OW 9799   5.683   6.850   5.304
 2967SOL    HW1 9800   5.617   6.924   5.319
 2967SOL    HW2 9801   5.756   6.882   5.244
 2968SOL     OW 9802   0.805   3.883   0.989
 2968SOL    HW1 9803   0.777   3.793   1.021
 2968SOL    HW2 9804   0.768   3.953   1.052
 2969SOL     OW 9805   4.685   2.852   5.038
 2969SOL    HW1 9806   4.654   2.757   5.038
 2969SOL    HW2 9807   4.657   2.897   4.953
 2970SOL     OW 9808   2.531   2.182   5.250
 2970SOL    HW1 9809   2.443   2.203   5.292
 2970SOL    HW2 9810   2.604   2.231   5.297
 2971SOL     OW 9811   5.165   2.930   6.674
 2971SOL    HW1 9812   5.226   2.991   6.623
 2971SOL    HW2 9813   5.112   2.875   6.610
 2972SOL     OW 9814   0.089   5.586   6.394
 2972SOL    HW1 9815   0.057   5.586   6.299
 2972SOL    HW2 9816   0.112   5.680   6.421
 2973SOL     OW 9817   5.260   1.361   4.295
 2973SOL    HW1 9818   5.197   1.293   4.255
 2973SOL    HW2 9819   5.338   1.314   4.335
 2974SOL     OW 9820   4.568   6.995   2.275
 2974SOL    HW1 9821   4.643   6.992   2.208
 2974SOL    HW2 9822   4.606   7.002   2.367
 2975SOL     OW 9823   5.660   4.090   4.927
 2975SOL    HW1 9824   5.654   4.100   4.828
 2975SOL    HW2 9825   5.615   4.005   4.955
 2976SOL     OW 9826   3.719   1.196   1.712
 2976SOL    HW1 9827   3.691   1.133   1.785
 2976SOL    HW2 9828   3.799   1.158   1.665
 2977SOL     OW 9829   0.971   0.514   1.669
 2977SOL    HW1 9830   0.985   0.445   1.739
 2977SOL    HW2 9831   0.979   0.605   1.709
 2978SOL     OW 9832   4.126   5.059   6.760
 2978SOL    HW1 9833   4.120   4.963   6.733
 2978SOL    HW2 9834   4.110   5.117   6.680
 2979SOL     OW 9835   3.337   0.842   4.878
 2979SOL    HW1 9836   3.253   0.794   4.902
 2979SOL    HW2 9837   3.366   0.815   4.786
 2980SOL     OW 9838   2.955   3.361   4.310
 2980SOL    HW1 9839   2.956   3.389   4.214
 2980SOL    HW2 9840   2.966   3.262   4.316
 2981SOL     OW 9841   2.266   1.029   1.543
 2981SOL    HW1 9842   2.333   1.102   1.527
 2981SOL    HW2 9843   2.309   0.956   1.596
 2982SOL     OW 9844   1.843   0.944   1.047
 2982SOL    HW1 9845   1.908   0.892   0.992
 2982SOL    HW2 9846   1.891   1.021   1.091
 2983SOL     OW 9847   6.416   3.412   5.334
 2983SOL    HW1 9848   6.368   3.325   5.330
 2983SOL    HW2 9849   6.451   3.436   5.244
 2984SOL     OW 9850   0.520   5.831   1.291
 2984SOL    HW1 9851   0.578   5.750   1.299
 2984SOL    HW2 9852   0.493   5.844   1.195
 2985SOL     OW 9853   5.916   0.600   6.761
 2985SOL    HW1 9854   5.826   0.572   6.728
 2985SOL    HW2 9855   5.951   0.532   6.825
 2986SOL     OW 9856   3.545   3.502   2.050
 2986SOL    HW1 9857   3.634   3.474   2.014
 2986SOL    HW2 9858   3.558   3.568   2.124
 2987SOL     OW 9859   2.476   5.850   4.524
 2987SOL    HW1 9860   2.498   5.764   4.569
 2987SOL    HW2 9861   2.495   5.842   4.426
 2988SOL     OW 9862   6.713   1.860   6.129
 2988SOL    HW1 9863   6.783   1.905   6.184
 2988SOL    HW2 9864   6.642   1.927   6.106
 2989SOL     OW 9865   5.490   3.520   4.463
 2989SOL    HW1 9866   5.409   3.461   4.462
 2989SOL    HW2 9867   5.464   3.613   4.486
 2990SOL     OW 9868   5.492   2.223   4.691
 2990SOL    HW1 9869   5.587   2.243   4.667
 2990SOL    HW2 9870   5.490   2.163   4.771
 2991SOL     OW 9871   0.447   3.324   0.511
 2991SOL    HW1 9872   0.470   3.277   0.596
 2991SOL    HW2 9873   0.496   3.280   0.435
 2992SOL     OW 9874   0.480   3.921   4.731
 2992SOL    HW1 9875   0.444   4.015   4.735
 2992SOL    HW2 9876   0.454   3.873   4.815
 2993SOL     OW 9877   2.965   4.313   1.030
 2993SOL    HW1 9878   2.970   4.326   1.129
 2993SOL    HW2 9879   3.028   4.376   0.985
 2994SOL     OW 9880   3.383   5.410   5.013
 2994SOL    HW1 9881   3.312   5.466   4.969
 2994SOL    HW2 9882   3.345   5.322   5.038
 2995SOL     OW 9883   4.395   0.287   1.788
 2995SOL    HW1 9884   4.433   0.237   1.867
 2995SOL    HW2 9885   4.373   0.381   1.816
 2996SOL     OW 9886   6.712   1.211   4.028
 2996SOL    HW1 9887   6.745   1.268   3.953
 2996SOL    HW2 9888   6.674   1.126   3.991
 2997SOL     OW 9889   4.836   6.036   4.022
 2997SOL    HW1 9890   4.769   6.106   4.048
 2997SOL    HW2 9891   4.879   6.061   3.936
 2998SOL     OW 9892   2.692   1.005   1.432
 2998SOL    HW1 9893   2.685   1.048   1.522
 2998SOL    HW2 9894   2.770   0.943   1.431
 2999SOL     OW 9895   2.027   4.615   0.886
 2999SOL    HW1 9896   2.127   4.625   0.883
 2999SOL    HW2 9897   1.997   4.560   0.809
 3000SOL     OW 9898   2.539   4.135   5.358
 3000SOL    HW1 9899   2.635   4.163   5.358
 3000SOL    HW2 9900   2.517   4.092   5.271
 3001SOL     OW 9901   4.746   0.657   6.074
 3001SOL    HW1 9902   4.727   0.752   6.053
 3001SOL    HW2 9903   4.771   0.648   6.170
 3002SOL     OW 9904   1.777   1.879   1.801
 3002SOL    HW1 9905   1.857   1.847   1.852
 3002SOL    HW2 9906   1.706   1.907   1.865
 3003SOL     OW 9907   1.590   6.588   0.734
 3003SOL    HW1 9908   1.596   6.671   0.789
 3003SOL    HW2 9909   1.500   6.582   0.692
 3004SOL     OW 9910   2.827   6.951   3.449
 3004SOL    HW1 9911   2.727   6.959   3.444
 3004SOL    HW2 9912   2.866   6.962   3.358
 3005SOL     OW 9913   2.059   2.097   0.926
 3005SOL    HW1 9914   1.989   2.150   0.877
 3005SOL    HW2 9915   2.149   2.127   0.897
 3006SOL     OW 9916   5.224   1.371   5.730
 3006SOL    HW1 9917   5.208   1.303   5.802
 3006SOL    HW2 9918   5.225   1.462   5.770
 3007SOL     OW 9919   6.434   5.655   6.447
 3007SOL    HW1 9920   6.448   5.721   6.520
 3007SOL    HW2 9921   6.481   5.569   6.470
 3008SOL     OW 9922   4.406   3.711   5.623
 3008SOL    HW1 9923   4.402   3.811   5.624
 3008SOL    HW2 9924   4.448   3.680   5.538
 3009SOL     OW 9925   6.221   2.872   2.515
 3009SOL    HW1 9926   6.143   2.925   2.482
 3009SOL    HW2 9927   6.306   2.918   2.491
 3010SOL     OW 9928   4.378   5.668   1.986
 3010SOL    HW1 9929   4.420   5.702   1.901
 3010SOL    HW2 9930   4.359   5.745   2.046
 3011SOL     OW 9931   6.473   0.470   0.321
 3011SOL    HW1 9932   6.521   0.396   0.275
 3011SOL    HW2 9933   6.539   0.539   0.353
 3012SOL     OW 9934   1.928   1.428   5.036
 3012SOL    HW1 9935   1.851   1.490   5.020
 3012SOL    HW2 9936   1.995   1.472   5.096
 3013SOL     OW 9937   0.547   4.790   5.272
 3013SOL    HW1 9938   0.507   4.705   5.237
 3013SOL    HW2 9939   0.474   4.854   5.296
 3014SOL     OW 9940   5.071   0.121   6.473
 3014SOL    HW1 9941   4.987   0.086   6.514
 3014SOL    HW2 9942   5.130   0.159   6.544
 3015SOL     OW 9943   1.937   0.784   6.085
 3015SOL    HW1 9944   1.861   0.843   6.112
 3015SOL    HW2 9945   1.938   0.702   6.142
 3016SOL     OW 9946   2.168   6.593   4.093
 3016SOL    HW1 9947   2.203   6.581   4.187
 3016SOL    HW2 9948   2.183   6.687   4.064
 3017SOL     OW 9949   1.379   5.681   0.231
 3017SOL    HW1 9950   1.465   5.719   0.266
 3017SOL    HW2 9951   1.372   5.585   0.257
 3018SOL     OW 9952   3.371   1.501   1.609
 3018SOL    HW1 9953   3.282   1.537   1.637
 3018SOL    HW2 9954   3.403   1.553   1.529
 3019SOL     OW 9955   1.888   6.954   6.374
 3019SOL    HW1 9956   1.876   6.989   6.281
 3019SOL    HW2 9957   1.964   7.003   6.418
 3020SOL     OW 9958   5.883   5.110   6.932
 3020SOL    HW1 9959   5.811   5.099   6.999
 3020SOL    HW2 9960   5.972   5.110   6.978
 3021SOL     OW 9961   4.384   0.744   4.549
 3021SOL    HW1 9962   4.445   0.665   4.540
 3021SOL    HW2 9963   4.436   0.824   4.577
 3022SOL     OW 9964   4.505   6.084   3.518
 3022SOL    HW1 9965   4.492   6.179   3.490
 3022SOL    HW2 9966   4.448   6.025   3.460
 3023SOL     OW 9967   6.037   4.787   5.123
 3023SOL    HW1 9968   5.955   4.774   5.068
 3023SOL    HW2 9969   6.106   4.720   5.098
 3024SOL     OW 9970   0.029   0.844   0.264
 3024SOL    HW1 9971   0.019   0.908   0.340
 3024SOL    HW2 9972   0.116   0.796   0.271
 3025SOL     OW 9973   4.532   5.552   6.977
 3025SOL    HW1 9974   4.561   5.459   7.003
 3025SOL    HW2 9975   4.606   5.616   6.996
 3026SOL     OW 9976   0.439   0.798   1.887
 3026SOL    HW1 9977   0.347   0.835   1.874
 3026SOL    HW2 9978   0.506   0.858   1.844
 3027SOL     OW 9979   4.038   0.356   0.460
 3027SOL    HW1 9980   4.006   0.399   0.375
 3027SOL    HW2 9981   4.007   0.261   0.464
 3028SOL     OW 9982   3.020   3.686   5.052
 3028SOL    HW1 9983   3.119   3.693   5.063
 3028SOL    HW2 9984   2.987   3.604   5.099
 3029SOL     OW 9985   6.527   3.447   4.755
 3029SOL    HW1 9986   6.523   3.362   4.808
 3029SOL    HW2 9987   6.559   3.521   4.813
 3030SOL     OW 9988   2.369   2.514   6.737
 3030SOL    HW1 9989   2.333   2.605   6.757
 3030SOL    HW2 9990   2.388   2.506   6.639
 3031SOL     OW 9991   1.216   5.532   0.784
 3031SOL    HW1 9992   1.257   5.571   0.702
 3031SOL    HW2 9993   1.274   5.552   0.863
 3032SOL     OW 9994   2.212   6.854   3.467
 3032SOL    HW1 9995   2.299   6.855   3.418
 3032SOL    HW2 9996   2.155   6.779   3.433
 3033SOL     OW 9997   1.227   1.765   6.044
 3033SOL    HW1 9998   1.321   1.796   6.061
 3033SOL    HW2 9999   1.191   1.811   5.963
 3034SOL     OW10000   5.716   3.256   2.925
 3034SOL    HW110001   5.733   3.300   2.837
 3034SOL    HW210002   5.682   3.164   2.910
 3035SOL     OW10003   6.971   3.452   0.254
 3035SOL    HW110004   6.920   3.471   0.338
 3035SOL    HW210005   6.974   3.534   0.197
 3036SOL     OW10006   2.882   2.428   5.620
 3036SOL    HW110007   2.798   2.421   5.567
 3036SOL    HW210008   2.942   2.351   5.598
 3037SOL     OW10009   1.069   5.528   6.468
 3037SOL    HW110010   1.164   5.560   6.468
 3037SOL    HW210011   1.008   5.605   6.449
 3038SOL     OW10012   5.731   5.078   6.252
 3038SOL    HW110013   5.722   5.177   6.263
 3038SOL    HW210014   5.669   5.031   6.316
 3039SOL     OW10015   6.475   3.759   5.911
 3039SOL    HW110016   6.459   3.756   5.813
 3039SOL    HW210017   6.431   3.681   5.955
 3040SOL     OW10018   5.156   5.399   6.213
 3040SOL    HW110019   5.173   5.496   6.193
 3040SOL    HW210020   5.244   5.351   6.220
 3041SOL     OW10021   0.969   4.532   5.682
 3041SOL    HW110022   1.023   4.465   5.630
 3041SOL    HW210023   0.913   4.484   5.750
 3042SOL     OW10024   6.733   4.805   3.548
 3042SOL    HW110025   6.702   4.828   3.456
 3042SOL    HW210026   6.676   4.851   3.615
 3043SOL     OW10027   2.823   5.149   1.560
 3043SOL    HW110028   2.899   5.193   1.608
 3043SOL    HW210029   2.830   5.050   1.570
 3044SOL     OW10030   4.142   3.412   4.831
 3044SOL    HW110031   4.202   3.343   4.872
 3044SOL    HW210032   4.047   3.379   4.835
 3045SOL     OW10033   5.092   1.909   2.256
 3045SOL    HW110034   5.058   1.894   2.163
 3045SOL    HW210035   5.052   1.840   2.317
 3046SOL     OW10036   5.664   6.541   1.461
 3046SOL    HW110037   5.680   6.581   1.551
 3046SOL    HW210038   5.566   6.523   1.449
 3047SOL     OW10039   6.049   1.504   4.148
 3047SOL    HW110040   6.147   1.493   4.131
 3047SOL    HW210041   6.015   1.583   4.098
 3048SOL     OW10042   4.460   4.872   1.715
 3048SOL    HW110043   4.550   4.913   1.700
 3048SOL    HW210044   4.470   4.772   1.722
 3049SOL     OW10045   0.614   2.198   2.185
 3049SOL    HW110046   0.685   2.269   2.181
 3049SOL    HW210047   0.534   2.228   2.133
 3050SOL     OW10048   3.391   2.167   6.406
 3050SOL    HW110049   3.482   2.199   6.431
 3050SOL    HW210050   3.366   2.204   6.316
 3051SOL     OW10051   2.718   5.649   5.148
 3051SOL    HW110052   2.637   5.705   5.164
 3051SOL    HW210053   2.758   5.673   5.060
 3052SOL     OW10054   6.926   6.582   3.302
 3052SOL    HW110055   6.916   6.671   3.346
 3052SOL    HW210056   0.005   6.574   3.264
 3053SOL     OW10057   0.796   3.887   6.844
 3053SOL    HW110058   0.753   3.977   6.847
 3053SOL    HW210059   0.726   3.816   6.843
 3054SOL     OW10060   5.638   0.712   2.938
 3054SOL    HW110061   5.585   0.699   3.021
 3054SOL    HW210062   5.577   0.725   2.860
 3055SOL     OW10063   5.974   6.657   0.177
 3055SOL    HW110064   6.056   6.609   0.209
 3055SOL    HW210065   5.990   6.692   0.084
 3056SOL     OW10066   3.865   1.652   6.259
 3056SOL    HW110067   3.782   1.600   6.277
 3056SOL    HW210068   3.944   1.590   6.254
 3057SOL     OW10069   5.178   3.886   3.263
 3057SOL    HW110070   5.245   3.958   3.247
 3057SOL    HW210071   5.213   3.799   3.227
 3058SOL     OW10072   0.567   5.229   6.087
 3058SOL    HW110073   0.525   5.182   6.010
 3058SOL    HW210074   0.588   5.323   6.062
 3059SOL     OW10075   1.234   1.888   2.282
 3059SOL    HW110076   1.169   1.901   2.207
 3059SOL    HW210077   1.294   1.967   2.289
 3060SOL     OW10078   5.412   4.128   3.773
 3060SOL    HW110079   5.477   4.188   3.821
 3060SOL    HW210080   5.414   4.149   3.675
 3061SOL     OW10081   5.708   0.077   3.710
 3061SOL    HW110082   5.673   0.139   3.780
 3061SOL    HW210083   5.661   7.003   3.717
 3062SOL     OW10084   3.928   5.084   1.077
 3062SOL    HW110085   3.831   5.096   1.053
 3062SOL    HW210086   3.985   5.109   0.998
 3063SOL     OW10087   6.482   4.846   2.026
 3063SOL    HW110088   6.556   4.779   2.025
 3063SOL    HW210089   6.520   4.937   2.005
 3064SOL     OW10090   5.205   2.250   6.774
 3064SOL    HW110091   5.221   2.295   6.687
 3064SOL    HW210092   5.107   2.236   6.787
 3065SOL     OW10093   5.525   1.194   6.364
 3065SOL    HW110094   5.599   1.170   6.301
 3065SOL    HW210095   5.541   1.285   6.402
 3066SOL     OW10096   5.253   6.940   5.566
 3066SOL    HW110097   5.214   0.010   5.605
 3066SOL    HW210098   5.352   6.940   5.579
 3067SOL     OW10099   1.384   2.262   5.124
 3067SOL    HW110100   1.369   2.305   5.035
 3067SOL    HW210101   1.329   2.308   5.193
 3068SOL     OW10102   6.479   0.412   0.591
 3068SOL    HW110103   6.522   0.322   0.583
 3068SOL    HW210104   6.434   0.435   0.505
 3069SOL     OW10105   4.528   6.572   4.194
 3069SOL    HW110106   4.561   6.650   4.248
 3069SOL    HW210107   4.436   6.593   4.159
 3070SOL     OW10108   2.189   0.987   0.874
 3070SOL    HW110109   2.220   1.058   0.811
 3070SOL    HW210110   2.252   0.979   0.950
 3071SOL     OW10111   5.770   4.775   5.536
 3071SOL    HW110112   5.859   4.800   5.573
 3071SOL    HW210113   5.697   4.802   5.599
 3072SOL     OW10114   2.092   6.422   6.557
 3072SOL    HW110115   2.105   6.351   6.626
 3072SOL    HW210116   2.022   6.392   6.492
 3073SOL     OW10117   0.417   5.442   1.882
 3073SOL    HW110118   0.393   5.538   1.871
 3073SOL    HW210119   0.438   5.423   1.978
 3074SOL     OW10120   3.389   2.995   1.510
 3074SOL    HW110121   3.479   3.025   1.539
 3074SOL    HW210122   3.374   2.900   1.538
 3075SOL     OW10123   4.043   4.876   1.481
 3075SOL    HW110124   4.022   4.790   1.436
 3075SOL    HW210125   3.958   4.920   1.512
 3076SOL     OW10126   1.098   0.639   4.656
 3076SOL    HW110127   1.149   0.602   4.734
 3076SOL    HW210128   1.060   0.729   4.681
 3077SOL     OW10129   0.049   3.636   1.940
 3077SOL    HW110130   0.134   3.609   1.984
 3077SOL    HW210131   6.987   3.583   1.978
 3078SOL     OW10132   0.387   3.580   1.827
 3078SOL    HW110133   0.479   3.545   1.844
 3078SOL    HW210134   0.337   3.587   1.913
 3079SOL     OW10135   2.149   3.831   4.888
 3079SOL    HW110136   2.164   3.830   4.790
 3079SOL    HW210137   2.133   3.738   4.921
 3080SOL     OW10138   4.327   5.062   1.484
 3080SOL    HW110139   4.376   5.005   1.418
 3080SOL    HW210140   4.387   5.136   1.514
 3081SOL     OW10141   1.898   3.486   6.670
 3081SOL    HW110142   1.855   3.567   6.708
 3081SOL    HW210143   1.905   3.494   6.571
 3082SOL     OW10144   5.255   4.691   5.113
 3082SOL    HW110145   5.332   4.749   5.138
 3082SOL    HW210146   5.256   4.608   5.170
 3083SOL     OW10147   3.546   5.383   1.684
 3083SOL    HW110148   3.548   5.457   1.751
 3083SOL    HW210149   3.477   5.404   1.615
 3084SOL     OW10150   6.883   4.671   3.736
 3084SOL    HW110151   6.973   4.713   3.741
 3084SOL    HW210152   6.825   4.722   3.672
 3085SOL     OW10153   6.128   5.705   0.067
 3085SOL    HW110154   6.186   5.782   0.040
 3085SOL    HW210155   6.040   5.712   0.021
 3086SOL     OW10156   6.487   6.256   6.496
 3086SOL    HW110157   6.451   6.348   6.481
 3086SOL    HW210158   6.436   6.212   6.570
 3087SOL     OW10159   3.770   0.349   2.392
 3087SOL    HW110160   3.762   0.273   2.456
 3087SOL    HW210161   3.793   0.432   2.442
 3088SOL     OW10162   2.284   3.867   5.564
 3088SOL    HW110163   2.267   3.894   5.469
 3088SOL    HW210164   2.379   3.886   5.587
 3089SOL     OW10165   4.448   4.872   5.773
 3089SOL    HW110166   4.523   4.806   5.773
 3089SOL    HW210167   4.449   4.923   5.859
 3090SOL     OW10168   0.634   2.802   2.441
 3090SOL    HW110169   0.682   2.850   2.367
 3090SOL    HW210170   0.553   2.854   2.467
 3091SOL     OW10171   0.807   2.555   1.008
 3091SOL    HW110172   0.815   2.465   0.964
 3091SOL    HW210173   0.719   2.596   0.984
 3092SOL     OW10174   6.091   1.310   2.256
 3092SOL    HW110175   6.174   1.306   2.200
 3092SOL    HW210176   6.102   1.251   2.336
 3093SOL     OW10177   6.793   5.651   6.702
 3093SOL    HW110178   6.767   5.744   6.729
 3093SOL    HW210179   6.723   5.586   6.734
 3094SOL     OW10180   2.447   1.499   6.549
 3094SOL    HW110181   2.535   1.542   6.569
 3094SOL    HW210182   2.457   1.437   6.472
 3095SOL     OW10183   1.463   4.125   5.322
 3095SOL    HW110184   1.560   4.106   5.308
 3095SOL    HW210185   1.413   4.039   5.333
 3096SOL     OW10186   1.411   3.045   4.301
 3096SOL    HW110187   1.375   3.028   4.393
 3096SOL    HW210188   1.505   3.078   4.308
 3097SOL     OW10189   5.283   2.801   4.954
 3097SOL    HW110190   5.220   2.745   4.900
 3097SOL    HW210191   5.255   2.800   5.050
 3098SOL     OW10192   1.976   3.130   3.473
 3098SOL    HW110193   2.040   3.162   3.402
 3098SOL    HW210194   1.888   3.111   3.431
 3099SOL     OW10195   0.508   6.899   4.932
 3099SOL    HW110196   0.541   6.975   4.876
 3099SOL    HW210197   0.584   6.837   4.951
 3100SOL     OW10198   5.649   4.827   1.723
 3100SOL    HW110199   5.725   4.862   1.778
 3100SOL    HW210200   5.666   4.845   1.627
 3101SOL     OW10201   4.727   0.092   5.177
 3101SOL    HW110202   4.701   0.100   5.273
 3101SOL    HW210203   4.711   7.012   5.146
 3102SOL     OW10204   6.124   4.583   2.275
 3102SOL    HW110205   6.078   4.671   2.291
 3102SOL    HW210206   6.199   4.573   2.339
 3103SOL     OW10207   2.476   1.917   1.466
 3103SOL    HW110208   2.420   1.998   1.486
 3103SOL    HW210209   2.418   1.836   1.465
 3104SOL     OW10210   5.694   2.786   5.103
 3104SOL    HW110211   5.646   2.873   5.117
 3104SOL    HW210212   5.632   2.710   5.123
 3105SOL     OW10213   5.864   3.670   0.524
 3105SOL    HW110214   5.830   3.655   0.432
 3105SOL    HW210215   5.867   3.768   0.544
 3106SOL     OW10216   5.117   1.630   5.394
 3106SOL    HW110217   5.046   1.682   5.442
 3106SOL    HW210218   5.198   1.621   5.452
 3107SOL     OW10219   3.026   2.241   5.506
 3107SOL    HW110220   3.123   2.221   5.492
 3107SOL    HW210221   2.977   2.229   5.419
 3108SOL     OW10222   2.272   4.315   3.141
 3108SOL    HW110223   2.248   4.239   3.082
 3108SOL    HW210224   2.215   4.313   3.223
 3109SOL     OW10225   6.729   6.651   3.680
 3109SOL    HW110226   6.684   6.739   3.663
 3109SOL    HW210227   6.828   6.666   3.692
 3110SOL     OW10228   0.768   5.604   3.198
 3110SOL    HW110229   0.848   5.549   3.174
 3110SOL    HW210230   0.698   5.594   3.128
 3111SOL     OW10231   6.113   3.961   4.139
 3111SOL    HW110232   6.114   3.956   4.039
 3111SOL    HW210233   6.074   4.049   4.167
 3112SOL     OW10234   3.746   1.308   6.855
 3112SOL    HW110235   3.738   1.225   6.909
 3112SOL    HW210236   3.666   1.316   6.795
 3113SOL     OW10237   1.351   6.357   3.023
 3113SOL    HW110238   1.344   6.394   3.116
 3113SOL    HW210239   1.361   6.433   2.958
 3114SOL     OW10240   4.841   0.408   6.031
 3114SOL    HW110241   4.763   0.347   6.018
 3114SOL    HW210242   4.808   0.502   6.039
 3115SOL     OW10243   4.929   5.673   5.312
 3115SOL    HW110244   4.871   5.755   5.307
 3115SOL    HW210245   5.016   5.696   5.355
 3116SOL     OW10246   0.835   0.911   6.724
 3116SOL    HW110247   0.790   1.000   6.721
 3116SOL    HW210248   0.787   0.851   6.788
 3117SOL     OW10249   4.671   0.345   0.495
 3117SOL    HW110250   4.653   0.396   0.411
 3117SOL    HW210251   4.701   0.407   0.567
 3118SOL     OW10252   1.665   1.473   3.337
 3118SOL    HW110253   1.687   1.394   3.395
 3118SOL    HW210254   1.635   1.549   3.395
 3119SOL     OW10255   4.876   5.957   4.715
 3119SOL    HW110256   4.809   6.012   4.664
 3119SOL    HW210257   4.910   6.010   4.792
 3120SOL     OW10258   2.192   5.386   6.385
 3120SOL    HW110259   2.267   5.365   6.322
 3120SOL    HW210260   2.230   5.425   6.469
 3121SOL     OW10261   3.682   2.091   4.484
 3121SOL    HW110262   3.600   2.118   4.432
 3121SOL    HW210263   3.757   2.153   4.462
 3122SOL     OW10264   5.341   5.004   5.784
 3122SOL    HW110265   5.423   4.958   5.751
 3122SOL    HW210266   5.342   5.009   5.884
 3123SOL     OW10267   1.839   1.450   2.544
 3123SOL    HW110268   1.874   1.414   2.458
 3123SOL    HW210269   1.852   1.383   2.617
 3124SOL     OW10270   4.641   0.104   4.555
 3124SOL    HW110271   4.684   0.179   4.606
 3124SOL    HW210272   4.711   0.036   4.532
 3125SOL     OW10273   1.995   1.424   5.545
 3125SOL    HW110274   2.041   1.397   5.629
 3125SOL    HW210275   1.915   1.479   5.567
 3126SOL     OW10276   4.882   4.602   5.774
 3126SOL    HW110277   4.943   4.523   5.777
 3126SOL    HW210278   4.924   4.674   5.719
 3127SOL     OW10279   0.209   1.244   5.271
 3127SOL    HW110280   0.122   1.290   5.253
 3127SOL    HW210281   0.227   1.176   5.200
 3128SOL     OW10282   3.386   0.632   0.760
 3128SOL    HW110283   3.469   0.578   0.778
 3128SOL    HW210284   3.411   0.717   0.715
 3129SOL     OW10285   4.127   3.843   0.191
 3129SOL    HW110286   4.182   3.812   0.269
 3129SOL    HW210287   4.052   3.779   0.175
 3130SOL     OW10288   6.953   5.567   2.106
 3130SOL    HW110289   6.905   5.499   2.163
 3130SOL    HW210290   6.917   5.658   2.125
 3131SOL     OW10291   6.246   4.372   3.056
 3131SOL    HW110292   6.281   4.460   3.088
 3131SOL    HW210293   6.319   4.303   3.063
 3132SOL     OW10294   4.725   3.928   0.337
 3132SOL    HW110295   4.765   3.902   0.425
 3132SOL    HW210296   4.631   3.960   0.352
 3133SOL     OW10297   4.564   6.819   4.329
 3133SOL    HW110298   4.577   6.871   4.245
 3133SOL    HW210299   4.632   6.847   4.396
 3134SOL     OW10300   6.416   5.192   2.624
 3134SOL    HW110301   6.350   5.138   2.675
 3134SOL    HW210302   6.507   5.181   2.664
 3135SOL     OW10303   3.844   4.935   6.827
 3135SOL    HW110304   3.831   5.029   6.795
 3135SOL    HW210305   3.941   4.919   6.845
 3136SOL     OW10306   5.925   0.550   3.371
 3136SOL    HW110307   5.921   0.625   3.305
 3136SOL    HW210308   5.882   0.579   3.456
 3137SOL     OW10309   5.050   6.367   0.453
 3137SOL    HW110310   5.016   6.276   0.430
 3137SOL    HW210311   5.004   6.436   0.396
 3138SOL     OW10312   6.556   6.486   5.000
 3138SOL    HW110313   6.591   6.580   5.003
 3138SOL    HW210314   6.459   6.488   4.976
 3139SOL     OW10315   2.405   5.018   1.752
 3139SOL    HW110316   2.471   4.980   1.687
 3139SOL    HW210317   2.443   5.100   1.795
 3140SOL     OW10318   0.295   6.753   0.037
 3140SOL    HW110319   0.342   6.735   6.964
 3140SOL    HW210320   0.324   6.685   0.105
 3141SOL     OW10321   5.732   2.135   6.654
 3141SOL    HW110322   5.669   2.067   6.691
 3141SOL    HW210323   5.711   2.225   6.692
 3142SOL     OW10324   4.635   0.856   3.944
 3142SOL    HW110325   4.695   0.841   4.023
 3142SOL    HW210326   4.682   0.828   3.861
 3143SOL     OW10327   6.373   1.461   0.756
 3143SOL    HW110328   6.381   1.525   0.833
 3143SOL    HW210329   6.336   1.509   0.677
 3144SOL     OW10330   3.811   4.298   0.273
 3144SOL    HW110331   3.760   4.365   0.220
 3144SOL    HW210332   3.834   4.219   0.216
 3145SOL     OW10333   0.616   6.110   6.941
 3145SOL    HW110334   0.702   6.128   6.895
 3145SOL    HW210335   0.628   6.122   0.026
 3146SOL     OW10336   6.406   1.466   4.389
 3146SOL    HW110337   6.421   1.367   4.399
 3146SOL    HW210338   6.494   1.510   4.371
 3147SOL     OW10339   3.881   6.320   0.288
 3147SOL    HW110340   3.865   6.310   0.189
 3147SOL    HW210341   3.854   6.235   0.334
 3148SOL     OW10342   6.921   5.032   1.473
 3148SOL    HW110343   6.937   5.119   1.426
 3148SOL    HW210344   6.997   4.970   1.454
 3149SOL     OW10345   3.455   2.332   7.010
 3149SOL    HW110346   3.429   2.393   6.936
 3149SOL    HW210347   3.502   2.383   0.068
 3150SOL     OW10348   0.066   6.285   5.828
 3150SOL    HW110349   0.012   6.369   5.823
 3150SOL    HW210350   0.073   6.256   5.923
 3151SOL     OW10351   0.032   0.861   5.341
 3151SOL    HW110352   0.015   0.870   5.243
 3151SOL    HW210353   0.094   0.934   5.370
 3152SOL     OW10354   1.445   2.945   5.404
 3152SOL    HW110355   1.442   2.935   5.305
 3152SOL    HW210356   1.464   3.041   5.427
 3153SOL     OW10357   5.949   5.602   1.884
 3153SOL    HW110358   5.892   5.553   1.818
 3153SOL    HW210359   5.976   5.691   1.846
 3154SOL     OW10360   4.203   1.255   0.314
 3154SOL    HW110361   4.179   1.254   0.217
 3154SOL    HW210362   4.137   1.312   0.364
 3155SOL     OW10363   0.848   4.996   0.105
 3155SOL    HW110364   0.921   5.030   0.045
 3155SOL    HW210365   0.762   4.996   0.054
 3156SOL     OW10366   3.969   4.119   1.208
 3156SOL    HW110367   3.957   4.097   1.111
 3156SOL    HW210368   4.022   4.046   1.252
 3157SOL     OW10369   1.062   0.729   5.052
 3157SOL    HW110370   1.157   0.748   5.078
 3157SOL    HW210371   1.059   0.653   4.988
 3158SOL     OW10372   1.705   1.171   5.576
 3158SOL    HW110373   1.615   1.133   5.557
 3158SOL    HW210374   1.706   1.268   5.552
 3159SOL     OW10375   5.147   0.455   0.194
 3159SOL    HW110376   5.197   0.400   0.260
 3159SOL    HW210377   5.186   0.547   0.191
 3160SOL     OW10378   1.903   0.591   5.647
 3160SOL    HW110379   1.949   0.539   5.720
 3160SOL    HW210380   1.971   0.641   5.593
 3161SOL     OW10381   1.953   3.071   2.194
 3161SOL    HW110382   2.039   3.020   2.196
 3161SOL    HW210383   1.973   3.169   2.186
 3162SOL     OW10384   1.206   5.596   1.573
 3162SOL    HW110385   1.204   5.619   1.670
 3162SOL    HW210386   1.290   5.632   1.532
 3163SOL     OW10387   4.334   4.559   0.689
 3163SOL    HW110388   4.361   4.582   0.783
 3163SOL    HW210389   4.409   4.512   0.643
 3164SOL     OW10390   2.625   6.620   3.699
 3164SOL    HW110391   2.683   6.596   3.621
 3164SOL    HW210392   2.682   6.661   3.771
 3165SOL     OW10393   1.345   5.911   6.164
 3165SOL    HW110394   1.298   5.861   6.237
 3165SOL    HW210395   1.287   5.912   6.082
 3166SOL     OW10396   5.107   1.217   5.089
 3166SOL    HW110397   5.204   1.197   5.099
 3166SOL    HW210398   5.074   1.265   5.170
 3167SOL     OW10399   5.593   3.193   1.161
 3167SOL    HW110400   5.594   3.252   1.080
 3167SOL    HW210401   5.500   3.188   1.197
 3168SOL     OW10402   4.432   1.738   0.529
 3168SOL    HW110403   4.371   1.709   0.456
 3168SOL    HW210404   4.470   1.827   0.508
 3169SOL     OW10405   2.044   4.446   1.875
 3169SOL    HW110406   2.003   4.478   1.789
 3169SOL    HW210407   2.039   4.520   1.942
 3170SOL     OW10408   2.178   3.780   3.687
 3170SOL    HW110409   2.244   3.827   3.629
 3170SOL    HW210410   2.089   3.778   3.642
 3171SOL     OW10411   5.201   1.808   3.625
 3171SOL    HW110412   5.213   1.727   3.683
 3171SOL    HW210413   5.159   1.780   3.538
 3172SOL     OW10414   5.581   4.384   1.843
 3172SOL    HW110415   5.544   4.465   1.797
 3172SOL    HW210416   5.509   4.342   1.898
 3173SOL     OW10417   4.799   2.846   0.445
 3173SOL    HW110418   4.855   2.774   0.403
 3173SOL    HW210419   4.816   2.850   0.543
 3174SOL     OW10420   3.199   2.491   6.261
 3174SOL    HW110421   3.149   2.511   6.345
 3174SOL    HW210422   3.228   2.576   6.218
 3175SOL     OW10423   5.502   0.209   5.735
 3175SOL    HW110424   5.549   0.237   5.651
 3175SOL    HW210425   5.414   0.256   5.741
 3176SOL     OW10426   0.263   4.952   3.782
 3176SOL    HW110427   0.238   5.023   3.715
 3176SOL    HW210428   0.345   4.980   3.831
 3177SOL     OW10429   5.514   3.314   3.268
 3177SOL    HW110430   5.419   3.332   3.241
 3177SOL    HW210431   5.517   3.294   3.366
 3178SOL     OW10432   0.414   1.072   2.273
 3178SOL    HW110433   0.327   1.041   2.235
 3178SOL    HW210434   0.401   1.100   2.368
 3179SOL     OW10435   1.012   2.715   2.351
 3179SOL    HW110436   0.930   2.761   2.386
 3179SOL    HW210437   1.068   2.781   2.302
 3180SOL     OW10438   0.236   5.759   0.362
 3180SOL    HW110439   0.222   5.743   0.265
 3180SOL    HW210440   0.180   5.837   0.391
 3181SOL     OW10441   1.402   6.413   5.430
 3181SOL    HW110442   1.474   6.412   5.361
 3181SOL    HW210443   1.379   6.320   5.457
 3182SOL     OW10444   2.423   0.683   1.116
 3182SOL    HW110445   2.514   0.713   1.085
 3182SOL    HW210446   2.423   0.675   1.215
 3183SOL     OW10447   4.042   3.179   1.343
 3183SOL    HW110448   4.104   3.176   1.421
 3183SOL    HW210449   4.031   3.087   1.306
 3184SOL     OW10450   6.675   1.752   4.447
 3184SOL    HW110451   6.663   1.697   4.530
 3184SOL    HW210452   6.690   1.847   4.472
 3185SOL     OW10453   0.631   5.841   6.344
 3185SOL    HW110454   0.663   5.932   6.371
 3185SOL    HW210455   0.633   5.834   6.244
 3186SOL     OW10456   0.491   2.395   6.413
 3186SOL    HW110457   0.483   2.306   6.368
 3186SOL    HW210458   0.571   2.444   6.376
 3187SOL     OW10459   5.032   6.245   3.050
 3187SOL    HW110460   5.026   6.152   3.087
 3187SOL    HW210461   4.947   6.294   3.070
 3188SOL     OW10462   1.840   5.926   6.869
 3188SOL    HW110463   1.805   6.008   6.824
 3188SOL    HW210464   1.883   5.951   6.955
 3189SOL     OW10465   3.360   1.229   5.236
 3189SOL    HW110466   3.434   1.189   5.291
 3189SOL    HW210467   3.329   1.161   5.169
 3190SOL     OW10468   5.893   6.258   4.272
 3190SOL    HW110469   5.827   6.203   4.323
 3190SOL    HW210470   5.986   6.237   4.304
 3191SOL     OW10471   3.536   5.503   1.007
 3191SOL    HW110472   3.577   5.414   0.985
 3191SOL    HW210473   3.497   5.542   0.924
 3192SOL     OW10474   5.539   1.304   2.576
 3192SOL    HW110475   5.611   1.365   2.543
 3192SOL    HW210476   5.494   1.260   2.499
 3193SOL     OW10477   3.465   7.012   4.879
 3193SOL    HW110478   3.405   0.057   4.824
 3193SOL    HW210479   3.556   0.039   4.884
 3194SOL     OW10480   1.820   0.318   6.491
 3194SOL    HW110481   1.737   0.275   6.458
 3194SOL    HW210482   1.898   0.286   6.438
 3195SOL     OW10483   0.953   1.364   1.047
 3195SOL    HW110484   0.954   1.264   1.051
 3195SOL    HW210485   0.925   1.400   1.136
 3196SOL     OW10486   5.439   6.480   3.749
 3196SOL    HW110487   5.448   6.572   3.787
 3196SOL    HW210488   5.481   6.476   3.659
 3197SOL     OW10489   2.618   0.562   6.430
 3197SOL    HW110490   2.551   0.550   6.504
 3197SOL    HW210491   2.709   0.536   6.463
 3198SOL     OW10492   5.356   3.121   3.622
 3198SOL    HW110493   5.408   3.081   3.547
 3198SOL    HW210494   5.327   3.048   3.684
 3199SOL     OW10495   5.075   3.840   2.790
 3199SOL    HW110496   4.999   3.904   2.793
 3199SOL    HW210497   5.052   3.764   2.729
 3200SOL     OW10498   5.127   3.673   3.921
 3200SOL    HW110499   5.172   3.705   4.005
 3200SOL    HW210500   5.147   3.737   3.847
 3201SOL     OW10501   5.902   4.183   2.283
 3201SOL    HW110502   5.934   4.251   2.217
 3201SOL    HW210503   5.980   4.134   2.321
 3202SOL     OW10504   2.469   3.225   6.897
 3202SOL    HW110505   2.408   3.292   6.939
 3202SOL    HW210506   2.521   3.178   6.968
 3203SOL     OW10507   3.393   6.965   1.245
 3203SOL    HW110508   3.484   6.926   1.257
 3203SOL    HW210509   3.399   0.050   1.237
 3204SOL     OW10510   3.495   1.589   4.027
 3204SOL    HW110511   3.437   1.508   4.037
 3204SOL    HW210512   3.447   1.669   4.063
 3205SOL     OW10513   4.886   3.597   6.069
 3205SOL    HW110514   4.967   3.544   6.043
 3205SOL    HW210515   4.863   3.660   5.995
 3206SOL     OW10516   2.844   4.000   1.319
 3206SOL    HW110517   2.882   3.914   1.352
 3206SOL    HW210518   2.803   3.985   1.229
 3207SOL     OW10519   2.176   5.322   5.227
 3207SOL    HW110520   2.254   5.329   5.289
 3207SOL    HW210521   2.195   5.254   5.156
 3208SOL     OW10522   6.932   5.002   6.406
 3208SOL    HW110523   6.952   4.905   6.420
 3208SOL    HW210524   0.002   5.050   6.379
 3209SOL     OW10525   5.186   5.675   6.202
 3209SOL    HW110526   5.155   5.726   6.122
 3209SOL    HW210527   5.138   5.707   6.283
 3210SOL     OW10528   5.734   5.880   1.787
 3210SOL    HW110529   5.813   5.906   1.842
 3210SOL    HW210530   5.651   5.888   1.842
 3211SOL     OW10531   1.903   6.033   6.578
 3211SOL    HW110532   1.826   6.009   6.520
 3211SOL    HW210533   1.957   6.105   6.535
 3212SOL     OW10534   2.146   0.037   3.133
 3212SOL    HW110535   2.155   0.079   3.043
 3212SOL    HW210536   2.185   6.959   3.131
 3213SOL     OW10537   1.106   6.593   5.874
 3213SOL    HW110538   1.052   6.548   5.803
 3213SOL    HW210539   1.072   6.686   5.887
 3214SOL     OW10540   3.529   0.922   2.802
 3214SOL    HW110541   3.519   0.862   2.722
 3214SOL    HW210542   3.442   0.967   2.820
 3215SOL     OW10543   1.754   3.355   1.899
 3215SOL    HW110544   1.827   3.423   1.889
 3215SOL    HW210545   1.723   3.354   1.994
 3216SOL     OW10546   6.129   4.946   1.029
 3216SOL    HW110547   6.035   4.977   1.040
 3216SOL    HW210548   6.132   4.866   0.970
 3217SOL     OW10549   6.888   6.142   2.334
 3217SOL    HW110550   6.914   6.106   2.244
 3217SOL    HW210551   6.844   6.231   2.323
 3218SOL     OW10552   5.403   1.068   2.947
 3218SOL    HW110553   5.429   0.998   3.014
 3218SOL    HW210554   5.345   1.136   2.991
 3219SOL     OW10555   6.430   1.247   4.896
 3219SOL    HW110556   6.481   1.276   4.977
 3219SOL    HW210557   6.423   1.148   4.895
 3220SOL     OW10558   0.019   4.352   6.037
 3220SOL    HW110559   0.100   4.294   6.045
 3220SOL    HW210560   0.046   4.448   6.048
 3221SOL     OW10561   3.078   1.462   1.915
 3221SOL    HW110562   3.140   1.403   1.967
 3221SOL    HW210563   3.047   1.537   1.973
 3222SOL     OW10564   3.125   1.171   3.949
 3222SOL    HW110565   3.065   1.122   3.885
 3222SOL    HW210566   3.099   1.149   4.043
 3223SOL     OW10567   1.600   5.358   0.256
 3223SOL    HW110568   1.615   5.412   0.173
 3223SOL    HW210569   1.512   5.384   0.296
 3224SOL     OW10570   3.642   1.868   4.006
 3224SOL    HW110571   3.593   1.781   4.016
 3224SOL    HW210572   3.740   1.851   4.007
 3225SOL     OW10573   4.087   1.615   4.116
 3225SOL    HW110574   4.085   1.531   4.169
 3225SOL    HW210575   4.180   1.637   4.089
 3226SOL     OW10576   5.780   0.306   0.394
 3226SOL    HW110577   5.719   0.356   0.456
 3226SOL    HW210578   5.870   0.349   0.394
 3227SOL     OW10579   5.477   4.771   5.259
 3227SOL    HW110580   5.477   4.741   5.354
 3227SOL    HW210581   5.570   4.768   5.222
 3228SOL     OW10582   2.294   4.348   0.321
 3228SOL    HW110583   2.359   4.396   0.262
 3228SOL    HW210584   2.328   4.348   0.415
 3229SOL     OW10585   1.788   2.181   0.349
 3229SOL    HW110586   1.728   2.215   0.277
 3229SOL    HW210587   1.760   2.220   0.436
 3230SOL     OW10588   2.904   6.256   5.382
 3230SOL    HW110589   2.957   6.237   5.300
 3230SOL    HW210590   2.939   6.201   5.458
 3231SOL     OW10591   1.791   2.046   2.765
 3231SOL    HW110592   1.879   2.017   2.727
 3231SOL    HW210593   1.801   2.060   2.863
 3232SOL     OW10594   3.458   5.134   4.499
 3232SOL    HW110595   3.379   5.157   4.443
 3232SOL    HW210596   3.439   5.051   4.552
 3233SOL     OW10597   0.670   1.059   0.495
 3233SOL    HW110598   0.706   0.984   0.551
 3233SOL    HW210599   0.679   1.035   0.398
 3234SOL     OW10600   2.872   2.766   1.120
 3234SOL    HW110601   2.945   2.720   1.070
 3234SOL    HW210602   2.909   2.803   1.206
 3235SOL     OW10603   1.230   0.204   3.123
 3235SOL    HW110604   1.185   0.285   3.086
 3235SOL    HW210605   1.274   0.153   3.049
 3236SOL     OW10606   4.221   1.646   0.363
 3236SOL    HW110607   4.182   1.598   0.441
 3236SOL    HW210608   4.241   1.581   0.290
 3237SOL     OW10609   5.950   2.050   5.464
 3237SOL    HW110610   6.048   2.058   5.446
 3237SOL    HW210611   5.918   1.960   5.435
 3238SOL     OW10612   6.593   4.756   1.593
 3238SOL    HW110613   6.612   4.846   1.632
 3238SOL    HW210614   6.664   4.692   1.623
 3239SOL     OW10615   6.717   0.120   4.715
 3239SOL    HW110616   6.618   0.115   4.720
 3239SOL    HW210617   6.752   0.041   4.665
 3240SOL     OW10618   6.832   0.623   0.200
 3240SOL    HW110619   6.887   0.696   0.242
 3240SOL    HW210620   6.736   0.651   0.199
 3241SOL     OW10621   6.415   2.947   5.469
 3241SOL    HW110622   6.453   2.855   5.468
 3241SOL    HW210623   6.481   3.011   5.428
 3242SOL     OW10624   6.298   3.688   4.594
 3242SOL    HW110625   6.248   3.717   4.513
 3242SOL    HW210626   6.234   3.664   4.666
 3243SOL     OW10627   5.893   4.441   4.446
 3243SOL    HW110628   5.951   4.521   4.441
 3243SOL    HW210629   5.922   4.383   4.522
 3244SOL     OW10630   5.035   0.192   6.946
 3244SOL    HW110631   5.120   0.244   6.937
 3244SOL    HW210632   5.012   0.150   6.858
 3245SOL     OW10633   3.956   6.981   5.464
 3245SOL    HW110634   3.994   0.055   5.436
 3245SOL    HW210635   3.968   6.914   5.391
 3246SOL     OW10636   0.202   0.641   2.622
 3246SOL    HW110637   0.240   0.733   2.634
 3246SOL    HW210638   0.259   0.590   2.557
 3247SOL     OW10639   0.577   3.862   3.732
 3247SOL    HW110640   0.639   3.930   3.693
 3247SOL    HW210641   0.541   3.804   3.659
 3248SOL     OW10642   5.285   2.133   3.458
 3248SOL    HW110643   5.227   2.134   3.539
 3248SOL    HW210644   5.347   2.055   3.461
 3249SOL     OW10645   3.291   4.013   3.554
 3249SOL    HW110646   3.323   4.057   3.638
 3249SOL    HW210647   3.363   3.954   3.519
 3250SOL     OW10648   4.705   5.501   2.354
 3250SOL    HW110649   4.768   5.460   2.289
 3250SOL    HW210650   4.611   5.491   2.321
 3251SOL     OW10651   2.438   1.697   3.057
 3251SOL    HW110652   2.507   1.648   3.003
 3251SOL    HW210653   2.458   1.795   3.054
 3252SOL     OW10654   1.952   0.833   2.910
 3252SOL    HW110655   2.044   0.795   2.916
 3252SOL    HW210656   1.899   0.781   2.842
 3253SOL     OW10657   6.516   3.573   0.421
 3253SOL    HW110658   6.448   3.643   0.442
 3253SOL    HW210659   6.472   3.484   0.413
 3254SOL     OW10660   5.973   6.855   1.018
 3254SOL    HW110661   5.888   6.882   0.974
 3254SOL    HW210662   5.967   6.759   1.045
 3255SOL     OW10663   5.020   6.288   1.440
 3255SOL    HW110664   5.079   6.333   1.372
 3255SOL    HW210665   5.017   6.344   1.523
 3256SOL     OW10666   5.052   2.871   1.343
 3256SOL    HW110667   5.068   2.885   1.245
 3256SOL    HW210668   4.960   2.834   1.357
 3257SOL     OW10669   2.918   1.634   3.086
 3257SOL    HW110670   2.843   1.699   3.074
 3257SOL    HW210671   2.958   1.611   2.996
 3258SOL     OW10672   2.374   5.247   3.874
 3258SOL    HW110673   2.309   5.171   3.876
 3258SOL    HW210674   2.328   5.330   3.906
 3259SOL     OW10675   5.009   4.150   4.121
 3259SOL    HW110676   4.923   4.099   4.107
 3259SOL    HW210677   5.084   4.100   4.078
 3260SOL     OW10678   1.366   4.411   3.076
 3260SOL    HW110679   1.386   4.333   3.135
 3260SOL    HW210680   1.272   4.443   3.093
 3261SOL     OW10681   5.235   0.191   3.927
 3261SOL    HW110682   5.206   0.139   3.847
 3261SOL    HW210683   5.178   0.273   3.936
 3262SOL     OW10684   2.688   1.548   3.547
 3262SOL    HW110685   2.649   1.616   3.608
 3262SOL    HW210686   2.616   1.509   3.490
 3263SOL     OW10687   0.281   0.913   2.643
 3263SOL    HW110688   0.216   0.942   2.573
 3263SOL    HW210689   0.267   0.968   2.726
 3264SOL     OW10690   1.509   4.668   6.386
 3264SOL    HW110691   1.490   4.762   6.415
 3264SOL    HW210692   1.430   4.611   6.406
 3265SOL     OW10693   6.589   5.435   6.472
 3265SOL    HW110694   6.570   5.365   6.404
 3265SOL    HW210695   6.685   5.464   6.465
 3266SOL     OW10696   3.210   5.218   6.325
 3266SOL    HW110697   3.175   5.194   6.234
 3266SOL    HW210698   3.242   5.136   6.371
 3267SOL     OW10699   3.317   0.005   0.374
 3267SOL    HW110700   3.239   6.959   0.395
 3267SOL    HW210701   3.358   0.036   0.460
 3268SOL     OW10702   6.175   5.492   2.045
 3268SOL    HW110703   6.098   5.529   1.993
 3268SOL    HW210704   6.209   5.562   2.108
 3269SOL     OW10705   1.678   4.669   0.979
 3269SOL    HW110706   1.588   4.699   0.946
 3269SOL    HW210707   1.706   4.726   1.056
 3270SOL     OW10708   1.007   2.574   5.580
 3270SOL    HW110709   1.050   2.485   5.585
 3270SOL    HW210710   0.953   2.581   5.496
 3271SOL     OW10711   1.034   3.209   2.120
 3271SOL    HW110712   1.018   3.193   2.217
 3271SOL    HW210713   1.088   3.292   2.108
 3272SOL     OW10714   4.371   6.206   0.960
 3272SOL    HW110715   4.441   6.191   0.890
 3272SOL    HW210716   4.348   6.119   1.003
 3273SOL     OW10717   4.299   3.684   6.529
 3273SOL    HW110718   4.255   3.653   6.445
 3273SOL    HW210719   4.351   3.767   6.511
 3274SOL     OW10720   5.666   0.144   1.766
 3274SOL    HW110721   5.707   0.227   1.803
 3274SOL    HW210722   5.576   0.165   1.727
 3275SOL     OW10723   4.675   0.406   1.691
 3275SOL    HW110724   4.668   0.317   1.645
 3275SOL    HW210725   4.584   0.445   1.702
 3276SOL     OW10726   5.157   6.959   0.353
 3276SOL    HW110727   5.110   6.990   0.436
 3276SOL    HW210728   5.162   0.021   0.288
 3277SOL     OW10729   3.350   2.093   2.271
 3277SOL    HW110730   3.424   2.055   2.327
 3277SOL    HW210731   3.345   2.192   2.286
 3278SOL     OW10732   5.879   0.924   6.118
 3278SOL    HW110733   5.795   0.945   6.068
 3278SOL    HW210734   5.860   0.853   6.186
 3279SOL     OW10735   3.243   0.268   2.092
 3279SOL    HW110736   3.290   0.311   2.169
 3279SOL    HW210737   3.202   0.182   2.122
 3280SOL     OW10738   6.112   3.473   4.184
 3280SOL    HW110739   6.147   3.558   4.223
 3280SOL    HW210740   6.102   3.405   4.256
 3281SOL     OW10741   5.572   3.396   1.807
 3281SOL    HW110742   5.487   3.449   1.804
 3281SOL    HW210743   5.560   3.315   1.864
 3282SOL     OW10744   0.107   5.213   4.666
 3282SOL    HW110745   0.138   5.159   4.588
 3282SOL    HW210746   0.174   5.206   4.740
 3283SOL     OW10747   3.490   1.874   0.760
 3283SOL    HW110748   3.547   1.887   0.841
 3283SOL    HW210749   3.490   1.777   0.735
 3284SOL     OW10750   2.389   5.988   4.245
 3284SOL    HW110751   2.443   6.024   4.169
 3284SOL    HW210752   2.395   5.888   4.247
 3285SOL     OW10753   3.568   2.097   4.998
 3285SOL    HW110754   3.483   2.078   5.048
 3285SOL    HW210755   3.578   2.030   4.924
 3286SOL     OW10756   1.787   2.073   2.351
 3286SOL    HW110757   1.771   2.172   2.353
 3286SOL    HW210758   1.703   2.025   2.376
 3287SOL     OW10759   2.132   0.341   0.461
 3287SOL    HW110760   2.196   0.273   0.497
 3287SOL    HW210761   2.085   0.303   0.382
 3288SOL     OW10762   2.623   6.166   2.084
 3288SOL    HW110763   2.720   6.147   2.067
 3288SOL    HW210764   2.571   6.148   2.000
 3289SOL     OW10765   4.274   0.876   6.352
 3289SOL    HW110766   4.317   0.945   6.293
 3289SOL    HW210767   4.330   0.793   6.353
 3290SOL     OW10768   0.678   5.967   0.291
 3290SOL    HW110769   0.754   5.996   0.233
 3290SOL    HW210770   0.646   6.045   0.345
 3291SOL     OW10771   4.940   0.092   4.887
 3291SOL    HW110772   4.922   0.185   4.921
 3291SOL    HW210773   4.980   0.097   4.796
 3292SOL     OW10774   0.054   2.312   0.816
 3292SOL    HW110775   0.149   2.341   0.817
 3292SOL    HW210776   0.002   2.361   0.885
 3293SOL     OW10777   5.871   5.903   4.122
 3293SOL    HW110778   5.918   5.929   4.037
 3293SOL    HW210779   5.805   5.830   4.103
 3294SOL     OW10780   5.116   2.733   5.354
 3294SOL    HW110781   5.093   2.786   5.436
 3294SOL    HW210782   5.072   2.774   5.274
 3295SOL     OW10783   0.627   2.343   2.476
 3295SOL    HW110784   0.587   2.420   2.427
 3295SOL    HW210785   0.670   2.280   2.410
 3296SOL     OW10786   1.669   0.791   5.853
 3296SOL    HW110787   1.724   0.873   5.837
 3296SOL    HW210788   1.666   0.736   5.770
 3297SOL     OW10789   3.553   1.267   4.877
 3297SOL    HW110790   3.502   1.311   4.951
 3297SOL    HW210791   3.497   1.195   4.835
 3298SOL     OW10792   5.434   3.746   6.005
 3298SOL    HW110793   5.390   3.711   5.922
 3298SOL    HW210794   5.370   3.806   6.054
 3299SOL     OW10795   2.747   4.707   3.864
 3299SOL    HW110796   2.717   4.618   3.829
 3299SOL    HW210797   2.700   4.779   3.813
 3300SOL     OW10798   1.952   6.502   3.959
 3300SOL    HW110799   2.044   6.529   3.985
 3300SOL    HW210800   1.916   6.565   3.891
 3301SOL     OW10801   0.914   1.166   3.342
 3301SOL    HW110802   0.921   1.204   3.435
 3301SOL    HW210803   1.004   1.171   3.298
 3302SOL     OW10804   1.390   5.221   5.244
 3302SOL    HW110805   1.330   5.213   5.164
 3302SOL    HW210806   1.437   5.134   5.259
 3303SOL     OW10807   3.272   3.200   0.277
 3303SOL    HW110808   3.192   3.250   0.310
 3303SOL    HW210809   3.271   3.107   0.315
 3304SOL     OW10810   2.869   4.737   0.142
 3304SOL    HW110811   2.886   4.746   0.240
 3304SOL    HW210812   2.935   4.672   0.103
 3305SOL     OW10813   3.099   2.907   0.685
 3305SOL    HW110814   3.064   2.951   0.768
 3305SOL    HW210815   3.177   2.849   0.709
 3306SOL     OW10816   2.200   0.720   0.052
 3306SOL    HW110817   2.196   0.790   6.994
 3306SOL    HW210818   2.197   0.765   0.142
 3307SOL     OW10819   1.137   6.498   5.386
 3307SOL    HW110820   1.087   6.472   5.304
 3307SOL    HW210821   1.220   6.443   5.394
 3308SOL     OW10822   4.121   4.908   1.186
 3308SOL    HW110823   4.053   4.953   1.129
 3308SOL    HW210824   4.105   4.931   1.282
 3309SOL     OW10825   5.761   2.768   3.063
 3309SOL    HW110826   5.815   2.833   3.116
 3309SOL    HW210827   5.664   2.789   3.074
 3310SOL     OW10828   6.458   4.668   6.209
 3310SOL    HW110829   6.521   4.714   6.273
 3310SOL    HW210830   6.501   4.663   6.119
 3311SOL     OW10831   3.045   3.713   0.553
 3311SOL    HW110832   3.005   3.625   0.579
 3311SOL    HW210833   3.145   3.707   0.562
 3312SOL     OW10834   4.217   2.425   5.925
 3312SOL    HW110835   4.168   2.375   5.996
 3312SOL    HW210836   4.300   2.465   5.964
 3313SOL     OW10837   0.323   0.518   3.640
 3313SOL    HW110838   0.273   0.532   3.554
 3313SOL    HW210839   0.289   0.435   3.685
 3314SOL     OW10840   3.061   5.469   2.273
 3314SOL    HW110841   3.093   5.401   2.207
 3314SOL    HW210842   3.139   5.507   2.324
 3315SOL     OW10843   0.222   5.975   4.620
 3315SOL    HW110844   0.263   5.918   4.549
 3315SOL    HW210845   0.191   6.061   4.581
 3316SOL     OW10846   4.748   2.311   6.630
 3316SOL    HW110847   4.826   2.286   6.573
 3316SOL    HW210848   4.773   2.302   6.727
 3317SOL     OW10849   5.057   2.754   1.986
 3317SOL    HW110850   5.141   2.752   2.039
 3317SOL    HW210851   5.062   2.687   1.912
 3318SOL     OW10852   3.235   2.929   0.419
 3318SOL    HW110853   3.190   2.928   0.508
 3318SOL    HW210854   3.315   2.868   0.421
 3319SOL     OW10855   6.393   5.606   3.318
 3319SOL    HW110856   6.295   5.617   3.304
 3319SOL    HW210857   6.427   5.678   3.378
 3320SOL     OW10858   6.463   6.909   1.692
 3320SOL    HW110859   6.430   6.816   1.700
 3320SOL    HW210860   6.446   6.943   1.600
 3321SOL     OW10861   4.745   2.025   0.238
 3321SOL    HW110862   4.786   2.106   0.280
 3321SOL    HW210863   4.761   2.027   0.139
 3322SOL     OW10864   6.446   3.439   0.805
 3322SOL    HW110865   6.514   3.499   0.846
 3322SOL    HW210866   6.355   3.466   0.836
 3323SOL     OW10867   1.485   2.190   1.512
 3323SOL    HW110868   1.398   2.142   1.502
 3323SOL    HW210869   1.538   2.182   1.427
 3324SOL     OW10870   5.318   5.928   5.697
 3324SOL    HW110871   5.331   5.833   5.726
 3324SOL    HW210872   5.352   5.990   5.769
 3325SOL     OW10873   2.351   4.136   5.550
 3325SOL    HW110874   2.414   4.138   5.473
 3325SOL    HW210875   2.258   4.156   5.518
 3326SOL     OW10876   4.402   1.574   2.441
 3326SOL    HW110877   4.386   1.614   2.531
 3326SOL    HW210878   4.336   1.500   2.425
 3327SOL     OW10879   0.432   4.957   6.363
 3327SOL    HW110880   0.446   4.959   6.462
 3327SOL    HW210881   0.518   4.934   6.318
 3328SOL     OW10882   4.481   2.539   5.937
 3328SOL    HW110883   4.553   2.530   6.006
 3328SOL    HW210884   4.471   2.636   5.913
 3329SOL     OW10885   6.571   5.889   5.701
 3329SOL    HW110886   6.640   5.880   5.630
 3329SOL    HW210887   6.608   5.859   5.789
 3330SOL     OW10888   0.156   3.571   2.826
 3330SOL    HW110889   0.109   3.483   2.821
 3330SOL    HW210890   0.099   3.637   2.875
 3331SOL     OW10891   1.903   3.633   0.495
 3331SOL    HW110892   1.806   3.655   0.494
 3331SOL    HW210893   1.954   3.713   0.527
 3332SOL     OW10894   6.337   4.712   1.827
 3332SOL    HW110895   6.309   4.773   1.753
 3332SOL    HW210896   6.387   4.764   1.896
 3333SOL     OW10897   3.842   5.202   6.708
 3333SOL    HW110898   3.810   5.205   6.613
 3333SOL    HW210899   3.942   5.195   6.709
 3334SOL     OW10900   2.175   4.304   1.630
 3334SOL    HW110901   2.268   4.302   1.593
 3334SOL    HW210902   2.176   4.345   1.721
 3335SOL     OW10903   6.168   4.106   4.741
 3335SOL    HW110904   6.199   4.190   4.697
 3335SOL    HW210905   6.238   4.073   4.804
 3336SOL     OW10906   2.682   6.005   5.644
 3336SOL    HW110907   2.776   5.991   5.614
 3336SOL    HW210908   2.682   6.044   5.736
 3337SOL     OW10909   3.925   1.723   0.305
 3337SOL    HW110910   4.022   1.727   0.329
 3337SOL    HW210911   3.910   1.651   0.238
 3338SOL     OW10912   6.751   4.134   0.254
 3338SOL    HW110913   6.679   4.183   0.206
 3338SOL    HW210914   6.759   4.167   0.348
 3339SOL     OW10915   0.671   5.878   6.084
 3339SOL    HW110916   0.744   5.938   6.052
 3339SOL    HW210917   0.582   5.914   6.054
 3340SOL     OW10918   3.654   6.481   1.866
 3340SOL    HW110919   3.752   6.467   1.875
 3340SOL    HW210920   3.633   6.579   1.870
 3341SOL     OW10921   0.806   0.114   2.064
 3341SOL    HW110922   0.828   0.038   2.004
 3341SOL    HW210923   0.796   0.081   2.158
 3342SOL     OW10924   2.399   6.999   4.199
 3342SOL    HW110925   2.483   0.039   4.211
 3342SOL    HW210926   2.421   6.902   4.202
 3343SOL     OW10927   6.262   2.417   1.263
 3343SOL    HW110928   6.221   2.326   1.261
 3343SOL    HW210929   6.335   2.420   1.331
 3344SOL     OW10930   6.761   3.373   5.136
 3344SOL    HW110931   6.822   3.324   5.198
 3344SOL    HW210932   6.725   3.454   5.182
 3345SOL     OW10933   3.124   3.764   6.238
 3345SOL    HW110934   3.140   3.668   6.213
 3345SOL    HW210935   3.205   3.800   6.283
 3346SOL     OW10936   1.581   5.774   2.123
 3346SOL    HW110937   1.650   5.774   2.051
 3346SOL    HW210938   1.620   5.818   2.205
 3347SOL     OW10939   5.648   3.960   4.572
 3347SOL    HW110940   5.584   3.998   4.639
 3347SOL    HW210941   5.737   4.003   4.583
 3348SOL     OW10942   3.837   3.599   3.182
 3348SOL    HW110943   3.853   3.505   3.154
 3348SOL    HW210944   3.904   3.659   3.138
 3349SOL     OW10945   6.219   3.616   5.427
 3349SOL    HW110946   6.284   3.541   5.417
 3349SOL    HW210947   6.225   3.677   5.348
 3350SOL     OW10948   1.536   2.354   1.015
 3350SOL    HW110949   1.466   2.313   1.074
 3350SOL    HW210950   1.614   2.384   1.069
 3351SOL     OW10951   5.542   2.077   1.348
 3351SOL    HW110952   5.586   2.101   1.435
 3351SOL    HW210953   5.601   2.016   1.296
 3352SOL     OW10954   0.516   3.586   0.546
 3352SOL    HW110955   0.584   3.580   0.620
 3352SOL    HW210956   0.493   3.493   0.515
 3353SOL     OW10957   1.858   6.685   6.410
 3353SOL    HW110958   1.859   6.630   6.327
 3353SOL    HW210959   1.887   6.778   6.389
 3354SOL     OW10960   0.938   1.299   2.601
 3354SOL    HW110961   0.935   1.209   2.645
 3354SOL    HW210962   0.983   1.291   2.512
 3355SOL     OW10963   6.882   2.000   2.566
 3355SOL    HW110964   6.859   1.933   2.495
 3355SOL    HW210965   6.797   2.036   2.606
 3356SOL     OW10966   2.244   3.461   6.126
 3356SOL    HW110967   2.339   3.473   6.099
 3356SOL    HW210968   2.226   3.515   6.209
 3357SOL     OW10969   2.115   5.272   2.146
 3357SOL    HW110970   2.196   5.294   2.091
 3357SOL    HW210971   2.068   5.357   2.170
 3358SOL     OW10972   5.587   4.386   2.838
 3358SOL    HW110973   5.582   4.379   2.738
 3358SOL    HW210974   5.659   4.451   2.863
 3359SOL     OW10975   1.019   1.208   1.677
 3359SOL    HW110976   1.014   1.185   1.774
 3359SOL    HW210977   1.084   1.282   1.664
 3360SOL     OW10978   1.449   0.415   6.447
 3360SOL    HW110979   1.406   0.502   6.421
 3360SOL    HW210980   1.502   0.379   6.371
 3361SOL     OW10981   4.923   0.459   2.841
 3361SOL    HW110982   4.881   0.463   2.932
 3361SOL    HW210983   5.021   0.479   2.850
 3362SOL     OW10984   2.143   1.506   5.328
 3362SOL    HW110985   2.168   1.411   5.310
 3362SOL    HW210986   2.107   1.514   5.421
 3363SOL     OW10987   0.223   0.975   0.003
 3363SOL    HW110988   0.131   0.945   0.024
 3363SOL    HW210989   0.276   0.983   0.087
 3364SOL     OW10990   2.231   4.804   5.600
 3364SOL    HW110991   2.282   4.729   5.557
 3364SOL    HW210992   2.263   4.817   5.694
 3365SOL     OW10993   5.986   1.874   5.953
 3365SOL    HW110994   5.970   1.797   6.015
 3365SOL    HW210995   5.926   1.865   5.873
 3366SOL     OW10996   5.415   1.115   5.876
 3366SOL    HW110997   5.457   1.205   5.886
 3366SOL    HW210998   5.453   1.069   5.796
 3367SOL     OW10999   1.127   0.627   2.277
 3367SOL    HW111000   1.053   0.652   2.215
 3367SOL    HW211001   1.162   0.536   2.252
 3368SOL     OW11002   6.586   0.189   5.906
 3368SOL    HW111003   6.561   0.098   5.939
 3368SOL    HW211004   6.509   0.251   5.917
 3369SOL     OW11005   3.671   6.427   5.897
 3369SOL    HW111006   3.767   6.418   5.926
 3369SOL    HW211007   3.662   6.505   5.835
 3370SOL     OW11008   4.818   0.295   5.020
 3370SOL    HW111009   4.777   0.242   5.094
 3370SOL    HW211010   4.746   0.347   4.973
 3371SOL     OW11011   0.086   5.055   1.766
 3371SOL    HW111012   0.050   4.973   1.720
 3371SOL    HW211013   0.132   5.113   1.699
 3372SOL     OW11014   0.372   1.760   2.171
 3372SOL    HW111015   0.447   1.810   2.214
 3372SOL    HW211016   0.334   1.694   2.236
 3373SOL     OW11017   0.533   1.988   5.385
 3373SOL    HW111018   0.558   2.067   5.441
 3373SOL    HW211019   0.471   1.929   5.437
 3374SOL     OW11020   3.517   5.391   5.286
 3374SOL    HW111021   3.466   5.382   5.200
 3374SOL    HW211022   3.589   5.323   5.290
 3375SOL     OW11023   4.286   4.057   5.360
 3375SOL    HW111024   4.372   4.047   5.310
 3375SOL    HW211025   4.240   4.140   5.330
 3376SOL     OW11026   2.917   3.792   2.353
 3376SOL    HW111027   2.935   3.781   2.451
 3376SOL    HW211028   2.869   3.711   2.320
 3377SOL     OW11029   2.766   5.915   5.412
 3377SOL    HW111030   2.678   5.875   5.435
 3377SOL    HW211031   2.767   5.941   5.315
 3378SOL     OW11032   0.813   1.531   0.906
 3378SOL    HW111033   0.855   1.459   0.960
 3378SOL    HW211034   0.826   1.619   0.950
 3379SOL     OW11035   1.094   4.543   6.943
 3379SOL    HW111036   1.062   4.599   0.005
 3379SOL    HW211037   1.168   4.590   6.895
 3380SOL     OW11038   0.822   3.601   5.641
 3380SOL    HW111039   0.820   3.502   5.657
 3380SOL    HW211040   0.842   3.648   5.727
 3381SOL     OW11041   3.347   2.794   0.692
 3381SOL    HW111042   3.415   2.722   0.674
 3381SOL    HW211043   3.391   2.883   0.687
 3382SOL     OW11044   6.488   6.883   0.918
 3382SOL    HW111045   6.398   6.923   0.934
 3382SOL    HW211046   6.486   6.786   0.942
 3383SOL     OW11047   6.558   4.772   3.037
 3383SOL    HW111048   6.566   4.872   3.030
 3383SOL    HW211049   6.555   4.733   2.945
 3384SOL     OW11050   3.292   2.960   4.443
 3384SOL    HW111051   3.338   3.041   4.479
 3384SOL    HW211052   3.361   2.894   4.411
 3385SOL     OW11053   6.086   3.797   3.278
 3385SOL    HW111054   6.029   3.873   3.248
 3385SOL    HW211055   6.074   3.783   3.376
 3386SOL     OW11056   6.247   4.432   4.783
 3386SOL    HW111057   6.278   4.376   4.860
 3386SOL    HW211058   6.188   4.506   4.817
 3387SOL     OW11059   2.760   2.069   3.144
 3387SOL    HW111060   2.837   2.085   3.083
 3387SOL    HW211061   2.689   2.137   3.126
 3388SOL     OW11062   5.463   2.951   2.252
 3388SOL    HW111063   5.491   2.915   2.164
 3388SOL    HW211064   5.363   2.962   2.254
 3389SOL     OW11065   5.675   4.205   3.455
 3389SOL    HW111066   5.708   4.122   3.499
 3389SOL    HW211067   5.742   4.236   3.387
 3390SOL     OW11068   4.993   2.828   5.580
 3390SOL    HW111069   4.938   2.912   5.577
 3390SOL    HW211070   4.946   2.759   5.636
 3391SOL     OW11071   3.344   1.799   4.144
 3391SOL    HW111072   3.322   1.895   4.124
 3391SOL    HW211073   3.404   1.795   4.224
 3392SOL     OW11074   4.629   5.849   3.950
 3392SOL    HW111075   4.704   5.913   3.966
 3392SOL    HW211076   4.577   5.878   3.870
 3393SOL     OW11077   6.271   0.066   6.938
 3393SOL    HW111078   6.206   0.016   6.881
 3393SOL    HW211079   6.295   0.152   6.892
 3394SOL     OW11080   5.982   2.724   1.925
 3394SOL    HW111081   5.963   2.693   2.018
 3394SOL    HW211082   5.896   2.736   1.876
 3395SOL     OW11083   1.475   3.691   4.778
 3395SOL    HW111084   1.568   3.709   4.808
 3395SOL    HW211085   1.420   3.658   4.855
 3396SOL     OW11086   0.750   4.314   3.868
 3396SOL    HW111087   0.714   4.319   3.961
 3396SOL    HW211088   0.700   4.377   3.809
 3397SOL     OW11089   3.932   6.353   5.933
 3397SOL    HW111090   4.016   6.365   5.986
 3397SOL    HW211091   3.952   6.361   5.836
 3398SOL     OW11092   0.241   6.484   4.271
 3398SOL    HW111093   0.235   6.583   4.257
 3398SOL    HW211094   0.268   6.465   4.365
 3399SOL     OW11095   4.479   5.183   4.888
 3399SOL    HW111096   4.482   5.182   4.788
 3399SOL    HW211097   4.415   5.112   4.919
 3400SOL     OW11098   5.027   2.578   6.789
 3400SOL    HW111099   5.077   2.651   6.836
 3400SOL    HW211100   5.082   2.541   6.715
 3401SOL     OW11101   6.264   5.432   0.335
 3401SOL    HW111102   6.363   5.416   0.337
 3401SOL    HW211103   6.222   5.391   0.416
 3402SOL     OW11104   5.015   5.895   2.040
 3402SOL    HW111105   4.931   5.850   2.009
 3402SOL    HW211106   4.994   5.990   2.063
 3403SOL     OW11107   2.999   0.802   5.309
 3403SOL    HW111108   3.007   0.705   5.288
 3403SOL    HW211109   2.952   0.849   5.234
 3404SOL     OW11110   4.286   0.514   0.897
 3404SOL    HW111111   4.188   0.514   0.918
 3404SOL    HW211112   4.324   0.605   0.911
 3405SOL     OW11113   5.899   4.093   0.332
 3405SOL    HW111114   5.856   4.176   0.370
 3405SOL    HW211115   5.878   4.015   0.392
 3406SOL     OW11116   1.254   4.628   1.889
 3406SOL    HW111117   1.292   4.660   1.802
 3406SOL    HW211118   1.240   4.530   1.884
 3407SOL     OW11119   1.777   5.727   2.410
 3407SOL    HW111120   1.702   5.791   2.426
 3407SOL    HW211121   1.860   5.778   2.389
 3408SOL     OW11122   5.057   4.254   3.450
 3408SOL    HW111123   5.125   4.327   3.459
 3408SOL    HW211124   5.034   4.241   3.354
 3409SOL     OW11125   3.064   0.393   5.422
 3409SOL    HW111126   2.975   0.434   5.442
 3409SOL    HW211127   3.053   0.297   5.398
 3410SOL     OW11128   6.605   6.916   6.687
 3410SOL    HW111129   6.605   6.878   6.595
 3410SOL    HW211130   6.699   6.919   6.722
 3411SOL     OW11131   5.192   2.332   2.164
 3411SOL    HW111132   5.192   2.292   2.256
 3411SOL    HW211133   5.264   2.401   2.158
 3412SOL     OW11134   4.096   4.338   0.277
 3412SOL    HW111135   4.000   4.320   0.301
 3412SOL    HW211136   4.145   4.251   0.270
 3413SOL     OW11137   3.874   2.131   2.509
 3413SOL    HW111138   3.847   2.041   2.545
 3413SOL    HW211139   3.857   2.133   2.411
 3414SOL     OW11140   2.687   1.922   5.305
 3414SOL    HW111141   2.622   1.982   5.258
 3414SOL    HW211142   2.776   1.928   5.261
 3415SOL     OW11143   0.057   5.204   3.767
 3415SOL    HW111144   7.012   5.162   3.698
 3415SOL    HW211145   0.129   5.257   3.722
 3416SOL     OW11146   1.762   4.598   5.538
 3416SOL    HW111147   1.847   4.628   5.581
 3416SOL    HW211148   1.779   4.577   5.442
 3417SOL     OW11149   5.873   0.248   2.845
 3417SOL    HW111150   5.831   0.202   2.924
 3417SOL    HW211151   5.927   0.325   2.877
 3418SOL     OW11152   3.141   1.187   5.939
 3418SOL    HW111153   3.061   1.187   5.999
 3418SOL    HW211154   3.114   1.213   5.847
 3419SOL     OW11155   4.196   4.527   0.478
 3419SOL    HW111156   4.221   4.536   0.574
 3419SOL    HW211157   4.158   4.436   0.462
 3420SOL     OW11158   3.581   2.073   4.240
 3420SOL    HW111159   3.529   2.104   4.160
 3420SOL    HW211160   3.676   2.058   4.214
 3421SOL     OW11161   6.936   5.986   4.942
 3421SOL    HW111162   6.902   5.975   5.036
 3421SOL    HW211163   6.963   6.081   4.928
 3422SOL     OW11164   2.916   1.264   1.808
 3422SOL    HW111165   2.820   1.292   1.812
 3422SOL    HW211166   2.974   1.336   1.846
 3423SOL     OW11167   2.324   0.621   0.855
 3423SOL    HW111168   2.396   0.687   0.831
 3423SOL    HW211169   2.337   0.591   0.950
 3424SOL     OW11170   4.502   1.364   2.958
 3424SOL    HW111171   4.417   1.319   2.931
 3424SOL    HW211172   4.560   1.376   2.877
 3425SOL     OW11173   4.432   4.602   1.750
 3425SOL    HW111174   4.499   4.561   1.812
 3425SOL    HW211175   4.362   4.535   1.727
 3426SOL     OW11176   4.577   3.531   0.391
 3426SOL    HW111177   4.537   3.538   0.482
 3426SOL    HW211178   4.510   3.560   0.323
 3427SOL     OW11179   0.179   1.912   6.709
 3427SOL    HW111180   0.217   1.859   6.633
 3427SOL    HW211181   0.143   1.850   6.779
 3428SOL     OW11182   4.588   4.358   2.726
 3428SOL    HW111183   4.498   4.324   2.755
 3428SOL    HW211184   4.655   4.338   2.798
 3429SOL     OW11185   1.401   3.059   6.696
 3429SOL    HW111186   1.398   3.058   6.795
 3429SOL    HW211187   1.454   3.138   6.665
 3430SOL     OW11188   1.389   6.855   0.217
 3430SOL    HW111189   1.364   6.903   0.301
 3430SOL    HW211190   1.395   6.757   0.234
 3431SOL     OW11191   0.813   5.881   0.666
 3431SOL    HW111192   0.861   5.852   0.748
 3431SOL    HW211193   0.714   5.877   0.682
 3432SOL     OW11194   3.292   1.415   6.355
 3432SOL    HW111195   3.380   1.381   6.322
 3432SOL    HW211196   3.231   1.430   6.278
 3433SOL     OW11197   3.925   0.966   5.090
 3433SOL    HW111198   4.010   0.950   5.040
 3433SOL    HW211199   3.866   1.027   5.037
 3434SOL     OW11200   4.442   2.240   2.365
 3434SOL    HW111201   4.446   2.155   2.418
 3434SOL    HW211202   4.351   2.280   2.372
 3435SOL     OW11203   0.245   1.134   0.710
 3435SOL    HW111204   0.341   1.110   0.720
 3435SOL    HW211205   0.237   1.234   0.702
 3436SOL     OW11206   3.839   6.787   3.964
 3436SOL    HW111207   3.909   6.741   4.019
 3436SOL    HW211208   3.753   6.792   4.017
 3437SOL     OW11209   4.177   0.030   6.513
 3437SOL    HW111210   4.225   0.000   6.430
 3437SOL    HW211211   4.078   0.019   6.499
 3438SOL     OW11212   1.418   2.981   6.275
 3438SOL    HW111213   1.372   2.913   6.218
 3438SOL    HW211214   1.367   3.067   6.273
 3439SOL     OW11215   2.623   5.664   3.459
 3439SOL    HW111216   2.666   5.576   3.440
 3439SOL    HW211217   2.676   5.737   3.413
 3440SOL     OW11218   4.844   2.869   0.725
 3440SOL    HW111219   4.841   2.832   0.818
 3440SOL    HW211220   4.856   2.968   0.729
 3441SOL     OW11221   2.757   0.373   3.831
 3441SOL    HW111222   2.760   0.465   3.792
 3441SOL    HW211223   2.818   0.368   3.910
 3442SOL     OW11224   1.997   5.129   3.181
 3442SOL    HW111225   1.935   5.087   3.248
 3442SOL    HW211226   2.045   5.206   3.224
 3443SOL     OW11227   5.503   0.866   3.861
 3443SOL    HW111228   5.497   0.914   3.949
 3443SOL    HW211229   5.501   0.767   3.878
 3444SOL     OW11230   4.422   5.183   0.216
 3444SOL    HW111231   4.385   5.094   0.188
 3444SOL    HW211232   4.420   5.190   0.316
 3445SOL     OW11233   6.374   4.041   4.921
 3445SOL    HW111234   6.460   3.991   4.932
 3445SOL    HW211235   6.387   4.135   4.952
 3446SOL     OW11236   3.545   6.874   3.315
 3446SOL    HW111237   3.588   6.841   3.400
 3446SOL    HW211238   3.547   6.801   3.247
 3447SOL     OW11239   5.444   5.614   6.289
 3447SOL    HW111240   5.358   5.644   6.248
 3447SOL    HW211241   5.514   5.685   6.274
 3448SOL     OW11242   3.971   2.084   0.822
 3448SOL    HW111243   4.033   2.117   0.751
 3448SOL    HW211244   3.881   2.066   0.782
 3449SOL     OW11245   6.561   6.104   3.602
 3449SOL    HW111246   6.502   6.068   3.674
 3449SOL    HW211247   6.516   6.182   3.558
 3450SOL     OW11248   0.846   1.511   1.268
 3450SOL    HW111249   0.825   1.608   1.257
 3450SOL    HW211250   0.916   1.500   1.339
 3451SOL     OW11251   1.096   5.764   4.528
 3451SOL    HW111252   1.029   5.830   4.495
 3451SOL    HW211253   1.049   5.684   4.565
 3452SOL     OW11254   5.987   1.942   0.126
 3452SOL    HW111255   5.890   1.946   0.100
 3452SOL    HW211256   6.009   1.848   0.154
 3453SOL     OW11257   5.382   5.781   5.201
 3453SOL    HW111258   5.340   5.845   5.136
 3453SOL    HW211259   5.482   5.791   5.197
 3454SOL     OW11260   0.517   0.809   0.365
 3454SOL    HW111261   0.504   0.710   0.376
 3454SOL    HW211262   0.613   0.828   0.343
 3455SOL     OW11263   1.693   2.484   4.301
 3455SOL    HW111264   1.722   2.573   4.338
 3455SOL    HW211265   1.695   2.487   4.201
 3456SOL     OW11266   5.890   0.031   1.868
 3456SOL    HW111267   5.823   0.072   1.807
 3456SOL    HW211268   5.955   0.101   1.897
 3457SOL     OW11269   2.322   5.295   2.813
 3457SOL    HW111270   2.366   5.335   2.893
 3457SOL    HW211271   2.246   5.238   2.842
 3458SOL     OW11272   5.557   5.786   0.964
 3458SOL    HW111273   5.603   5.858   1.015
 3458SOL    HW211274   5.458   5.799   0.970
 3459SOL     OW11275   6.555   5.832   3.992
 3459SOL    HW111276   6.585   5.913   3.941
 3459SOL    HW211277   6.455   5.832   3.997
 3460SOL     OW11278   4.375   3.112   6.455
 3460SOL    HW111279   4.421   3.130   6.368
 3460SOL    HW211280   4.348   3.198   6.497
 3461SOL     OW11281   3.601   6.227   2.982
 3461SOL    HW111282   3.520   6.253   2.930
 3461SOL    HW211283   3.662   6.173   2.925
 3462SOL     OW11284   5.216   3.373   3.279
 3462SOL    HW111285   5.172   3.417   3.357
 3462SOL    HW211286   5.153   3.305   3.240
 3463SOL     OW11287   2.107   2.952   1.248
 3463SOL    HW111288   2.071   3.041   1.275
 3463SOL    HW211289   2.166   2.916   1.320
 3464SOL     OW11290   4.723   2.717   6.647
 3464SOL    HW111291   4.759   2.808   6.628
 3464SOL    HW211292   4.797   2.650   6.639
 3465SOL     OW11293   2.166   3.709   2.177
 3465SOL    HW111294   2.154   3.640   2.105
 3465SOL    HW211295   2.242   3.683   2.236
 3466SOL     OW11296   6.145   4.942   3.829
 3466SOL    HW111297   6.067   4.999   3.801
 3466SOL    HW211298   6.163   4.956   3.927
 3467SOL     OW11299   3.302   2.670   0.953
 3467SOL    HW111300   3.338   2.578   0.965
 3467SOL    HW211301   3.337   2.708   0.867
 3468SOL     OW11302   3.707   1.906   0.969
 3468SOL    HW111303   3.770   1.832   0.994
 3468SOL    HW211304   3.616   1.886   1.007
 3469SOL     OW11305   4.674   6.483   5.743
 3469SOL    HW111306   4.612   6.435   5.805
 3469SOL    HW211307   4.633   6.570   5.715
 3470SOL     OW11308   0.368   3.054   1.869
 3470SOL    HW111309   0.429   3.089   1.798
 3470SOL    HW211310   0.304   2.988   1.828
 3471SOL     OW11311   4.965   3.320   3.746
 3471SOL    HW111312   4.892   3.252   3.751
 3471SOL    HW211313   4.940   3.391   3.680
 3472SOL     OW11314   4.240   1.701   3.723
 3472SOL    HW111315   4.170   1.688   3.652
 3472SOL    HW211316   4.277   1.793   3.715
 3473SOL     OW11317   0.254   4.524   2.029
 3473SOL    HW111318   0.170   4.571   2.005
 3473SOL    HW211319   0.233   4.444   2.086
 3474SOL     OW11320   5.856   5.292   3.978
 3474SOL    HW111321   5.765   5.322   3.949
 3474SOL    HW211322   5.848   5.207   4.029
 3475SOL     OW11323   6.753   4.030   4.193
 3475SOL    HW111324   6.676   4.088   4.222
 3475SOL    HW211325   6.722   3.936   4.184
 3476SOL     OW11326   1.129   1.000   3.552
 3476SOL    HW111327   1.103   0.973   3.459
 3476SOL    HW211328   1.060   1.063   3.589
 3477SOL     OW11329   0.726   4.354   1.514
 3477SOL    HW111330   0.795   4.299   1.562
 3477SOL    HW211331   0.735   4.449   1.543
 3478SOL     OW11332   2.089   0.615   0.400
 3478SOL    HW111333   2.101   0.517   0.417
 3478SOL    HW211334   2.178   0.660   0.406
 3479SOL     OW11335   1.392   4.047   4.094
 3479SOL    HW111336   1.306   4.083   4.130
 3479SOL    HW211337   1.468   4.079   4.151
 3480SOL     OW11338   1.482   4.937   6.432
 3480SOL    HW111339   1.499   4.933   6.530
 3480SOL    HW211340   1.412   5.006   6.413
 3481SOL     OW11341   6.539   0.757   5.252
 3481SOL    HW111342   6.504   0.733   5.342
 3481SOL    HW211343   6.592   0.842   5.258
 3482SOL     OW11344   6.207   3.819   5.025
 3482SOL    HW111345   6.205   3.738   4.966
 3482SOL    HW211346   6.257   3.893   4.979
 3483SOL     OW11347   4.833   2.702   4.506
 3483SOL    HW111348   4.793   2.681   4.417
 3483SOL    HW211349   4.873   2.794   4.504
 3484SOL     OW11350   2.052   3.386   5.003
 3484SOL    HW111351   2.025   3.325   4.928
 3484SOL    HW211352   2.122   3.342   5.058
 3485SOL     OW11353   0.434   2.191   6.002
 3485SOL    HW111354   0.428   2.165   6.099
 3485SOL    HW211355   0.399   2.284   5.991
 3486SOL     OW11356   2.216   6.735   4.508
 3486SOL    HW111357   2.193   6.695   4.596
 3486SOL    HW211358   2.194   6.833   4.509
 3487SOL     OW11359   5.076   1.241   6.638
 3487SOL    HW111360   5.034   1.257   6.549
 3487SOL    HW211361   5.015   1.275   6.710
 3488SOL     OW11362   6.063   0.602   4.268
 3488SOL    HW111363   6.092   0.613   4.173
 3488SOL    HW211364   5.973   0.557   4.270
 3489SOL     OW11365   3.134   6.855   0.434
 3489SOL    HW111366   3.129   6.770   0.487
 3489SOL    HW211367   3.056   6.913   0.457
 3490SOL     OW11368   3.676   5.263   0.149
 3490SOL    HW111369   3.605   5.231   0.087
 3490SOL    HW211370   3.763   5.268   0.100
 3491SOL     OW11371   5.044   4.492   6.608
 3491SOL    HW111372   5.126   4.436   6.622
 3491SOL    HW211373   4.992   4.456   6.531
 3492SOL     OW11374   6.159   4.251   2.815
 3492SOL    HW111375   6.178   4.314   2.890
 3492SOL    HW211376   6.238   4.245   2.754
 3493SOL     OW11377   5.623   3.474   4.760
 3493SOL    HW111378   5.603   3.436   4.670
 3493SOL    HW211379   5.607   3.404   4.830
 3494SOL     OW11380   4.578   1.428   1.928
 3494SOL    HW111381   4.612   1.512   1.886
 3494SOL    HW211382   4.496   1.448   1.981
 3495SOL     OW11383   1.002   2.729   2.768
 3495SOL    HW111384   1.040   2.653   2.821
 3495SOL    HW211385   0.963   2.694   2.683
 3496SOL     OW11386   5.781   5.314   1.193
 3496SOL    HW111387   5.780   5.376   1.114
 3496SOL    HW211388   5.861   5.333   1.249
 3497SOL     OW11389   3.480   0.796   2.563
 3497SOL    HW111390   3.534   0.835   2.489
 3497SOL    HW211391   3.384   0.792   2.535
 3498SOL     OW11392   2.331   1.676   1.354
 3498SOL    HW111393   2.411   1.632   1.314
 3498SOL    HW211394   2.274   1.714   1.281
 3499SOL     OW11395   6.403   5.368   5.737
 3499SOL    HW111396   6.380   5.287   5.791
 3499SOL    HW211397   6.396   5.347   5.640
 3500SOL     OW11398   1.227   2.140   3.916
 3500SOL    HW111399   1.286   2.100   3.986
 3500SOL    HW211400   1.242   2.239   3.911
 3501SOL     OW11401   1.452   0.052   5.725
 3501SOL    HW111402   1.356   0.026   5.716
 3501SOL    HW211403   1.461   0.151   5.713
 3502SOL     OW11404   4.928   3.085   2.230
 3502SOL    HW111405   4.884   3.070   2.318
 3502SOL    HW211406   4.865   3.060   2.157
 3503SOL     OW11407   6.534   6.103   6.843
 3503SOL    HW111408   6.560   6.124   6.937
 3503SOL    HW211409   6.590   6.028   6.808
 3504SOL     OW11410   1.624   1.250   1.110
 3504SOL    HW111411   1.677   1.275   1.029
 3504SOL    HW211412   1.591   1.156   1.101
 3505SOL     OW11413   6.002   4.883   6.536
 3505SOL    HW111414   5.972   4.978   6.525
 3505SOL    HW211415   5.935   4.822   6.495
 3506SOL     OW11416   4.955   4.727   4.749
 3506SOL    HW111417   5.002   4.643   4.721
 3506SOL    HW211418   4.876   4.742   4.691
 3507SOL     OW11419   3.004   6.317   0.728
 3507SOL    HW111420   2.976   6.278   0.641
 3507SOL    HW211421   3.090   6.367   0.716
 3508SOL     OW11422   2.908   2.547   5.322
 3508SOL    HW111423   2.958   2.631   5.300
 3508SOL    HW211424   2.971   2.469   5.316
 3509SOL     OW11425   4.308   5.316   6.912
 3509SOL    HW111426   4.247   5.255   6.962
 3509SOL    HW211427   4.402   5.299   6.940
 3510SOL     OW11428   2.724   0.572   1.137
 3510SOL    HW111429   2.752   0.668   1.130
 3510SOL    HW211430   2.721   0.545   1.233
 3511SOL     OW11431   2.526   4.576   1.620
 3511SOL    HW111432   2.450   4.637   1.598
 3511SOL    HW211433   2.594   4.625   1.676
 3512SOL     OW11434   0.675   4.156   6.623
 3512SOL    HW111435   0.630   4.243   6.604
 3512SOL    HW211436   0.678   4.141   6.722
 3513SOL     OW11437   5.582   2.110   0.152
 3513SOL    HW111438   5.568   2.075   0.244
 3513SOL    HW211439   5.624   2.201   0.157
 3514SOL     OW11440   4.172   1.041   2.591
 3514SOL    HW111441   4.078   1.032   2.558
 3514SOL    HW211442   4.192   1.137   2.609
 3515SOL     OW11443   6.205   5.683   4.555
 3515SOL    HW111444   6.170   5.659   4.464
 3515SOL    HW211445   6.211   5.600   4.611
 3516SOL     OW11446   5.127   0.236   0.884
 3516SOL    HW111447   5.203   0.297   0.861
 3516SOL    HW211448   5.163   0.148   0.917
 3517SOL     OW11449   6.121   0.895   0.523
 3517SOL    HW111450   6.081   0.805   0.540
 3517SOL    HW211451   6.188   0.916   0.595
 3518SOL     OW11452   5.537   1.730   5.271
 3518SOL    HW111453   5.520   1.826   5.252
 3518SOL    HW211454   5.482   1.673   5.210
 3519SOL     OW11455   3.350   0.856   0.563
 3519SOL    HW111456   3.266   0.901   0.596
 3519SOL    HW211457   3.331   0.812   0.476
 3520SOL     OW11458   2.738   6.597   4.911
 3520SOL    HW111459   2.804   6.660   4.952
 3520SOL    HW211460   2.780   6.508   4.900
 3521SOL     OW11461   3.109   2.535   0.149
 3521SOL    HW111462   3.023   2.522   0.100
 3521SOL    HW211463   3.133   2.451   0.197
 3522SOL     OW11464   0.083   5.842   6.516
 3522SOL    HW111465   0.117   5.922   6.566
 3522SOL    HW211466   0.015   5.871   6.449
 3523SOL     OW11467   1.036   5.409   5.865
 3523SOL    HW111468   1.100   5.426   5.940
 3523SOL    HW211469   0.945   5.439   5.892
 3524SOL     OW11470   5.185   1.089   3.258
 3524SOL    HW111471   5.167   1.110   3.162
 3524SOL    HW211472   5.272   1.130   3.285
 3525SOL     OW11473   6.294   4.254   3.403
 3525SOL    HW111474   6.202   4.254   3.444
 3525SOL    HW211475   6.288   4.225   3.308
 3526SOL     OW11476   0.980   6.429   2.978
 3526SOL    HW111477   0.881   6.413   2.972
 3526SOL    HW211478   1.027   6.367   2.915
 3527SOL     OW11479   6.778   3.036   5.652
 3527SOL    HW111480   6.770   3.060   5.555
 3527SOL    HW211481   6.689   3.042   5.695
 3528SOL     OW11482   2.492   6.686   4.936
 3528SOL    HW111483   2.482   6.783   4.958
 3528SOL    HW211484   2.588   6.660   4.941
 3529SOL     OW11485   4.907   5.253   0.616
 3529SOL    HW111486   4.997   5.257   0.574
 3529SOL    HW211487   4.912   5.285   0.711
 3530SOL     OW11488   0.072   0.752   2.061
 3530SOL    HW111489   0.086   0.683   2.133
 3530SOL    HW211490   6.989   0.754   2.036
 3531SOL     OW11491   5.229   1.686   0.993
 3531SOL    HW111492   5.176   1.648   0.916
 3531SOL    HW211493   5.257   1.779   0.972
 3532SOL     OW11494   1.810   1.419   2.048
 3532SOL    HW111495   1.792   1.517   2.045
 3532SOL    HW211496   1.878   1.399   2.118
 3533SOL     OW11497   0.130   1.195   2.995
 3533SOL    HW111498   0.060   1.159   3.056
 3533SOL    HW211499   0.211   1.221   3.049
 3534SOL     OW11500   6.689   1.152   1.079
 3534SOL    HW111501   6.622   1.110   1.018
 3534SOL    HW211502   6.765   1.089   1.094
 3535SOL     OW11503   2.633   5.316   5.005
 3535SOL    HW111504   2.602   5.331   5.099
 3535SOL    HW211505   2.645   5.218   4.990
 3536SOL     OW11506   3.479   1.937   2.752
 3536SOL    HW111507   3.425   1.853   2.749
 3536SOL    HW211508   3.429   2.007   2.804
 3537SOL     OW11509   1.713   5.488   2.301
 3537SOL    HW111510   1.711   5.584   2.330
 3537SOL    HW211511   1.640   5.437   2.348
 3538SOL     OW11512   3.228   5.617   4.340
 3538SOL    HW111513   3.226   5.584   4.435
 3538SOL    HW211514   3.320   5.603   4.303
 3539SOL     OW11515   3.886   3.604   4.492
 3539SOL    HW111516   3.906   3.544   4.569
 3539SOL    HW211517   3.864   3.549   4.411
 3540SOL     OW11518   2.248   1.806   3.738
 3540SOL    HW111519   2.229   1.902   3.722
 3540SOL    HW211520   2.181   1.750   3.689
 3541SOL     OW11521   2.969   3.952   5.048
 3541SOL    HW111522   3.008   3.860   5.049
 3541SOL    HW211523   2.884   3.953   5.100
 3542SOL     OW11524   0.711   5.147   1.809
 3542SOL    HW111525   0.801   5.129   1.769
 3542SOL    HW211526   0.665   5.061   1.828
 3543SOL     OW11527   5.589   2.986   4.767
 3543SOL    HW111528   5.587   2.964   4.865
 3543SOL    HW211529   5.595   2.901   4.714
 3544SOL     OW11530   2.236   4.876   6.013
 3544SOL    HW111531   2.287   4.898   6.096
 3544SOL    HW211532   2.138   4.879   6.032
 3545SOL     OW11533   4.049   5.155   6.484
 3545SOL    HW111534   4.075   5.220   6.412
 3545SOL    HW211535   3.955   5.124   6.468
 3546SOL     OW11536   6.338   5.111   3.224
 3546SOL    HW111537   6.239   5.100   3.229
 3546SOL    HW211538   6.382   5.046   3.286
 3547SOL     OW11539   5.352   5.237   4.549
 3547SOL    HW111540   5.264   5.277   4.572
 3547SOL    HW211541   5.343   5.181   4.466
 3548SOL     OW11542   4.819   2.707   5.758
 3548SOL    HW111543   4.814   2.744   5.850
 3548SOL    HW211544   4.746   2.746   5.701
 3549SOL     OW11545   5.671   4.658   2.700
 3549SOL    HW111546   5.685   4.725   2.773
 3549SOL    HW211547   5.752   4.600   2.692
 3550SOL     OW11548   5.855   1.870   2.176
 3550SOL    HW111549   5.920   1.800   2.207
 3550SOL    HW211550   5.769   1.859   2.226
 3551SOL     OW11551   2.808   6.710   3.259
 3551SOL    HW111552   2.731   6.719   3.322
 3551SOL    HW211553   2.892   6.696   3.311
 3552SOL     OW11554   6.204   5.092   2.804
 3552SOL    HW111555   6.231   5.151   2.880
 3552SOL    HW211556   6.133   5.138   2.750
 3553SOL     OW11557   5.233   1.629   2.811
 3553SOL    HW111558   5.296   1.618   2.888
 3553SOL    HW211559   5.259   1.567   2.738
 3554SOL     OW11560   4.255   4.655   6.460
 3554SOL    HW111561   4.250   4.755   6.464
 3554SOL    HW211562   4.307   4.629   6.378
 3555SOL     OW11563   1.225   2.956   3.441
 3555SOL    HW111564   1.266   2.900   3.369
 3555SOL    HW211565   1.261   3.049   3.435
 3556SOL     OW11566   3.402   0.671   6.308
 3556SOL    HW111567   3.458   0.719   6.240
 3556SOL    HW211568   3.334   0.615   6.262
 3557SOL     OW11569   1.474   0.188   5.091
 3557SOL    HW111570   1.493   0.151   5.182
 3557SOL    HW211571   1.462   0.113   5.026
 3558SOL     OW11572   6.842   5.690   1.468
 3558SOL    HW111573   6.839   5.591   1.483
 3558SOL    HW211574   6.937   5.720   1.460
 3559SOL     OW11575   0.772   0.403   5.416
 3559SOL    HW111576   0.697   0.452   5.372
 3559SOL    HW211577   0.787   0.440   5.507
 3560SOL     OW11578   0.124   6.516   1.199
 3560SOL    HW111579   0.110   6.522   1.100
 3560SOL    HW211580   0.184   6.439   1.220
 3561SOL     OW11581   5.145   5.054   5.305
 3561SOL    HW111582   5.121   4.959   5.321
 3561SOL    HW211583   5.175   5.066   5.210
 3562SOL     OW11584   5.119   0.487   3.052
 3562SOL    HW111585   5.181   0.543   2.998
 3562SOL    HW211586   5.083   0.540   3.129
 3563SOL     OW11587   4.787   0.937   2.071
 3563SOL    HW111588   4.724   1.014   2.062
 3563SOL    HW211589   4.856   0.942   1.999
 3564SOL     OW11590   6.883   4.926   3.194
 3564SOL    HW111591   6.950   4.971   3.254
 3564SOL    HW211592   6.927   4.850   3.146
 3565SOL     OW11593   2.290   0.404   5.083
 3565SOL    HW111594   2.387   0.413   5.058
 3565SOL    HW211595   2.269   0.465   5.159
 3566SOL     OW11596   0.401   3.485   5.446
 3566SOL    HW111597   0.437   3.411   5.390
 3566SOL    HW211598   0.459   3.566   5.434
 3567SOL     OW11599   0.200   3.228   1.139
 3567SOL    HW111600   0.129   3.223   1.209
 3567SOL    HW211601   0.157   3.240   1.049
 3568SOL     OW11602   4.673   4.250   3.422
 3568SOL    HW111603   4.712   4.162   3.451
 3568SOL    HW211604   4.725   4.325   3.465
 3569SOL     OW11605   3.866   3.356   3.677
 3569SOL    HW111606   3.884   3.264   3.643
 3569SOL    HW211607   3.952   3.404   3.690
 3570SOL     OW11608   0.024   2.180   5.661
 3570SOL    HW111609   6.982   2.172   5.578
 3570SOL    HW211610   0.102   2.240   5.643
 3571SOL     OW11611   2.183   6.556   4.926
 3571SOL    HW111612   2.114   6.600   4.869
 3571SOL    HW211613   2.257   6.523   4.867
 3572SOL     OW11614   4.882   4.720   1.916
 3572SOL    HW111615   4.830   4.717   2.002
 3572SOL    HW211616   4.851   4.646   1.856
 3573SOL     OW11617   6.875   4.067   3.162
 3573SOL    HW111618   6.910   4.158   3.139
 3573SOL    HW211619   6.825   4.071   3.248
 3574SOL     OW11620   2.154   2.932   5.844
 3574SOL    HW111621   2.179   2.938   5.941
 3574SOL    HW211622   2.059   2.959   5.832
 3575SOL     OW11623   5.387   0.171   0.542
 3575SOL    HW111624   5.389   0.080   0.584
 3575SOL    HW211625   5.352   0.237   0.609
 3576SOL     OW11626   1.529   2.800   1.112
 3576SOL    HW111627   1.469   2.880   1.111
 3576SOL    HW211628   1.473   2.717   1.117
 3577SOL     OW11629   2.817   3.160   5.866
 3577SOL    HW111630   2.887   3.099   5.903
 3577SOL    HW211631   2.768   3.114   5.792
 3578SOL     OW11632   3.112   3.125   6.187
 3578SOL    HW111633   3.020   3.153   6.217
 3578SOL    HW211634   3.146   3.188   6.118
 3579SOL     OW11635   0.528   2.966   2.131
 3579SOL    HW111636   0.462   2.932   2.198
 3579SOL    HW211637   0.479   3.003   2.052
 3580SOL     OW11638   0.549   4.439   1.927
 3580SOL    HW111639   0.524   4.355   1.975
 3580SOL    HW211640   0.599   4.499   1.990
 3581SOL     OW11641   1.695   0.189   2.617
 3581SOL    HW111642   1.602   0.222   2.602
 3581SOL    HW211643   1.759   0.247   2.566
 3582SOL     OW11644   3.446   4.479   6.166
 3582SOL    HW111645   3.448   4.570   6.209
 3582SOL    HW211646   3.460   4.410   6.237
 3583SOL     OW11647   0.547   5.072   0.447
 3583SOL    HW111648   0.641   5.084   0.415
 3583SOL    HW211649   0.541   4.992   0.506
 3584SOL     OW11650   6.185   4.726   4.868
 3584SOL    HW111651   6.170   4.807   4.811
 3584SOL    HW211652   6.237   4.752   4.950
 3585SOL     OW11653   2.666   1.242   2.925
 3585SOL    HW111654   2.728   1.209   2.997
 3585SOL    HW211655   2.700   1.212   2.836
 3586SOL     OW11656   6.396   1.955   4.823
 3586SOL    HW111657   6.307   1.910   4.831
 3586SOL    HW211658   6.407   1.990   4.730
 3587SOL     OW11659   2.851   6.806   6.184
 3587SOL    HW111660   2.765   6.841   6.147
 3587SOL    HW211661   2.918   6.880   6.191
 3588SOL     OW11662   6.410   4.446   4.544
 3588SOL    HW111663   6.349   4.441   4.623
 3588SOL    HW211664   6.430   4.541   4.523
 3589SOL     OW11665   0.282   7.008   5.956
 3589SOL    HW111666   0.293   6.933   5.891
 3589SOL    HW211667   0.186   0.001   5.982
 3590SOL     OW11668   6.733   4.932   0.625
 3590SOL    HW111669   6.663   4.952   0.556
 3590SOL    HW211670   6.778   5.016   0.653
 3591SOL     OW11671   5.696   1.647   6.511
 3591SOL    HW111672   5.723   1.716   6.444
 3591SOL    HW211673   5.771   1.632   6.576
 3592SOL     OW11674   2.205   6.015   1.656
 3592SOL    HW111675   2.269   5.954   1.704
 3592SOL    HW211676   2.240   6.109   1.659
 3593SOL     OW11677   4.466   3.146   5.790
 3593SOL    HW111678   4.462   3.205   5.709
 3593SOL    HW211679   4.399   3.072   5.781
 3594SOL     OW11680   4.418   4.727   5.167
 3594SOL    HW111681   4.387   4.649   5.111
 3594SOL    HW211682   4.500   4.766   5.126
 3595SOL     OW11683   5.476   6.672   5.031
 3595SOL    HW111684   5.460   6.626   4.944
 3595SOL    HW211685   5.425   6.758   5.033
 3596SOL     OW11686   3.911   2.014   3.767
 3596SOL    HW111687   4.001   2.046   3.795
 3596SOL    HW211688   3.856   1.993   3.848
 3597SOL     OW11689   2.381   3.154   5.448
 3597SOL    HW111690   2.423   3.131   5.360
 3597SOL    HW211691   2.389   3.076   5.510
 3598SOL     OW11692   1.184   5.592   5.156
 3598SOL    HW111693   1.172   5.687   5.183
 3598SOL    HW211694   1.268   5.583   5.102
 3599SOL     OW11695   3.688   1.338   4.623
 3599SOL    HW111696   3.656   1.296   4.709
 3599SOL    HW211697   3.788   1.336   4.621
 3600SOL     OW11698   2.995   3.099   0.189
 3600SOL    HW111699   2.942   3.184   0.184
 3600SOL    HW211700   3.073   3.105   0.127
 3601SOL     OW11701   4.879   0.700   5.137
 3601SOL    HW111702   4.914   0.750   5.217
 3601SOL    HW211703   4.800   0.750   5.100
 3602SOL     OW11704   2.197   1.775   1.728
 3602SOL    HW111705   2.217   1.685   1.690
 3602SOL    HW211706   2.163   1.835   1.657
 3603SOL     OW11707   2.833   0.532   5.392
 3603SOL    HW111708   2.799   0.625   5.376
 3603SOL    HW211709   2.819   0.477   5.310
 3604SOL     OW11710   0.028   0.260   3.162
 3604SOL    HW111711   0.055   0.345   3.207
 3604SOL    HW211712   0.022   0.274   3.063
 3605SOL     OW11713   1.508   6.023   3.523
 3605SOL    HW111714   1.523   5.924   3.518
 3605SOL    HW211715   1.443   6.043   3.596
 3606SOL     OW11716   2.982   6.491   2.611
 3606SOL    HW111717   2.987   6.583   2.573
 3606SOL    HW211718   2.995   6.424   2.537
 3607SOL     OW11719   5.730   1.833   2.647
 3607SOL    HW111720   5.801   1.764   2.661
 3607SOL    HW211721   5.761   1.921   2.684
 3608SOL     OW11722   2.912   1.689   5.946
 3608SOL    HW111723   2.986   1.640   5.901
 3608SOL    HW211724   2.919   1.676   6.045
 3609SOL     OW11725   2.389   0.483   4.717
 3609SOL    HW111726   2.423   0.506   4.625
 3609SOL    HW211727   2.435   0.400   4.749
 3610SOL     OW11728   1.735   6.979   4.998
 3610SOL    HW111729   1.795   0.043   5.017
 3610SOL    HW211730   1.654   7.009   4.948
 3611SOL     OW11731   5.566   4.993   3.122
 3611SOL    HW111732   5.555   4.898   3.152
 3611SOL    HW211733   5.485   5.046   3.149
 3612SOL     OW11734   6.221   1.396   0.085
 3612SOL    HW111735   6.310   1.439   0.103
 3612SOL    HW211736   6.182   1.433   0.000
 3613SOL     OW11737   4.720   5.649   1.709
 3613SOL    HW111738   4.810   5.612   1.734
 3613SOL    HW211739   4.715   5.660   1.610
 3614SOL     OW11740   3.653   4.852   6.635
 3614SOL    HW111741   3.605   4.765   6.637
 3614SOL    HW211742   3.726   4.851   6.704
 3615SOL     OW11743   5.862   2.449   5.840
 3615SOL    HW111744   5.881   2.547   5.850
 3615SOL    HW211745   5.919   2.412   5.767
 3616SOL     OW11746   1.112   1.649   6.957
 3616SOL    HW111747   1.073   1.571   6.909
 3616SOL    HW211748   1.116   1.629   0.041
 3617SOL     OW11749   3.904   6.154   5.519
 3617SOL    HW111750   3.840   6.115   5.586
 3617SOL    HW211751   3.970   6.084   5.492
 3618SOL     OW11752   1.533   4.968   4.486
 3618SOL    HW111753   1.551   4.869   4.482
 3618SOL    HW211754   1.610   5.014   4.529
 3619SOL     OW11755   5.442   3.738   1.570
 3619SOL    HW111756   5.431   3.718   1.473
 3619SOL    HW211757   5.531   3.707   1.602
 3620SOL     OW11758   6.106   6.018   5.219
 3620SOL    HW111759   6.156   6.011   5.133
 3620SOL    HW211760   6.042   6.095   5.214
 3621SOL     OW11761   2.915   3.254   3.390
 3621SOL    HW111762   2.866   3.299   3.315
 3621SOL    HW211763   2.982   3.317   3.428
 3622SOL     OW11764   1.333   5.752   6.609
 3622SOL    HW111765   1.354   5.849   6.594
 3622SOL    HW211766   1.389   5.717   6.683
 3623SOL     OW11767   0.986   5.385   6.254
 3623SOL    HW111768   1.023   5.425   6.338
 3623SOL    HW211769   0.979   5.286   6.265
 3624SOL     OW11770   2.539   2.375   1.191
 3624SOL    HW111771   2.570   2.435   1.117
 3624SOL    HW211772   2.615   2.357   1.253
 3625SOL     OW11773   6.712   1.963   0.586
 3625SOL    HW111774   6.799   2.002   0.616
 3625SOL    HW211775   6.648   2.036   0.565
 3626SOL     OW11776   1.573   2.543   5.074
 3626SOL    HW111777   1.529   2.515   4.989
 3626SOL    HW211778   1.595   2.640   5.071
 3627SOL     OW11779   3.567   1.975   2.054
 3627SOL    HW111780   3.611   2.061   2.028
 3627SOL    HW211781   3.566   1.968   2.154
 3628SOL     OW11782   6.586   2.114   1.388
 3628SOL    HW111783   6.512   2.060   1.428
 3628SOL    HW211784   6.587   2.101   1.289
 3629SOL     OW11785   0.953   0.923   3.880
 3629SOL    HW111786   0.951   0.833   3.836
 3629SOL    HW211787   0.860   0.954   3.896
 3630SOL     OW11788   7.007   1.926   2.218
 3630SOL    HW111789   6.914   1.945   2.185
 3630SOL    HW211790   0.046   2.011   2.220
 3631SOL     OW11791   1.706   7.001   2.206
 3631SOL    HW111792   1.619   0.035   2.209
 3631SOL    HW211793   1.745   7.008   2.114
 3632SOL     OW11794   4.517   3.678   1.675
 3632SOL    HW111795   4.480   3.585   1.668
 3632SOL    HW211796   4.596   3.677   1.736
 3633SOL     OW11797   4.153   3.912   6.682
 3633SOL    HW111798   4.109   3.830   6.646
 3633SOL    HW211799   4.084   3.975   6.717
 3634SOL     OW11800   3.458   5.612   6.737
 3634SOL    HW111801   3.466   5.702   6.780
 3634SOL    HW211802   3.533   5.599   6.672
 3635SOL     OW11803   1.585   6.442   1.978
 3635SOL    HW111804   1.674   6.488   1.980
 3635SOL    HW211805   1.598   6.343   1.983
 3636SOL     OW11806   0.689   4.745   6.629
 3636SOL    HW111807   0.608   4.686   6.623
 3636SOL    HW211808   0.754   4.720   6.558
 3637SOL     OW11809   6.207   3.619   6.996
 3637SOL    HW111810   6.238   3.702   0.028
 3637SOL    HW211811   6.123   3.586   0.025
 3638SOL     OW11812   6.422   3.899   3.188
 3638SOL    HW111813   6.492   3.830   3.207
 3638SOL    HW211814   6.339   3.854   3.156
 3639SOL     OW11815   3.600   2.865   4.029
 3639SOL    HW111816   3.511   2.903   4.005
 3639SOL    HW211817   3.616   2.782   3.977
 3640SOL     OW11818   4.447   2.286   1.144
 3640SOL    HW111819   4.370   2.309   1.086
 3640SOL    HW211820   4.440   2.335   1.231
 3641SOL     OW11821   5.936   4.135   2.728
 3641SOL    HW111822   5.849   4.126   2.777
 3641SOL    HW211823   5.997   4.196   2.779
 3642SOL     OW11824   5.642   3.377   6.508
 3642SOL    HW111825   5.549   3.381   6.473
 3642SOL    HW211826   5.680   3.286   6.490
 3643SOL     OW11827   4.191   5.808   5.141
 3643SOL    HW111828   4.093   5.787   5.134
 3643SOL    HW211829   4.229   5.759   5.220
 3644SOL     OW11830   2.551   0.410   1.460
 3644SOL    HW111831   2.470   0.360   1.493
 3644SOL    HW211832   2.632   0.377   1.509
 3645SOL     OW11833   1.223   4.358   3.375
 3645SOL    HW111834   1.131   4.354   3.412
 3645SOL    HW211835   1.252   4.266   3.346
 3646SOL     OW11836   1.446   4.536   5.414
 3646SOL    HW111837   1.535   4.489   5.411
 3646SOL    HW211838   1.377   4.478   5.371
 3647SOL     OW11839   3.088   0.225   6.340
 3647SOL    HW111840   3.134   0.157   6.398
 3647SOL    HW211841   3.116   0.212   6.245
 3648SOL     OW11842   4.442   5.308   3.283
 3648SOL    HW111843   4.458   5.246   3.206
 3648SOL    HW211844   4.485   5.271   3.365
 3649SOL     OW11845   6.152   2.606   0.119
 3649SOL    HW111846   6.077   2.657   0.161
 3649SOL    HW211847   6.233   2.665   0.113
 3650SOL     OW11848   5.407   6.080   0.085
 3650SOL    HW111849   5.448   6.140   0.153
 3650SOL    HW211850   5.408   6.125   7.009
 3651SOL     OW11851   0.713   1.819   5.730
 3651SOL    HW111852   0.617   1.799   5.750
 3651SOL    HW211853   0.734   1.913   5.757
 3652SOL     OW11854   4.187   1.476   1.616
 3652SOL    HW111855   4.281   1.505   1.602
 3652SOL    HW211856   4.187   1.384   1.657
 3653SOL     OW11857   1.240   1.609   1.007
 3653SOL    HW111858   1.253   1.613   0.908
 3653SOL    HW211859   1.214   1.516   1.033
 3654SOL     OW11860   5.183   6.657   1.493
 3654SOL    HW111861   5.095   6.683   1.531
 3654SOL    HW211862   5.169   6.615   1.403
 3655SOL     OW11863   1.572   1.599   3.934
 3655SOL    HW111864   1.626   1.593   3.850
 3655SOL    HW211865   1.625   1.561   4.010
 3656SOL     OW11866   6.891   0.248   1.113
 3656SOL    HW111867   6.957   0.177   1.088
 3656SOL    HW211868   6.861   0.296   1.031
 3657SOL     OW11869   6.051   5.280   5.823
 3657SOL    HW111870   6.092   5.360   5.866
 3657SOL    HW211871   6.063   5.285   5.724
 3658SOL     OW11872   1.955   5.023   5.616
 3658SOL    HW111873   1.885   5.037   5.687
 3658SOL    HW211874   2.028   5.090   5.628
 3659SOL     OW11875   0.059   2.463   6.065
 3659SOL    HW111876   0.041   2.492   6.159
 3659SOL    HW211877   0.036   2.367   6.055
 3660SOL     OW11878   5.468   5.658   6.572
 3660SOL    HW111879   5.483   5.648   6.474
 3660SOL    HW211880   5.500   5.576   6.619
 3661SOL     OW11881   0.103   1.613   4.857
 3661SOL    HW111882   0.079   1.548   4.784
 3661SOL    HW211883   0.099   1.567   4.945
 3662SOL     OW11884   2.722   1.634   5.293
 3662SOL    HW111885   2.703   1.731   5.282
 3662SOL    HW211886   2.654   1.580   5.242
 3663SOL     OW11887   2.702   2.174   6.595
 3663SOL    HW111888   2.753   2.231   6.659
 3663SOL    HW211889   2.765   2.127   6.533
 3664SOL     OW11890   3.768   1.501   1.639
 3664SOL    HW111891   3.733   1.408   1.627
 3664SOL    HW211892   3.725   1.562   1.572
 3665SOL     OW11893   0.967   5.794   5.888
 3665SOL    HW111894   1.008   5.722   5.833
 3665SOL    HW211895   0.936   5.757   5.976
 3666SOL     OW11896   2.260   2.871   4.611
 3666SOL    HW111897   2.314   2.826   4.682
 3666SOL    HW211898   2.299   2.849   4.521
 3667SOL     OW11899   2.064   0.201   1.264
 3667SOL    HW111900   1.969   0.206   1.296
 3667SOL    HW211901   2.081   0.274   1.198
 3668SOL     OW11902   6.701   0.886   0.862
 3668SOL    HW111903   6.743   0.966   0.818
 3668SOL    HW211904   6.747   0.803   0.832
 3669SOL     OW11905   0.925   1.208   3.621
 3669SOL    HW111906   0.942   1.238   3.715
 3669SOL    HW211907   0.831   1.175   3.613
 3670SOL     OW11908   2.783   6.992   2.027
 3670SOL    HW111909   2.814   6.920   1.966
 3670SOL    HW211910   2.791   0.066   1.982
 3671SOL     OW11911   6.567   0.488   4.123
 3671SOL    HW111912   6.602   0.440   4.204
 3671SOL    HW211913   6.637   0.490   4.052
 3672SOL     OW11914   3.519   6.921   3.731
 3672SOL    HW111915   3.468   6.855   3.787
 3672SOL    HW211916   3.482   7.013   3.747
 3673SOL     OW11917   3.405   6.602   0.903
 3673SOL    HW111918   3.394   6.617   1.001
 3673SOL    HW211919   3.470   6.670   0.866
 3674SOL     OW11920   0.937   4.357   6.756
 3674SOL    HW111921   0.997   4.278   6.769
 3674SOL    HW211922   0.955   4.425   6.827
 3675SOL     OW11923   1.121   0.324   3.819
 3675SOL    HW111924   1.130   0.230   3.786
 3675SOL    HW211925   1.029   0.359   3.799
 3676SOL     OW11926   3.699   1.657   4.770
 3676SOL    HW111927   3.612   1.619   4.738
 3676SOL    HW211928   3.701   1.755   4.751
 3677SOL     OW11929   1.806   0.906   4.589
 3677SOL    HW111930   1.803   1.004   4.569
 3677SOL    HW211931   1.724   0.862   4.553
 3678SOL     OW11932   1.140   0.697   4.015
 3678SOL    HW111933   1.095   0.728   4.098
 3678SOL    HW211934   1.071   0.674   3.946
 3679SOL     OW11935   4.175   0.357   2.435
 3679SOL    HW111936   4.149   0.286   2.501
 3679SOL    HW211937   4.261   0.399   2.463
 3680SOL     OW11938   3.227   1.502   4.703
 3680SOL    HW111939   3.209   1.600   4.698
 3680SOL    HW211940   3.165   1.454   4.641
 3681SOL     OW11941   1.158   6.425   4.034
 3681SOL    HW111942   1.224   6.410   3.961
 3681SOL    HW211943   1.065   6.423   3.997
 3682SOL     OW11944   5.263   2.305   1.272
 3682SOL    HW111945   5.325   2.239   1.230
 3682SOL    HW211946   5.251   2.383   1.211
 3683SOL     OW11947   6.112   1.445   6.828
 3683SOL    HW111948   6.178   1.487   6.766
 3683SOL    HW211949   6.049   1.388   6.777
 3684SOL     OW11950   2.205   6.342   5.218
 3684SOL    HW111951   2.138   6.362   5.290
 3684SOL    HW211952   2.157   6.305   5.138
 3685SOL     OW11953   2.176   5.859   4.466
 3685SOL    HW111954   2.266   5.901   4.467
 3685SOL    HW211955   2.160   5.812   4.552
 3686SOL     OW11956   0.151   3.556   1.414
 3686SOL    HW111957   0.219   3.561   1.487
 3686SOL    HW211958   0.195   3.529   1.329
 3687SOL     OW11959   5.746   4.736   4.839
 3687SOL    HW111960   5.730   4.785   4.924
 3687SOL    HW211961   5.664   4.741   4.781
 3688SOL     OW11962   6.524   2.625   0.688
 3688SOL    HW111963   6.474   2.551   0.732
 3688SOL    HW211964   6.540   2.698   0.754
 3689SOL     OW11965   1.119   6.829   6.080
 3689SOL    HW111966   1.039   6.885   6.100
 3689SOL    HW211967   1.198   6.888   6.066
 3690SOL     OW11968   5.175   5.527   2.031
 3690SOL    HW111969   5.244   5.474   1.983
 3690SOL    HW211970   5.110   5.565   1.965
 3691SOL     OW11971   1.979   2.892   0.482
 3691SOL    HW111972   1.933   2.834   0.549
 3691SOL    HW211973   1.981   2.986   0.516
 3692SOL     OW11974   0.914   3.099   5.618
 3692SOL    HW111975   0.972   3.170   5.659
 3692SOL    HW211976   0.859   3.056   5.689
 3693SOL     OW11977   6.756   1.560   2.290
 3693SOL    HW111978   6.781   1.478   2.341
 3693SOL    HW211979   6.793   1.554   2.197
 3694SOL     OW11980   6.883   6.915   2.646
 3694SOL    HW111981   6.817   6.872   2.707
 3694SOL    HW211982   6.874   6.875   2.555
 3695SOL     OW11983   5.561   3.482   2.976
 3695SOL    HW111984   5.557   3.399   2.921
 3695SOL    HW211985   5.586   3.458   3.071
 3696SOL     OW11986   4.185   0.918   4.414
 3696SOL    HW111987   4.128   0.858   4.358
 3696SOL    HW211988   4.265   0.868   4.446
 3697SOL     OW11989   6.728   6.034   3.170
 3697SOL    HW111990   6.653   6.062   3.110
 3697SOL    HW211991   6.784   6.113   3.192
 3698SOL     OW11992   1.322   0.236   2.723
 3698SOL    HW111993   1.244   0.268   2.777
 3698SOL    HW211994   1.381   0.180   2.781
 3699SOL     OW11995   2.691   2.376   3.249
 3699SOL    HW111996   2.643   2.463   3.263
 3699SOL    HW211997   2.732   2.346   3.335
 3700SOL     OW11998   0.874   5.564   5.163
 3700SOL    HW111999   0.933   5.524   5.093
 3700SOL    HW212000   0.912   5.547   5.254
 3701SOL     OW12001   0.963   0.368   1.900
 3701SOL    HW112002   1.030   0.294   1.904
 3701SOL    HW212003   0.892   0.352   1.969
 3702SOL     OW12004   5.935   4.193   3.291
 3702SOL    HW112005   5.932   4.101   3.251
 3702SOL    HW212006   5.953   4.260   3.219
 3703SOL     OW12007   1.464   1.884   3.817
 3703SOL    HW112008   1.429   1.915   3.905
 3703SOL    HW212009   1.547   1.830   3.831
 3704SOL     OW12010   6.419   1.194   0.411
 3704SOL    HW112011   6.459   1.277   0.372
 3704SOL    HW212012   6.457   1.114   0.364
 3705SOL     OW12013   5.398   4.299   4.078
 3705SOL    HW112014   5.340   4.370   4.118
 3705SOL    HW212015   5.460   4.340   4.012
 3706SOL     OW12016   1.424   4.076   6.830
 3706SOL    HW112017   1.507   4.115   6.789
 3706SOL    HW212018   1.450   4.001   6.892
 3707SOL     OW12019   1.120   5.234   3.136
 3707SOL    HW112020   1.123   5.157   3.072
 3707SOL    HW212021   1.212   5.252   3.171
 3708SOL     OW12022   2.334   6.051   1.371
 3708SOL    HW112023   2.235   6.055   1.367
 3708SOL    HW212024   2.362   6.018   1.462
 3709SOL     OW12025   1.255   1.399   1.616
 3709SOL    HW112026   1.292   1.307   1.630
 3709SOL    HW212027   1.314   1.449   1.553
 3710SOL     OW12028   0.676   4.157   5.351
 3710SOL    HW112029   0.747   4.087   5.359
 3710SOL    HW212030   0.655   4.193   5.442
 3711SOL     OW12031   0.882   5.966   4.479
 3711SOL    HW112032   0.865   6.065   4.482
 3711SOL    HW212033   0.817   5.919   4.538
 3712SOL     OW12034   1.930   5.487   4.185
 3712SOL    HW112035   1.947   5.571   4.236
 3712SOL    HW212036   2.002   5.420   4.206
 3713SOL     OW12037   6.307   0.497   4.472
 3713SOL    HW112038   6.403   0.520   4.457
 3713SOL    HW212039   6.253   0.522   4.391
 3714SOL     OW12040   0.822   3.996   0.308
 3714SOL    HW112041   0.831   3.958   0.400
 3714SOL    HW212042   0.890   4.068   0.295
 3715SOL     OW12043   5.550   5.020   3.665
 3715SOL    HW112044   5.469   5.050   3.615
 3715SOL    HW212045   5.630   5.023   3.604
 3716SOL     OW12046   5.046   5.389   4.890
 3716SOL    HW112047   5.018   5.468   4.944
 3716SOL    HW212048   5.129   5.349   4.930
 3717SOL     OW12049   4.668   1.160   0.852
 3717SOL    HW112050   4.731   1.235   0.871
 3717SOL    HW212051   4.615   1.139   0.934
 3718SOL     OW12052   6.114   6.624   6.529
 3718SOL    HW112053   6.049   6.549   6.516
 3718SOL    HW212054   6.164   6.610   6.614
 3719SOL     OW12055   3.557   3.578   0.055
 3719SOL    HW112056   3.505   3.493   0.055
 3719SOL    HW212057   3.496   3.655   0.071
 3720SOL     OW12058   0.092   3.312   0.922
 3720SOL    HW112059   0.117   3.409   0.919
 3720SOL    HW212060   0.067   3.281   0.830
 3721SOL     OW12061   6.829   0.013   5.785
 3721SOL    HW112062   6.848   0.008   5.687
 3721SOL    HW212063   6.732   0.034   5.798
 3722SOL     OW12064   5.458   6.782   2.427
 3722SOL    HW112065   5.530   6.781   2.496
 3722SOL    HW212066   5.491   6.827   2.344
 3723SOL     OW12067   4.596   3.692   0.103
 3723SOL    HW112068   4.535   3.612   0.103
 3723SOL    HW212069   4.551   3.768   0.149
 3724SOL     OW12070   0.240   5.060   4.461
 3724SOL    HW112071   0.246   5.078   4.362
 3724SOL    HW212072   0.331   5.043   4.497
 3725SOL     OW12073   1.449   6.544   0.014
 3725SOL    HW112074   1.514   6.593   0.073
 3725SOL    HW212075   1.356   6.568   0.040
 3726SOL     OW12076   5.920   3.823   5.296
 3726SOL    HW112077   6.016   3.849   5.294
 3726SOL    HW212078   5.909   3.730   5.261
 3727SOL     OW12079   6.794   2.931   3.911
 3727SOL    HW112080   6.721   2.870   3.942
 3727SOL    HW212081   6.779   3.022   3.948
 3728SOL     OW12082   2.460   3.207   0.716
 3728SOL    HW112083   2.539   3.155   0.686
 3728SOL    HW212084   2.489   3.300   0.742
 3729SOL     OW12085   0.397   0.624   5.947
 3729SOL    HW112086   0.485   0.661   5.976
 3729SOL    HW212087   0.412   0.551   5.880
 3730SOL     OW12088   5.138   5.626   4.578
 3730SOL    HW112089   5.085   5.703   4.543
 3730SOL    HW212090   5.220   5.613   4.521
 3731SOL     OW12091   6.908   2.279   0.026
 3731SOL    HW112092   6.996   2.245   7.008
 3731SOL    HW212093   6.834   2.223   7.003
 3732SOL     OW12094   3.710   2.477   6.924
 3732SOL    HW112095   3.730   2.383   6.896
 3732SOL    HW212096   3.617   2.501   6.895
 3733SOL     OW12097   1.328   0.264   3.501
 3733SOL    HW112098   1.328   0.170   3.534
 3733SOL    HW212099   1.376   0.322   3.566
 3734SOL     OW12100   4.062   0.121   0.916
 3734SOL    HW112101   4.097   0.211   0.892
 3734SOL    HW212102   4.022   0.077   0.836
 3735SOL     OW12103   4.588   6.677   2.657
 3735SOL    HW112104   4.501   6.727   2.653
 3735SOL    HW212105   4.569   6.578   2.652
 3736SOL     OW12106   6.883   1.071   6.728
 3736SOL    HW112107   6.870   0.976   6.698
 3736SOL    HW212108   6.912   1.127   6.651
 3737SOL     OW12109   6.792   1.970   3.024
 3737SOL    HW112110   6.744   1.888   2.996
 3737SOL    HW212111   6.870   1.985   2.963
 3738SOL     OW12112   6.795   6.871   1.463
 3738SOL    HW112113   6.878   6.829   1.428
 3738SOL    HW212114   6.715   6.825   1.424
 3739SOL     OW12115   3.277   3.447   0.087
 3739SOL    HW112116   3.180   3.465   0.071
 3739SOL    HW212117   3.290   3.350   0.110
 3740SOL     OW12118   4.459   5.302   6.663
 3740SOL    HW112119   4.409   5.320   6.747
 3740SOL    HW212120   4.451   5.206   6.639
 3741SOL     OW12121   5.247   3.419   0.187
 3741SOL    HW112122   5.293   3.386   0.270
 3741SOL    HW212123   5.312   3.423   0.112
 3742SOL     OW12124   4.043   5.827   1.174
 3742SOL    HW112125   4.025   5.900   1.108
 3742SOL    HW212126   4.017   5.739   1.134
 3743SOL     OW12127   3.447   3.436   1.265
 3743SOL    HW112128   3.402   3.363   1.317
 3743SOL    HW212129   3.393   3.520   1.272
 3744SOL     OW12130   0.175   6.799   2.160
 3744SOL    HW112131   0.107   6.869   2.138
 3744SOL    HW212132   0.129   6.712   2.177
 3745SOL     OW12133   4.854   3.010   2.477
 3745SOL    HW112134   4.945   2.970   2.474
 3745SOL    HW212135   4.790   2.943   2.515
 3746SOL     OW12136   6.312   0.373   4.180
 3746SOL    HW112137   6.385   0.439   4.162
 3746SOL    HW212138   6.352   0.283   4.198
 3747SOL     OW12139   3.382   6.130   5.622
 3747SOL    HW112140   3.461   6.187   5.599
 3747SOL    HW212141   3.414   6.042   5.656
 3748SOL     OW12142   4.874   2.110   3.195
 3748SOL    HW112143   4.947   2.115   3.264
 3748SOL    HW212144   4.802   2.176   3.218
 3749SOL     OW12145   6.954   6.312   2.627
 3749SOL    HW112146   6.966   6.305   2.726
 3749SOL    HW212147   0.005   6.251   2.582
 3750SOL     OW12148   5.406   4.364   0.985
 3750SOL    HW112149   5.502   4.385   0.967
 3750SOL    HW212150   5.399   4.294   1.056
 3751SOL     OW12151   1.678   3.651   1.988
 3751SOL    HW112152   1.707   3.746   1.991
 3751SOL    HW212153   1.757   3.592   2.008
 3752SOL     OW12154   0.918   6.446   5.748
 3752SOL    HW112155   0.949   6.354   5.724
 3752SOL    HW212156   0.855   6.440   5.826
 3753SOL     OW12157   6.880   0.340   4.719
 3753SOL    HW112158   6.825   0.371   4.796
 3753SOL    HW212159   6.852   0.247   4.694
 3754SOL     OW12160   6.519   6.613   1.798
 3754SOL    HW112161   6.464   6.615   1.714
 3754SOL    HW212162   6.610   6.577   1.778
 3755SOL     OW12163   4.750   2.555   2.793
 3755SOL    HW112164   4.695   2.534   2.874
 3755SOL    HW212165   4.700   2.618   2.734
 3756SOL     OW12166   3.044   0.178   6.896
 3756SOL    HW112167   3.134   0.209   6.927
 3756SOL    HW212168   3.039   0.183   6.796
 3757SOL     OW12169   3.217   4.820   0.115
 3757SOL    HW112170   3.236   4.730   0.077
 3757SOL    HW212171   3.153   4.868   0.056
 3758SOL     OW12172   0.587   0.616   3.671
 3758SOL    HW112173   0.575   0.647   3.765
 3758SOL    HW212174   0.500   0.581   3.636
 3759SOL     OW12175   4.942   4.800   0.202
 3759SOL    HW112176   4.873   4.863   0.234
 3759SOL    HW212177   4.900   4.731   0.143
 3760SOL     OW12178   2.319   2.347   5.384
 3760SOL    HW112179   2.368   2.392   5.458
 3760SOL    HW212180   2.222   2.370   5.390
 3761SOL     OW12181   0.225   6.675   3.998
 3761SOL    HW112182   0.305   6.671   4.058
 3761SOL    HW212183   0.247   6.631   3.911
 3762SOL     OW12184   0.683   3.743   6.584
 3762SOL    HW112185   0.661   3.723   6.680
 3762SOL    HW212186   0.646   3.833   6.560
 3763SOL     OW12187   6.539   3.523   6.143
 3763SOL    HW112188   6.455   3.557   6.101
 3763SOL    HW212189   6.518   3.447   6.204
 3764SOL     OW12190   2.206   6.503   3.703
 3764SOL    HW112191   2.195   6.602   3.707
 3764SOL    HW212192   2.125   6.461   3.662
 3765SOL     OW12193   6.019   1.404   3.887
 3765SOL    HW112194   5.954   1.406   3.962
 3765SOL    HW212195   6.080   1.325   3.898
 3766SOL     OW12196   1.598   0.397   4.948
 3766SOL    HW112197   1.553   0.425   4.863
 3766SOL    HW212198   1.556   0.314   4.983
 3767SOL     OW12199   1.512   4.505   1.222
 3767SOL    HW112200   1.587   4.571   1.227
 3767SOL    HW212201   1.478   4.487   1.314
 3768SOL     OW12202   4.723   6.458   0.720
 3768SOL    HW112203   4.804   6.439   0.665
 3768SOL    HW212204   4.685   6.547   0.696
 3769SOL     OW12205   4.447   6.254   5.026
 3769SOL    HW112206   4.410   6.163   5.045
 3769SOL    HW212207   4.442   6.273   4.928
 3770SOL     OW12208   2.028   1.403   0.129
 3770SOL    HW112209   2.089   1.472   0.090
 3770SOL    HW212210   1.946   1.447   0.164
 3771SOL     OW12211   5.078   1.207   5.522
 3771SOL    HW112212   5.055   1.256   5.606
 3771SOL    HW212213   5.073   1.270   5.444
 3772SOL     OW12214   5.142   1.040   2.676
 3772SOL    HW112215   5.099   1.130   2.685
 3772SOL    HW212216   5.122   1.001   2.586
 3773SOL     OW12217   6.730   2.834   6.770
 3773SOL    HW112218   6.791   2.877   6.836
 3773SOL    HW212219   6.649   2.893   6.756
 3774SOL     OW12220   0.815   1.328   1.893
 3774SOL    HW112221   0.749   1.335   1.968
 3774SOL    HW212222   0.824   1.233   1.865
 3775SOL     OW12223   5.646   3.519   3.699
 3775SOL    HW112224   5.663   3.465   3.782
 3775SOL    HW212225   5.605   3.606   3.724
 3776SOL     OW12226   2.883   3.070   6.878
 3776SOL    HW112227   2.857   3.002   6.946
 3776SOL    HW212228   2.926   3.025   6.800
 3777SOL     OW12229   1.815   4.297   3.293
 3777SOL    HW112230   1.783   4.303   3.387
 3777SOL    HW212231   1.805   4.386   3.248
 3778SOL     OW12232   2.145   6.857   2.198
 3778SOL    HW112233   2.123   6.792   2.126
 3778SOL    HW212234   2.128   6.816   2.288
 3779SOL     OW12235   3.021   4.909   6.534
 3779SOL    HW112236   2.969   4.834   6.574
 3779SOL    HW212237   2.959   4.972   6.488
 3780SOL     OW12238   2.921   6.920   4.414
 3780SOL    HW112239   2.992   6.906   4.484
 3780SOL    HW212240   2.878   6.832   4.393
 3781SOL     OW12241   3.219   5.172   5.097
 3781SOL    HW112242   3.261   5.113   5.166
 3781SOL    HW212243   3.195   5.118   5.017
 3782SOL     OW12244   1.728   1.962   3.074
 3782SOL    HW112245   1.734   1.906   2.991
 3782SOL    HW212246   1.709   1.904   3.152
 3783SOL     OW12247   4.716   5.371   5.928
 3783SOL    HW112248   4.750   5.333   5.842
 3783SOL    HW212249   4.754   5.462   5.942
 3784SOL     OW12250   4.753   1.200   3.773
 3784SOL    HW112251   4.844   1.160   3.758
 3784SOL    HW212252   4.744   1.227   3.869
 3785SOL     OW12253   1.493   1.866   1.681
 3785SOL    HW112254   1.502   1.952   1.731
 3785SOL    HW212255   1.409   1.821   1.709
 3786SOL     OW12256   3.196   5.313   2.539
 3786SOL    HW112257   3.229   5.401   2.504
 3786SOL    HW212258   3.172   5.254   2.462
 3787SOL     OW12259   3.858   1.707   4.331
 3787SOL    HW112260   3.780   1.660   4.289
 3787SOL    HW212261   3.940   1.692   4.276
 3788SOL     OW12262   6.066   3.504   2.138
 3788SOL    HW112263   6.028   3.594   2.160
 3788SOL    HW212264   6.000   3.452   2.083
 3789SOL     OW12265   1.310   4.974   2.649
 3789SOL    HW112266   1.256   4.893   2.674
 3789SOL    HW212267   1.249   5.045   2.615
 3790SOL     OW12268   2.155   3.383   4.110
 3790SOL    HW112269   2.142   3.450   4.037
 3790SOL    HW212270   2.131   3.424   4.198
 3791SOL     OW12271   5.125   0.220   2.079
 3791SOL    HW112272   5.089   0.303   2.035
 3791SOL    HW212273   5.103   0.222   2.176
 3792SOL     OW12274   0.266   6.797   5.773
 3792SOL    HW112275   0.322   6.720   5.802
 3792SOL    HW212276   0.176   6.764   5.744
 3793SOL     OW12277   2.060   0.153   2.530
 3793SOL    HW112278   2.025   0.209   2.606
 3793SOL    HW212279   2.009   0.174   2.447
 3794SOL     OW12280   4.185   6.525   2.594
 3794SOL    HW112281   4.122   6.588   2.639
 3794SOL    HW212282   4.185   6.543   2.495
 3795SOL     OW12283   4.637   0.118   0.094
 3795SOL    HW112284   4.676   0.203   0.059
 3795SOL    HW212285   4.654   0.044   0.029
 3796SOL     OW12286   1.668   2.730   1.569
 3796SOL    HW112287   1.663   2.649   1.512
 3796SOL    HW212288   1.757   2.774   1.559
 3797SOL     OW12289   0.170   5.519   2.609
 3797SOL    HW112290   0.214   5.596   2.562
 3797SOL    HW212291   0.174   5.534   2.708
 3798SOL     OW12292   1.399   4.096   2.132
 3798SOL    HW112293   1.404   4.010   2.183
 3798SOL    HW212294   1.489   4.121   2.098
 3799SOL     OW12295   1.832   0.361   5.321
 3799SOL    HW112296   1.828   0.270   5.361
 3799SOL    HW212297   1.927   0.385   5.300
 3800SOL     OW12298   5.129   2.647   4.768
 3800SOL    HW112299   5.171   2.683   4.684
 3800SOL    HW212300   5.100   2.553   4.752
 3801SOL     OW12301   6.987   0.277   6.563
 3801SOL    HW112302   6.966   0.188   6.523
 3801SOL    HW212303   6.975   0.272   6.662
 3802SOL     OW12304   1.860   2.383   5.259
 3802SOL    HW112305   1.787   2.409   5.323
 3802SOL    HW212306   1.846   2.431   5.172
 3803SOL     OW12307   3.683   1.333   1.073
 3803SOL    HW112308   3.674   1.417   1.128
 3803SOL    HW212309   3.736   1.265   1.125
 3804SOL     OW12310   4.896   2.467   5.660
 3804SOL    HW112311   4.835   2.417   5.600
 3804SOL    HW212312   4.849   2.548   5.696
 3805SOL     OW12313   1.792   3.618   1.145
 3805SOL    HW112314   1.767   3.576   1.058
 3805SOL    HW212315   1.733   3.697   1.162
 3806SOL     OW12316   2.709   1.600   0.109
 3806SOL    HW112317   2.763   1.556   0.180
 3806SOL    HW212318   2.658   1.531   0.059
 3807SOL     OW12319   1.343   6.787   3.026
 3807SOL    HW112320   1.250   6.751   3.033
 3807SOL    HW212321   1.340   6.887   3.019
 3808SOL     OW12322   3.580   0.599   1.134
 3808SOL    HW112323   3.486   0.592   1.100
 3808SOL    HW212324   3.599   0.522   1.194
 3809SOL     OW12325   4.480   0.669   6.382
 3809SOL    HW112326   4.500   0.600   6.313
 3809SOL    HW212327   4.564   0.695   6.429
 3810SOL     OW12328   2.674   3.018   5.383
 3810SOL    HW112329   2.726   3.093   5.344
 3810SOL    HW212330   2.587   3.008   5.334
 3811SOL     OW12331   0.663   6.631   6.169
 3811SOL    HW112332   0.583   6.570   6.167
 3811SOL    HW212333   0.712   6.624   6.082
 3812SOL     OW12334   5.498   1.338   5.299
 3812SOL    HW112335   5.446   1.340   5.385
 3812SOL    HW212336   5.498   1.245   5.263
 3813SOL     OW12337   3.870   4.813   1.812
 3813SOL    HW112338   3.936   4.841   1.881
 3813SOL    HW212339   3.781   4.799   1.855
 3814SOL     OW12340   1.227   6.639   2.422
 3814SOL    HW112341   1.309   6.685   2.388
 3814SOL    HW212342   1.252   6.565   2.483
 3815SOL     OW12343   5.736   2.098   1.546
 3815SOL    HW112344   5.770   2.021   1.599
 3815SOL    HW212345   5.773   2.183   1.583
 3816SOL     OW12346   0.544   6.721   1.577
 3816SOL    HW112347   0.515   6.718   1.481
 3816SOL    HW212348   0.642   6.739   1.582
 3817SOL     OW12349   5.213   1.857   5.207
 3817SOL    HW112350   5.203   1.763   5.241
 3817SOL    HW212351   5.179   1.862   5.113
 3818SOL     OW12352   5.311   5.171   2.642
 3818SOL    HW112353   5.350   5.238   2.705
 3818SOL    HW212354   5.381   5.104   2.619
 3819SOL     OW12355   5.536   4.282   6.083
 3819SOL    HW112356   5.438   4.297   6.071
 3819SOL    HW212357   5.586   4.365   6.058
 3820SOL     OW12358   5.464   6.529   4.185
 3820SOL    HW112359   5.548   6.538   4.131
 3820SOL    HW212360   5.469   6.589   4.264
 3821SOL     OW12361   0.706   3.986   1.930
 3821SOL    HW112362   0.734   3.915   1.994
 3821SOL    HW212363   0.624   3.957   1.881
 3822SOL     OW12364   2.047   5.060   1.981
 3822SOL    HW112365   1.965   5.002   1.976
 3822SOL    HW212366   2.029   5.137   2.042
 3823SOL     OW12367   2.998   2.794   5.306
 3823SOL    HW112368   3.055   2.815   5.386
 3823SOL    HW212369   2.989   2.875   5.249
 3824SOL     OW12370   0.019   2.425   6.361
 3824SOL    HW112371   6.946   2.421   6.410
 3824SOL    HW212372   0.062   2.335   6.361
 3825SOL     OW12373   6.704   0.061   6.394
 3825SOL    HW112374   6.672   0.097   6.482
 3825SOL    HW212375   6.649   6.995   6.369
 3826SOL     OW12376   6.826   2.064   1.176
 3826SOL    HW112377   6.917   2.057   1.136
 3826SOL    HW212378   6.799   1.975   1.214
 3827SOL     OW12379   4.662   3.687   0.952
 3827SOL    HW112380   4.601   3.609   0.960
 3827SOL    HW212381   4.717   3.679   0.869
 3828SOL     OW12382   3.927   1.133   1.915
 3828SOL    HW112383   3.886   1.114   1.827
 3828SOL    HW212384   3.888   1.217   1.953
 3829SOL     OW12385   1.436   5.297   3.174
 3829SOL    HW112386   1.533   5.270   3.179
 3829SOL    HW212387   1.428   5.381   3.120
 3830SOL     OW12388   3.017   0.152   4.896
 3830SOL    HW112389   2.983   0.175   4.805
 3830SOL    HW212390   3.112   0.183   4.905
 3831SOL     OW12391   4.346   1.407   2.058
 3831SOL    HW112392   4.338   1.376   2.153
 3831SOL    HW212393   4.280   1.479   2.040
 3832SOL     OW12394   5.668   6.711   2.621
 3832SOL    HW112395   5.753   6.752   2.590
 3832SOL    HW212396   5.677   6.684   2.717
 3833SOL     OW12397   1.261   5.330   6.635
 3833SOL    HW112398   1.283   5.375   6.721
 3833SOL    HW212399   1.165   5.304   6.635
 3834SOL     OW12400   2.274   2.247   0.846
 3834SOL    HW112401   2.257   2.245   0.748
 3834SOL    HW212402   2.260   2.340   0.880
 3835SOL     OW12403   3.502   6.102   4.274
 3835SOL    HW112404   3.563   6.160   4.220
 3835SOL    HW212405   3.418   6.084   4.222
 3836SOL     OW12406   1.724   3.115   5.205
 3836SOL    HW112407   1.642   3.070   5.170
 3836SOL    HW212408   1.804   3.058   5.184
 3837SOL     OW12409   3.545   3.211   0.341
 3837SOL    HW112410   3.450   3.200   0.314
 3837SOL    HW212411   3.569   3.308   0.340
 3838SOL     OW12412   5.884   3.594   5.140
 3838SOL    HW112413   5.851   3.551   5.224
 3838SOL    HW212414   5.932   3.526   5.084
 3839SOL     OW12415   6.212   6.507   6.067
 3839SOL    HW112416   6.215   6.412   6.098
 3839SOL    HW212417   6.189   6.510   5.970
 3840SOL     OW12418   2.540   7.001   3.717
 3840SOL    HW112419   2.537   0.061   3.649
 3840SOL    HW212420   2.571   0.024   3.805
 3841SOL     OW12421   0.383   3.827   4.461
 3841SOL    HW112422   0.383   3.832   4.561
 3841SOL    HW212423   0.476   3.843   4.427
 3842SOL     OW12424   1.218   4.892   6.704
 3842SOL    HW112425   1.190   4.965   6.642
 3842SOL    HW212426   1.157   4.814   6.694
 3843SOL     OW12427   6.150   4.148   0.978
 3843SOL    HW112428   6.126   4.199   1.060
 3843SOL    HW212429   6.069   4.100   0.944
 3844SOL     OW12430   2.358   4.291   6.452
 3844SOL    HW112431   2.285   4.302   6.385
 3844SOL    HW212432   2.351   4.201   6.495
 3845SOL     OW12433   3.273   3.568   3.887
 3845SOL    HW112434   3.297   3.663   3.870
 3845SOL    HW212435   3.191   3.544   3.836
 3846SOL     OW12436   6.914   4.188   3.517
 3846SOL    HW112437   6.896   4.245   3.596
 3846SOL    HW212438   6.925   4.245   3.435
 3847SOL     OW12439   0.834   0.282   0.515
 3847SOL    HW112440   0.781   0.205   0.478
 3847SOL    HW212441   0.910   0.302   0.453
 3848SOL     OW12442   3.192   5.019   0.475
 3848SOL    HW112443   3.250   4.948   0.433
 3848SOL    HW212444   3.129   5.055   0.406
 3849SOL     OW12445   2.520   2.157   5.896
 3849SOL    HW112446   2.583   2.080   5.902
 3849SOL    HW212447   2.485   2.179   5.987
 3850SOL     OW12448   2.455   3.687   1.464
 3850SOL    HW112449   2.476   3.773   1.417
 3850SOL    HW212450   2.369   3.698   1.516
 3851SOL     OW12451   2.226   2.816   1.455
 3851SOL    HW112452   2.297   2.875   1.494
 3851SOL    HW212453   2.256   2.721   1.458
 3852SOL     OW12454   4.817   0.649   5.781
 3852SOL    HW112455   4.802   0.554   5.754
 3852SOL    HW212456   4.821   0.656   5.880
 3853SOL     OW12457   1.412   2.776   2.288
 3853SOL    HW112458   1.331   2.829   2.266
 3853SOL    HW212459   1.447   2.804   2.377
 3854SOL     OW12460   1.294   3.164   4.792
 3854SOL    HW112461   1.383   3.157   4.836
 3854SOL    HW212462   1.248   3.247   4.822
 3855SOL     OW12463   6.978   1.811   4.998
 3855SOL    HW112464   7.003   1.726   4.951
 3855SOL    HW212465   6.913   1.862   4.941
 3856SOL     OW12466   0.712   6.594   5.346
 3856SOL    HW112467   0.776   6.566   5.418
 3856SOL    HW212468   0.684   6.689   5.362
 3857SOL     OW12469   1.012   6.980   6.312
 3857SOL    HW112470   0.952   6.903   6.332
 3857SOL    HW212471   1.007   0.033   6.386
 3858SOL     OW12472   2.260   5.209   6.628
 3858SOL    HW112473   2.218   5.194   6.718
 3858SOL    HW212474   2.285   5.306   6.619
 3859SOL     OW12475   6.634   2.612   1.610
 3859SOL    HW112476   6.728   2.647   1.614
 3859SOL    HW212477   6.570   2.688   1.610
 3860SOL     OW12478   1.970   6.532   5.102
 3860SOL    HW112479   1.962   6.439   5.138
 3860SOL    HW212480   2.052   6.538   5.045
 3861SOL     OW12481   3.971   4.633   0.617
 3861SOL    HW112482   3.944   4.728   0.603
 3861SOL    HW212483   4.015   4.597   0.535
 3862SOL     OW12484   1.170   5.007   6.095
 3862SOL    HW112485   1.220   5.001   6.009
 3862SOL    HW212486   1.075   5.033   6.077
 3863SOL     OW12487   3.291   3.334   0.605
 3863SOL    HW112488   3.380   3.379   0.599
 3863SOL    HW212489   3.224   3.387   0.552
 3864SOL     OW12490   3.031   1.787   6.961
 3864SOL    HW112491   3.019   1.734   6.877
 3864SOL    HW212492   2.941   1.810   6.998
 3865SOL     OW12493   4.406   0.699   2.319
 3865SOL    HW112494   4.431   0.603   2.302
 3865SOL    HW212495   4.309   0.712   2.298
 3866SOL     OW12496   3.767   6.084   6.002
 3866SOL    HW112497   3.840   6.148   6.025
 3866SOL    HW212498   3.683   6.111   6.049
 3867SOL     OW12499   1.961   4.282   3.832
 3867SOL    HW112500   1.972   4.184   3.853
 3867SOL    HW212501   1.863   4.304   3.830
 3868SOL     OW12502   1.520   5.317   2.382
 3868SOL    HW112503   1.507   5.228   2.426
 3868SOL    HW212504   1.447   5.331   2.314
 3869SOL     OW12505   1.849   1.766   3.946
 3869SOL    HW112506   1.823   1.699   4.016
 3869SOL    HW212507   1.877   1.851   3.991
 3870SOL     OW12508   4.205   4.001   0.640
 3870SOL    HW112509   4.205   4.023   0.738
 3870SOL    HW212510   4.227   4.083   0.587
 3871SOL     OW12511   2.635   1.609   4.447
 3871SOL    HW112512   2.674   1.697   4.476
 3871SOL    HW212513   2.631   1.547   4.525
 3872SOL     OW12514   4.233   3.729   0.439
 3872SOL    HW112515   4.196   3.638   0.459
 3872SOL    HW212516   4.290   3.758   0.515
 3873SOL     OW12517   5.130   4.629   1.755
 3873SOL    HW112518   5.228   4.622   1.739
 3873SOL    HW212519   5.113   4.691   1.832
 3874SOL     OW12520   4.850   5.744   6.199
 3874SOL    HW112521   4.936   5.739   6.250
 3874SOL    HW212522   4.782   5.685   6.242
 3875SOL     OW12523   2.150   4.142   0.483
 3875SOL    HW112524   2.200   4.164   0.567
 3875SOL    HW212525   2.188   4.194   0.407
 3876SOL     OW12526   5.555   4.312   2.230
 3876SOL    HW112527   5.577   4.220   2.264
 3876SOL    HW212528   5.636   4.371   2.239
 3877SOL     OW12529   5.542   1.117   2.341
 3877SOL    HW112530   5.591   1.062   2.409
 3877SOL    HW212531   5.602   1.190   2.308
 3878SOL     OW12532   4.196   6.016   4.434
 3878SOL    HW112533   4.197   6.009   4.534
 3878SOL    HW212534   4.277   5.971   4.397
 3879SOL     OW12535   3.259   5.707   1.459
 3879SOL    HW112536   3.236   5.639   1.528
 3879SOL    HW212537   3.335   5.763   1.492
 3880SOL     OW12538   5.594   2.347   3.867
 3880SOL    HW112539   5.685   2.387   3.880
 3880SOL    HW212540   5.549   2.391   3.790
 3881SOL     OW12541   1.302   5.013   1.036
 3881SOL    HW112542   1.328   4.926   1.078
 3881SOL    HW212543   1.316   5.087   1.101
 3882SOL     OW12544   1.203   5.809   6.370
 3882SOL    HW112545   1.250   5.759   6.443
 3882SOL    HW212546   1.165   5.894   6.406
 3883SOL     OW12547   3.034   1.815   6.408
 3883SOL    HW112548   3.125   1.823   6.449
 3883SOL    HW212549   2.987   1.904   6.415
 3884SOL     OW12550   1.857   4.908   5.401
 3884SOL    HW112551   1.889   4.813   5.398
 3884SOL    HW212552   1.909   4.959   5.470
 3885SOL     OW12553   0.358   1.683   5.157
 3885SOL    HW112554   0.269   1.639   5.146
 3885SOL    HW212555   0.412   1.633   5.224
 3886SOL     OW12556   0.325   6.217   5.295
 3886SOL    HW112557   0.362   6.125   5.314
 3886SOL    HW212558   0.242   6.231   5.349
 3887SOL     OW12559   5.346   3.311   4.874
 3887SOL    HW112560   5.293   3.395   4.866
 3887SOL    HW212561   5.417   3.322   4.943
 3888SOL     OW12562   5.751   2.050   1.992
 3888SOL    HW112563   5.829   1.993   2.020
 3888SOL    HW212564   5.783   2.118   1.925
 3889SOL     OW12565   0.263   5.568   0.058
 3889SOL    HW112566   0.343   5.624   0.035
 3889SOL    HW212567   0.233   5.518   6.990
 3890SOL     OW12568   6.805   3.286   2.710
 3890SOL    HW112569   6.708   3.273   2.728
 3890SOL    HW212570   6.824   3.267   2.614
 3891SOL     OW12571   5.995   5.137   6.150
 3891SOL    HW112572   5.990   5.037   6.149
 3891SOL    HW212573   5.906   5.175   6.178
 3892SOL     OW12574   5.686   5.324   4.374
 3892SOL    HW112575   5.616   5.357   4.310
 3892SOL    HW212576   5.659   5.234   4.408
 3893SOL     OW12577   3.285   6.006   4.118
 3893SOL    HW112578   3.220   5.932   4.135
 3893SOL    HW212579   3.238   6.082   4.075
 3894SOL     OW12580   5.015   5.778   6.885
 3894SOL    HW112581   4.978   5.785   6.793
 3894SOL    HW212582   5.076   5.856   6.903
 3895SOL     OW12583   2.044   2.333   5.703
 3895SOL    HW112584   2.070   2.259   5.765
 3895SOL    HW212585   1.945   2.335   5.693
 3896SOL     OW12586   6.601   2.536   6.303
 3896SOL    HW112587   6.652   2.593   6.368
 3896SOL    HW212588   6.650   2.531   6.217
 3897SOL     OW12589   3.238   6.522   3.357
 3897SOL    HW112590   3.224   6.432   3.398
 3897SOL    HW212591   3.325   6.559   3.387
 3898SOL     OW12592   2.943   3.712   4.799
 3898SOL    HW112593   2.845   3.696   4.791
 3898SOL    HW212594   2.976   3.677   4.887
 3899SOL     OW12595   4.409   1.739   5.014
 3899SOL    HW112596   4.400   1.677   4.936
 3899SOL    HW212597   4.320   1.780   5.035
 3900SOL     OW12598   6.821   2.572   4.216
 3900SOL    HW112599   6.876   2.518   4.281
 3900SOL    HW212600   6.859   2.664   4.209
 3901SOL     OW12601   2.803   5.485   4.871
 3901SOL    HW112602   2.898   5.456   4.889
 3901SOL    HW212603   2.742   5.441   4.937
 3902SOL     OW12604   4.289   4.626   2.576
 3902SOL    HW112605   4.212   4.664   2.525
 3902SOL    HW212606   4.331   4.552   2.524
 3903SOL     OW12607   4.544   3.320   5.982
 3903SOL    HW112608   4.500   3.406   5.958
 3903SOL    HW212609   4.497   3.244   5.936
 3904SOL     OW12610   2.439   6.334   0.567
 3904SOL    HW112611   2.527   6.378   0.551
 3904SOL    HW212612   2.430   6.310   0.663
 3905SOL     OW12613   6.011   0.513   6.160
 3905SOL    HW112614   5.919   0.550   6.172
 3905SOL    HW212615   6.006   0.417   6.132
 3906SOL     OW12616   0.056   6.253   4.876
 3906SOL    HW112617   6.993   6.294   4.925
 3906SOL    HW212618   0.034   6.248   4.778
 3907SOL     OW12619   0.609   1.687   4.848
 3907SOL    HW112620   0.608   1.784   4.874
 3907SOL    HW212621   0.633   1.680   4.751
 3908SOL     OW12622   2.368   0.896   4.562
 3908SOL    HW112623   2.371   0.991   4.592
 3908SOL    HW212624   2.460   0.857   4.565
 3909SOL     OW12625   5.019   3.183   1.346
 3909SOL    HW112626   5.101   3.226   1.309
 3909SOL    HW212627   5.041   3.139   1.433
 3910SOL     OW12628   2.827   2.354   0.689
 3910SOL    HW112629   2.866   2.319   0.774
 3910SOL    HW212630   2.848   2.452   0.680
 3911SOL     OW12631   6.845   0.789   1.836
 3911SOL    HW112632   6.810   0.783   1.930
 3911SOL    HW212633   6.896   0.705   1.815
 3912SOL     OW12634   4.326   4.276   0.010
 3912SOL    HW112635   4.414   4.273   6.976
 3912SOL    HW212636   4.319   4.361   0.062
 3913SOL     OW12637   4.440   5.557   1.224
 3913SOL    HW112638   4.374   5.482   1.225
 3913SOL    HW212639   4.444   5.600   1.314
 3914SOL     OW12640   6.589   2.362   6.889
 3914SOL    HW112641   6.632   2.273   6.906
 3914SOL    HW212642   6.625   2.430   6.953
 3915SOL     OW12643   5.206   0.543   5.521
 3915SOL    HW112644   5.214   0.618   5.585
 3915SOL    HW212645   5.271   0.556   5.446
 3916SOL     OW12646   2.074   2.546   2.107
 3916SOL    HW112647   2.080   2.556   2.207
 3916SOL    HW212648   2.086   2.450   2.083
 3917SOL     OW12649   3.791   4.824   2.311
 3917SOL    HW112650   3.794   4.855   2.216
 3917SOL    HW212651   3.852   4.746   2.322
 3918SOL     OW12652   4.971   0.033   0.606
 3918SOL    HW112653   4.900   0.055   0.539
 3918SOL    HW212654   5.023   0.115   0.628
 3919SOL     OW12655   4.882   5.763   3.639
 3919SOL    HW112656   4.949   5.764   3.713
 3919SOL    HW212657   4.926   5.728   3.556
 3920SOL     OW12658   2.939   1.500   5.384
 3920SOL    HW112659   2.860   1.549   5.348
 3920SOL    HW212660   3.002   1.478   5.309
 3921SOL     OW12661   1.539   3.497   6.206
 3921SOL    HW112662   1.499   3.507   6.115
 3921SOL    HW212663   1.627   3.450   6.198
 3922SOL     OW12664   4.934   3.406   3.455
 3922SOL    HW112665   4.931   3.500   3.488
 3922SOL    HW212666   4.888   3.400   3.366
 3923SOL     OW12667   5.899   1.987   1.312
 3923SOL    HW112668   5.880   2.013   1.217
 3923SOL    HW212669   5.816   1.953   1.355
 3924SOL     OW12670   4.745   4.706   4.579
 3924SOL    HW112671   4.739   4.803   4.553
 3924SOL    HW212672   4.669   4.656   4.538
 3925SOL     OW12673   4.671   5.939   1.558
 3925SOL    HW112674   4.625   6.014   1.510
 3925SOL    HW212675   4.717   5.975   1.639
 3926SOL     OW12676   0.742   5.784   5.280
 3926SOL    HW112677   0.775   5.708   5.224
 3926SOL    HW212678   0.654   5.815   5.246
 3927SOL     OW12679   5.941   1.623   5.202
 3927SOL    HW112680   5.914   1.675   5.283
 3927SOL    HW212681   5.876   1.549   5.187
 3928SOL     OW12682   3.828   5.511   2.332
 3928SOL    HW112683   3.876   5.569   2.397
 3928SOL    HW212684   3.786   5.568   2.261
 3929SOL     OW12685   0.852   1.592   5.671
 3929SOL    HW112686   0.943   1.628   5.656
 3929SOL    HW212687   0.792   1.664   5.705
 3930SOL     OW12688   1.272   5.246   3.621
 3930SOL    HW112689   1.268   5.309   3.699
 3930SOL    HW212690   1.259   5.297   3.536
 3931SOL     OW12691   1.185   2.378   0.206
 3931SOL    HW112692   1.206   2.358   0.110
 3931SOL    HW212693   1.147   2.296   0.249
 3932SOL     OW12694   2.379   4.437   2.781
 3932SOL    HW112695   2.414   4.432   2.687
 3932SOL    HW212696   2.331   4.352   2.803
 3933SOL     OW12697   2.137   5.781   1.391
 3933SOL    HW112698   2.082   5.864   1.383
 3933SOL    HW212699   2.227   5.804   1.428
 3934SOL     OW12700   2.253   6.802   1.558
 3934SOL    HW112701   2.172   6.753   1.591
 3934SOL    HW212702   2.335   6.754   1.586
 3935SOL     OW12703   0.134   3.232   4.810
 3935SOL    HW112704   0.174   3.152   4.766
 3935SOL    HW212705   0.083   3.286   4.743
 3936SOL     OW12706   0.328   4.465   4.920
 3936SOL    HW112707   0.241   4.504   4.888
 3936SOL    HW212708   0.309   4.383   4.975
 3937SOL     OW12709   1.023   6.282   0.370
 3937SOL    HW112710   0.952   6.254   0.434
 3937SOL    HW212711   1.000   6.371   0.330
 3938SOL     OW12712   0.486   3.177   0.740
 3938SOL    HW112713   0.393   3.142   0.756
 3938SOL    HW212714   0.501   3.258   0.796
 3939SOL     OW12715   1.410   6.230   3.385
 3939SOL    HW112716   1.432   6.315   3.432
 3939SOL    HW212717   1.447   6.153   3.438
 3940SOL     OW12718   2.737   5.709   6.688
 3940SOL    HW112719   2.823   5.703   6.637
 3940SOL    HW212720   2.688   5.792   6.663
 3941SOL     OW12721   4.815   5.785   2.468
 3941SOL    HW112722   4.818   5.704   2.527
 3941SOL    HW212723   4.903   5.797   2.424
 3942SOL     OW12724   6.604   6.394   6.193
 3942SOL    HW112725   6.690   6.400   6.245
 3942SOL    HW212726   6.536   6.345   6.248
 3943SOL     OW12727   2.171   2.974   6.640
 3943SOL    HW112728   2.251   2.993   6.697
 3943SOL    HW212729   2.165   3.042   6.567
 3944SOL     OW12730   4.135   3.149   6.829
 3944SOL    HW112731   4.141   3.240   6.788
 3944SOL    HW212732   4.227   3.115   6.848
 3945SOL     OW12733   5.466   0.588   3.507
 3945SOL    HW112734   5.402   0.584   3.584
 3945SOL    HW212735   5.546   0.530   3.528
 3946SOL     OW12736   0.514   3.168   0.243
 3946SOL    HW112737   0.490   3.082   0.199
 3946SOL    HW212738   0.519   3.241   0.175
 3947SOL     OW12739   5.490   6.528   2.317
 3947SOL    HW112740   5.459   6.433   2.320
 3947SOL    HW212741   5.414   6.589   2.338
 3948SOL     OW12742   1.737   1.992   5.149
 3948SOL    HW112743   1.687   1.916   5.191
 3948SOL    HW212744   1.825   2.002   5.196
 3949SOL     OW12745   6.747   6.802   2.202
 3949SOL    HW112746   6.677   6.763   2.141
 3949SOL    HW212747   6.702   6.855   2.273
 3950SOL     OW12748   3.065   4.517   1.645
 3950SOL    HW112749   3.038   4.462   1.565
 3950SOL    HW212750   2.999   4.503   1.719
 3951SOL     OW12751   0.704   2.617   4.306
 3951SOL    HW112752   0.650   2.660   4.233
 3951SOL    HW212753   0.740   2.529   4.273
 3952SOL     OW12754   5.715   4.317   6.855
 3952SOL    HW112755   5.715   4.364   6.944
 3952SOL    HW212756   5.807   4.319   6.816
 3953SOL     OW12757   3.134   3.767   5.638
 3953SOL    HW112758   3.078   3.840   5.598
 3953SOL    HW212759   3.080   3.714   5.702
 3954SOL     OW12760   0.699   3.177   5.040
 3954SOL    HW112761   0.605   3.151   5.065
 3954SOL    HW212762   0.732   3.247   5.104
 3955SOL     OW12763   6.011   3.971   0.111
 3955SOL    HW112764   5.936   3.934   0.055
 3955SOL    HW212765   5.974   4.010   0.195
 3956SOL     OW12766   6.577   2.696   5.418
 3956SOL    HW112767   6.485   2.657   5.411
 3956SOL    HW212768   6.620   2.695   5.329
 3957SOL     OW12769   0.735   1.978   1.860
 3957SOL    HW112770   0.691   1.914   1.797
 3957SOL    HW212771   0.704   1.957   1.953
 3958SOL     OW12772   5.364   6.285   0.819
 3958SOL    HW112773   5.326   6.353   0.757
 3958SOL    HW212774   5.437   6.234   0.772
 3959SOL     OW12775   2.052   5.166   1.733
 3959SOL    HW112776   2.062   5.264   1.751
 3959SOL    HW212777   2.083   5.114   1.813
 3960SOL     OW12778   4.749   3.324   0.776
 3960SOL    HW112779   4.670   3.353   0.722
 3960SOL    HW212780   4.800   3.405   0.807
 3961SOL     OW12781   6.589   0.427   1.562
 3961SOL    HW112782   6.636   0.369   1.496
 3961SOL    HW212783   6.617   0.522   1.549
 3962SOL     OW12784   0.661   0.076   6.226
 3962SOL    HW112785   0.719   0.048   6.149
 3962SOL    HW212786   0.571   0.105   6.191
 3963SOL     OW12787   5.229   4.454   4.219
 3963SOL    HW112788   5.178   4.403   4.289
 3963SOL    HW212789   5.176   4.458   4.135
 3964SOL     OW12790   5.778   5.880   0.389
 3964SOL    HW112791   5.795   5.928   0.475
 3964SOL    HW212792   5.772   5.946   0.315
 3965SOL     OW12793   3.712   3.349   1.268
 3965SOL    HW112794   3.622   3.391   1.251
 3965SOL    HW212795   3.776   3.419   1.298
 3966SOL     OW12796   6.548   4.482   5.664
 3966SOL    HW112797   6.645   4.487   5.687
 3966SOL    HW212798   6.494   4.520   5.740
 3967SOL     OW12799   1.751   6.267   0.323
 3967SOL    HW112800   1.848   6.242   0.333
 3967SOL    HW212801   1.723   6.324   0.400
 3968SOL     OW12802   4.984   2.263   1.027
 3968SOL    HW112803   4.998   2.271   1.126
 3968SOL    HW212804   4.970   2.354   0.988
 3969SOL     OW12805   0.035   6.431   0.927
 3969SOL    HW112806   6.979   6.363   0.949
 3969SOL    HW212807   0.124   6.396   0.954
 3970SOL     OW12808   5.044   4.317   4.374
 3970SOL    HW112809   4.979   4.308   4.449
 3970SOL    HW212810   5.024   4.250   4.303
 3971SOL     OW12811   6.739   6.500   3.938
 3971SOL    HW112812   6.735   6.557   3.856
 3971SOL    HW212813   6.665   6.434   3.936
 3972SOL     OW12814   0.920   0.177   5.907
 3972SOL    HW112815   0.925   0.251   5.975
 3972SOL    HW212816   0.915   0.089   5.955
 3973SOL     OW12817   3.078   3.091   3.245
 3973SOL    HW112818   3.038   3.134   3.165
 3973SOL    HW212819   3.017   3.103   3.324
 3974SOL     OW12820   5.658   1.197   6.735
 3974SOL    HW112821   5.629   1.255   6.659
 3974SOL    HW212822   5.631   1.103   6.717
 3975SOL     OW12823   0.206   6.538   5.508
 3975SOL    HW112824   0.155   6.528   5.423
 3975SOL    HW212825   0.143   6.563   5.582
 3976SOL     OW12826   0.674   2.758   6.502
 3976SOL    HW112827   0.586   2.790   6.538
 3976SOL    HW212828   0.733   2.836   6.482
 3977SOL     OW12829   2.924   5.688   4.704
 3977SOL    HW112830   2.884   5.669   4.794
 3977SOL    HW212831   3.013   5.734   4.717
 3978SOL     OW12832   6.535   3.874   6.892
 3978SOL    HW112833   6.528   3.915   6.982
 3978SOL    HW212834   6.448   3.832   6.867
 3979SOL     OW12835   1.503   6.724   3.244
 3979SOL    HW112836   1.434   6.735   3.171
 3979SOL    HW212837   1.578   6.667   3.210
 3980SOL     OW12838   4.754   4.071   4.087
 3980SOL    HW112839   4.735   4.035   3.996
 3980SOL    HW212840   4.686   4.141   4.110
 3981SOL     OW12841   6.758   1.589   6.082
 3981SOL    HW112842   6.739   1.513   6.144
 3981SOL    HW212843   6.733   1.675   6.127
 3982SOL     OW12844   1.884   2.863   4.159
 3982SOL    HW112845   1.921   2.950   4.190
 3982SOL    HW212846   1.898   2.793   4.230
 3983SOL     OW12847   2.949   6.683   3.919
 3983SOL    HW112848   2.927   6.588   3.897
 3983SOL    HW212849   2.878   6.743   3.883
 3984SOL     OW12850   1.901   6.221   2.061
 3984SOL    HW112851   1.967   6.200   1.988
 3984SOL    HW212852   1.917   6.314   2.095
 3985SOL     OW12853   1.809   2.866   1.832
 3985SOL    HW112854   1.837   2.960   1.854
 3985SOL    HW212855   1.820   2.809   1.913
 3986SOL     OW12856   0.871   2.345   2.208
 3986SOL    HW112857   0.945   2.308   2.153
 3986SOL    HW212858   0.836   2.428   2.166
 3987SOL     OW12859   1.717   4.041   5.218
 3987SOL    HW112860   1.816   4.038   5.230
 3987SOL    HW212861   1.684   3.951   5.192
 3988SOL     OW12862   5.226   6.995   0.970
 3988SOL    HW112863   5.257   6.995   0.875
 3988SOL    HW212864   5.305   6.980   1.031
 3989SOL     OW12865   4.448   0.354   5.730
 3989SOL    HW112866   4.448   0.454   5.728
 3989SOL    HW212867   4.496   0.318   5.650
 3990SOL     OW12868   0.479   2.186   3.540
 3990SOL    HW112869   0.443   2.191   3.633
 3990SOL    HW212870   0.570   2.143   3.541
 3991SOL     OW12871   1.049   2.113   3.510
 3991SOL    HW112872   1.129   2.172   3.511
 3991SOL    HW212873   1.058   2.042   3.580
 3992SOL     OW12874   5.839   3.679   6.698
 3992SOL    HW112875   5.837   3.611   6.625
 3992SOL    HW212876   5.819   3.769   6.659
 3993SOL     OW12877   1.769   0.641   3.887
 3993SOL    HW112878   1.703   0.576   3.924
 3993SOL    HW212879   1.838   0.592   3.834
 3994SOL     OW12880   3.072   1.880   3.262
 3994SOL    HW112881   3.092   1.783   3.274
 3994SOL    HW212882   2.975   1.892   3.242
 3995SOL     OW12883   1.695   2.994   2.262
 3995SOL    HW112884   1.773   3.008   2.200
 3995SOL    HW212885   1.716   2.921   2.326
 3996SOL     OW12886   5.929   6.203   5.189
 3996SOL    HW112887   5.889   6.195   5.098
 3996SOL    HW212888   5.857   6.197   5.258
 3997SOL     OW12889   5.221   3.420   2.907
 3997SOL    HW112890   5.125   3.399   2.885
 3997SOL    HW212891   5.258   3.348   2.965
 3998SOL     OW12892   4.558   1.882   3.478
 3998SOL    HW112893   4.602   1.956   3.529
 3998SOL    HW212894   4.536   1.807   3.541
 3999SOL     OW12895   4.001   3.423   0.960
 3999SOL    HW112896   3.985   3.362   1.037
 3999SOL    HW212897   4.043   3.508   0.992
 4000SOL     OW12898   2.197   4.997   2.609
 4000SOL    HW112899   2.188   5.021   2.512
 4000SOL    HW212900   2.293   5.003   2.636
 4001SOL     OW12901   6.703   5.954   4.792
 4001SOL    HW112902   6.784   5.963   4.849
 4001SOL    HW212903   6.728   5.967   4.696
 4002SOL     OW12904   3.724   3.460   4.248
 4002SOL    HW112905   3.695   3.383   4.305
 4002SOL    HW212906   3.651   3.528   4.245
 4003SOL     OW12907   2.070   0.832   4.653
 4003SOL    HW112908   2.003   0.902   4.629
 4003SOL    HW212909   2.162   0.867   4.634
 4004SOL     OW12910   1.563   4.113   4.286
 4004SOL    HW112911   1.520   4.116   4.376
 4004SOL    HW212912   1.643   4.173   4.286
 4005SOL     OW12913   4.645   3.263   6.493
 4005SOL    HW112914   4.555   3.260   6.536
 4005SOL    HW212915   4.686   3.353   6.508
 4006SOL     OW12916   6.643   5.875   2.099
 4006SOL    HW112917   6.645   5.910   2.005
 4006SOL    HW212918   6.736   5.854   2.129
 4007SOL     OW12919   0.198   0.888   1.857
 4007SOL    HW112920   0.148   0.821   1.912
 4007SOL    HW212921   0.137   0.927   1.788
 4008SOL     OW12922   3.060   1.137   1.229
 4008SOL    HW112923   2.970   1.147   1.188
 4008SOL    HW212924   3.126   1.107   1.160
 4009SOL     OW12925   4.818   2.240   0.408
 4009SOL    HW112926   4.727   2.255   0.447
 4009SOL    HW212927   4.859   2.328   0.383
 4010SOL     OW12928   1.748   4.668   1.307
 4010SOL    HW112929   1.802   4.588   1.334
 4010SOL    HW212930   1.810   4.745   1.290
 4011SOL     OW12931   6.470   5.632   5.812
 4011SOL    HW112932   6.424   5.551   5.775
 4011SOL    HW212933   6.402   5.694   5.850
 4012SOL     OW12934   5.434   6.308   2.772
 4012SOL    HW112935   5.530   6.288   2.791
 4012SOL    HW212936   5.376   6.264   2.841
 4013SOL     OW12937   0.288   1.732   6.515
 4013SOL    HW112938   0.362   1.676   6.478
 4013SOL    HW212939   0.221   1.750   6.443
 4014SOL     OW12940   3.083   4.983   1.982
 4014SOL    HW112941   3.011   4.961   1.917
 4014SOL    HW212942   3.086   4.913   2.053
 4015SOL     OW12943   4.213   4.981   6.145
 4015SOL    HW112944   4.136   4.919   6.132
 4015SOL    HW212945   4.180   5.075   6.155
 4016SOL     OW12946   5.061   4.856   4.988
 4016SOL    HW112947   5.022   4.831   4.899
 4016SOL    HW212948   5.105   4.775   5.028
 4017SOL     OW12949   1.101   4.681   5.913
 4017SOL    HW112950   1.103   4.611   5.842
 4017SOL    HW212951   1.147   4.647   5.995
 4018SOL     OW12952   3.822   6.227   0.720
 4018SOL    HW112953   3.907   6.175   0.711
 4018SOL    HW212954   3.827   6.287   0.799
 4019SOL     OW12955   6.205   3.842   2.372
 4019SOL    HW112956   6.121   3.801   2.337
 4019SOL    HW212957   6.233   3.917   2.312
 4020SOL     OW12958   6.392   5.125   4.831
 4020SOL    HW112959   6.398   5.213   4.786
 4020SOL    HW212960   6.450   5.125   4.913
 4021SOL     OW12961   4.980   4.439   6.342
 4021SOL    HW112962   4.989   4.534   6.313
 4021SOL    HW212963   5.017   4.379   6.271
 4022SOL     OW12964   2.852   6.125   1.345
 4022SOL    HW112965   2.771   6.181   1.326
 4022SOL    HW212966   2.932   6.166   1.301
 4023SOL     OW12967   0.947   1.541   4.389
 4023SOL    HW112968   0.974   1.472   4.456
 4023SOL    HW212969   0.987   1.629   4.414
 4024SOL     OW12970   0.535   6.554   4.802
 4024SOL    HW112971   0.560   6.572   4.897
 4024SOL    HW212972   0.522   6.640   4.753
 4025SOL     OW12973   6.552   5.547   3.685
 4025SOL    HW112974   6.549   5.605   3.604
 4025SOL    HW212975   6.470   5.563   3.741
 4026SOL     OW12976   0.474   6.769   4.584
 4026SOL    HW112977   0.513   6.700   4.522
 4026SOL    HW212978   0.376   6.752   4.594
 4027SOL     OW12979   3.272   4.978   5.274
 4027SOL    HW112980   3.322   4.960   5.358
 4027SOL    HW212981   3.190   4.920   5.271
 4028SOL     OW12982   4.727   0.795   3.686
 4028SOL    HW112983   4.754   0.705   3.722
 4028SOL    HW212984   4.782   0.816   3.606
 4029SOL     OW12985   1.879   6.040   0.449
 4029SOL    HW112986   1.916   5.948   0.438
 4029SOL    HW212987   1.954   6.105   0.463
 4030SOL     OW12988   0.815   1.648   2.036
 4030SOL    HW112989   0.864   1.630   2.122
 4030SOL    HW212990   0.864   1.718   1.984
 4031SOL     OW12991   5.956   6.263   0.621
 4031SOL    HW112992   6.056   6.253   0.626
 4031SOL    HW212993   5.915   6.174   0.602
 4032SOL     OW12994   5.007   0.435   2.386
 4032SOL    HW112995   5.083   0.371   2.394
 4032SOL    HW212996   5.018   0.509   2.452
 4033SOL     OW12997   1.783   2.372   2.249
 4033SOL    HW112998   1.878   2.357   2.223
 4033SOL    HW212999   1.767   2.470   2.264
 4034SOL     OW13000   1.096   2.907   5.335
 4034SOL    HW113001   1.137   2.840   5.273
 4034SOL    HW213002   1.076   2.863   5.423
 4035SOL     OW13003   4.317   2.098   1.584
 4035SOL    HW113004   4.225   2.077   1.552
 4035SOL    HW213005   4.325   2.075   1.681
 4036SOL     OW13006   2.946   5.587   3.093
 4036SOL    HW113007   2.978   5.679   3.116
 4036SOL    HW213008   2.856   5.571   3.135
 4037SOL     OW13009   2.655   1.415   5.669
 4037SOL    HW113010   2.669   1.508   5.702
 4037SOL    HW213011   2.575   1.376   5.715
 4038SOL     OW13012   3.207   4.755   5.544
 4038SOL    HW113013   3.166   4.715   5.462
 4038SOL    HW213014   3.201   4.690   5.619
 4039SOL     OW13015   5.287   5.349   1.130
 4039SOL    HW113016   5.343   5.393   1.200
 4039SOL    HW213017   5.193   5.381   1.137
 4040SOL     OW13018   3.192   6.728   5.099
 4040SOL    HW113019   3.288   6.729   5.072
 4040SOL    HW213020   3.185   6.729   5.199
 4041SOL     OW13021   2.034   6.623   1.628
 4041SOL    HW113022   1.935   6.631   1.644
 4041SOL    HW213023   2.080   6.597   1.712
 4042SOL     OW13024   6.829   1.221   2.764
 4042SOL    HW113025   6.813   1.158   2.688
 4042SOL    HW213026   6.924   1.252   2.761
 4043SOL     OW13027   5.489   2.969   6.304
 4043SOL    HW113028   5.530   2.892   6.253
 4043SOL    HW213029   5.399   2.942   6.338
 4044SOL     OW13030   5.058   4.228   3.178
 4044SOL    HW113031   5.068   4.250   3.080
 4044SOL    HW213032   4.993   4.153   3.189
 4045SOL     OW13033   5.120   0.934   5.416
 4045SOL    HW113034   5.061   0.869   5.464
 4045SOL    HW213035   5.098   1.027   5.445
 4046SOL     OW13036   5.313   1.762   3.272
 4046SOL    HW113037   5.343   1.720   3.186
 4046SOL    HW213038   5.256   1.842   3.251
 4047SOL     OW13039   2.974   2.986   6.539
 4047SOL    HW113040   3.067   3.021   6.551
 4047SOL    HW213041   2.976   2.903   6.483
 4048SOL     OW13042   4.954   1.749   2.441
 4048SOL    HW113043   4.967   1.710   2.531
 4048SOL    HW213044   4.862   1.726   2.407
 4049SOL     OW13045   4.247   4.277   0.654
 4049SOL    HW113046   4.210   4.330   0.731
 4049SOL    HW213047   4.343   4.303   0.639
 4050SOL     OW13048   1.020   5.648   2.234
 4050SOL    HW113049   0.963   5.723   2.201
 4050SOL    HW213050   1.093   5.684   2.292
 4051SOL     OW13051   5.702   1.289   5.112
 4051SOL    HW113052   5.765   1.319   5.040
 4051SOL    HW213053   5.658   1.368   5.153
 4052SOL     OW13054   5.604   1.483   3.107
 4052SOL    HW113055   5.565   1.394   3.126
 4052SOL    HW213056   5.690   1.472   3.056
 4053SOL     OW13057   1.112   5.291   4.240
 4053SOL    HW113058   1.103   5.205   4.188
 4053SOL    HW213059   1.198   5.335   4.217
 4054SOL     OW13060   4.016   3.451   1.396
 4054SOL    HW113061   3.933   3.505   1.386
 4054SOL    HW213062   3.992   3.355   1.412
 4055SOL     OW13063   0.123   3.923   0.215
 4055SOL    HW113064   0.108   4.007   0.267
 4055SOL    HW213065   0.205   3.933   0.159
 4056SOL     OW13066   4.864   3.711   6.998
 4056SOL    HW113067   4.769   3.680   7.005
 4056SOL    HW213068   4.876   3.791   0.042
 4057SOL     OW13069   0.238   3.767   0.436
 4057SOL    HW113070   0.182   3.807   0.363
 4057SOL    HW213071   0.335   3.778   0.413
 4058SOL     OW13072   2.560   0.440   5.078
 4058SOL    HW113073   2.546   0.537   5.097
 4058SOL    HW213074   2.656   0.424   5.054
 4059SOL     OW13075   0.745   1.166   3.908
 4059SOL    HW113076   0.718   1.205   3.996
 4059SOL    HW213077   0.831   1.207   3.878
 4060SOL     OW13078   6.838   6.321   5.050
 4060SOL    HW113079   6.761   6.348   4.993
 4060SOL    HW213080   6.875   6.401   5.097
 4061SOL     OW13081   1.061   5.376   0.600
 4061SOL    HW113082   1.103   5.401   0.688
 4061SOL    HW213083   1.039   5.459   0.549
 4062SOL     OW13084   2.010   3.178   1.387
 4062SOL    HW113085   2.022   3.120   1.468
 4062SOL    HW213086   2.073   3.255   1.392
 4063SOL     OW13087   4.385   0.567   0.237
 4063SOL    HW113088   4.482   0.561   0.258
 4063SOL    HW213089   4.371   0.554   0.138
 4064SOL     OW13090   1.731   1.431   5.984
 4064SOL    HW113091   1.640   1.394   5.962
 4064SOL    HW213092   1.734   1.455   6.081
 4065SOL     OW13093   2.822   6.378   0.964
 4065SOL    HW113094   2.895   6.397   0.899
 4065SOL    HW213095   2.793   6.282   0.955
 4066SOL     OW13096   0.868   3.666   3.613
 4066SOL    HW113097   0.905   3.574   3.603
 4066SOL    HW213098   0.866   3.691   3.710
 4067SOL     OW13099   5.455   5.124   0.299
 4067SOL    HW113100   5.445   5.025   0.289
 4067SOL    HW213101   5.378   5.169   0.254
 4068SOL     OW13102   2.203   3.145   4.681
 4068SOL    HW113103   2.228   3.048   4.678
 4068SOL    HW213104   2.219   3.180   4.773
 4069SOL     OW13105   4.045   6.695   6.456
 4069SOL    HW113106   3.994   6.705   6.541
 4069SOL    HW213107   4.079   6.602   6.447
 4070SOL     OW13108   1.234   3.298   3.686
 4070SOL    HW113109   1.297   3.287   3.763
 4070SOL    HW213110   1.270   3.249   3.607
 4071SOL     OW13111   1.427   0.714   3.984
 4071SOL    HW113112   1.327   0.713   3.988
 4071SOL    HW213113   1.462   0.623   4.007
 4072SOL     OW13114   2.491   5.374   3.016
 4072SOL    HW113115   2.580   5.406   2.985
 4072SOL    HW213116   2.447   5.445   3.071
 4073SOL     OW13117   3.704   4.551   0.145
 4073SOL    HW113118   3.681   4.598   0.060
 4073SOL    HW213119   3.629   4.564   0.211
 4074SOL     OW13120   1.434   5.626   2.620
 4074SOL    HW113121   1.513   5.582   2.578
 4074SOL    HW213122   1.458   5.659   2.711
 4075SOL     OW13123   6.812   1.386   0.916
 4075SOL    HW113124   6.822   1.477   0.956
 4075SOL    HW213125   6.784   1.321   0.987
 4076SOL     OW13126   2.323   4.302   5.216
 4076SOL    HW113127   2.411   4.349   5.220
 4076SOL    HW213128   2.338   4.205   5.195
 4077SOL     OW13129   3.210   0.665   1.308
 4077SOL    HW113130   3.270   0.745   1.320
 4077SOL    HW213131   3.263   0.582   1.321
 4078SOL     OW13132   3.055   4.926   2.423
 4078SOL    HW113133   3.083   4.860   2.354
 4078SOL    HW213134   3.116   4.921   2.502
 4079SOL     OW13135   0.971   1.824   4.161
 4079SOL    HW113136   1.010   1.905   4.203
 4079SOL    HW213137   0.871   1.824   4.174
 4080SOL     OW13138   6.355   1.558   5.139
 4080SOL    HW113139   6.446   1.584   5.107
 4080SOL    HW213140   6.361   1.475   5.195
 4081SOL     OW13141   1.861   3.389   3.786
 4081SOL    HW113142   1.952   3.364   3.753
 4081SOL    HW213143   1.821   3.311   3.836
 4082SOL     OW13144   1.075   3.135   1.175
 4082SOL    HW113145   1.160   3.171   1.137
 4082SOL    HW213146   1.013   3.111   1.100
 4083SOL     OW13147   5.569   2.784   4.604
 4083SOL    HW113148   5.637   2.745   4.541
 4083SOL    HW213149   5.539   2.713   4.668
 4084SOL     OW13150   0.565   1.546   4.073
 4084SOL    HW113151   0.647   1.543   4.016
 4084SOL    HW213152   0.576   1.485   4.151
 4085SOL     OW13153   2.697   6.153   0.658
 4085SOL    HW113154   2.698   6.218   0.582
 4085SOL    HW213155   2.611   6.163   0.709
 4086SOL     OW13156   1.217   5.130   0.505
 4086SOL    HW113157   1.268   5.102   0.585
 4086SOL    HW213158   1.210   5.230   0.503
 4087SOL     OW13159   1.463   1.645   2.741
 4087SOL    HW113160   1.396   1.658   2.814
 4087SOL    HW213161   1.502   1.733   2.715
 4088SOL     OW13162   6.538   2.106   0.896
 4088SOL    HW113163   6.574   2.189   0.938
 4088SOL    HW213164   6.525   2.121   0.798
 4089SOL     OW13165   0.873   1.264   5.238
 4089SOL    HW113166   0.961   1.305   5.262
 4089SOL    HW213167   0.889   1.175   5.196
 4090SOL     OW13168   2.044   4.698   5.412
 4090SOL    HW113169   2.083   4.732   5.498
 4090SOL    HW213170   2.110   4.709   5.338
 4091SOL     OW13171   4.877   6.041   0.489
 4091SOL    HW113172   4.922   5.956   0.462
 4091SOL    HW213173   4.895   6.059   0.586
 4092SOL     OW13174   0.517   2.481   4.497
 4092SOL    HW113175   0.426   2.516   4.521
 4092SOL    HW213176   0.561   2.543   4.433
 4093SOL     OW13177   5.780   0.888   4.819
 4093SOL    HW113178   5.757   0.861   4.913
 4093SOL    HW213179   5.876   0.915   4.815
 4094SOL     OW13180   2.758   4.579   5.353
 4094SOL    HW113181   2.843   4.585   5.301
 4094SOL    HW213182   2.771   4.622   5.442
 4095SOL     OW13183   1.484   4.005   6.158
 4095SOL    HW113184   1.548   3.998   6.235
 4095SOL    HW213185   1.443   3.916   6.141
 4096SOL     OW13186   4.359   4.918   1.979
 4096SOL    HW113187   4.309   5.002   1.996
 4096SOL    HW213188   4.376   4.909   1.880
 4097SOL     OW13189   3.302   3.591   5.022
 4097SOL    HW113190   3.257   3.560   4.938
 4097SOL    HW213191   3.398   3.563   5.022
 4098SOL     OW13192   0.308   1.780   2.472
 4098SOL    HW113193   0.291   1.758   2.569
 4098SOL    HW213194   0.390   1.837   2.465
 4099SOL     OW13195   3.928   6.449   1.936
 4099SOL    HW113196   3.907   6.359   1.976
 4099SOL    HW213197   4.013   6.442   1.883
 4100SOL     OW13198   3.948   5.924   3.234
 4100SOL    HW113199   3.863   5.977   3.234
 4100SOL    HW213200   4.018   5.974   3.184
 4101SOL     OW13201   5.064   1.084   6.200
 4101SOL    HW113202   5.160   1.072   6.176
 4101SOL    HW213203   5.014   0.999   6.181
 4102SOL     OW13204   5.909   1.428   0.835
 4102SOL    HW113205   5.999   1.409   0.876
 4102SOL    HW213206   5.902   1.526   0.815
 4103SOL     OW13207   0.416   0.523   2.327
 4103SOL    HW113208   0.471   0.441   2.312
 4103SOL    HW213209   0.426   0.586   2.250
 4104SOL     OW13210   1.796   4.991   2.954
 4104SOL    HW113211   1.845   4.933   2.889
 4104SOL    HW213212   1.725   5.043   2.906
 4105SOL     OW13213   5.081   5.074   0.123
 4105SOL    HW113214   5.018   5.144   0.089
 4105SOL    HW213215   5.029   4.996   0.158
 4106SOL     OW13216   0.014   3.819   5.074
 4106SOL    HW113217   0.100   3.768   5.080
 4106SOL    HW213218   6.980   3.794   4.990
 4107SOL     OW13219   0.073   0.809   1.097
 4107SOL    HW113220   0.016   0.731   1.073
 4107SOL    HW213221   0.084   0.868   1.016
 4108SOL     OW13222   6.465   3.296   5.585
 4108SOL    HW113223   6.563   3.288   5.604
 4108SOL    HW213224   6.452   3.338   5.496
 4109SOL     OW13225   3.283   6.382   3.667
 4109SOL    HW113226   3.361   6.352   3.722
 4109SOL    HW213227   3.227   6.445   3.721
 4110SOL     OW13228   4.798   3.354   5.705
 4110SOL    HW113229   4.753   3.324   5.789
 4110SOL    HW213230   4.787   3.453   5.696
 4111SOL     OW13231   4.438   3.171   6.852
 4111SOL    HW113232   4.477   3.098   6.796
 4111SOL    HW213233   4.512   3.230   6.886
 4112SOL     OW13234   3.755   0.840   4.316
 4112SOL    HW113235   3.711   0.901   4.382
 4112SOL    HW213236   3.792   0.893   4.240
 4113SOL     OW13237   3.830   5.304   4.475
 4113SOL    HW113238   3.907   5.324   4.536
 4113SOL    HW213239   3.837   5.360   4.392
 4114SOL     OW13240   2.702   1.925   2.788
 4114SOL    HW113241   2.793   1.913   2.827
 4114SOL    HW213242   2.698   1.879   2.699
 4115SOL     OW13243   5.254   4.859   1.969
 4115SOL    HW113244   5.245   4.787   2.038
 4115SOL    HW213245   5.217   4.944   2.004
 4116SOL     OW13246   2.830   1.001   2.206
 4116SOL    HW113247   2.765   1.006   2.282
 4116SOL    HW213248   2.853   0.906   2.189
 4117SOL     OW13249   1.029   5.870   1.636
 4117SOL    HW113250   0.958   5.937   1.659
 4117SOL    HW213251   1.072   5.896   1.550
 4118SOL     OW13252   2.472   6.806   0.009
 4118SOL    HW113253   2.522   6.815   6.937
 4118SOL    HW213254   2.515   6.864   0.079
 4119SOL     OW13255   4.236   0.902   3.360
 4119SOL    HW113256   4.321   0.952   3.372
 4119SOL    HW213257   4.167   0.961   3.319
 4120SOL     OW13258   3.999   0.820   1.603
 4120SOL    HW113259   3.901   0.804   1.589
 4120SOL    HW213260   4.045   0.732   1.615
 4121SOL     OW13261   6.383   2.889   4.898
 4121SOL    HW113262   6.288   2.907   4.923
 4121SOL    HW213263   6.386   2.845   4.808
 4122SOL     OW13264   1.601   5.839   6.160
 4122SOL    HW113265   1.507   5.868   6.144
 4122SOL    HW213266   1.612   5.743   6.134
 4123SOL     OW13267   5.498   3.758   6.410
 4123SOL    HW113268   5.451   3.759   6.499
 4123SOL    HW213269   5.483   3.845   6.363
 4124SOL     OW13270   4.857   6.713   3.890
 4124SOL    HW113271   4.883   6.800   3.931
 4124SOL    HW213272   4.876   6.715   3.792
 4125SOL     OW13273   5.063   1.382   1.323
 4125SOL    HW113274   4.968   1.380   1.291
 4125SOL    HW213275   5.105   1.469   1.296
 4126SOL     OW13276   2.103   4.698   4.248
 4126SOL    HW113277   2.195   4.733   4.265
 4126SOL    HW213278   2.078   4.716   4.153
 4127SOL     OW13279   6.602   3.619   5.595
 4127SOL    HW113280   6.503   3.608   5.582
 4127SOL    HW213281   6.633   3.555   5.665
 4128SOL     OW13282   0.784   2.027   2.987
 4128SOL    HW113283   0.825   1.989   3.070
 4128SOL    HW213284   0.687   2.043   3.001
 4129SOL     OW13285   5.838   2.184   5.948
 4129SOL    HW113286   5.815   2.279   5.928
 4129SOL    HW213287   5.854   2.134   5.863
 4130SOL     OW13288   5.702   3.868   0.833
 4130SOL    HW113289   5.688   3.774   0.864
 4130SOL    HW213290   5.616   3.917   0.834
 4131SOL     OW13291   6.463   4.450   3.376
 4131SOL    HW113292   6.406   4.531   3.388
 4131SOL    HW213293   6.410   4.368   3.399
 4132SOL     OW13294   4.923   2.449   3.751
 4132SOL    HW113295   4.885   2.381   3.814
 4132SOL    HW213296   5.005   2.489   3.791
 4133SOL     OW13297   2.912   1.822   1.316
 4133SOL    HW113298   2.992   1.766   1.335
 4133SOL    HW213299   2.831   1.780   1.355
 4134SOL     OW13300   0.957   1.429   6.863
 4134SOL    HW113301   0.965   1.374   6.946
 4134SOL    HW213302   0.878   1.491   6.872
 4135SOL     OW13303   1.266   0.626   1.371
 4135SOL    HW113304   1.167   0.627   1.356
 4135SOL    HW213305   1.298   0.719   1.386
 4136SOL     OW13306   1.268   2.265   3.507
 4136SOL    HW113307   1.346   2.208   3.482
 4136SOL    HW213308   1.258   2.339   3.440
 4137SOL     OW13309   3.066   4.251   6.157
 4137SOL    HW113310   3.066   4.325   6.090
 4137SOL    HW213311   3.082   4.164   6.111
 4138SOL     OW13312   4.337   4.838   3.438
 4138SOL    HW113313   4.360   4.828   3.341
 4138SOL    HW213314   4.368   4.927   3.470
 4139SOL     OW13315   1.922   1.238   6.617
 4139SOL    HW113316   1.906   1.144   6.587
 4139SOL    HW213317   1.999   1.240   6.681
 4140SOL     OW13318   4.588   1.262   4.813
 4140SOL    HW113319   4.640   1.337   4.853
 4140SOL    HW213320   4.651   1.196   4.772
 4141SOL     OW13321   5.295   5.555   0.430
 4141SOL    HW113322   5.340   5.609   0.358
 4141SOL    HW213323   5.363   5.525   0.496
 4142SOL     OW13324   6.309   3.845   1.574
 4142SOL    HW113325   6.252   3.784   1.518
 4142SOL    HW213326   6.383   3.792   1.615
 4143SOL     OW13327   0.366   2.779   1.207
 4143SOL    HW113328   0.428   2.713   1.249
 4143SOL    HW213329   0.337   2.745   1.118
 4144SOL     OW13330   4.426   0.437   2.527
 4144SOL    HW113331   4.443   0.407   2.620
 4144SOL    HW213332   4.491   0.509   2.503
 4145SOL     OW13333   2.594   0.074   2.948
 4145SOL    HW113334   2.596   0.105   2.852
 4145SOL    HW213335   2.678   0.104   2.994
 4146SOL     OW13336   5.158   5.994   0.329
 4146SOL    HW113337   5.253   5.978   0.353
 4146SOL    HW213338   5.100   5.925   0.372
 4147SOL     OW13339   3.399   2.384   5.606
 4147SOL    HW113340   3.337   2.384   5.685
 4147SOL    HW213341   3.370   2.313   5.542
 4148SOL     OW13342   5.985   0.274   3.393
 4148SOL    HW113343   5.971   0.372   3.378
 4148SOL    HW213344   6.068   0.259   3.446
 4149SOL     OW13345   5.562   3.613   2.028
 4149SOL    HW113346   5.492   3.573   1.967
 4149SOL    HW213347   5.653   3.595   1.990
 4150SOL     OW13348   4.844   0.604   6.318
 4150SOL    HW113349   4.907   0.644   6.385
 4150SOL    HW213350   4.796   0.527   6.359
 4151SOL     OW13351   0.558   5.497   0.994
 4151SOL    HW113352   0.613   5.440   1.054
 4151SOL    HW213353   0.568   5.466   0.899
 4152SOL     OW13354   3.510   4.036   1.327
 4152SOL    HW113355   3.515   4.077   1.418
 4152SOL    HW213356   3.423   4.061   1.284
 4153SOL     OW13357   6.398   5.162   5.905
 4153SOL    HW113358   6.349   5.076   5.887
 4153SOL    HW213359   6.396   5.181   6.003
 4154SOL     OW13360   5.114   3.477   5.696
 4154SOL    HW113361   5.054   3.470   5.776
 4154SOL    HW213362   5.202   3.516   5.723
 4155SOL     OW13363   0.969   3.022   1.886
 4155SOL    HW113364   0.870   3.036   1.881
 4155SOL    HW213365   1.011   3.099   1.933
 4156SOL     OW13366   6.084   0.085   5.738
 4156SOL    HW113367   6.025   0.056   5.663
 4156SOL    HW213368   6.041   0.063   5.825
 4157SOL     OW13369   3.482   0.726   5.075
 4157SOL    HW113370   3.579   0.733   5.097
 4157SOL    HW213371   3.462   0.781   4.993
 4158SOL     OW13372   1.006   6.723   4.043
 4158SOL    HW113373   1.089   6.690   4.088
 4158SOL    HW213374   0.995   6.676   3.956
 4159SOL     OW13375   1.017   2.643   4.944
 4159SOL    HW113376   1.084   2.688   5.003
 4159SOL    HW213377   0.946   2.709   4.918
 4160SOL     OW13378   1.399   1.227   0.629
 4160SOL    HW113379   1.300   1.225   0.615
 4160SOL    HW213380   1.445   1.203   0.544
 4161SOL     OW13381   6.347   2.060   0.451
 4161SOL    HW113382   6.287   1.982   0.433
 4161SOL    HW213383   6.360   2.113   0.367
 4162SOL     OW13384   6.295   0.382   5.484
 4162SOL    HW113385   6.276   0.368   5.581
 4162SOL    HW213386   6.244   0.316   5.430
 4163SOL     OW13387   5.753   1.526   4.261
 4163SOL    HW113388   5.671   1.473   4.282
 4163SOL    HW213389   5.819   1.468   4.212
 4164SOL     OW13390   2.518   0.136   5.794
 4164SOL    HW113391   2.530   0.201   5.719
 4164SOL    HW213392   2.422   0.137   5.823
 4165SOL     OW13393   3.648   6.175   2.334
 4165SOL    HW113394   3.630   6.256   2.390
 4165SOL    HW213395   3.618   6.192   2.240
 4166SOL     OW13396   5.695   3.128   0.778
 4166SOL    HW113397   5.760   3.098   0.848
 4166SOL    HW213398   5.693   3.061   0.704
 4167SOL     OW13399   1.908   2.807   1.476
 4167SOL    HW113400   2.007   2.820   1.477
 4167SOL    HW213401   1.867   2.875   1.415
 4168SOL     OW13402   1.641   4.973   0.802
 4168SOL    HW113403   1.575   4.907   0.840
 4168SOL    HW213404   1.733   4.934   0.805
 4169SOL     OW13405   5.912   3.551   4.744
 4169SOL    HW113406   5.814   3.537   4.753
 4169SOL    HW213407   5.930   3.631   4.687
 4170SOL     OW13408   4.444   2.440   5.527
 4170SOL    HW113409   4.523   2.500   5.531
 4170SOL    HW213410   4.474   2.345   5.537
 4171SOL     OW13411   5.712   3.662   1.610
 4171SOL    HW113412   5.762   3.587   1.652
 4171SOL    HW213413   5.732   3.747   1.658
 4172SOL     OW13414   1.731   1.768   0.592
 4172SOL    HW113415   1.653   1.819   0.626
 4172SOL    HW213416   1.795   1.751   0.668
 4173SOL     OW13417   5.336   3.686   5.499
 4173SOL    HW113418   5.360   3.771   5.453
 4173SOL    HW213419   5.238   3.670   5.492
 4174SOL     OW13420   4.888   0.836   4.690
 4174SOL    HW113421   4.863   0.770   4.620
 4174SOL    HW213422   4.963   0.800   4.745
 4175SOL     OW13423   3.344   1.183   3.222
 4175SOL    HW113424   3.277   1.198   3.150
 4175SOL    HW213425   3.429   1.148   3.181
 4176SOL     OW13426   5.787   6.016   2.808
 4176SOL    HW113427   5.880   6.008   2.844
 4176SOL    HW213428   5.753   6.109   2.825
 4177SOL     OW13429   6.889   5.641   2.718
 4177SOL    HW113430   6.967   5.702   2.730
 4177SOL    HW213431   6.805   5.689   2.742
 4178SOL     OW13432   4.050   2.277   5.752
 4178SOL    HW113433   3.986   2.350   5.727
 4178SOL    HW213434   4.125   2.315   5.806
 4179SOL     OW13435   5.709   3.218   5.903
 4179SOL    HW113436   5.802   3.238   5.873
 4179SOL    HW213437   5.658   3.303   5.914
 4180SOL     OW13438   4.258   3.804   1.762
 4180SOL    HW113439   4.266   3.903   1.761
 4180SOL    HW213440   4.339   3.763   1.722
 4181SOL     OW13441   0.531   1.299   0.102
 4181SOL    HW113442   0.434   1.311   0.126
 4181SOL    HW213443   0.581   1.383   0.123
 4182SOL     OW13444   5.324   1.175   3.548
 4182SOL    HW113445   5.415   1.191   3.512
 4182SOL    HW213446   5.322   1.089   3.599
 4183SOL     OW13447   1.635   1.913   1.121
 4183SOL    HW113448   1.550   1.947   1.080
 4183SOL    HW213449   1.672   1.840   1.065
 4184SOL     OW13450   4.761   5.400   0.417
 4184SOL    HW113451   4.803   5.340   0.486
 4184SOL    HW213452   4.687   5.452   0.458
 4185SOL     OW13453   0.405   7.007   4.407
 4185SOL    HW113454   0.450   6.936   4.462
 4185SOL    HW213455   0.327   0.029   4.458
 4186SOL     OW13456   3.161   4.358   1.292
 4186SOL    HW113457   3.245   4.354   1.346
 4186SOL    HW213458   3.082   4.367   1.352
 4187SOL     OW13459   4.424   4.201   6.733
 4187SOL    HW113460   4.440   4.187   6.635
 4187SOL    HW213461   4.351   4.268   6.745
 4188SOL     OW13462   4.920   6.667   4.596
 4188SOL    HW113463   4.952   6.687   4.689
 4188SOL    HW213464   4.835   6.615   4.600
 4189SOL     OW13465   2.374   2.682   3.568
 4189SOL    HW113466   2.377   2.764   3.627
 4189SOL    HW213467   2.359   2.601   3.625
 4190SOL     OW13468   3.001   0.125   1.472
 4190SOL    HW113469   2.917   0.180   1.470
 4190SOL    HW213470   3.030   0.107   1.378
 4191SOL     OW13471   6.412   2.114   2.500
 4191SOL    HW113472   6.389   2.064   2.417
 4191SOL    HW213473   6.346   2.093   2.572
 4192SOL     OW13474   6.178   1.561   3.267
 4192SOL    HW113475   6.091   1.512   3.275
 4192SOL    HW213476   6.168   1.653   3.304
 4193SOL     OW13477   1.744   0.027   1.922
 4193SOL    HW113478   1.658   0.035   1.871
 4193SOL    HW213479   1.810   0.092   1.886
 4194SOL     OW13480   0.563   0.706   4.359
 4194SOL    HW113481   0.513   0.633   4.405
 4194SOL    HW213482   0.602   0.671   4.274
 4195SOL     OW13483   4.998   0.885   1.906
 4195SOL    HW113484   5.060   0.899   1.984
 4195SOL    HW213485   5.001   0.966   1.847
 4196SOL     OW13486   4.600   2.641   3.368
 4196SOL    HW113487   4.508   2.606   3.350
 4196SOL    HW213488   4.641   2.590   3.443
 4197SOL     OW13489   4.459   4.550   4.167
 4197SOL    HW113490   4.438   4.643   4.197
 4197SOL    HW213491   4.491   4.552   4.072
 4198SOL     OW13492   6.114   3.961   5.695
 4198SOL    HW113493   6.174   3.881   5.693
 4198SOL    HW213494   6.090   3.982   5.790
 4199SOL     OW13495   3.207   4.047   4.987
 4199SOL    HW113496   3.250   4.066   4.899
 4199SOL    HW213497   3.107   4.051   4.976
 4200SOL     OW13498   2.349   0.030   6.012
 4200SOL    HW113499   2.315   6.961   6.055
 4200SOL    HW213500   2.446   0.043   6.036
 4201SOL     OW13501   6.122   6.546   4.320
 4201SOL    HW113502   6.200   6.609   4.314
 4201SOL    HW213503   6.150   6.462   4.366
 4202SOL     OW13504   5.474   4.404   4.869
 4202SOL    HW113505   5.404   4.473   4.885
 4202SOL    HW213506   5.453   4.353   4.786
 4203SOL     OW13507   5.280   5.248   3.870
 4203SOL    HW113508   5.258   5.213   3.779
 4203SOL    HW213509   5.366   5.208   3.902
 4204SOL     OW13510   3.266   3.959   0.634
 4204SOL    HW113511   3.203   4.023   0.678
 4204SOL    HW213512   3.281   3.987   0.539
 4205SOL     OW13513   2.755   5.134   2.693
 4205SOL    HW113514   2.779   5.043   2.726
 4205SOL    HW213515   2.828   5.169   2.634
 4206SOL     OW13516   5.849   0.209   4.748
 4206SOL    HW113517   5.922   0.234   4.685
 4206SOL    HW213518   5.804   0.293   4.780
 4207SOL     OW13519   0.997   0.669   1.351
 4207SOL    HW113520   0.948   0.603   1.409
 4207SOL    HW213521   0.946   0.755   1.347
 4208SOL     OW13522   0.967   3.116   1.431
 4208SOL    HW113523   1.005   3.074   1.513
 4208SOL    HW213524   1.025   3.095   1.353
 4209SOL     OW13525   3.148   6.989   4.630
 4209SOL    HW113526   3.230   7.007   4.575
 4209SOL    HW213527   3.130   0.053   4.690
 4210SOL     OW13528   5.212   2.507   0.633
 4210SOL    HW113529   5.177   2.589   0.677
 4210SOL    HW213530   5.271   2.534   0.556
 4211SOL     OW13531   4.813   4.004   3.513
 4211SOL    HW113532   4.901   4.018   3.558
 4211SOL    HW213533   4.827   3.992   3.414
 4212SOL     OW13534   6.617   6.946   2.383
 4212SOL    HW113535   6.557   6.997   2.321
 4212SOL    HW213536   6.609   6.984   2.475
 4213SOL     OW13537   0.756   0.581   2.232
 4213SOL    HW113538   0.672   0.580   2.178
 4213SOL    HW213539   0.745   0.639   2.312
 4214SOL     OW13540   2.090   4.355   4.522
 4214SOL    HW113541   2.071   4.386   4.429
 4214SOL    HW213542   2.153   4.419   4.566
 4215SOL     OW13543   0.658   5.265   4.806
 4215SOL    HW113544   0.726   5.206   4.849
 4215SOL    HW213545   0.567   5.241   4.840
 4216SOL     OW13546   2.244   3.389   5.436
 4216SOL    HW113547   2.284   3.297   5.445
 4216SOL    HW213548   2.218   3.423   5.526
 4217SOL     OW13549   6.767   0.823   3.184
 4217SOL    HW113550   6.789   0.917   3.209
 4217SOL    HW213551   6.781   0.763   3.263
 4218SOL     OW13552   3.040   6.488   2.935
 4218SOL    HW113553   3.074   6.538   2.855
 4218SOL    HW213554   3.083   6.398   2.939
 4219SOL     OW13555   4.886   6.228   3.442
 4219SOL    HW113556   4.835   6.304   3.483
 4219SOL    HW213557   4.848   6.141   3.473
 4220SOL     OW13558   0.433   3.715   3.535
 4220SOL    HW113559   0.470   3.632   3.576
 4220SOL    HW213560   0.389   3.693   3.448
 4221SOL     OW13561   5.571   5.849   5.959
 4221SOL    HW113562   5.500   5.920   5.953
 4221SOL    HW213563   5.654   5.888   6.000
 4222SOL     OW13564   4.275   2.423   0.166
 4222SOL    HW113565   4.179   2.397   0.165
 4222SOL    HW213566   4.285   2.511   0.213
 4223SOL     OW13567   3.678   4.122   2.921
 4223SOL    HW113568   3.721   4.212   2.915
 4223SOL    HW213569   3.587   4.126   2.881
 4224SOL     OW13570   4.375   2.095   5.168
 4224SOL    HW113571   4.343   2.180   5.211
 4224SOL    HW213572   4.354   2.097   5.070
 4225SOL     OW13573   5.426   0.851   4.768
 4225SOL    HW113574   5.388   0.908   4.841
 4225SOL    HW213575   5.468   0.769   4.808
 4226SOL     OW13576   1.614   0.768   3.258
 4226SOL    HW113577   1.606   0.864   3.284
 4226SOL    HW213578   1.581   0.710   3.332
 4227SOL     OW13579   5.795   4.464   0.507
 4227SOL    HW113580   5.854   4.485   0.429
 4227SOL    HW213581   5.719   4.529   0.510
 4228SOL     OW13582   6.176   5.504   2.396
 4228SOL    HW113583   6.228   5.428   2.436
 4228SOL    HW213584   6.078   5.489   2.410
 4229SOL     OW13585   5.008   4.771   5.587
 4229SOL    HW113586   5.011   4.786   5.489
 4229SOL    HW213587   4.999   4.859   5.634
 4230SOL     OW13588   3.475   0.550   4.370
 4230SOL    HW113589   3.527   0.546   4.454
 4230SOL    HW213590   3.536   0.569   4.293
 4231SOL     OW13591   4.135   6.079   5.308
 4231SOL    HW113592   4.219   6.078   5.254
 4231SOL    HW213593   4.153   6.044   5.400
 4232SOL     OW13594   2.327   3.938   1.829
 4232SOL    HW113595   2.309   3.842   1.808
 4232SOL    HW213596   2.386   3.977   1.758
 4233SOL     OW13597   5.370   6.837   1.257
 4233SOL    HW113598   5.448   6.780   1.232
 4233SOL    HW213599   5.292   6.780   1.280
 4234SOL     OW13600   3.479   4.205   5.530
 4234SOL    HW113601   3.454   4.177   5.437
 4234SOL    HW213602   3.577   4.225   5.533
 4235SOL     OW13603   6.955   3.488   5.491
 4235SOL    HW113604   6.950   3.516   5.587
 4235SOL    HW213605   0.022   3.528   5.449
 4236SOL     OW13606   1.096   4.283   5.142
 4236SOL    HW113607   1.038   4.365   5.148
 4236SOL    HW213608   1.042   4.203   5.167
 4237SOL     OW13609   5.194   4.166   4.627
 4237SOL    HW113610   5.290   4.191   4.641
 4237SOL    HW213611   5.184   4.120   4.539
 4238SOL     OW13612   4.031   5.069   3.641
 4238SOL    HW113613   4.130   5.078   3.652
 4238SOL    HW213614   3.986   5.095   3.726
 4239SOL     OW13615   5.230   5.296   5.869
 4239SOL    HW113616   5.280   5.344   5.942
 4239SOL    HW213617   5.287   5.225   5.831
 4240SOL     OW13618   2.612   4.633   6.117
 4240SOL    HW113619   2.538   4.684   6.162
 4240SOL    HW213620   2.657   4.575   6.185
 4241SOL     OW13621   3.871   1.279   0.200
 4241SOL    HW113622   3.902   1.234   0.285
 4241SOL    HW213623   3.778   1.248   0.179
 4242SOL     OW13624   1.649   0.316   2.303
 4242SOL    HW113625   1.586   0.333   2.379
 4242SOL    HW213626   1.681   0.403   2.266
 4243SOL     OW13627   1.739   3.089   3.283
 4243SOL    HW113628   1.687   3.044   3.356
 4243SOL    HW213629   1.679   3.151   3.233
 4244SOL     OW13630   3.351   6.236   1.190
 4244SOL    HW113631   3.400   6.234   1.102
 4244SOL    HW213632   3.362   6.326   1.232
 4245SOL     OW13633   6.393   3.062   1.750
 4245SOL    HW113634   6.444   3.148   1.756
 4245SOL    HW213635   6.456   2.985   1.747
 4246SOL     OW13636   4.038   2.216   4.115
 4246SOL    HW113637   3.951   2.266   4.121
 4246SOL    HW213638   4.022   2.119   4.134
 4247SOL     OW13639   1.991   4.015   6.228
 4247SOL    HW113640   2.047   3.955   6.171
 4247SOL    HW213641   1.896   3.984   6.225
 4248SOL     OW13642   1.686   0.244   2.917
 4248SOL    HW113643   1.673   0.166   2.978
 4248SOL    HW213644   1.700   0.211   2.824
 4249SOL     OW13645   6.597   0.005   5.545
 4249SOL    HW113646   6.611   0.038   5.451
 4249SOL    HW213647   6.499   7.009   5.562
 4250SOL     OW13648   6.394   5.696   4.292
 4250SOL    HW113649   6.338   5.647   4.359
 4250SOL    HW213650   6.369   5.793   4.292
 4251SOL     OW13651   5.846   2.505   5.285
 4251SOL    HW113652   5.804   2.480   5.198
 4251SOL    HW213653   5.910   2.580   5.271
 4252SOL     OW13654   6.903   6.706   0.170
 4252SOL    HW113655   6.815   6.691   0.126
 4252SOL    HW213656   6.902   6.793   0.219
 4253SOL     OW13657   4.455   5.572   2.816
 4253SOL    HW113658   4.504   5.528   2.741
 4253SOL    HW213659   4.507   5.564   2.901
 4254SOL     OW13660   2.267   2.461   5.811
 4254SOL    HW113661   2.225   2.378   5.775
 4254SOL    HW213662   2.226   2.484   5.899
 4255SOL     OW13663   1.246   3.387   3.251
 4255SOL    HW113664   1.291   3.476   3.238
 4255SOL    HW213665   1.292   3.336   3.323
 4256SOL     OW13666   0.270   6.295   0.981
 4256SOL    HW113667   0.322   6.307   1.067
 4256SOL    HW213668   0.241   6.200   0.973
 4257SOL     OW13669   6.901   0.617   4.177
 4257SOL    HW113670   6.910   0.523   4.208
 4257SOL    HW213671   6.841   0.667   4.240
 4258SOL     OW13672   3.042   5.408   0.683
 4258SOL    HW113673   3.104   5.337   0.651
 4258SOL    HW213674   3.065   5.432   0.778
 4259SOL     OW13675   1.062   0.289   0.354
 4259SOL    HW113676   1.149   0.255   0.320
 4259SOL    HW213677   0.988   0.258   0.293
 4260SOL     OW13678   5.662   1.157   4.828
 4260SOL    HW113679   5.648   1.240   4.881
 4260SOL    HW213680   5.676   1.079   4.890
 4261SOL     OW13681   2.663   6.068   4.134
 4261SOL    HW113682   2.686   6.165   4.124
 4261SOL    HW213683   2.744   6.012   4.112
 4262SOL     OW13684   2.692   4.746   5.870
 4262SOL    HW113685   2.706   4.725   5.966
 4262SOL    HW213686   2.777   4.729   5.819
 4263SOL     OW13687   2.246   2.047   3.580
 4263SOL    HW113688   2.341   2.022   3.562
 4263SOL    HW213689   2.228   2.140   3.545
 4264SOL     OW13690   4.752   2.274   5.531
 4264SOL    HW113691   4.704   2.223   5.603
 4264SOL    HW213692   4.720   2.243   5.442
 4265SOL     OW13693   2.016   6.871   5.974
 4265SOL    HW113694   2.077   6.861   6.053
 4265SOL    HW213695   2.046   6.810   5.901
 4266SOL     OW13696   1.489   4.911   1.838
 4266SOL    HW113697   1.514   4.888   1.932
 4266SOL    HW213698   1.453   5.004   1.836
 4267SOL     OW13699   0.870   4.344   4.347
 4267SOL    HW113700   0.864   4.444   4.344
 4267SOL    HW213701   0.882   4.314   4.441
 4268SOL     OW13702   0.930   3.741   6.249
 4268SOL    HW113703   0.862   3.802   6.291
 4268SOL    HW213704   1.022   3.773   6.271
 4269SOL     OW13705   2.902   1.446   4.924
 4269SOL    HW113706   2.818   1.435   4.978
 4269SOL    HW213707   2.889   1.518   4.856
 4270SOL     OW13708   3.558   3.004   0.142
 4270SOL    HW113709   3.561   3.082   0.205
 4270SOL    HW213710   3.552   3.037   0.048
 4271SOL     OW13711   6.782   0.912   1.258
 4271SOL    HW113712   6.777   0.882   1.354
 4271SOL    HW213713   6.861   0.870   1.214
 4272SOL     OW13714   6.496   0.952   6.163
 4272SOL    HW113715   6.487   0.964   6.262
 4272SOL    HW213716   6.406   0.928   6.125
 4273SOL     OW13717   2.989   5.808   4.464
 4273SOL    HW113718   2.952   5.780   4.552
 4273SOL    HW213719   3.026   5.728   4.417
 4274SOL     OW13720   6.791   1.371   2.472
 4274SOL    HW113721   6.786   1.273   2.488
 4274SOL    HW213722   6.863   1.410   2.529
 4275SOL     OW13723   0.725   2.522   3.476
 4275SOL    HW113724   0.766   2.486   3.392
 4275SOL    HW213725   0.650   2.462   3.505
 4276SOL     OW13726   2.065   6.015   2.812
 4276SOL    HW113727   2.077   5.981   2.905
 4276SOL    HW213728   1.988   5.967   2.769
 4277SOL     OW13729   6.981   5.444   3.029
 4277SOL    HW113730   0.037   5.514   3.019
 4277SOL    HW213731   6.960   5.405   2.939
 4278SOL     OW13732   1.173   6.799   1.475
 4278SOL    HW113733   1.098   6.769   1.416
 4278SOL    HW213734   1.141   6.873   1.535
 4279SOL     OW13735   1.009   2.422   3.405
 4279SOL    HW113736   1.074   2.353   3.374
 4279SOL    HW213737   1.044   2.513   3.384
 4280SOL     OW13738   1.945   6.293   6.368
 4280SOL    HW113739   1.943   6.367   6.301
 4280SOL    HW213740   1.974   6.208   6.324
 4281SOL     OW13741   5.363   6.022   3.058
 4281SOL    HW113742   5.341   6.033   2.961
 4281SOL    HW213743   5.333   6.104   3.108
 4282SOL     OW13744   4.634   5.563   1.997
 4282SOL    HW113745   4.657   5.469   1.970
 4282SOL    HW213746   4.536   5.577   1.988
 4283SOL     OW13747   5.151   1.341   4.589
 4283SOL    HW113748   5.154   1.251   4.544
 4283SOL    HW213749   5.142   1.328   4.687
 4284SOL     OW13750   4.498   5.020   6.574
 4284SOL    HW113751   4.566   5.048   6.506
 4284SOL    HW213752   4.419   4.980   6.528
 4285SOL     OW13753   3.514   1.251   6.242
 4285SOL    HW113754   3.482   1.286   6.154
 4285SOL    HW213755   3.526   1.152   6.237
 4286SOL     OW13756   5.802   0.676   6.295
 4286SOL    HW113757   5.878   0.656   6.356
 4286SOL    HW213758   5.736   0.734   6.341
 4287SOL     OW13759   3.506   1.061   1.152
 4287SOL    HW113760   3.531   1.149   1.191
 4287SOL    HW213761   3.587   1.015   1.117
 4288SOL     OW13762   6.915   6.138   1.937
 4288SOL    HW113763   6.934   6.114   1.842
 4288SOL    HW213764   7.001   6.146   1.987
 4289SOL     OW13765   0.097   4.799   4.472
 4289SOL    HW113766   0.111   4.874   4.408
 4289SOL    HW213767   0.178   4.739   4.471
 4290SOL     OW13768   0.383   1.249   3.142
 4290SOL    HW113769   0.410   1.324   3.202
 4290SOL    HW213770   0.418   1.163   3.179
 4291SOL     OW13771   3.787   4.129   6.587
 4291SOL    HW113772   3.687   4.138   6.587
 4291SOL    HW213773   3.824   4.164   6.673
 4292SOL     OW13774   6.698   1.165   1.728
 4292SOL    HW113775   6.716   1.231   1.801
 4292SOL    HW213776   6.618   1.109   1.752
 4293SOL     OW13777   3.952   2.619   0.034
 4293SOL    HW113778   3.884   2.610   6.975
 4293SOL    HW213779   4.032   2.668   7.013
 4294SOL     OW13780   2.708   1.833   6.446
 4294SOL    HW113781   2.780   1.883   6.495
 4294SOL    HW213782   2.687   1.749   6.495
 4295SOL     OW13783   4.486   6.055   3.222
 4295SOL    HW113784   4.470   5.983   3.154
 4295SOL    HW213785   4.507   6.141   3.175
 4296SOL     OW13786   2.677   6.730   2.401
 4296SOL    HW113787   2.717   6.645   2.367
 4296SOL    HW213788   2.671   6.797   2.327
 4297SOL     OW13789   5.251   5.276   0.205
 4297SOL    HW113790   5.184   5.207   0.177
 4297SOL    HW213791   5.211   5.367   0.193
 4298SOL     OW13792   1.835   0.447   0.535
 4298SOL    HW113793   1.923   0.450   0.582
 4298SOL    HW213794   1.830   0.522   0.469
 4299SOL     OW13795   0.919   3.139   6.754
 4299SOL    HW113796   0.839   3.128   6.695
 4299SOL    HW213797   0.987   3.070   6.730
 4300SOL     OW13798   3.172   0.562   1.615
 4300SOL    HW113799   3.198   0.465   1.605
 4300SOL    HW213800   3.168   0.604   1.524
 4301SOL     OW13801   2.614   5.966   6.655
 4301SOL    HW113802   2.522   5.933   6.679
 4301SOL    HW213803   2.640   6.041   6.716
 4302SOL     OW13804   3.358   4.829   5.909
 4302SOL    HW113805   3.456   4.809   5.910
 4302SOL    HW213806   3.330   4.863   5.998
 4303SOL     OW13807   5.015   5.210   3.534
 4303SOL    HW113808   4.934   5.184   3.587
 4303SOL    HW213809   5.088   5.143   3.550
 4304SOL     OW13810   3.135   4.103   1.533
 4304SOL    HW113811   3.074   4.131   1.608
 4304SOL    HW213812   3.107   4.147   1.448
 4305SOL     OW13813   0.929   6.280   6.165
 4305SOL    HW113814   0.988   6.237   6.097
 4305SOL    HW213815   0.985   6.313   6.242
 4306SOL     OW13816   5.544   4.191   5.308
 4306SOL    HW113817   5.636   4.181   5.345
 4306SOL    HW213818   5.549   4.189   5.208
 4307SOL     OW13819   0.400   0.932   5.843
 4307SOL    HW113820   0.329   0.866   5.866
 4307SOL    HW213821   0.360   1.005   5.787
 4308SOL     OW13822   4.665   5.580   6.353
 4308SOL    HW113823   4.733   5.511   6.378
 4308SOL    HW213824   4.600   5.591   6.428
 4309SOL     OW13825   1.395   1.076   6.980
 4309SOL    HW113826   1.356   1.078   0.058
 4309SOL    HW213827   1.339   1.130   6.918
 4310SOL     OW13828   6.582   2.056   3.196
 4310SOL    HW113829   6.581   2.129   3.264
 4310SOL    HW213830   6.669   2.057   3.147
 4311SOL     OW13831   0.748   0.292   1.612
 4311SOL    HW113832   0.697   0.214   1.649
 4311SOL    HW213833   0.829   0.258   1.563
 4312SOL     OW13834   6.428   4.582   2.334
 4312SOL    HW113835   6.510   4.573   2.390
 4312SOL    HW213836   6.410   4.678   2.314
 4313SOL     OW13837   0.707   3.125   6.541
 4313SOL    HW113838   0.665   3.093   6.626
 4313SOL    HW213839   0.636   3.143   6.473
 4314SOL     OW13840   0.858   1.388   6.373
 4314SOL    HW113841   0.801   1.307   6.389
 4314SOL    HW213842   0.886   1.390   6.277
 4315SOL     OW13843   2.736   1.120   4.995
 4315SOL    HW113844   2.659   1.066   5.030
 4315SOL    HW213845   2.718   1.149   4.901
 4316SOL     OW13846   4.499   5.799   1.779
 4316SOL    HW113847   4.568   5.753   1.723
 4316SOL    HW213848   4.428   5.837   1.720
 4317SOL     OW13849   4.772   0.737   5.427
 4317SOL    HW113850   4.752   0.821   5.375
 4317SOL    HW213851   4.832   0.759   5.504
 4318SOL     OW13852   1.307   6.179   4.531
 4318SOL    HW113853   1.400   6.206   4.555
 4318SOL    HW213854   1.297   6.176   4.431
 4319SOL     OW13855   0.898   4.074   2.482
 4319SOL    HW113856   0.933   4.168   2.487
 4319SOL    HW213857   0.845   4.054   2.564
 4320SOL     OW13858   2.897   0.307   0.685
 4320SOL    HW113859   2.985   0.269   0.715
 4320SOL    HW213860   2.873   0.384   0.743
 4321SOL     OW13861   6.846   6.273   3.192
 4321SOL    HW113862   6.807   6.320   3.113
 4321SOL    HW213863   6.866   6.339   3.264
 4322SOL     OW13864   1.804   1.878   4.912
 4322SOL    HW113865   1.808   1.779   4.903
 4322SOL    HW213866   1.763   1.902   5.000
 4323SOL     OW13867   4.756   5.092   0.237
 4323SOL    HW113868   4.663   5.123   0.256
 4323SOL    HW213869   4.800   5.155   0.173
 4324SOL     OW13870   1.051   4.821   5.678
 4324SOL    HW113871   1.089   4.817   5.770
 4324SOL    HW213872   1.009   4.732   5.656
 4325SOL     OW13873   2.174   6.725   2.425
 4325SOL    HW113874   2.136   6.775   2.502
 4325SOL    HW213875   2.249   6.667   2.457
 4326SOL     OW13876   5.437   2.427   2.322
 4326SOL    HW113877   5.454   2.525   2.336
 4326SOL    HW213878   5.513   2.387   2.272
 4327SOL     OW13879   2.658   5.378   3.436
 4327SOL    HW113880   2.663   5.341   3.343
 4327SOL    HW213881   2.629   5.305   3.499
 4328SOL     OW13882   6.928   0.595   3.913
 4328SOL    HW113883   6.893   0.684   3.882
 4328SOL    HW213884   6.931   0.595   4.013
 4329SOL     OW13885   0.384   2.574   6.599
 4329SOL    HW113886   0.433   2.524   6.528
 4329SOL    HW213887   0.292   2.536   6.609
 4330SOL     OW13888   2.692   5.256   4.482
 4330SOL    HW113889   2.618   5.321   4.464
 4330SOL    HW213890   2.696   5.237   4.580
 4331SOL     OW13891   6.059   1.888   2.550
 4331SOL    HW113892   6.090   1.927   2.637
 4331SOL    HW213893   6.134   1.838   2.506
 4332SOL     OW13894   0.919   5.497   1.498
 4332SOL    HW113895   0.992   5.505   1.565
 4332SOL    HW213896   0.830   5.509   1.544
 4333SOL     OW13897   3.918   2.432   6.118
 4333SOL    HW113898   3.960   2.344   6.096
 4333SOL    HW213899   3.924   2.449   6.216
 4334SOL     OW13900   0.416   2.803   4.344
 4334SOL    HW113901   0.470   2.791   4.427
 4334SOL    HW213902   0.408   2.900   4.323
 4335SOL     OW13903   2.513   4.059   1.650
 4335SOL    HW113904   2.478   4.063   1.556
 4335SOL    HW213905   2.550   4.148   1.676
 4336SOL     OW13906   2.748   5.990   5.157
 4336SOL    HW113907   2.750   6.076   5.106
 4336SOL    HW213908   2.654   5.956   5.159
 4337SOL     OW13909   0.844   4.807   3.820
 4337SOL    HW113910   0.914   4.846   3.760
 4337SOL    HW213911   0.864   4.831   3.915
 4338SOL     OW13912   2.895   2.726   6.038
 4338SOL    HW113913   2.818   2.665   6.058
 4338SOL    HW213914   2.941   2.694   5.955
 4339SOL     OW13915   4.327   5.057   5.602
 4339SOL    HW113916   4.393   5.122   5.562
 4339SOL    HW213917   4.376   4.991   5.659
 4340SOL     OW13918   6.641   4.220   1.524
 4340SOL    HW113919   6.713   4.152   1.514
 4340SOL    HW213920   6.673   4.294   1.583
 4341SOL     OW13921   5.952   6.097   1.496
 4341SOL    HW113922   5.893   6.016   1.496
 4341SOL    HW213923   5.896   6.180   1.494
 4342SOL     OW13924   5.338   3.189   2.531
 4342SOL    HW113925   5.420   3.238   2.558
 4342SOL    HW213926   5.323   3.111   2.592
 4343SOL     OW13927   3.565   6.920   6.395
 4343SOL    HW113928   3.529   6.934   6.303
 4343SOL    HW213929   3.603   7.006   6.429
 4344SOL     OW13930   0.143   3.927   3.257
 4344SOL    HW113931   0.197   3.951   3.176
 4344SOL    HW213932   0.047   3.949   3.240
 4345SOL     OW13933   3.348   3.021   2.415
 4345SOL    HW113934   3.287   2.982   2.347
 4345SOL    HW213935   3.412   3.084   2.371
 4346SOL     OW13936   0.707   3.023   2.719
 4346SOL    HW113937   0.663   3.075   2.792
 4346SOL    HW213938   0.806   3.028   2.731
 4347SOL     OW13939   6.625   5.682   0.427
 4347SOL    HW113940   6.633   5.730   0.515
 4347SOL    HW213941   6.613   5.749   0.354
 4348SOL     OW13942   5.870   5.064   5.365
 4348SOL    HW113943   5.810   5.057   5.445
 4348SOL    HW213944   5.846   5.145   5.312
 4349SOL     OW13945   0.053   3.232   4.090
 4349SOL    HW113946   0.083   3.193   4.002
 4349SOL    HW213947   0.061   3.164   4.162
 4350SOL     OW13948   3.814   0.969   4.075
 4350SOL    HW113949   3.814   0.963   3.975
 4350SOL    HW213950   3.841   1.062   4.103
 4351SOL     OW13951   0.960   5.574   0.423
 4351SOL    HW113952   0.861   5.566   0.411
 4351SOL    HW213953   0.983   5.667   0.451
 4352SOL     OW13954   3.809   4.963   1.590
 4352SOL    HW113955   3.785   5.059   1.605
 4352SOL    HW213956   3.830   4.920   1.677
 4353SOL     OW13957   2.766   2.798   1.395
 4353SOL    HW113958   2.853   2.753   1.415
 4353SOL    HW213959   2.729   2.761   1.309
 4354SOL     OW13960   5.838   6.416   2.679
 4354SOL    HW113961   5.896   6.495   2.664
 4354SOL    HW213962   5.796   6.388   2.593
 4355SOL     OW13963   1.784   5.041   2.116
 4355SOL    HW113964   1.813   5.039   2.211
 4355SOL    HW213965   1.739   5.128   2.096
 4356SOL     OW13966   6.057   2.717   5.252
 4356SOL    HW113967   6.156   2.719   5.240
 4356SOL    HW213968   6.033   2.769   5.335
 4357SOL     OW13969   5.766   0.387   1.875
 4357SOL    HW113970   5.782   0.483   1.850
 4357SOL    HW213971   5.810   0.367   1.962
 4358SOL     OW13972   2.681   6.969   0.393
 4358SOL    HW113973   2.745   7.007   0.328
 4358SOL    HW213974   2.664   6.873   0.371
 4359SOL     OW13975   2.780   2.108   1.261
 4359SOL    HW113976   2.805   2.095   1.165
 4359SOL    HW213977   2.811   2.029   1.314
 4360SOL     OW13978   2.421   4.800   3.995
 4360SOL    HW113979   2.377   4.832   3.911
 4360SOL    HW213980   2.520   4.815   3.988
 4361SOL     OW13981   0.214   2.088   0.145
 4361SOL    HW113982   0.205   2.154   0.071
 4361SOL    HW213983   0.310   2.085   0.175
 4362SOL     OW13984   0.945   5.429   3.081
 4362SOL    HW113985   0.917   5.378   3.000
 4362SOL    HW213986   1.016   5.378   3.130
 4363SOL     OW13987   3.990   1.134   2.361
 4363SOL    HW113988   3.967   1.231   2.357
 4363SOL    HW213989   4.078   1.118   2.316
 4364SOL     OW13990   4.120   3.282   3.043
 4364SOL    HW113991   4.214   3.251   3.030
 4364SOL    HW213992   4.078   3.233   3.119
 4365SOL     OW13993   2.064   1.126   1.169
 4365SOL    HW113994   2.110   1.177   1.096
 4365SOL    HW213995   2.006   1.189   1.222
 4366SOL     OW13996   5.080   0.099   4.637
 4366SOL    HW113997   5.062   0.049   4.552
 4366SOL    HW213998   5.149   0.050   4.691
 4367SOL     OW13999   2.604   6.176   2.639
 4367SOL    HW114000   2.566   6.086   2.618
 4367SOL    HW214001   2.618   6.227   2.554
 4368SOL     OW14002   4.772   4.016   3.788
 4368SOL    HW114003   4.811   3.925   3.803
 4368SOL    HW214004   4.773   4.036   3.690
 4369SOL     OW14005   5.161   3.862   3.749
 4369SOL    HW114006   5.099   3.935   3.719
 4369SOL    HW214007   5.212   3.828   3.670
 4370SOL     OW14008   3.843   4.543   1.701
 4370SOL    HW114009   3.786   4.620   1.730
 4370SOL    HW214010   3.807   4.459   1.739
 4371SOL     OW14011   2.068   1.140   1.701
 4371SOL    HW114012   1.981   1.099   1.674
 4371SOL    HW214013   2.141   1.101   1.645
 4372SOL     OW14014   1.812   3.453   4.176
 4372SOL    HW114015   1.883   3.477   4.242
 4372SOL    HW214016   1.807   3.523   4.105
 4373SOL     OW14017   3.506   0.921   6.527
 4373SOL    HW114018   3.433   0.950   6.589
 4373SOL    HW214019   3.527   0.825   6.541
 4374SOL     OW14020   2.710   6.393   0.483
 4374SOL    HW114021   2.680   6.442   0.401
 4374SOL    HW214022   2.776   6.323   0.456
 4375SOL     OW14023   4.740   1.437   5.291
 4375SOL    HW114024   4.754   1.473   5.383
 4375SOL    HW214025   4.677   1.497   5.241
 4376SOL     OW14026   2.400   5.825   6.701
 4376SOL    HW114027   2.403   5.730   6.733
 4376SOL    HW214028   2.311   5.845   6.661
 4377SOL     OW14029   5.168   6.812   6.544
 4377SOL    HW114030   5.188   6.724   6.587
 4377SOL    HW214031   5.163   6.882   6.615
 4378SOL     OW14032   2.438   5.191   2.443
 4378SOL    HW114033   2.429   5.150   2.353
 4378SOL    HW214034   2.469   5.122   2.508
 4379SOL     OW14035   1.064   0.079   1.641
 4379SOL    HW114036   1.052   0.098   1.543
 4379SOL    HW214037   1.069   0.165   1.691
 4380SOL     OW14038   2.123   5.058   4.230
 4380SOL    HW114039   2.190   4.985   4.241
 4380SOL    HW214040   2.168   5.147   4.236
 4381SOL     OW14041   4.849   6.053   5.510
 4381SOL    HW114042   4.884   6.075   5.419
 4381SOL    HW214043   4.816   6.137   5.554
 4382SOL     OW14044   4.916   3.432   3.132
 4382SOL    HW114045   4.885   3.433   3.037
 4382SOL    HW214046   4.964   3.347   3.151
 4383SOL     OW14047   1.038   1.928   0.212
 4383SOL    HW114048   1.029   1.927   0.112
 4383SOL    HW214049   0.956   1.968   0.253
 4384SOL     OW14050   4.028   6.481   1.157
 4384SOL    HW114051   4.096   6.533   1.106
 4384SOL    HW214052   4.067   6.393   1.185
 4385SOL     OW14053   6.294   1.970   2.299
 4385SOL    HW114054   6.198   1.980   2.325
 4385SOL    HW214055   6.300   1.942   2.203
 4386SOL     OW14056   1.608   3.642   6.662
 4386SOL    HW114057   1.535   3.601   6.717
 4386SOL    HW214058   1.570   3.671   6.574
 4387SOL     OW14059   6.769   2.736   2.043
 4387SOL    HW114060   6.840   2.732   2.113
 4387SOL    HW214061   6.784   2.662   1.977
 4388SOL     OW14062   3.066   1.198   5.305
 4388SOL    HW114063   2.997   1.232   5.368
 4388SOL    HW214064   3.109   1.275   5.258
 4389SOL     OW14065   5.958   2.047   2.355
 4389SOL    HW114066   5.886   2.003   2.302
 4389SOL    HW214067   5.980   1.990   2.435
 4390SOL     OW14068   4.168   2.494   1.714
 4390SOL    HW114069   4.183   2.542   1.628
 4390SOL    HW214070   4.074   2.459   1.716
 4391SOL     OW14071   0.627   6.160   1.024
 4391SOL    HW114072   0.722   6.138   1.000
 4391SOL    HW214073   0.574   6.076   1.030
 4392SOL     OW14074   5.218   3.401   4.488
 4392SOL    HW114075   5.218   3.403   4.388
 4392SOL    HW214076   5.159   3.327   4.520
 4393SOL     OW14077   5.081   5.830   3.811
 4393SOL    HW114078   5.146   5.756   3.793
 4393SOL    HW214079   5.105   5.875   3.897
 4394SOL     OW14080   4.893   0.708   2.765
 4394SOL    HW114081   4.799   0.737   2.786
 4394SOL    HW214082   4.903   0.611   2.785
 4395SOL     OW14083   4.798   2.188   1.470
 4395SOL    HW114084   4.715   2.218   1.515
 4395SOL    HW214085   4.795   2.089   1.456
 4396SOL     OW14086   1.544   0.891   4.172
 4396SOL    HW114087   1.517   0.987   4.166
 4396SOL    HW214088   1.505   0.841   4.094
 4397SOL     OW14089   6.003   0.305   6.425
 4397SOL    HW114090   5.935   0.275   6.358
 4397SOL    HW214091   6.053   0.384   6.389
 4398SOL     OW14092   6.543   4.928   3.723
 4398SOL    HW114093   6.494   4.854   3.770
 4398SOL    HW214094   6.527   5.014   3.770
 4399SOL     OW14095   2.635   1.366   1.835
 4399SOL    HW114096   2.557   1.427   1.819
 4399SOL    HW214097   2.634   1.336   1.930
 4400SOL     OW14098   3.472   5.649   3.748
 4400SOL    HW114099   3.454   5.705   3.830
 4400SOL    HW214100   3.390   5.597   3.725
 4401SOL     OW14101   5.780   6.554   4.698
 4401SOL    HW114102   5.860   6.534   4.641
 4401SOL    HW214103   5.735   6.637   4.664
 4402SOL     OW14104   6.302   0.293   3.371
 4402SOL    HW114105   6.343   0.226   3.434
 4402SOL    HW214106   6.367   0.313   3.298
 4403SOL     OW14107   0.573   6.986   2.941
 4403SOL    HW114108   0.661   6.993   2.988
 4403SOL    HW214109   0.587   6.961   2.845
 4404SOL     OW14110   1.788   4.265   3.552
 4404SOL    HW114111   1.703   4.252   3.603
 4404SOL    HW214112   1.822   4.358   3.567
 4405SOL     OW14113   3.165   4.032   6.489
 4405SOL    HW114114   3.191   4.126   6.465
 4405SOL    HW214115   3.229   3.968   6.448
 4406SOL     OW14116   5.343   3.872   1.970
 4406SOL    HW114117   5.432   3.865   1.924
 4406SOL    HW214118   5.331   3.792   2.030
 4407SOL     OW14119   6.863   6.935   0.330
 4407SOL    HW114120   6.939   6.998   0.346
 4407SOL    HW214121   6.847   6.880   0.412
 4408SOL     OW14122   4.703   6.347   0.985
 4408SOL    HW114123   4.673   6.252   0.977
 4408SOL    HW214124   4.712   6.387   0.894
 4409SOL     OW14125   2.127   1.281   2.504
 4409SOL    HW114126   2.129   1.326   2.593
 4409SOL    HW214127   2.175   1.193   2.510
 4410SOL     OW14128   2.385   5.719   1.521
 4410SOL    HW114129   2.437   5.776   1.585
 4410SOL    HW214130   2.448   5.669   1.462
 4411SOL     OW14131   3.768   3.180   2.778
 4411SOL    HW114132   3.845   3.244   2.780
 4411SOL    HW214133   3.684   3.228   2.801
 4412SOL     OW14134   3.801   1.858   6.093
 4412SOL    HW114135   3.825   1.775   6.144
 4412SOL    HW214136   3.727   1.906   6.140
 4413SOL     OW14137   4.419   5.350   4.611
 4413SOL    HW114138   4.386   5.424   4.553
 4413SOL    HW214139   4.374   5.264   4.585
 4414SOL     OW14140   3.339   5.435   1.523
 4414SOL    HW114141   3.263   5.379   1.493
 4414SOL    HW214142   3.378   5.484   1.445
 4415SOL     OW14143   4.138   1.603   1.160
 4415SOL    HW114144   4.204   1.655   1.105
 4415SOL    HW214145   4.151   1.506   1.143
 4416SOL     OW14146   2.867   1.717   4.225
 4416SOL    HW114147   2.918   1.782   4.281
 4416SOL    HW214148   2.817   1.655   4.285
 4417SOL     OW14149   0.090   0.678   0.669
 4417SOL    HW114150   0.013   0.621   0.698
 4417SOL    HW214151   0.160   0.679   0.741
 4418SOL     OW14152   4.915   0.741   3.960
 4418SOL    HW114153   4.956   0.700   4.041
 4418SOL    HW214154   4.952   0.833   3.946
 4419SOL     OW14155   0.084   5.528   0.427
 4419SOL    HW114156   0.117   5.618   0.399
 4419SOL    HW214157   0.043   5.481   0.349
 4420SOL     OW14158   4.264   0.967   0.073
 4420SOL    HW114159   4.233   0.941   0.164
 4420SOL    HW214160   4.227   1.057   0.050
 4421SOL     OW14161   1.850   1.842   3.593
 4421SOL    HW114162   1.888   1.894   3.670
 4421SOL    HW214163   1.913   1.769   3.568
 4422SOL     OW14164   2.120   4.013   5.775
 4422SOL    HW114165   2.161   3.997   5.865
 4422SOL    HW214166   2.186   3.988   5.703
 4423SOL     OW14167   6.870   1.676   6.558
 4423SOL    HW114168   6.897   1.760   6.605
 4423SOL    HW214169   6.896   1.597   6.613
 4424SOL     OW14170   0.385   6.718   4.207
 4424SOL    HW114171   0.330   6.778   4.265
 4424SOL    HW214172   0.437   6.654   4.264
 4425SOL     OW14173   4.753   4.227   0.452
 4425SOL    HW114174   4.698   4.191   0.377
 4425SOL    HW214175   4.784   4.151   0.511
 4426SOL     OW14176   1.028   0.347   5.367
 4426SOL    HW114177   1.081   0.432   5.373
 4426SOL    HW214178   0.931   0.368   5.380
 4427SOL     OW14179   1.204   6.124   3.253
 4427SOL    HW114180   1.285   6.175   3.282
 4427SOL    HW214181   1.232   6.043   3.202
 4428SOL     OW14182   2.308   6.190   3.079
 4428SOL    HW114183   2.350   6.186   2.988
 4428SOL    HW214184   2.317   6.283   3.115
 4429SOL     OW14185   3.577   0.758   3.089
 4429SOL    HW114186   3.530   0.670   3.087
 4429SOL    HW214187   3.591   0.792   2.996
 4430SOL     OW14188   1.291   0.358   1.417
 4430SOL    HW114189   1.362   0.339   1.485
 4430SOL    HW214190   1.278   0.457   1.410
 4431SOL     OW14191   2.095   1.731   3.487
 4431SOL    HW114192   2.149   1.783   3.421
 4431SOL    HW214193   2.144   1.647   3.512
 4432SOL     OW14194   3.007   3.761   3.696
 4432SOL    HW114195   2.948   3.714   3.761
 4432SOL    HW214196   3.009   3.711   3.610
 4433SOL     OW14197   6.838   0.670   3.410
 4433SOL    HW114198   6.828   0.585   3.358
 4433SOL    HW214199   6.844   0.650   3.507
 4434SOL     OW14200   4.673   2.279   4.637
 4434SOL    HW114201   4.657   2.254   4.732
 4434SOL    HW214202   4.590   2.261   4.583
 4435SOL     OW14203   3.599   2.991   2.360
 4435SOL    HW114204   3.523   2.941   2.402
 4435SOL    HW214205   3.625   2.946   2.274
 4436SOL     OW14206   5.069   0.300   0.609
 4436SOL    HW114207   5.106   0.271   0.698
 4436SOL    HW214208   5.132   0.365   0.566
 4437SOL     OW14209   3.716   0.115   4.822
 4437SOL    HW114210   3.665   0.109   4.736
 4437SOL    HW214211   3.738   0.023   4.854
 4438SOL     OW14212   3.899   3.877   6.538
 4438SOL    HW114213   3.851   3.964   6.527
 4438SOL    HW214214   3.836   3.809   6.576
 4439SOL     OW14215   2.090   5.070   2.329
 4439SOL    HW114216   2.108   5.153   2.277
 4439SOL    HW214217   1.992   5.061   2.346
 4440SOL     OW14218   6.500   0.834   6.710
 4440SOL    HW114219   6.555   0.765   6.663
 4440SOL    HW214220   6.408   0.799   6.726
 4441SOL     OW14221   5.690   2.050   3.747
 4441SOL    HW114222   5.593   2.074   3.754
 4441SOL    HW214223   5.699   1.963   3.698
 4442SOL     OW14224   1.815   6.769   2.260
 4442SOL    HW114225   1.768   6.857   2.269
 4442SOL    HW214226   1.782   6.706   2.330
 4443SOL     OW14227   2.469   1.284   5.837
 4443SOL    HW114228   2.468   1.344   5.917
 4443SOL    HW214229   2.523   1.203   5.856
 4444SOL     OW14230   5.239   0.524   2.770
 4444SOL    HW114231   5.312   0.457   2.761
 4444SOL    HW214232   5.264   0.592   2.839
 4445SOL     OW14233   1.662   1.106   6.144
 4445SOL    HW114234   1.655   1.192   6.194
 4445SOL    HW214235   1.638   1.030   6.205
 4446SOL     OW14236   5.632   5.305   3.669
 4446SOL    HW114237   5.641   5.305   3.569
 4446SOL    HW214238   5.607   5.213   3.700
 4447SOL     OW14239   4.904   3.472   4.766
 4447SOL    HW114240   4.876   3.536   4.837
 4447SOL    HW214241   4.861   3.383   4.783
 4448SOL     OW14242   2.422   2.409   6.465
 4448SOL    HW114243   2.355   2.335   6.473
 4448SOL    HW214244   2.500   2.377   6.411
 4449SOL     OW14245   0.730   1.805   5.366
 4449SOL    HW114246   0.674   1.887   5.381
 4449SOL    HW214247   0.683   1.726   5.405
 4450SOL     OW14248   4.059   3.776   3.075
 4450SOL    HW114249   4.015   3.855   3.031
 4450SOL    HW214250   4.118   3.808   3.149
 4451SOL     OW14251   0.138   4.285   1.758
 4451SOL    HW114252   0.212   4.351   1.768
 4451SOL    HW214253   0.108   4.255   1.848
 4452SOL     OW14254   6.633   4.118   6.524
 4452SOL    HW114255   6.698   4.192   6.509
 4452SOL    HW214256   6.619   4.068   6.439
 4453SOL     OW14257   5.267   1.963   1.268
 4453SOL    HW114258   5.202   1.982   1.341
 4453SOL    HW214259   5.348   2.020   1.279
 4454SOL     OW14260   5.420   3.075   1.558
 4454SOL    HW114261   5.406   3.042   1.464
 4454SOL    HW214262   5.498   3.137   1.560
 4455SOL     OW14263   4.734   1.931   1.713
 4455SOL    HW114264   4.739   1.939   1.613
 4455SOL    HW214265   4.640   1.945   1.743
 4456SOL     OW14266   1.118   5.803   2.540
 4456SOL    HW114267   1.094   5.859   2.461
 4456SOL    HW214268   1.168   5.721   2.510
 4457SOL     OW14269   5.034   2.066   6.326
 4457SOL    HW114270   5.067   2.002   6.394
 4457SOL    HW214271   5.077   2.047   6.238
 4458SOL     OW14272   3.817   1.734   6.957
 4458SOL    HW114273   3.861   1.787   6.884
 4458SOL    HW214274   3.887   1.693   0.001
 4459SOL     OW14275   4.918   6.251   5.737
 4459SOL    HW114276   4.880   6.286   5.651
 4459SOL    HW214277   5.017   6.265   5.738
 4460SOL     OW14278   1.149   1.485   6.150
 4460SOL    HW114279   1.196   1.570   6.128
 4460SOL    HW214280   1.178   1.452   6.240
 4461SOL     OW14281   1.871   0.355   2.025
 4461SOL    HW114282   1.843   0.305   2.107
 4461SOL    HW214283   1.961   0.322   1.995
 4462SOL     OW14284   6.877   5.682   0.931
 4462SOL    HW114285   6.823   5.601   0.954
 4462SOL    HW214286   6.893   5.736   1.013
 4463SOL     OW14287   1.416   3.465   5.665
 4463SOL    HW114288   1.337   3.422   5.621
 4463SOL    HW214289   1.500   3.430   5.624
 4464SOL     OW14290   6.178   3.371   6.867
 4464SOL    HW114291   6.235   3.437   6.915
 4464SOL    HW214292   6.082   3.393   6.881
 4465SOL     OW14293   0.845   6.062   1.693
 4465SOL    HW114294   0.778   6.017   1.635
 4465SOL    HW214295   0.830   6.161   1.691
 4466SOL     OW14296   0.818   2.734   3.609
 4466SOL    HW114297   0.786   2.669   3.540
 4466SOL    HW214298   0.742   2.792   3.638
 4467SOL     OW14299   1.563   0.141   3.184
 4467SOL    HW114300   1.546   0.238   3.200
 4467SOL    HW214301   1.534   0.088   3.264
 4468SOL     OW14302   1.670   2.396   0.523
 4468SOL    HW114303   1.646   2.371   0.617
 4468SOL    HW214304   1.586   2.410   0.470
 4469SOL     OW14305   4.527   0.041   0.697
 4469SOL    HW114306   4.486   6.984   0.754
 4469SOL    HW214307   4.622   0.018   0.677
 4470SOL     OW14308   5.027   5.481   1.151
 4470SOL    HW114309   5.014   5.577   1.177
 4470SOL    HW214310   4.974   5.462   1.068
 4471SOL     OW14311   6.665   3.094   0.626
 4471SOL    HW114312   6.697   3.084   0.720
 4471SOL    HW214313   6.743   3.118   0.568
 4472SOL     OW14314   2.045   4.730   1.462
 4472SOL    HW114315   2.072   4.727   1.366
 4472SOL    HW214316   2.104   4.794   1.512
 4473SOL     OW14317   0.909   0.395   6.126
 4473SOL    HW114318   0.843   0.453   6.078
 4473SOL    HW214319   0.870   0.368   6.215
 4474SOL     OW14320   6.091   0.306   4.036
 4474SOL    HW114321   6.176   0.348   4.068
 4474SOL    HW214322   6.069   0.340   3.944
 4475SOL     OW14323   1.316   4.099   0.130
 4475SOL    HW114324   1.283   4.186   0.092
 4475SOL    HW214325   1.348   4.040   0.056
 4476SOL     OW14326   4.971   6.171   2.102
 4476SOL    HW114327   4.889   6.148   2.153
 4476SOL    HW214328   5.019   6.247   2.147
 4477SOL     OW14329   1.401   1.396   0.257
 4477SOL    HW114330   1.354   1.310   0.244
 4477SOL    HW214331   1.474   1.405   0.189
 4478SOL     OW14332   1.521   5.434   1.717
 4478SOL    HW114333   1.441   5.440   1.777
 4478SOL    HW214334   1.518   5.510   1.652
 4479SOL     OW14335   0.552   0.194   5.681
 4479SOL    HW114336   0.572   0.263   5.750
 4479SOL    HW214337   0.511   0.238   5.601
 4480SOL     OW14338   1.127   4.586   3.975
 4480SOL    HW114339   1.093   4.626   3.891
 4480SOL    HW214340   1.226   4.574   3.968
 4481SOL     OW14341   1.088   6.926   3.586
 4481SOL    HW114342   1.084   6.983   3.505
 4481SOL    HW214343   1.005   6.938   3.640
 4482SOL     OW14344   0.571   4.391   3.597
 4482SOL    HW114345   0.501   4.418   3.532
 4482SOL    HW214346   0.600   4.470   3.650
 4483SOL     OW14347   5.014   3.035   1.583
 4483SOL    HW114348   4.998   3.016   1.680
 4483SOL    HW214349   5.047   2.951   1.538
 4484SOL     OW14350   4.022   3.127   6.312
 4484SOL    HW114351   3.928   3.156   6.293
 4484SOL    HW214352   4.073   3.203   6.350
 4485SOL     OW14353   4.686   0.804   6.944
 4485SOL    HW114354   4.619   0.821   6.871
 4485SOL    HW214355   4.640   0.808   0.019
 4486SOL     OW14356   6.442   2.511   3.774
 4486SOL    HW114357   6.470   2.509   3.870
 4486SOL    HW214358   6.523   2.499   3.716
 4487SOL     OW14359   2.900   3.404   5.755
 4487SOL    HW114360   2.840   3.333   5.794
 4487SOL    HW214361   2.862   3.435   5.668
 4488SOL     OW14362   0.005   1.761   6.053
 4488SOL    HW114363   6.931   1.735   6.014
 4488SOL    HW214364   0.075   1.695   6.025
 4489SOL     OW14365   6.461   0.472   2.913
 4489SOL    HW114366   6.474   0.559   2.962
 4489SOL    HW214367   6.365   0.462   2.887
 4490SOL     OW14368   6.654   2.222   3.447
 4490SOL    HW114369   6.658   2.317   3.478
 4490SOL    HW214370   6.746   2.182   3.452
 4491SOL     OW14371   1.735   3.376   3.132
 4491SOL    HW114372   1.659   3.440   3.138
 4491SOL    HW214373   1.770   3.358   3.224
 4492SOL     OW14374   4.411   3.962   6.559
 4492SOL    HW114375   4.502   3.934   6.528
 4492SOL    HW214376   4.349   3.966   6.480
 4493SOL     OW14377   5.671   5.249   3.185
 4493SOL    HW114378   5.613   5.248   3.103
 4493SOL    HW214379   5.715   5.160   3.196
 4494SOL     OW14380   6.227   3.215   3.762
 4494SOL    HW114381   6.166   3.195   3.685
 4494SOL    HW214382   6.201   3.158   3.840
 4495SOL     OW14383   4.126   6.273   2.159
 4495SOL    HW114384   4.052   6.228   2.110
 4495SOL    HW214385   4.091   6.309   2.246
 4496SOL     OW14386   5.277   4.424   6.135
 4496SOL    HW114387   5.229   4.511   6.145
 4496SOL    HW214388   5.333   4.408   6.216
 4497SOL     OW14389   6.125   5.581   1.116
 4497SOL    HW114390   6.196   5.640   1.154
 4497SOL    HW214391   6.039   5.632   1.110
 4498SOL     OW14392   0.619   3.676   6.842
 4498SOL    HW114393   0.535   3.706   6.887
 4498SOL    HW214394   0.643   3.584   6.872
 4499SOL     OW14395   6.077   3.070   6.925
 4499SOL    HW114396   6.016   3.039   6.852
 4499SOL    HW214397   6.113   3.161   6.903
 4500SOL     OW14398   3.487   3.925   4.536
 4500SOL    HW114399   3.440   3.892   4.454
 4500SOL    HW214400   3.562   3.985   4.511
 4501SOL     OW14401   1.061   4.573   4.599
 4501SOL    HW114402   1.125   4.531   4.533
 4501SOL    HW214403   1.090   4.667   4.617
 4502SOL     OW14404   6.291   3.012   0.123
 4502SOL    HW114405   6.205   3.013   0.072
 4502SOL    HW214406   6.357   3.072   0.079
 4503SOL     OW14407   1.526   2.210   2.707
 4503SOL    HW114408   1.592   2.166   2.646
 4503SOL    HW214409   1.541   2.309   2.706
 4504SOL     OW14410   4.329   2.356   4.568
 4504SOL    HW114411   4.280   2.320   4.489
 4504SOL    HW214412   4.270   2.352   4.649
 4505SOL     OW14413   1.574   4.900   5.936
 4505SOL    HW114414   1.639   4.833   5.974
 4505SOL    HW214415   1.604   4.927   5.845
 4506SOL     OW14416   4.374   6.677   5.091
 4506SOL    HW114417   4.459   6.629   5.067
 4506SOL    HW214418   4.362   6.754   5.028
 4507SOL     OW14419   6.230   4.130   1.788
 4507SOL    HW114420   6.282   4.111   1.705
 4507SOL    HW214421   6.292   4.160   1.860
 4508SOL     OW14422   1.395   4.109   0.648
 4508SOL    HW114423   1.427   4.015   0.659
 4508SOL    HW214424   1.396   4.133   0.551
 4509SOL     OW14425   1.005   1.765   3.883
 4509SOL    HW114426   1.047   1.840   3.831
 4509SOL    HW214427   0.999   1.790   3.979
 4510SOL     OW14428   3.625   6.504   5.313
 4510SOL    HW114429   3.695   6.451   5.361
 4510SOL    HW214430   3.634   6.601   5.337
 4511SOL     OW14431   6.356   3.494   6.463
 4511SOL    HW114432   6.441   3.534   6.495
 4511SOL    HW214433   6.376   3.418   6.401
 4512SOL     OW14434   2.800   5.253   0.643
 4512SOL    HW114435   2.894   5.286   0.644
 4512SOL    HW214436   2.737   5.330   0.634
 4513SOL     OW14437   5.252   0.826   2.022
 4513SOL    HW114438   5.336   0.854   2.069
 4513SOL    HW214439   5.207   0.753   2.074
 4514SOL     OW14440   3.624   1.151   5.408
 4514SOL    HW114441   3.600   1.065   5.453
 4514SOL    HW214442   3.693   1.133   5.337
 4515SOL     OW14443   6.717   5.227   1.080
 4515SOL    HW114444   6.732   5.188   1.171
 4515SOL    HW214445   6.672   5.159   1.022
 4516SOL     OW14446   1.299   0.011   4.426
 4516SOL    HW114447   1.368   6.975   4.374
 4516SOL    HW214448   1.224   6.963   4.449
 4517SOL     OW14449   3.672   6.633   5.728
 4517SOL    HW114450   3.603   6.698   5.694
 4517SOL    HW214451   3.762   6.675   5.721
 4518SOL     OW14452   1.269   1.333   4.062
 4518SOL    HW114453   1.175   1.322   4.094
 4518SOL    HW214454   1.270   1.389   3.979
 4519SOL     OW14455   6.382   2.639   4.299
 4519SOL    HW114456   6.377   2.617   4.202
 4519SOL    HW214457   6.452   2.582   4.343
 4520SOL     OW14458   0.593   4.527   3.028
 4520SOL    HW114459   0.623   4.532   3.123
 4520SOL    HW214460   0.508   4.475   3.023
 4521SOL     OW14461   5.785   2.107   5.680
 4521SOL    HW114462   5.726   2.186   5.663
 4521SOL    HW214463   5.841   2.089   5.599
 4522SOL     OW14464   5.439   0.537   3.169
 4522SOL    HW114465   5.344   0.512   3.151
 4522SOL    HW214466   5.454   0.542   3.268
 4523SOL     OW14467   3.913   3.155   7.011
 4523SOL    HW114468   3.884   3.064   6.983
 4523SOL    HW214469   3.997   3.179   6.962
 4524SOL     OW14470   6.109   0.558   5.241
 4524SOL    HW114471   6.172   0.633   5.261
 4524SOL    HW214472   6.147   0.500   5.170
 4525SOL     OW14473   6.561   1.576   5.603
 4525SOL    HW114474   6.546   1.525   5.688
 4525SOL    HW214475   6.579   1.672   5.625
 4526SOL     OW14476   3.967   1.330   0.835
 4526SOL    HW114477   3.882   1.382   0.847
 4526SOL    HW214478   3.951   1.256   0.769
 4527SOL     OW14479   3.841   1.262   4.069
 4527SOL    HW114480   3.833   1.278   4.167
 4527SOL    HW214481   3.860   1.348   4.022
 4528SOL     OW14482   5.476   0.024   6.364
 4528SOL    HW114483   5.557   0.075   6.336
 4528SOL    HW214484   5.395   0.063   6.320
 4529SOL     OW14485   3.736   0.249   3.549
 4529SOL    HW114486   3.675   0.201   3.486
 4529SOL    HW214487   3.684   0.318   3.600
 4530SOL     OW14488   0.764   2.777   4.798
 4530SOL    HW114489   0.689   2.787   4.863
 4530SOL    HW214490   0.809   2.865   4.785
 4531SOL     OW14491   0.061   3.401   3.306
 4531SOL    HW114492   0.024   3.452   3.227
 4531SOL    HW214493   0.042   3.452   3.390
 4532SOL     OW14494   6.492   1.683   0.330
 4532SOL    HW114495   6.421   1.685   0.401
 4532SOL    HW214496   6.580   1.706   0.371
 4533SOL     OW14497   2.962   5.764   2.286
 4533SOL    HW114498   2.954   5.710   2.202
 4533SOL    HW214499   2.958   5.703   2.365
 4534SOL     OW14500   6.753   4.332   5.276
 4534SOL    HW114501   6.830   4.320   5.213
 4534SOL    HW214502   6.784   4.316   5.370
 4535SOL     OW14503   5.040   2.341   2.561
 4535SOL    HW114504   4.945   2.366   2.545
 4535SOL    HW214505   5.096   2.371   2.485
 4536SOL     OW14506   6.622   0.988   3.889
 4536SOL    HW114507   6.528   1.005   3.920
 4536SOL    HW214508   6.626   0.987   3.790
 4537SOL     OW14509   3.793   3.071   5.919
 4537SOL    HW114510   3.838   2.984   5.895
 4537SOL    HW214511   3.800   3.085   6.018
 4538SOL     OW14512   3.893   1.399   2.298
 4538SOL    HW114513   3.887   1.464   2.374
 4538SOL    HW214514   3.803   1.388   2.256
 4539SOL     OW14515   0.959   1.829   2.293
 4539SOL    HW114516   1.041   1.834   2.349
 4539SOL    HW214517   0.958   1.906   2.229
 4540SOL     OW14518   3.156   2.981   4.708
 4540SOL    HW114519   3.181   2.915   4.637
 4540SOL    HW214520   3.212   2.965   4.790
 4541SOL     OW14521   6.194   1.425   1.281
 4541SOL    HW114522   6.116   1.469   1.237
 4541SOL    HW214523   6.162   1.364   1.353
 4542SOL     OW14524   4.777   0.535   3.728
 4542SOL    HW114525   4.703   0.474   3.754
 4542SOL    HW214526   4.790   0.532   3.629
 4543SOL     OW14527   5.475   1.859   1.593
 4543SOL    HW114528   5.544   1.871   1.665
 4543SOL    HW214529   5.507   1.900   1.508
 4544SOL     OW14530   3.545   4.586   6.666
 4544SOL    HW114531   3.508   4.574   6.758
 4544SOL    HW214532   3.479   4.554   6.599
 4545SOL     OW14533   3.997   2.873   5.784
 4545SOL    HW114534   3.987   2.856   5.686
 4545SOL    HW214535   3.965   2.794   5.836
 4546SOL     OW14536   0.516   7.010   6.968
 4546SOL    HW114537   0.466   6.964   6.894
 4546SOL    HW214538   0.608   6.972   6.974
 4547SOL     OW14539   4.084   1.970   1.442
 4547SOL    HW114540   4.066   1.991   1.346
 4547SOL    HW214541   4.025   1.895   1.471
 4548SOL     OW14542   1.502   3.057   3.861
 4548SOL    HW114543   1.414   3.014   3.844
 4548SOL    HW214544   1.559   2.997   3.917
 4549SOL     OW14545   5.020   1.924   2.834
 4549SOL    HW114546   5.102   1.881   2.871
 4549SOL    HW214547   5.041   1.964   2.744
 4550SOL     OW14548   1.677   6.168   4.913
 4550SOL    HW114549   1.709   6.249   4.963
 4550SOL    HW214550   1.650   6.097   4.978
 4551SOL     OW14551   0.320   2.429   5.968
 4551SOL    HW114552   0.221   2.445   5.977
 4551SOL    HW214553   0.369   2.512   5.995
 4552SOL     OW14554   0.032   2.848   3.854
 4552SOL    HW114555   0.068   2.781   3.919
 4552SOL    HW214556   6.952   2.872   3.879
 4553SOL     OW14557   4.921   4.554   0.634
 4553SOL    HW114558   4.896   4.646   0.665
 4553SOL    HW214559   4.848   4.517   0.576
 4554SOL     OW14560   5.508   6.789   3.291
 4554SOL    HW114561   5.417   6.753   3.274
 4554SOL    HW214562   5.506   6.847   3.373
 4555SOL     OW14563   5.286   1.649   0.118
 4555SOL    HW114564   5.300   1.554   0.091
 4555SOL    HW214565   5.360   1.679   0.178
 4556SOL     OW14566   5.520   1.376   4.801
 4556SOL    HW114567   5.529   1.313   4.725
 4556SOL    HW214568   5.499   1.468   4.767
 4557SOL     OW14569   5.158   0.125   5.740
 4557SOL    HW114570   5.062   0.134   5.766
 4557SOL    HW214571   5.204   0.213   5.753
 4558SOL     OW14572   6.638   3.468   5.862
 4558SOL    HW114573   6.675   3.375   5.862
 4558SOL    HW214574   6.588   3.483   5.948
 4559SOL     OW14575   0.576   6.469   1.674
 4559SOL    HW114576   0.574   6.490   1.772
 4559SOL    HW214577   0.534   6.545   1.623
 4560SOL     OW14578   5.041   2.722   3.005
 4560SOL    HW114579   4.972   2.675   2.950
 4560SOL    HW214580   5.129   2.676   2.997
 4561SOL     OW14581   3.239   0.337   6.640
 4561SOL    HW114582   3.147   0.302   6.623
 4561SOL    HW214583   3.282   0.283   6.713
 4562SOL     OW14584   3.268   5.203   5.462
 4562SOL    HW114585   3.274   5.302   5.453
 4562SOL    HW214586   3.172   5.176   5.474
 4563SOL     OW14587   5.207   2.572   6.065
 4563SOL    HW114588   5.303   2.548   6.083
 4563SOL    HW214589   5.184   2.550   5.970
 4564SOL     OW14590   1.783   5.718   6.690
 4564SOL    HW114591   1.794   5.783   6.765
 4564SOL    HW214592   1.701   5.663   6.705
 4565SOL     OW14593   2.697   0.757   3.991
 4565SOL    HW114594   2.693   0.703   3.907
 4565SOL    HW214595   2.641   0.839   3.982
 4566SOL     OW14596   0.765   1.983   0.279
 4566SOL    HW114597   0.687   2.034   0.314
 4566SOL    HW214598   0.800   1.922   0.351
 4567SOL     OW14599   6.872   0.835   0.522
 4567SOL    HW114600   6.961   0.880   0.516
 4567SOL    HW214601   6.874   0.768   0.597
 4568SOL     OW14602   3.289   4.986   4.877
 4568SOL    HW114603   3.209   4.934   4.908
 4568SOL    HW214604   3.366   4.968   4.938
 4569SOL     OW14605   0.340   2.192   3.777
 4569SOL    HW114606   0.365   2.246   3.857
 4569SOL    HW214607   0.379   2.100   3.785
 4570SOL     OW14608   6.658   5.247   4.299
 4570SOL    HW114609   6.628   5.172   4.358
 4570SOL    HW214610   6.757   5.243   4.285
 4571SOL     OW14611   3.423   3.190   4.149
 4571SOL    HW114612   3.495   3.171   4.216
 4571SOL    HW214613   3.458   3.255   4.082
 4572SOL     OW14614   2.198   6.066   2.011
 4572SOL    HW114615   2.259   6.111   1.946
 4572SOL    HW214616   2.243   5.985   2.049
 4573SOL     OW14617   5.390   6.555   0.680
 4573SOL    HW114618   5.484   6.533   0.657
 4573SOL    HW214619   5.359   6.632   0.624
 4574SOL     OW14620   0.671   4.566   1.696
 4574SOL    HW114621   0.755   4.533   1.738
 4574SOL    HW214622   0.594   4.548   1.758
 4575SOL     OW14623   6.500   6.783   2.069
 4575SOL    HW114624   6.495   6.709   2.001
 4575SOL    HW214625   6.533   6.867   2.025
 4576SOL     OW14626   3.341   5.908   4.477
 4576SOL    HW114627   3.401   5.949   4.408
 4576SOL    HW214628   3.310   5.818   4.445
 4577SOL     OW14629   1.005   2.479   4.153
 4577SOL    HW114630   1.018   2.578   4.154
 4577SOL    HW214631   0.970   2.449   4.242
 4578SOL     OW14632   0.412   4.132   3.980
 4578SOL    HW114633   0.396   4.138   3.881
 4578SOL    HW214634   0.358   4.057   4.017
 4579SOL     OW14635   5.245   2.390   3.891
 4579SOL    HW114636   5.225   2.486   3.876
 4579SOL    HW214637   5.263   2.374   3.988
 4580SOL     OW14638   0.007   5.812   0.187
 4580SOL    HW114639   6.991   5.741   0.124
 4580SOL    HW214640   6.969   5.804   0.272
 4581SOL     OW14641   3.214   5.896   3.811
 4581SOL    HW114642   3.234   5.952   3.731
 4581SOL    HW214643   3.300   5.873   3.858
 4582SOL     OW14644   4.694   6.930   3.155
 4582SOL    HW114645   4.607   6.963   3.191
 4582SOL    HW214646   4.679   6.888   3.065
 4583SOL     OW14647   4.435   1.459   5.407
 4583SOL    HW114648   4.350   1.423   5.446
 4583SOL    HW214649   4.507   1.456   5.477
 4584SOL     OW14650   0.368   4.509   5.509
 4584SOL    HW114651   0.318   4.547   5.432
 4584SOL    HW214652   0.320   4.428   5.543
 4585SOL     OW14653   3.609   6.675   2.672
 4585SOL    HW114654   3.634   6.766   2.704
 4585SOL    HW214655   3.626   6.608   2.745
 4586SOL     OW14656   2.993   6.353   1.905
 4586SOL    HW114657   3.019   6.348   2.001
 4586SOL    HW214658   3.063   6.404   1.854
 4587SOL     OW14659   2.276   4.555   1.183
 4587SOL    HW114660   2.249   4.471   1.229
 4587SOL    HW214661   2.200   4.620   1.185
 4588SOL     OW14662   4.400   4.004   5.645
 4588SOL    HW114663   4.500   4.009   5.650
 4588SOL    HW214664   4.367   4.056   5.567
 4589SOL     OW14665   1.244   1.466   3.810
 4589SOL    HW114666   1.245   1.452   3.711
 4589SOL    HW214667   1.262   1.563   3.831
 4590SOL     OW14668   4.219   5.554   2.634
 4590SOL    HW114669   4.152   5.614   2.677
 4590SOL    HW214670   4.308   5.568   2.675
 4591SOL     OW14671   6.272   6.482   5.183
 4591SOL    HW114672   6.179   6.489   5.219
 4591SOL    HW214673   6.336   6.520   5.250
 4592SOL     OW14674   3.102   1.588   5.803
 4592SOL    HW114675   3.139   1.674   5.767
 4592SOL    HW214676   3.045   1.545   5.733
 4593SOL     OW14677   4.150   6.758   1.371
 4593SOL    HW114678   4.074   6.693   1.372
 4593SOL    HW214679   4.147   6.811   1.286
 4594SOL     OW14680   3.038   1.567   2.828
 4594SOL    HW114681   3.017   1.618   2.745
 4594SOL    HW214682   3.053   1.471   2.806
 4595SOL     OW14683   4.222   2.556   5.651
 4595SOL    HW114684   4.290   2.491   5.616
 4595SOL    HW214685   4.211   2.544   5.749
 4596SOL     OW14686   6.052   0.235   2.289
 4596SOL    HW114687   5.969   0.258   2.339
 4596SOL    HW214688   6.073   0.138   2.302
 4597SOL     OW14689   0.350   4.668   6.588
 4597SOL    HW114690   0.352   4.588   6.648
 4597SOL    HW214691   0.429   4.665   6.527
 4598SOL     OW14692   3.049   4.466   0.571
 4598SOL    HW114693   3.142   4.479   0.606
 4598SOL    HW214694   2.985   4.462   0.648
 4599SOL     OW14695   1.858   5.232   0.204
 4599SOL    HW114696   1.779   5.274   0.249
 4599SOL    HW214697   1.941   5.262   0.250
 4600SOL     OW14698   4.007   5.196   1.597
 4600SOL    HW114699   4.032   5.214   1.502
 4600SOL    HW214700   3.908   5.202   1.608
 4601SOL     OW14701   1.843   6.135   4.425
 4601SOL    HW114702   1.831   6.143   4.524
 4601SOL    HW214703   1.940   6.123   4.404
 4602SOL     OW14704   1.936   1.151   0.498
 4602SOL    HW114705   1.847   1.111   0.474
 4602SOL    HW214706   1.994   1.080   0.538
 4603SOL     OW14707   3.354   0.932   2.115
 4603SOL    HW114708   3.359   0.933   2.015
 4603SOL    HW214709   3.377   1.022   2.151
 4604SOL     OW14710   2.566   0.457   2.382
 4604SOL    HW114711   2.518   0.427   2.465
 4604SOL    HW214712   2.528   0.408   2.303
 4605SOL     OW14713   4.980   6.784   5.541
 4605SOL    HW114714   5.061   6.838   5.517
 4605SOL    HW214715   4.991   6.747   5.633
 4606SOL     OW14716   0.024   6.557   5.696
 4606SOL    HW114717   6.998   6.593   5.780
 4606SOL    HW214718   6.970   6.502   5.647
 4607SOL     OW14719   2.328   2.187   1.118
 4607SOL    HW114720   2.316   2.195   1.019
 4607SOL    HW214721   2.405   2.244   1.147
 4608SOL     OW14722   1.858   3.347   5.251
 4608SOL    HW114723   1.919   3.393   5.187
 4608SOL    HW214724   1.813   3.271   5.204
 4609SOL     OW14725   3.876   6.758   6.672
 4609SOL    HW114726   3.943   6.740   6.744
 4609SOL    HW214727   3.785   6.731   6.703
 4610SOL     OW14728   0.943   3.469   6.793
 4610SOL    HW114729   1.042   3.457   6.790
 4610SOL    HW214730   0.921   3.545   6.855
 4611SOL     OW14731   0.921   3.660   6.998
 4611SOL    HW114732   0.884   3.751   6.977
 4611SOL    HW214733   0.962   3.661   0.075
 4612SOL     OW14734   2.377   0.412   6.316
 4612SOL    HW114735   2.472   0.423   6.345
 4612SOL    HW214736   2.329   0.499   6.327
 4613SOL     OW14737   2.709   5.509   2.059
 4613SOL    HW114738   2.614   5.523   2.087
 4613SOL    HW214739   2.737   5.415   2.078
 4614SOL     OW14740   2.195   5.228   0.563
 4614SOL    HW114741   2.139   5.272   0.493
 4614SOL    HW214742   2.139   5.210   0.644
 4615SOL     OW14743   0.147   2.971   0.216
 4615SOL    HW114744   0.087   2.894   0.193
 4615SOL    HW214745   0.092   3.052   0.233
 4616SOL     OW14746   6.040   0.649   0.179
 4616SOL    HW114747   6.107   0.695   0.237
 4616SOL    HW214748   6.028   0.701   0.095
 4617SOL     OW14749   0.260   3.505   2.072
 4617SOL    HW114750   0.283   3.489   2.168
 4617SOL    HW214751   0.204   3.429   2.038
 4618SOL     OW14752   1.067   2.101   6.148
 4618SOL    HW114753   1.159   2.134   6.128
 4618SOL    HW214754   1.043   2.123   6.242
 4619SOL     OW14755   3.102   0.643   3.851
 4619SOL    HW114756   3.152   0.601   3.927
 4619SOL    HW214757   3.080   0.574   3.782
 4620SOL     OW14758   2.396   4.750   6.254
 4620SOL    HW114759   2.331   4.691   6.207
 4620SOL    HW214760   2.411   4.716   6.347
 4621SOL     OW14761   0.441   6.795   6.553
 4621SOL    HW114762   0.506   6.865   6.526
 4621SOL    HW214763   0.385   6.769   6.474
 4622SOL     OW14764   2.117   3.518   1.286
 4622SOL    HW114765   2.043   3.555   1.342
 4622SOL    HW214766   2.181   3.467   1.344
 4623SOL     OW14767   6.042   4.524   2.673
 4623SOL    HW114768   6.059   4.620   2.698
 4623SOL    HW214769   6.078   4.507   2.581
 4624SOL     OW14770   4.524   6.862   5.760
 4624SOL    HW114771   4.528   6.935   5.692
 4624SOL    HW214772   4.479   6.782   5.721
 4625SOL     OW14773   1.376   3.284   6.342
 4625SOL    HW114774   1.393   3.277   6.440
 4625SOL    HW214775   1.435   3.355   6.303
 4626SOL     OW14776   5.874   5.600   2.143
 4626SOL    HW114777   5.884   5.583   2.045
 4626SOL    HW214778   5.837   5.691   2.157
 4627SOL     OW14779   2.045   0.399   5.923
 4627SOL    HW114780   2.055   0.498   5.929
 4627SOL    HW214781   2.121   0.355   5.971
 4628SOL     OW14782   0.225   3.874   1.509
 4628SOL    HW114783   0.151   3.810   1.530
 4628SOL    HW214784   0.285   3.833   1.440
 4629SOL     OW14785   3.662   5.016   4.956
 4629SOL    HW114786   3.608   4.966   5.023
 4629SOL    HW214787   3.627   5.110   4.949
 4630SOL     OW14788   2.430   0.362   2.789
 4630SOL    HW114789   2.357   0.372   2.721
 4630SOL    HW214790   2.436   0.266   2.817
 4631SOL     OW14791   2.398   0.860   2.650
 4631SOL    HW114792   2.328   0.913   2.699
 4631SOL    HW214793   2.356   0.816   2.571
 4632SOL     OW14794   5.471   5.368   4.203
 4632SOL    HW114795   5.479   5.339   4.107
 4632SOL    HW214796   5.398   5.436   4.212
 4633SOL     OW14797   6.014   2.486   5.587
 4633SOL    HW114798   6.005   2.578   5.624
 4633SOL    HW214799   5.981   2.484   5.492
 4634SOL     OW14800   3.536   4.571   0.948
 4634SOL    HW114801   3.468   4.509   0.986
 4634SOL    HW214802   3.627   4.543   0.979
 4635SOL     OW14803   5.097   4.437   1.028
 4635SOL    HW114804   5.003   4.402   1.028
 4635SOL    HW214805   5.160   4.363   1.007
 4636SOL     OW14806   1.620   5.185   1.044
 4636SOL    HW114807   1.680   5.196   1.123
 4636SOL    HW214808   1.671   5.141   0.970
 4637SOL     OW14809   1.873   0.772   5.238
 4637SOL    HW114810   1.821   0.832   5.178
 4637SOL    HW214811   1.810   0.713   5.289
 4638SOL     OW14812   5.490   3.492   6.274
 4638SOL    HW114813   5.460   3.496   6.179
 4638SOL    HW214814   5.493   3.584   6.313
 4639SOL     OW14815   6.368   3.151   5.109
 4639SOL    HW114816   6.295   3.204   5.153
 4639SOL    HW214817   6.348   3.054   5.116
 4640SOL     OW14818   6.311   4.185   2.598
 4640SOL    HW114819   6.411   4.176   2.592
 4640SOL    HW214820   6.269   4.095   2.603
 4641SOL     OW14821   2.823   4.715   5.573
 4641SOL    HW114822   2.908   4.673   5.604
 4641SOL    HW214823   2.829   4.815   5.585
 4642SOL     OW14824   5.878   5.818   4.492
 4642SOL    HW114825   5.906   5.892   4.431
 4642SOL    HW214826   5.959   5.767   4.522
 4643SOL     OW14827   4.025   2.928   1.222
 4643SOL    HW114828   4.034   2.955   1.127
 4643SOL    HW214829   4.115   2.909   1.261
 4644SOL     OW14830   2.412   4.940   4.711
 4644SOL    HW114831   2.415   4.882   4.793
 4644SOL    HW214832   2.418   5.036   4.739
 4645SOL     OW14833   1.911   6.041   4.741
 4645SOL    HW114834   1.851   6.101   4.794
 4645SOL    HW214835   1.991   6.018   4.795
 4646SOL     OW14836   3.989   0.310   1.589
 4646SOL    HW114837   4.058   0.247   1.553
 4646SOL    HW214838   3.970   0.286   1.684
 4647SOL     OW14839   0.045   0.508   4.607
 4647SOL    HW114840   6.985   0.455   4.648
 4647SOL    HW214841   0.012   0.600   4.585
 4648SOL     OW14842   1.939   4.791   2.530
 4648SOL    HW114843   2.024   4.818   2.485
 4648SOL    HW214844   1.937   4.692   2.543
 4649SOL     OW14845   5.563   6.298   6.696
 4649SOL    HW114846   5.569   6.361   6.774
 4649SOL    HW214847   5.528   6.347   6.616
 4650SOL     OW14848   0.014   5.011   2.019
 4650SOL    HW114849   0.060   5.051   1.940
 4650SOL    HW214850   6.942   4.968   1.990
 4651SOL     OW14851   0.113   1.810   1.244
 4651SOL    HW114852   0.151   1.721   1.221
 4651SOL    HW214853   0.185   1.880   1.234
 4652SOL     OW14854   0.439   5.994   5.686
 4652SOL    HW114855   0.382   6.075   5.702
 4652SOL    HW214856   0.401   5.942   5.610
 4653SOL     OW14857   0.862   5.642   6.674
 4653SOL    HW114858   0.846   5.639   6.575
 4653SOL    HW214859   0.949   5.688   6.693
 4654SOL     OW14860   0.836   1.545   6.588
 4654SOL    HW114861   0.931   1.565   6.613
 4654SOL    HW214862   0.834   1.488   6.506
 4655SOL     OW14863   0.342   5.164   3.556
 4655SOL    HW114864   0.281   5.095   3.517
 4655SOL    HW214865   0.288   5.241   3.588
 4656SOL     OW14866   2.372   0.197   3.065
 4656SOL    HW114867   2.437   0.121   3.058
 4656SOL    HW214868   2.298   0.183   2.999
 4657SOL     OW14869   5.727   6.993   6.639
 4657SOL    HW114870   5.699   0.068   6.603
 4657SOL    HW214871   5.770   7.005   6.729
 4658SOL     OW14872   4.927   0.814   3.504
 4658SOL    HW114873   4.943   0.911   3.486
 4658SOL    HW214874   5.000   0.777   3.561
 4659SOL     OW14875   2.297   2.327   4.350
 4659SOL    HW114876   2.295   2.368   4.258
 4659SOL    HW214877   2.300   2.400   4.419
 4660SOL     OW14878   6.662   1.273   5.655
 4660SOL    HW114879   6.610   1.223   5.725
 4660SOL    HW214880   6.664   1.371   5.679
 4661SOL     OW14881   3.989   3.127   3.538
 4661SOL    HW114882   4.054   3.081   3.478
 4661SOL    HW214883   4.016   3.112   3.633
 4662SOL     OW14884   5.336   0.381   4.281
 4662SOL    HW114885   5.270   0.400   4.209
 4662SOL    HW214886   5.288   0.378   4.369
 4663SOL     OW14887   0.172   1.444   2.361
 4663SOL    HW114888   0.118   1.527   2.350
 4663SOL    HW214889   0.151   1.381   2.286
 4664SOL     OW14890   3.085   3.374   0.429
 4664SOL    HW114891   3.029   3.371   0.512
 4664SOL    HW214892   3.036   3.425   0.358
 4665SOL     OW14893   5.660   0.776   6.937
 4665SOL    HW114894   5.615   0.687   6.944
 4665SOL    HW214895   5.624   0.837   7.008
 4666SOL     OW14896   2.831   1.506   0.331
 4666SOL    HW114897   2.920   1.549   0.313
 4666SOL    HW214898   2.777   1.565   0.391
 4667SOL     OW14899   0.611   5.658   5.495
 4667SOL    HW114900   0.658   5.713   5.426
 4667SOL    HW214901   0.615   5.561   5.470
 4668SOL     OW14902   5.495   1.933   4.793
 4668SOL    HW114903   5.433   1.860   4.762
 4668SOL    HW214904   5.568   1.946   4.726
 4669SOL     OW14905   2.761   0.521   0.856
 4669SOL    HW114906   2.718   0.510   0.945
 4669SOL    HW214907   2.773   0.619   0.837
 4670SOL     OW14908   1.751   1.042   4.310
 4670SOL    HW114909   1.744   0.952   4.266
 4670SOL    HW214910   1.678   1.101   4.277
 4671SOL     OW14911   5.461   3.577   0.867
 4671SOL    HW114912   5.367   3.564   0.838
 4671SOL    HW214913   5.517   3.600   0.787
 4672SOL     OW14914   2.563   3.312   5.656
 4672SOL    HW114915   2.508   3.262   5.722
 4672SOL    HW214916   2.511   3.323   5.571
 4673SOL     OW14917   3.644   0.183   2.617
 4673SOL    HW114918   3.625   0.165   2.714
 4673SOL    HW214919   3.572   0.242   2.580
 4674SOL     OW14920   4.155   6.363   6.089
 4674SOL    HW114921   4.194   6.275   6.061
 4674SOL    HW214922   4.225   6.433   6.083
 4675SOL     OW14923   1.316   3.740   6.117
 4675SOL    HW114924   1.336   3.751   6.020
 4675SOL    HW214925   1.262   3.657   6.130
 4676SOL     OW14926   0.581   5.381   3.848
 4676SOL    HW114927   0.588   5.290   3.887
 4676SOL    HW214928   0.592   5.377   3.748
 4677SOL     OW14929   0.799   3.308   0.497
 4677SOL    HW114930   0.788   3.263   0.408
 4677SOL    HW214931   0.882   3.274   0.541
 4678SOL     OW14932   2.277   4.129   2.022
 4678SOL    HW114933   2.301   4.220   1.988
 4678SOL    HW214934   2.283   4.063   1.947
 4679SOL     OW14935   4.305   0.438   1.488
 4679SOL    HW114936   4.325   0.428   1.390
 4679SOL    HW214937   4.303   0.348   1.531
 4680SOL     OW14938   1.808   0.803   0.687
 4680SOL    HW114939   1.837   0.770   0.597
 4680SOL    HW214940   1.888   0.810   0.746
 4681SOL     OW14941   4.945   5.561   1.862
 4681SOL    HW114942   4.943   5.501   1.782
 4681SOL    HW214943   4.892   5.520   1.936
 4682SOL     OW14944   3.403   4.031   0.022
 4682SOL    HW114945   3.501   4.020   0.041
 4682SOL    HW214946   3.365   3.944   7.004
 4683SOL     OW14947   6.133   4.315   4.220
 4683SOL    HW114948   6.144   4.386   4.149
 4683SOL    HW214949   6.036   4.292   4.228
 4684SOL     OW14950   5.751   6.510   0.187
 4684SOL    HW114951   5.838   6.557   0.204
 4684SOL    HW214952   5.677   6.560   0.232
 4685SOL     OW14953   3.518   3.771   4.787
 4685SOL    HW114954   3.476   3.684   4.763
 4685SOL    HW214955   3.518   3.831   4.707
 4686SOL     OW14956   3.133   6.090   0.257
 4686SOL    HW114957   3.217   6.076   0.310
 4686SOL    HW214958   3.071   6.013   0.271
 4687SOL     OW14959   3.052   0.592   2.962
 4687SOL    HW114960   2.991   0.651   3.014
 4687SOL    HW214961   3.071   0.632   2.873
 4688SOL     OW14962   6.002   3.149   5.699
 4688SOL    HW114963   5.959   3.072   5.747
 4688SOL    HW214964   6.101   3.133   5.692
 4689SOL     OW14965   6.397   0.645   2.559
 4689SOL    HW114966   6.471   0.594   2.602
 4689SOL    HW214967   6.323   0.660   2.626
 4690SOL     OW14968   2.395   1.867   0.822
 4690SOL    HW114969   2.432   1.774   0.819
 4690SOL    HW214970   2.398   1.907   0.730
 4691SOL     OW14971   6.821   4.383   1.857
 4691SOL    HW114972   6.869   4.305   1.896
 4691SOL    HW214973   6.729   4.388   1.896
 4692SOL     OW14974   5.195   3.068   2.174
 4692SOL    HW114975   5.201   3.098   2.079
 4692SOL    HW214976   5.099   3.065   2.202
 4693SOL     OW14977   1.394   0.600   3.115
 4693SOL    HW114978   1.421   0.523   3.173
 4693SOL    HW214979   1.476   0.644   3.079
 4694SOL     OW14980   1.587   0.600   6.879
 4694SOL    HW114981   1.554   0.507   6.895
 4694SOL    HW214982   1.629   0.606   6.789
 4695SOL     OW14983   1.142   6.284   1.595
 4695SOL    HW114984   1.207   6.353   1.626
 4695SOL    HW214985   1.119   6.222   1.670
 4696SOL     OW14986   1.998   5.279   5.762
 4696SOL    HW114987   1.919   5.337   5.739
 4696SOL    HW214988   2.082   5.327   5.736
 4697SOL     OW14989   4.375   5.469   1.611
 4697SOL    HW114990   4.276   5.450   1.610
 4697SOL    HW214991   4.392   5.556   1.566
 4698SOL     OW14992   5.123   1.061   4.544
 4698SOL    HW114993   5.044   1.005   4.569
 4698SOL    HW214994   5.206   1.021   4.583
 4699SOL     OW14995   1.452   0.144   2.189
 4699SOL    HW114996   1.354   0.148   2.208
 4699SOL    HW214997   1.495   0.229   2.221
 4700SOL     OW14998   6.523   2.079   2.006
 4700SOL    HW114999   6.475   2.155   1.963
 4700SOL    HW215000   6.457   2.012   2.038
 4701SOL     OW15001   2.984   2.177   1.810
 4701SOL    HW115002   3.003   2.126   1.894
 4701SOL    HW215003   2.964   2.273   1.832
 4702SOL     OW15004   5.600   4.951   6.467
 4702SOL    HW115005   5.659   4.977   6.544
 4702SOL    HW215006   5.517   5.007   6.469
 4703SOL     OW15007   0.718   5.319   3.375
 4703SOL    HW115008   0.776   5.244   3.344
 4703SOL    HW215009   0.645   5.334   3.308
 4704SOL     OW15010   1.399   5.312   4.840
 4704SOL    HW115011   1.499   5.308   4.841
 4704SOL    HW215012   1.364   5.259   4.763
 4705SOL     OW15013   3.551   1.912   1.654
 4705SOL    HW115014   3.468   1.924   1.710
 4705SOL    HW215015   3.609   1.993   1.664
 4706SOL     OW15016   2.409   1.024   0.461
 4706SOL    HW115017   2.406   1.124   0.459
 4706SOL    HW215018   2.502   0.993   0.481
 4707SOL     OW15019   1.630   5.971   1.893
 4707SOL    HW115020   1.677   5.883   1.899
 4707SOL    HW215021   1.542   5.959   1.846
 4708SOL     OW15022   1.485   2.646   4.478
 4708SOL    HW115023   1.414   2.688   4.535
 4708SOL    HW215024   1.526   2.569   4.528
 4709SOL     OW15025   4.670   4.020   5.647
 4709SOL    HW115026   4.724   4.088   5.697
 4709SOL    HW215027   4.724   3.987   5.569
 4710SOL     OW15028   6.199   5.917   5.473
 4710SOL    HW115029   6.274   5.862   5.436
 4710SOL    HW215030   6.147   5.957   5.398
 4711SOL     OW15031   5.363   3.912   2.336
 4711SOL    HW115032   5.350   3.972   2.257
 4711SOL    HW215033   5.455   3.925   2.373
 4712SOL     OW15034   4.784   4.409   5.516
 4712SOL    HW115035   4.706   4.351   5.493
 4712SOL    HW215036   4.785   4.426   5.614
 4713SOL     OW15037   6.312   4.083   1.216
 4713SOL    HW115038   6.399   4.044   1.185
 4713SOL    HW215039   6.242   4.067   1.146
 4714SOL     OW15040   4.275   1.425   6.570
 4714SOL    HW115041   4.358   1.433   6.624
 4714SOL    HW215042   4.195   1.437   6.629
 4715SOL     OW15043   6.285   1.570   2.155
 4715SOL    HW115044   6.276   1.488   2.099
 4715SOL    HW215045   6.356   1.556   2.223
 4716SOL     OW15046   3.743   4.931   5.950
 4716SOL    HW115047   3.680   4.853   5.959
 4716SOL    HW215048   3.772   4.939   5.854
 4717SOL     OW15049   2.550   5.040   5.330
 4717SOL    HW115050   2.614   4.963   5.327
 4717SOL    HW215051   2.461   5.009   5.363
 4718SOL     OW15052   4.539   4.825   0.555
 4718SOL    HW115053   4.544   4.923   0.541
 4718SOL    HW215054   4.600   4.799   0.630
 4719SOL     OW15055   0.206   4.479   3.857
 4719SOL    HW115056   0.298   4.459   3.891
 4719SOL    HW215057   0.168   4.396   3.816
 4720SOL     OW15058   1.881   2.999   6.712
 4720SOL    HW115059   1.966   2.970   6.669
 4720SOL    HW215060   1.830   2.919   6.744
 4721SOL     OW15061   7.008   3.009   2.751
 4721SOL    HW115062   0.084   3.033   2.714
 4721SOL    HW215063   6.986   2.914   2.728
 4722SOL     OW15064   1.206   6.079   6.704
 4722SOL    HW115065   1.251   6.072   6.793
 4722SOL    HW215066   1.174   6.173   6.690
 4723SOL     OW15067   3.885   4.091   0.129
 4723SOL    HW115068   3.822   4.045   0.066
 4723SOL    HW215069   3.917   4.025   0.197
 4724SOL     OW15070   0.360   6.869   5.163
 4724SOL    HW115071   0.428   6.878   5.236
 4724SOL    HW215072   0.403   6.887   5.075
 4725SOL     OW15073   5.240   6.105   1.230
 4725SOL    HW115074   5.146   6.071   1.231
 4725SOL    HW215075   5.239   6.205   1.230
 4726SOL     OW15076   1.217   3.360   5.515
 4726SOL    HW115077   1.230   3.291   5.443
 4726SOL    HW215078   1.176   3.442   5.475
 4727SOL     OW15079   0.087   4.728   1.188
 4727SOL    HW115080   0.028   4.649   1.207
 4727SOL    HW215081   0.029   4.807   1.168
 4728SOL     OW15082   6.447   1.210   4.478
 4728SOL    HW115083   6.501   1.138   4.434
 4728SOL    HW215084   6.488   1.233   4.566
 4729SOL     OW15085   6.324   1.894   2.057
 4729SOL    HW115086   6.312   1.797   2.075
 4729SOL    HW215087   6.253   1.926   1.994
 4730SOL     OW15088   2.781   6.671   4.346
 4730SOL    HW115089   2.785   6.640   4.442
 4730SOL    HW215090   2.865   6.645   4.299
 4731SOL     OW15091   3.003   6.491   0.317
 4731SOL    HW115092   3.006   6.544   0.402
 4731SOL    HW215093   3.083   6.432   0.310
 4732SOL     OW15094   6.942   5.205   4.259
 4732SOL    HW115095   6.969   5.229   4.166
 4732SOL    HW215096   6.899   5.115   4.259
 4733SOL     OW15097   2.209   4.222   2.766
 4733SOL    HW115098   2.212   4.160   2.845
 4733SOL    HW215099   2.210   4.168   2.682
 4734SOL     OW15100   5.231   3.821   6.548
 4734SOL    HW115101   5.175   3.858   6.621
 4734SOL    HW215102   5.178   3.753   6.496
 4735SOL     OW15103   0.392   0.689   4.843
 4735SOL    HW115104   0.306   0.727   4.810
 4735SOL    HW215105   0.467   0.719   4.785
 4736SOL     OW15106   6.297   2.033   3.191
 4736SOL    HW115107   6.254   2.124   3.186
 4736SOL    HW215108   6.396   2.042   3.178
 4737SOL     OW15109   2.169   4.853   6.902
 4737SOL    HW115110   2.178   4.754   6.893
 4737SOL    HW215111   2.130   4.891   6.818
 4738SOL     OW15112   1.220   6.582   3.242
 4738SOL    HW115113   1.210   6.518   3.318
 4738SOL    HW215114   1.171   6.667   3.264
 4739SOL     OW15115   6.561   2.807   3.156
 4739SOL    HW115116   6.659   2.822   3.148
 4739SOL    HW215117   6.520   2.808   3.064
 4740SOL     OW15118   0.847   0.894   1.369
 4740SOL    HW115119   0.771   0.954   1.343
 4740SOL    HW215120   0.849   0.885   1.468
 4741SOL     OW15121   4.753   4.411   1.516
 4741SOL    HW115122   4.712   4.326   1.548
 4741SOL    HW215123   4.852   4.398   1.503
 4742SOL     OW15124   2.589   5.820   2.160
 4742SOL    HW115125   2.615   5.821   2.064
 4742SOL    HW215126   2.664   5.857   2.216
 4743SOL     OW15127   2.342   2.876   0.173
 4743SOL    HW115128   2.247   2.883   0.144
 4743SOL    HW215129   2.353   2.799   0.235
 4744SOL     OW15130   1.992   2.647   4.913
 4744SOL    HW115131   1.927   2.703   4.862
 4744SOL    HW215132   1.949   2.561   4.941
 4745SOL     OW15133   3.237   5.687   5.005
 4745SOL    HW115134   3.331   5.693   5.038
 4745SOL    HW215135   3.175   5.729   5.071
 4746SOL     OW15136   6.011   0.663   0.917
 4746SOL    HW115137   5.928   0.626   0.876
 4746SOL    HW215138   6.016   0.762   0.900
 4747SOL     OW15139   6.358   2.778   1.588
 4747SOL    HW115140   6.367   2.711   1.661
 4747SOL    HW215141   6.299   2.853   1.618
 4748SOL     OW15142   1.748   0.693   1.169
 4748SOL    HW115143   1.789   0.763   1.111
 4748SOL    HW215144   1.648   0.699   1.163
 4749SOL     OW15145   2.237   0.262   6.108
 4749SOL    HW115146   2.301   0.312   6.166
 4749SOL    HW215147   2.284   0.188   6.061
 4750SOL     OW15148   0.694   1.660   4.601
 4750SOL    HW115149   0.783   1.703   4.613
 4750SOL    HW215150   0.687   1.622   4.509
 4751SOL     OW15151   0.861   3.366   5.797
 4751SOL    HW115152   0.954   3.356   5.760
 4751SOL    HW215153   0.854   3.314   5.882
 4752SOL     OW15154   2.302   6.264   1.689
 4752SOL    HW115155   2.241   6.338   1.718
 4752SOL    HW215156   2.392   6.277   1.730
 4753SOL     OW15157   0.023   0.252   4.994
 4753SOL    HW115158   0.048   0.166   5.038
 4753SOL    HW215159   0.104   0.310   4.987
 4754SOL     OW15160   0.608   0.326   5.934
 4754SOL    HW115161   0.691   0.271   5.939
 4754SOL    HW215162   0.629   0.420   5.961
 4755SOL     OW15163   2.401   1.312   0.501
 4755SOL    HW115164   2.306   1.317   0.472
 4755SOL    HW215165   2.433   1.402   0.530
 4756SOL     OW15166   4.890   3.061   1.117
 4756SOL    HW115167   4.799   3.053   1.158
 4756SOL    HW215168   4.956   3.085   1.187
 4757SOL     OW15169   2.040   1.845   1.927
 4757SOL    HW115170   2.098   1.803   1.857
 4757SOL    HW215171   2.094   1.860   2.010
 4758SOL     OW15172   5.081   4.184   5.200
 4758SOL    HW115173   5.056   4.091   5.175
 4758SOL    HW215174   5.103   4.236   5.117
 4759SOL     OW15175   5.958   4.622   5.925
 4759SOL    HW115176   6.011   4.677   5.990
 4759SOL    HW215177   6.019   4.557   5.880
 4760SOL     OW15178   1.904   2.293   0.766
 4760SOL    HW115179   1.844   2.373   0.761
 4760SOL    HW215180   1.972   2.297   0.693
 4761SOL     OW15181   1.527   5.549   5.536
 4761SOL    HW115182   1.437   5.546   5.494
 4761SOL    HW215183   1.587   5.482   5.492
 4762SOL     OW15184   3.548   0.045   2.856
 4762SOL    HW115185   3.490   6.981   2.836
 4762SOL    HW215186   3.643   0.015   2.863
 4763SOL     OW15187   6.306   5.676   5.058
 4763SOL    HW115188   6.342   5.653   4.967
 4763SOL    HW215189   6.312   5.596   5.117
 4764SOL     OW15190   4.200   3.588   5.271
 4764SOL    HW115191   4.186   3.625   5.179
 4764SOL    HW215192   4.183   3.490   5.270
 4765SOL     OW15193   6.863   4.907   5.563
 4765SOL    HW115194   6.938   4.870   5.617
 4765SOL    HW215195   6.894   4.989   5.515
 4766SOL     OW15196   3.154   0.421   3.665
 4766SOL    HW115197   3.185   0.441   3.572
 4766SOL    HW215198   3.095   0.340   3.664
 4767SOL     OW15199   4.197   5.855   6.273
 4767SOL    HW115200   4.174   5.856   6.176
 4767SOL    HW215201   4.256   5.934   6.294
 4768SOL     OW15202   0.396   1.169   4.745
 4768SOL    HW115203   0.438   1.167   4.836
 4768SOL    HW215204   0.451   1.116   4.681
 4769SOL     OW15205   3.097   0.282   1.860
 4769SOL    HW115206   3.171   0.273   1.926
 4769SOL    HW215207   3.134   0.279   1.768
 4770SOL     OW15208   2.556   0.224   3.887
 4770SOL    HW115209   2.627   0.290   3.863
 4770SOL    HW215210   2.566   0.199   3.984
 4771SOL     OW15211   3.834   4.261   5.364
 4771SOL    HW115212   3.810   4.302   5.277
 4771SOL    HW215213   3.783   4.175   5.376
 4772SOL     OW15214   2.117   2.496   1.189
 4772SOL    HW115215   2.150   2.567   1.127
 4772SOL    HW215216   2.168   2.501   1.275
 4773SOL     OW15217   6.103   5.571   3.427
 4773SOL    HW115218   6.100   5.662   3.467
 4773SOL    HW215219   6.055   5.507   3.486
 4774SOL     OW15220   1.037   4.073   0.726
 4774SOL    HW115221   1.093   4.063   0.808
 4774SOL    HW215222   1.050   3.993   0.667
 4775SOL     OW15223   2.413   1.312   2.626
 4775SOL    HW115224   2.500   1.281   2.665
 4775SOL    HW215225   2.427   1.397   2.575
 4776SOL     OW15226   4.118   5.054   1.790
 4776SOL    HW115227   4.065   5.113   1.728
 4776SOL    HW215228   4.055   5.007   1.852
 4777SOL     OW15229   2.710   4.486   1.439
 4777SOL    HW115230   2.637   4.524   1.495
 4777SOL    HW215231   2.707   4.526   1.348
 4778SOL     OW15232   5.238   3.644   2.126
 4778SOL    HW115233   5.272   3.672   2.215
 4778SOL    HW215234   5.260   3.548   2.110
 4779SOL     OW15235   4.913   0.651   3.285
 4779SOL    HW115236   4.826   0.672   3.240
 4779SOL    HW215237   4.931   0.717   3.357
 4780SOL     OW15238   1.849   6.777   5.698
 4780SOL    HW115239   1.846   6.696   5.757
 4780SOL    HW215240   1.757   6.799   5.667
 4781SOL     OW15241   1.970   5.509   2.211
 4781SOL    HW115242   1.874   5.493   2.234
 4781SOL    HW215243   2.022   5.523   2.295
 4782SOL     OW15244   5.412   5.830   6.782
 4782SOL    HW115245   5.355   5.910   6.763
 4782SOL    HW215246   5.440   5.788   6.696
 4783SOL     OW15247   6.302   4.074   2.246
 4783SOL    HW115248   6.377   4.062   2.182
 4783SOL    HW215249   6.290   4.171   2.266
 4784SOL     OW15250   5.989   4.380   5.502
 4784SOL    HW115251   5.916   4.437   5.466
 4784SOL    HW215252   6.018   4.315   5.432
 4785SOL     OW15253   6.224   6.964   0.951
 4785SOL    HW115254   6.247   0.007   1.030
 4785SOL    HW215255   6.137   6.917   0.968
 4786SOL     OW15256   1.510   3.270   2.586
 4786SOL    HW115257   1.505   3.276   2.486
 4786SOL    HW215258   1.602   3.242   2.613
 4787SOL     OW15259   3.854   2.126   2.242
 4787SOL    HW115260   3.921   2.053   2.225
 4787SOL    HW215261   3.805   2.146   2.157
 4788SOL     OW15262   0.958   6.113   5.220
 4788SOL    HW115263   0.907   6.166   5.288
 4788SOL    HW215264   0.898   6.044   5.180
 4789SOL     OW15265   6.366   0.411   0.825
 4789SOL    HW115266   6.391   0.411   0.728
 4789SOL    HW215267   6.347   0.505   0.855
 4790SOL     OW15268   4.979   1.116   0.124
 4790SOL    HW115269   4.977   1.022   0.157
 4790SOL    HW215270   5.073   1.143   0.105
 4791SOL     OW15271   4.778   0.294   2.650
 4791SOL    HW115272   4.757   0.353   2.572
 4791SOL    HW215273   4.826   0.346   2.720
 4792SOL     OW15274   2.532   2.378   1.632
 4792SOL    HW115275   2.442   2.416   1.653
 4792SOL    HW215276   2.558   2.404   1.540
 4793SOL     OW15277   0.663   6.788   5.882
 4793SOL    HW115278   0.591   6.849   5.849
 4793SOL    HW215279   0.623   6.700   5.906
 4794SOL     OW15280   3.949   0.863   1.945
 4794SOL    HW115281   3.947   0.963   1.949
 4794SOL    HW215282   4.037   0.830   1.981
 4795SOL     OW15283   6.073   3.077   4.708
 4795SOL    HW115284   6.052   2.981   4.688
 4795SOL    HW215285   5.989   3.130   4.712
 4796SOL     OW15286   6.008   3.909   1.170
 4796SOL    HW115287   6.012   3.915   1.270
 4796SOL    HW215288   6.097   3.877   1.136
 4797SOL     OW15289   0.166   4.780   4.736
 4797SOL    HW115290   0.160   4.683   4.759
 4797SOL    HW215291   0.121   4.796   4.649
 4798SOL     OW15292   6.607   4.412   5.059
 4798SOL    HW115293   6.649   4.370   5.139
 4798SOL    HW215294   6.631   4.360   4.977
 4799SOL     OW15295   4.244   1.072   5.329
 4799SOL    HW115296   4.283   1.156   5.365
 4799SOL    HW215297   4.318   1.010   5.303
 4800SOL     OW15298   1.898   1.954   4.520
 4800SOL    HW115299   1.817   2.001   4.484
 4800SOL    HW215300   1.971   2.019   4.535
 4801SOL     OW15301   1.135   2.294   0.808
 4801SOL    HW115302   1.181   2.359   0.870
 4801SOL    HW215303   1.120   2.208   0.856
 4802SOL     OW15304   1.751   0.865   2.371
 4802SOL    HW115305   1.792   0.924   2.301
 4802SOL    HW215306   1.671   0.911   2.410
 4803SOL     OW15307   1.084   0.061   1.326
 4803SOL    HW115308   1.038   6.989   1.344
 4803SOL    HW215309   1.075   0.084   1.229
 4804SOL     OW15310   4.242   5.405   0.234
 4804SOL    HW115311   4.233   5.457   0.150
 4804SOL    HW215312   4.301   5.326   0.218
 4805SOL     OW15313   0.838   1.849   0.512
 4805SOL    HW115314   0.858   1.759   0.550
 4805SOL    HW215315   0.911   1.912   0.538
 4806SOL     OW15316   0.386   3.065   3.261
 4806SOL    HW115317   0.394   3.054   3.162
 4806SOL    HW215318   0.348   3.156   3.282
 4807SOL     OW15319   0.618   6.999   1.050
 4807SOL    HW115320   0.572   0.071   1.074
 4807SOL    HW215321   0.644   7.001   0.954
 4808SOL     OW15322   5.196   3.487   1.501
 4808SOL    HW115323   5.291   3.502   1.476
 4808SOL    HW215324   5.139   3.557   1.458
 4809SOL     OW15325   4.215   5.965   6.656
 4809SOL    HW115326   4.151   6.041   6.643
 4809SOL    HW215327   4.298   5.983   6.603
 4810SOL     OW15328   0.827   0.449   0.943
 4810SOL    HW115329   0.771   0.410   0.871
 4810SOL    HW215330   0.770   0.474   1.021
 4811SOL     OW15331   5.070   5.997   2.691
 4811SOL    HW115332   5.019   5.935   2.751
 4811SOL    HW215333   5.101   5.947   2.610
 4812SOL     OW15334   6.341   4.992   4.342
 4812SOL    HW115335   6.261   5.051   4.349
 4812SOL    HW215336   6.333   4.917   4.408
 4813SOL     OW15337   5.838   2.516   2.731
 4813SOL    HW115338   5.854   2.593   2.668
 4813SOL    HW215339   5.871   2.431   2.689
 4814SOL     OW15340   6.834   3.586   1.600
 4814SOL    HW115341   6.890   3.505   1.579
 4814SOL    HW215342   6.754   3.558   1.652
 4815SOL     OW15343   3.742   6.267   2.663
 4815SOL    HW115344   3.722   6.341   2.599
 4815SOL    HW215345   3.732   6.179   2.617
 4816SOL     OW15346   5.330   5.417   3.119
 4816SOL    HW115347   5.245   5.453   3.082
 4816SOL    HW215348   5.394   5.492   3.135
 4817SOL     OW15349   0.013   2.113   6.596
 4817SOL    HW115350   6.941   2.069   6.569
 4817SOL    HW215351   0.067   2.049   6.650
 4818SOL     OW15352   0.118   6.217   4.113
 4818SOL    HW115353   0.062   6.266   4.046
 4818SOL    HW215354   0.210   6.202   4.076
 4819SOL     OW15355   1.589   3.198   0.657
 4819SOL    HW115356   1.672   3.208   0.712
 4819SOL    HW215357   1.547   3.288   0.643
 4820SOL     OW15358   0.435   2.964   2.576
 4820SOL    HW115359   0.522   2.997   2.612
 4820SOL    HW215360   0.372   2.943   2.651
 4821SOL     OW15361   6.782   5.714   3.684
 4821SOL    HW115362   6.858   5.654   3.661
 4821SOL    HW215363   6.701   5.658   3.705
 4822SOL     OW15364   1.994   4.069   4.529
 4822SOL    HW115365   1.898   4.059   4.557
 4822SOL    HW215366   2.026   4.161   4.555
 4823SOL     OW15367   2.176   2.627   1.872
 4823SOL    HW115368   2.133   2.708   1.833
 4823SOL    HW215369   2.147   2.617   1.967
 4824SOL     OW15370   6.076   1.811   6.651
 4824SOL    HW115371   6.029   1.897   6.631
 4824SOL    HW215372   6.167   1.830   6.687
 4825SOL     OW15373   1.239   6.693   3.636
 4825SOL    HW115374   1.200   6.776   3.597
 4825SOL    HW215375   1.336   6.707   3.656
 4826SOL     OW15376   4.008   0.499   0.984
 4826SOL    HW115377   4.036   0.578   1.040
 4826SOL    HW215378   4.007   0.417   1.042
 4827SOL     OW15379   6.982   1.765   0.386
 4827SOL    HW115380   7.002   1.861   0.369
 4827SOL    HW215381   6.885   1.754   0.409
 4828SOL     OW15382   5.416   1.015   4.533
 4828SOL    HW115383   5.461   1.104   4.543
 4828SOL    HW215384   5.446   0.955   4.607
 4829SOL     OW15385   4.168   6.368   5.329
 4829SOL    HW115386   4.110   6.410   5.260
 4829SOL    HW215387   4.168   6.269   5.317
 4830SOL     OW15388   2.028   6.293   3.068
 4830SOL    HW115389   1.949   6.231   3.075
 4830SOL    HW215390   2.112   6.239   3.060
 4831SOL     OW15391   3.127   4.702   5.284
 4831SOL    HW115392   3.073   4.620   5.263
 4831SOL    HW215393   3.221   4.689   5.252
 4832SOL     OW15394   3.524   3.644   4.193
 4832SOL    HW115395   3.488   3.650   4.286
 4832SOL    HW215396   3.453   3.608   4.133
 4833SOL     OW15397   6.289   3.600   4.875
 4833SOL    HW115398   6.279   3.505   4.905
 4833SOL    HW215399   6.380   3.613   4.837
 4834SOL     OW15400   1.125   4.692   0.811
 4834SOL    HW115401   1.147   4.630   0.885
 4834SOL    HW215402   1.037   4.737   0.830
 4835SOL     OW15403   6.697   2.867   6.201
 4835SOL    HW115404   6.779   2.812   6.188
 4835SOL    HW215405   6.678   2.877   6.299
 4836SOL     OW15406   4.422   1.851   5.825
 4836SOL    HW115407   4.460   1.760   5.836
 4836SOL    HW215408   4.415   1.874   5.728
 4837SOL     OW15409   6.987   3.701   3.954
 4837SOL    HW115410   6.914   3.659   3.901
 4837SOL    HW215411   6.991   3.659   4.044
 4838SOL     OW15412   2.110   3.651   5.933
 4838SOL    HW115413   2.094   3.637   5.836
 4838SOL    HW215414   2.142   3.565   5.974
 4839SOL     OW15415   2.594   1.172   0.896
 4839SOL    HW115416   2.612   1.120   0.813
 4839SOL    HW215417   2.680   1.203   0.936
 4840SOL     OW15418   6.018   3.412   4.983
 4840SOL    HW115419   5.961   3.453   4.912
 4840SOL    HW215420   6.109   3.392   4.945
 4841SOL     OW15421   2.782   6.594   3.017
 4841SOL    HW115422   2.785   6.648   3.101
 4841SOL    HW215423   2.876   6.572   2.988
 4842SOL     OW15424   3.827   5.722   3.026
 4842SOL    HW115425   3.796   5.668   3.104
 4842SOL    HW215426   3.814   5.819   3.047
 4843SOL     OW15427   6.990   1.465   6.996
 4843SOL    HW115428   0.023   1.515   0.054
 4843SOL    HW215429   0.008   1.370   6.995
 4844SOL     OW15430   1.735   5.648   5.784
 4844SOL    HW115431   1.834   5.662   5.792
 4844SOL    HW215432   1.717   5.552   5.760
 4845SOL     OW15433   5.009   3.652   5.024
 4845SOL    HW115434   5.019   3.734   5.080
 4845SOL    HW215435   4.920   3.610   5.042
 4846SOL     OW15436   6.359   3.422   4.526
 4846SOL    HW115437   6.308   3.508   4.529
 4846SOL    HW215438   6.425   3.420   4.601
 4847SOL     OW15439   2.532   6.576   6.165
 4847SOL    HW115440   2.560   6.661   6.209
 4847SOL    HW215441   2.565   6.498   6.218
 4848SOL     OW15442   4.900   1.216   4.282
 4848SOL    HW115443   4.928   1.307   4.312
 4848SOL    HW215444   4.961   1.148   4.321
 4849SOL     OW15445   2.548   6.093   1.214
 4849SOL    HW115446   2.468   6.064   1.267
 4849SOL    HW215447   2.561   6.192   1.225
 4850SOL     OW15448   3.675   0.092   0.833
 4850SOL    HW115449   3.592   0.078   0.779
 4850SOL    HW215450   3.669   0.179   0.882
 4851SOL     OW15451   3.526   4.281   6.334
 4851SOL    HW115452   3.524   4.238   6.424
 4851SOL    HW215453   3.542   4.211   6.264
 4852SOL     OW15454   5.603   4.861   5.734
 4852SOL    HW115455   5.654   4.884   5.818
 4852SOL    HW215456   5.582   4.763   5.734
 4853SOL     OW15457   4.358   0.100   2.568
 4853SOL    HW115458   4.389   0.156   2.645
 4853SOL    HW215459   4.361   0.155   2.484
 4854SOL     OW15460   4.467   6.372   2.533
 4854SOL    HW115461   4.374   6.345   2.557
 4854SOL    HW215462   4.531   6.336   2.602
 4855SOL     OW15463   4.663   4.726   5.672
 4855SOL    HW115464   4.602   4.729   5.593
 4855SOL    HW215465   4.737   4.661   5.655
 4856SOL     OW15466   0.717   4.362   2.792
 4856SOL    HW115467   0.680   4.304   2.720
 4856SOL    HW215468   0.644   4.418   2.831
 4857SOL     OW15469   2.283   2.326   5.118
 4857SOL    HW115470   2.303   2.358   5.211
 4857SOL    HW215471   2.187   2.299   5.112
 4858SOL     OW15472   1.635   6.363   4.268
 4858SOL    HW115473   1.726   6.329   4.245
 4858SOL    HW215474   1.613   6.336   4.362
 4859SOL     OW15475   6.907   5.842   3.050
 4859SOL    HW115476   6.829   5.900   3.073
 4859SOL    HW215477   6.965   5.829   3.130
 4860SOL     OW15478   4.034   5.461   2.126
 4860SOL    HW115479   4.033   5.363   2.144
 4860SOL    HW215480   4.029   5.511   2.213
 4861SOL     OW15481   0.069   4.061   5.705
 4861SOL    HW115482   0.101   4.150   5.673
 4861SOL    HW215483   0.123   3.988   5.663
 4862SOL     OW15484   1.863   5.985   3.959
 4862SOL    HW115485   1.789   6.011   3.896
 4862SOL    HW215486   1.841   5.897   4.001
 4863SOL     OW15487   5.272   2.245   2.440
 4863SOL    HW115488   5.338   2.312   2.405
 4863SOL    HW215489   5.277   2.242   2.540
 4864SOL     OW15490   2.373   1.265   1.221
 4864SOL    HW115491   2.322   1.288   1.138
 4864SOL    HW215492   2.309   1.249   1.296
 4865SOL     OW15493   3.941   5.558   4.765
 4865SOL    HW115494   3.968   5.465   4.740
 4865SOL    HW215495   3.930   5.613   4.682
 4866SOL     OW15496   0.554   5.145   2.112
 4866SOL    HW115497   0.495   5.130   2.033
 4866SOL    HW215498   0.502   5.129   2.196
 4867SOL     OW15499   5.040   4.818   4.193
 4867SOL    HW115500   5.012   4.912   4.212
 4867SOL    HW215501   5.011   4.758   4.267
 4868SOL     OW15502   1.560   6.251   1.525
 4868SOL    HW115503   1.544   6.349   1.522
 4868SOL    HW215504   1.635   6.228   1.462
 4869SOL     OW15505   6.179   1.793   1.103
 4869SOL    HW115506   6.133   1.863   1.047
 4869SOL    HW215507   6.192   1.829   1.195
 4870SOL     OW15508   6.569   0.399   1.006
 4870SOL    HW115509   6.646   0.374   0.948
 4870SOL    HW215510   6.485   0.398   0.952
 4871SOL     OW15511   1.595   3.597   4.330
 4871SOL    HW115512   1.689   3.627   4.348
 4871SOL    HW215513   1.531   3.664   4.368
 4872SOL     OW15514   0.873   0.496   4.274
 4872SOL    HW115515   0.791   0.440   4.277
 4872SOL    HW215516   0.926   0.474   4.193
 4873SOL     OW15517   1.237   6.363   5.006
 4873SOL    HW115518   1.213   6.268   4.984
 4873SOL    HW215519   1.155   6.420   5.003
 4874SOL     OW15520   5.787   3.168   3.528
 4874SOL    HW115521   5.758   3.143   3.620
 4874SOL    HW215522   5.747   3.105   3.462
 4875SOL     OW15523   6.752   2.403   6.110
 4875SOL    HW115524   6.781   2.450   6.027
 4875SOL    HW215525   6.726   2.309   6.087
 4876SOL     OW15526   0.071   1.635   0.164
 4876SOL    HW115527   0.166   1.658   0.141
 4876SOL    HW215528   0.054   1.659   0.260
 4877SOL     OW15529   6.214   1.206   1.822
 4877SOL    HW115530   6.131   1.246   1.784
 4877SOL    HW215531   6.198   1.110   1.843
 4878SOL     OW15532   0.030   2.841   1.752
 4878SOL    HW115533   6.974   2.905   1.785
 4878SOL    HW215534   0.105   2.892   1.710
 4879SOL     OW15535   4.575   5.774   3.567
 4879SOL    HW115536   4.636   5.839   3.611
 4879SOL    HW215537   4.498   5.754   3.627
 4880SOL     OW15538   5.848   1.826   5.694
 4880SOL    HW115539   5.832   1.924   5.688
 4880SOL    HW215540   5.876   1.790   5.605
 4881SOL     OW15541   2.788   5.439   6.842
 4881SOL    HW115542   2.764   5.522   6.792
 4881SOL    HW215543   2.748   5.360   6.796
 4882SOL     OW15544   4.780   6.758   6.872
 4882SOL    HW115545   4.763   6.687   6.803
 4882SOL    HW215546   4.715   6.833   6.860
 4883SOL     OW15547   6.366   5.584   0.075
 4883SOL    HW115548   6.275   5.622   0.090
 4883SOL    HW215549   6.381   5.507   0.137
 4884SOL     OW15550   3.941   6.539   1.525
 4884SOL    HW115551   4.011   6.471   1.546
 4884SOL    HW215552   3.867   6.496   1.474
 4885SOL     OW15553   2.202   6.657   2.758
 4885SOL    HW115554   2.215   6.756   2.753
 4885SOL    HW215555   2.282   6.616   2.800
 4886SOL     OW15556   5.678   1.010   5.951
 4886SOL    HW115557   5.582   1.027   5.928
 4886SOL    HW215558   5.719   0.950   5.883
 4887SOL     OW15559   0.133   1.928   5.763
 4887SOL    HW115560   0.132   2.016   5.716
 4887SOL    HW215561   0.193   1.935   5.844
 4888SOL     OW15562   3.585   5.596   1.876
 4888SOL    HW115563   3.633   5.541   1.943
 4888SOL    HW215564   3.615   5.691   1.883
 4889SOL     OW15565   1.612   2.769   6.125
 4889SOL    HW115566   1.623   2.867   6.141
 4889SOL    HW215567   1.520   2.741   6.150
 4890SOL     OW15568   0.974   0.186   4.295
 4890SOL    HW115569   0.919   0.257   4.250
 4890SOL    HW215570   1.066   0.221   4.312
 4891SOL     OW15571   1.914   3.924   0.883
 4891SOL    HW115572   1.938   3.828   0.901
 4891SOL    HW215573   1.934   3.979   0.963
 4892SOL     OW15574   1.337   5.799   1.797
 4892SOL    HW115575   1.367   5.853   1.719
 4892SOL    HW215576   1.242   5.821   1.819
 4893SOL     OW15577   1.144   3.542   6.225
 4893SOL    HW115578   1.066   3.601   6.204
 4893SOL    HW215579   1.166   3.550   6.322
 4894SOL     OW15580   1.705   0.970   3.022
 4894SOL    HW115581   1.657   0.931   3.100
 4894SOL    HW215582   1.789   0.919   3.005
 4895SOL     OW15583   5.937   4.491   0.253
 4895SOL    HW115584   5.987   4.561   0.304
 4895SOL    HW215585   5.992   4.461   0.175
 4896SOL     OW15586   4.187   5.801   3.355
 4896SOL    HW115587   4.178   5.901   3.358
 4896SOL    HW215588   4.141   5.761   3.435
 4897SOL     OW15589   2.565   6.035   6.229
 4897SOL    HW115590   2.631   6.101   6.265
 4897SOL    HW215591   2.581   5.945   6.270
 4898SOL     OW15592   6.227   2.297   4.653
 4898SOL    HW115593   6.173   2.215   4.670
 4898SOL    HW215594   6.280   2.286   4.568
 4899SOL     OW15595   5.272   4.576   4.886
 4899SOL    HW115596   5.261   4.620   4.974
 4899SOL    HW215597   5.298   4.644   4.817
 4900SOL     OW15598   0.465   6.477   5.600
 4900SOL    HW115599   0.381   6.494   5.549
 4900SOL    HW215600   0.536   6.444   5.537
 4901SOL     OW15601   0.242   6.602   3.262
 4901SOL    HW115602   0.285   6.618   3.173
 4901SOL    HW215603   0.279   6.518   3.302
 4902SOL     OW15604   3.456   4.793   1.649
 4902SOL    HW115605   3.392   4.749   1.586
 4902SOL    HW215606   3.491   4.724   1.713
 4903SOL     OW15607   5.546   6.002   5.524
 4903SOL    HW115608   5.465   5.981   5.579
 4903SOL    HW215609   5.622   5.945   5.555
 4904SOL     OW15610   3.025   6.295   3.187
 4904SOL    HW115611   3.042   6.269   3.092
 4904SOL    HW215612   2.941   6.349   3.192
 4905SOL     OW15613   6.249   3.441   3.284
 4905SOL    HW115614   6.154   3.440   3.315
 4905SOL    HW215615   6.308   3.471   3.360
 4906SOL     OW15616   5.106   1.006   1.392
 4906SOL    HW115617   5.121   1.018   1.294
 4906SOL    HW215618   5.015   1.039   1.416
 4907SOL     OW15619   2.226   1.779   2.442
 4907SOL    HW115620   2.299   1.770   2.375
 4907SOL    HW215621   2.146   1.820   2.400
 4908SOL     OW15622   3.476   5.292   0.344
 4908SOL    HW115623   3.506   5.341   0.426
 4908SOL    HW215624   3.550   5.293   0.277
 4909SOL     OW15625   5.635   0.356   5.527
 4909SOL    HW115626   5.617   0.453   5.541
 4909SOL    HW215627   5.733   0.340   5.519
 4910SOL     OW15628   5.626   6.818   6.453
 4910SOL    HW115629   5.671   6.877   6.520
 4910SOL    HW215630   5.564   6.874   6.396
 4911SOL     OW15631   1.060   3.004   6.209
 4911SOL    HW115632   1.116   3.016   6.126
 4911SOL    HW215633   1.043   2.907   6.222
 4912SOL     OW15634   2.616   2.438   2.148
 4912SOL    HW115635   2.610   2.384   2.063
 4912SOL    HW215636   2.705   2.425   2.190
 4913SOL     OW15637   2.830   3.539   1.929
 4913SOL    HW115638   2.744   3.551   1.880
 4913SOL    HW215639   2.888   3.620   1.915
 4914SOL     OW15640   1.648   6.185   2.371
 4914SOL    HW115641   1.658   6.248   2.294
 4914SOL    HW215642   1.595   6.229   2.444
 4915SOL     OW15643   2.768   6.079   3.064
 4915SOL    HW115644   2.776   6.175   3.091
 4915SOL    HW215645   2.693   6.037   3.114
 4916SOL     OW15646   1.718   1.714   2.371
 4916SOL    HW115647   1.806   1.675   2.344
 4916SOL    HW215648   1.675   1.654   2.438
 4917SOL     OW15649   2.290   5.288   6.130
 4917SOL    HW115650   2.195   5.268   6.105
 4917SOL    HW215651   2.352   5.238   6.068
 4918SOL     OW15652   2.026   0.208   3.829
 4918SOL    HW115653   2.027   0.144   3.752
 4918SOL    HW215654   2.115   0.254   3.835
 4919SOL     OW15655   2.499   3.164   1.618
 4919SOL    HW115656   2.591   3.137   1.588
 4919SOL    HW215657   2.494   3.264   1.626
 4920SOL     OW15658   4.190   0.934   0.359
 4920SOL    HW115659   4.249   1.008   0.392
 4920SOL    HW215660   4.096   0.952   0.386
 4921SOL     OW15661   0.922   4.491   1.801
 4921SOL    HW115662   0.964   4.573   1.761
 4921SOL    HW215663   0.928   4.495   1.900
 4922SOL     OW15664   0.937   2.778   5.789
 4922SOL    HW115665   0.872   2.850   5.766
 4922SOL    HW215666   0.974   2.737   5.706
 4923SOL     OW15667   2.877   2.367   0.422
 4923SOL    HW115668   2.842   2.355   0.515
 4923SOL    HW215669   2.801   2.384   0.360
 4924SOL     OW15670   6.953   3.982   3.979
 4924SOL    HW115671   6.933   3.884   3.980
 4924SOL    HW215672   6.872   4.032   4.011
 4925SOL     OW15673   4.402   5.558   6.537
 4925SOL    HW115674   4.341   5.558   6.458
 4925SOL    HW215675   4.434   5.465   6.555
 4926SOL     OW15676   4.124   2.814   0.819
 4926SOL    HW115677   4.057   2.875   0.862
 4926SOL    HW215678   4.216   2.848   0.838
 4927SOL     OW15679   3.804   4.078   2.670
 4927SOL    HW115680   3.756   4.078   2.758
 4927SOL    HW215681   3.744   4.116   2.600
 4928SOL     OW15682   0.685   6.592   1.064
 4928SOL    HW115683   0.758   6.526   1.048
 4928SOL    HW215684   0.611   6.576   0.998
 4929SOL     OW15685   0.717   5.303   4.522
 4929SOL    HW115686   0.716   5.216   4.474
 4929SOL    HW215687   0.663   5.296   4.606
 4930SOL     OW15688   0.417   2.631   0.654
 4930SOL    HW115689   0.490   2.592   0.711
 4930SOL    HW215690   0.457   2.695   0.588
 4931SOL     OW15691   6.598   6.746   1.317
 4931SOL    HW115692   6.517   6.777   1.368
 4931SOL    HW215693   6.623   6.815   1.249
 4932SOL     OW15694   4.096   2.095   1.053
 4932SOL    HW115695   4.047   2.103   0.966
 4932SOL    HW215696   4.033   2.114   1.129
 4933SOL     OW15697   2.828   0.452   4.994
 4933SOL    HW115698   2.910   0.489   5.037
 4933SOL    HW215699   2.834   0.352   4.990
 4934SOL     OW15700   1.851   5.764   5.117
 4934SOL    HW115701   1.929   5.793   5.173
 4934SOL    HW215702   1.783   5.720   5.176
 4935SOL     OW15703   1.529   1.168   0.395
 4935SOL    HW115704   1.532   1.073   0.425
 4935SOL    HW215705   1.590   1.181   0.317
 4936SOL     OW15706   4.713   6.088   1.203
 4936SOL    HW115707   4.757   6.048   1.283
 4936SOL    HW215708   4.783   6.112   1.135
 4937SOL     OW15709   1.212   2.752   5.127
 4937SOL    HW115710   1.290   2.749   5.190
 4937SOL    HW215711   1.224   2.828   5.063
 4938SOL     OW15712   3.609   4.868   1.431
 4938SOL    HW115713   3.698   4.886   1.474
 4938SOL    HW215714   3.542   4.849   1.503
 4939SOL     OW15715   1.022   1.481   1.503
 4939SOL    HW115716   0.958   1.496   1.579
 4939SOL    HW215717   1.107   1.443   1.539
 4940SOL     OW15718   0.413   1.748   5.503
 4940SOL    HW115719   0.491   1.688   5.521
 4940SOL    HW215720   0.330   1.692   5.494
 4941SOL     OW15721   3.979   2.825   5.269
 4941SOL    HW115722   4.020   2.792   5.355
 4941SOL    HW215723   4.008   2.766   5.194
 4942SOL     OW15724   0.513   1.477   3.249
 4942SOL    HW115725   0.491   1.567   3.211
 4942SOL    HW215726   0.603   1.449   3.217
 4943SOL     OW15727   5.552   2.433   6.906
 4943SOL    HW115728   5.551   2.517   6.959
 4943SOL    HW215729   5.487   2.368   6.946
 4944SOL     OW15730   0.985   5.302   6.598
 4944SOL    HW115731   1.014   5.387   6.554
 4944SOL    HW215732   0.954   5.321   6.691
 4945SOL     OW15733   2.477   0.345   5.349
 4945SOL    HW115734   2.451   0.420   5.410
 4945SOL    HW215735   2.532   0.381   5.273
 4946SOL     OW15736   2.643   5.376   0.063
 4946SOL    HW115737   2.694   5.370   6.992
 4946SOL    HW215738   2.651   5.291   0.114
 4947SOL     OW15739   1.243   0.626   0.971
 4947SOL    HW115740   1.194   0.570   1.037
 4947SOL    HW215741   1.272   0.570   0.894
 4948SOL     OW15742   1.883   2.080   2.015
 4948SOL    HW115743   1.897   2.054   2.111
 4948SOL    HW215744   1.944   2.027   1.957
 4949SOL     OW15745   6.844   4.227   6.197
 4949SOL    HW115746   6.795   4.314   6.211
 4949SOL    HW215747   6.899   4.232   6.114
 4950SOL     OW15748   3.488   4.481   5.669
 4950SOL    HW115749   3.434   4.481   5.585
 4950SOL    HW215750   3.575   4.435   5.654
 4951SOL     OW15751   4.813   5.642   3.253
 4951SOL    HW115752   4.816   5.741   3.265
 4951SOL    HW215753   4.736   5.618   3.194
 4952SOL     OW15754   0.356   0.554   6.318
 4952SOL    HW115755   0.305   0.472   6.290
 4952SOL    HW215756   0.309   0.597   6.395
 4953SOL     OW15757   1.822   2.443   4.978
 4953SOL    HW115758   1.736   2.478   5.014
 4953SOL    HW215759   1.806   2.354   4.935
 4954SOL     OW15760   3.026   3.958   4.712
 4954SOL    HW115761   2.990   4.016   4.785
 4954SOL    HW215762   2.998   3.863   4.727
 4955SOL     OW15763   4.159   5.865   6.015
 4955SOL    HW115764   4.222   5.807   5.964
 4955SOL    HW215765   4.066   5.829   6.005
 4956SOL     OW15766   3.299   0.245   4.776
 4956SOL    HW115767   3.342   0.306   4.710
 4956SOL    HW215768   3.307   0.283   4.868
 4957SOL     OW15769   5.870   4.661   0.000
 4957SOL    HW115770   5.888   4.645   0.097
 4957SOL    HW215771   5.778   4.629   6.991
 4958SOL     OW15772   3.905   5.703   0.502
 4958SOL    HW115773   3.861   5.737   0.419
 4958SOL    HW215774   3.996   5.668   0.479
 4959SOL     OW15775   0.381   2.427   3.178
 4959SOL    HW115776   0.408   2.332   3.190
 4959SOL    HW215777   0.300   2.432   3.119
 4960SOL     OW15778   5.014   4.732   3.947
 4960SOL    HW115779   4.917   4.710   3.950
 4960SOL    HW215780   5.038   4.786   4.028
 4961SOL     OW15781   3.223   2.186   1.468
 4961SOL    HW115782   3.196   2.272   1.510
 4961SOL    HW215783   3.205   2.111   1.531
 4962SOL     OW15784   1.077   3.511   0.275
 4962SOL    HW115785   1.155   3.523   0.337
 4962SOL    HW215786   1.066   3.414   0.254
 4963SOL     OW15787   0.868   3.213   6.055
 4963SOL    HW115788   0.811   3.290   6.086
 4963SOL    HW215789   0.962   3.244   6.043
 4964SOL     OW15790   2.637   6.386   4.485
 4964SOL    HW115791   2.544   6.371   4.519
 4964SOL    HW215792   2.688   6.440   4.552
 4965SOL     OW15793   1.288   6.108   2.841
 4965SOL    HW115794   1.327   6.178   2.901
 4965SOL    HW215795   1.222   6.053   2.892
 4966SOL     OW15796   3.135   6.177   3.989
 4966SOL    HW115797   3.083   6.186   3.904
 4966SOL    HW215798   3.091   6.232   4.060
 4967SOL     OW15799   4.296   4.705   4.806
 4967SOL    HW115800   4.321   4.628   4.865
 4967SOL    HW215801   4.206   4.740   4.832
 4968SOL     OW15802   6.957   2.487   3.250
 4968SOL    HW115803   0.018   2.465   3.187
 4968SOL    HW215804   6.990   2.552   3.319
 4969SOL     OW15805   0.050   5.792   3.969
 4969SOL    HW115806   6.978   5.798   4.020
 4969SOL    HW215807   0.126   5.780   4.032
 4970SOL     OW15808   1.763   1.706   0.989
 4970SOL    HW115809   1.820   1.649   1.048
 4970SOL    HW215810   1.696   1.649   0.941
 4971SOL     OW15811   0.102   5.910   2.365
 4971SOL    HW115812   0.168   5.837   2.386
 4971SOL    HW215813   0.067   5.948   2.450
 4972SOL     OW15814   0.516   4.490   0.955
 4972SOL    HW115815   0.586   4.526   0.893
 4972SOL    HW215816   0.537   4.520   1.049
 4973SOL     OW15817   6.160   1.337   0.996
 4973SOL    HW115818   6.150   1.271   1.070
 4973SOL    HW215819   6.245   1.389   1.008
 4974SOL     OW15820   3.132   6.579   4.879
 4974SOL    HW115821   3.129   6.621   4.970
 4974SOL    HW215822   3.191   6.633   4.820
 4975SOL     OW15823   5.172   4.888   0.900
 4975SOL    HW115824   5.234   4.960   0.932
 4975SOL    HW215825   5.187   4.805   0.954
 4976SOL     OW15826   1.443   6.498   3.439
 4976SOL    HW115827   1.458   6.587   3.394
 4976SOL    HW215828   1.345   6.484   3.452
 4977SOL     OW15829   1.338   3.800   5.849
 4977SOL    HW115830   1.427   3.818   5.807
 4977SOL    HW215831   1.265   3.825   5.785
 4978SOL     OW15832   5.868   4.813   4.611
 4978SOL    HW115833   5.949   4.754   4.607
 4978SOL    HW215834   5.832   4.814   4.705
 4979SOL     OW15835   2.256   6.813   6.108
 4979SOL    HW115836   2.280   6.730   6.057
 4979SOL    HW215837   2.224   6.787   6.200
 4980SOL     OW15838   5.482   3.154   3.982
 4980SOL    HW115839   5.451   3.234   3.930
 4980SOL    HW215840   5.434   3.072   3.949
 4981SOL     OW15841   2.960   4.779   2.753
 4981SOL    HW115842   2.935   4.770   2.849
 4981SOL    HW215843   3.039   4.840   2.745
 4982SOL     OW15844   3.655   2.407   5.839
 4982SOL    HW115845   3.613   2.396   5.749
 4982SOL    HW215846   3.675   2.317   5.878
 4983SOL     OW15847   5.964   4.958   3.012
 4983SOL    HW115848   5.961   4.939   2.914
 4983SOL    HW215849   5.940   5.054   3.028
 4984SOL     OW15850   4.864   3.681   3.587
 4984SOL    HW115851   4.807   3.762   3.573
 4984SOL    HW215852   4.946   3.688   3.531
 4985SOL     OW15853   5.771   0.693   2.182
 4985SOL    HW115854   5.673   0.697   2.167
 4985SOL    HW215855   5.810   0.618   2.129
 4986SOL     OW15856   0.815   4.690   1.504
 4986SOL    HW115857   0.742   4.662   1.567
 4986SOL    HW215858   0.819   4.790   1.499
 4987SOL     OW15859   0.596   1.294   2.377
 4987SOL    HW115860   0.523   1.361   2.390
 4987SOL    HW215861   0.557   1.205   2.355
 4988SOL     OW15862   6.252   5.837   4.015
 4988SOL    HW115863   6.185   5.762   4.016
 4988SOL    HW215864   6.209   5.921   4.046
 4989SOL     OW15865   5.087   0.085   3.727
 4989SOL    HW115866   5.000   0.132   3.718
 4989SOL    HW215867   5.101   0.025   3.648
 4990SOL     OW15868   4.582   2.126   5.337
 4990SOL    HW115869   4.506   2.105   5.275
 4990SOL    HW215870   4.547   2.173   5.418
 4991SOL     OW15871   1.058   4.586   6.200
 4991SOL    HW115872   1.139   4.645   6.208
 4991SOL    HW215873   1.088   4.490   6.197
 4992SOL     OW15874   0.822   3.599   4.105
 4992SOL    HW115875   0.723   3.589   4.097
 4992SOL    HW215876   0.846   3.613   4.201
 4993SOL     OW15877   2.797   6.046   3.811
 4993SOL    HW115878   2.709   6.081   3.780
 4993SOL    HW215879   2.865   6.119   3.810
 4994SOL     OW15880   3.527   5.179   5.567
 4994SOL    HW115881   3.461   5.213   5.500
 4994SOL    HW215882   3.620   5.191   5.532
 4995SOL     OW15883   6.992   0.729   5.980
 4995SOL    HW115884   6.984   0.754   6.077
 4995SOL    HW215885   0.074   0.727   5.954
 4996SOL     OW15886   0.393   1.214   4.147
 4996SOL    HW115887   0.305   1.261   4.138
 4996SOL    HW215888   0.401   1.174   4.238
 4997SOL     OW15889   3.902   1.678   1.009
 4997SOL    HW115890   3.832   1.671   1.081
 4997SOL    HW215891   3.991   1.654   1.047
 4998SOL     OW15892   0.827   3.634   3.325
 4998SOL    HW115893   0.729   3.656   3.326
 4998SOL    HW215894   0.870   3.672   3.407
 4999SOL     OW15895   0.891   2.807   4.427
 4999SOL    HW115896   0.813   2.749   4.403
 4999SOL    HW215897   0.957   2.807   4.351
 5000SOL     OW15898   3.134   5.873   2.569
 5000SOL    HW115899   3.094   5.782   2.567
 5000SOL    HW215900   3.225   5.869   2.609
 5001SOL     OW15901   0.685   6.430   3.445
 5001SOL    HW115902   0.654   6.450   3.538
 5001SOL    HW215903   0.775   6.469   3.431
 5002SOL     OW15904   1.709   4.371   3.995
 5002SOL    HW115905   1.619   4.329   3.984
 5002SOL    HW215906   1.713   4.457   3.945
 5003SOL     OW15907   4.194   0.651   3.180
 5003SOL    HW115908   4.096   0.631   3.189
 5003SOL    HW215909   4.218   0.728   3.239
 5004SOL     OW15910   3.256   5.166   0.061
 5004SOL    HW115911   3.216   5.170   0.152
 5004SOL    HW215912   3.186   5.140   7.009
 5005SOL     OW15913   2.827   2.748   6.984
 5005SOL    HW115914   2.806   2.711   6.894
 5005SOL    HW215915   2.742   2.766   0.020
 5006SOL     OW15916   5.012   1.969   1.746
 5006SOL    HW115917   4.913   1.962   1.756
 5006SOL    HW215918   5.054   1.977   1.836
 5007SOL     OW15919   5.852   6.406   2.035
 5007SOL    HW115920   5.865   6.382   1.939
 5007SOL    HW215921   5.798   6.335   2.080
 5008SOL     OW15922   5.541   0.390   2.399
 5008SOL    HW115923   5.448   0.379   2.365
 5008SOL    HW215924   5.603   0.336   2.342
 5009SOL     OW15925   6.700   2.299   0.451
 5009SOL    HW115926   6.640   2.351   0.390
 5009SOL    HW215927   6.785   2.349   0.465
 5010SOL     OW15928   3.806   3.612   1.356
 5010SOL    HW115929   3.730   3.677   1.369
 5010SOL    HW215930   3.856   3.636   1.272
 5011SOL     OW15931   1.853   2.825   6.452
 5011SOL    HW115932   1.761   2.842   6.418
 5011SOL    HW215933   1.854   2.740   6.505
 5012SOL     OW15934   6.260   1.734   6.368
 5012SOL    HW115935   6.250   1.669   6.444
 5012SOL    HW215936   6.208   1.817   6.389
 5013SOL     OW15937   5.904   6.769   5.891
 5013SOL    HW115938   5.830   6.791   5.953
 5013SOL    HW215939   5.992   6.786   5.936
 5014SOL     OW15940   6.202   3.259   1.901
 5014SOL    HW115941   6.213   3.327   1.829
 5014SOL    HW215942   6.175   3.172   1.861
 5015SOL     OW15943   5.627   6.759   3.980
 5015SOL    HW115944   5.659   6.805   3.897
 5015SOL    HW215945   5.703   6.706   4.020
 5016SOL     OW15946   1.886   3.262   5.494
 5016SOL    HW115947   1.953   3.187   5.496
 5016SOL    HW215948   1.880   3.298   5.401
 5017SOL     OW15949   0.671   3.319   2.283
 5017SOL    HW115950   0.602   3.268   2.334
 5017SOL    HW215951   0.664   3.416   2.304
 5018SOL     OW15952   1.288   0.248   0.224
 5018SOL    HW115953   1.291   0.167   0.166
 5018SOL    HW215954   1.381   0.271   0.254
 5019SOL     OW15955   1.239   5.173   5.024
 5019SOL    HW115956   1.259   5.076   5.010
 5019SOL    HW215957   1.262   5.224   4.941
 5020SOL     OW15958   2.528   0.290   4.821
 5020SOL    HW115959   2.560   0.313   4.913
 5020SOL    HW215960   2.481   0.202   4.824
 5021SOL     OW15961   2.092   0.944   0.587
 5021SOL    HW115962   2.112   0.850   0.559
 5021SOL    HW215963   2.108   0.954   0.685
 5022SOL     OW15964   6.739   2.935   1.628
 5022SOL    HW115965   6.810   2.985   1.677
 5022SOL    HW215966   6.682   2.884   1.693
 5023SOL     OW15967   6.819   4.194   2.432
 5023SOL    HW115968   6.739   4.196   2.492
 5023SOL    HW215969   6.873   4.277   2.446
 5024SOL     OW15970   4.429   3.777   1.290
 5024SOL    HW115971   4.349   3.717   1.286
 5024SOL    HW215972   4.424   3.835   1.371
 5025SOL     OW15973   4.493   1.357   4.328
 5025SOL    HW115974   4.516   1.299   4.250
 5025SOL    HW215975   4.413   1.412   4.306
 5026SOL     OW15976   4.140   6.694   4.558
 5026SOL    HW115977   4.214   6.666   4.618
 5026SOL    HW215978   4.178   6.733   4.474
 5027SOL     OW15979   5.065   6.385   0.724
 5027SOL    HW115980   5.078   6.371   0.626
 5027SOL    HW215981   5.048   6.482   0.742
 5028SOL     OW15982   6.304   1.730   2.457
 5028SOL    HW115983   6.381   1.680   2.417
 5028SOL    HW215984   6.290   1.816   2.407
 5029SOL     OW15985   6.154   1.814   2.912
 5029SOL    HW115986   6.236   1.843   2.960
 5029SOL    HW215987   6.174   1.802   2.814
 5030SOL     OW15988   0.127   4.085   6.668
 5030SOL    HW115989   0.048   4.056   6.614
 5030SOL    HW215990   0.156   4.010   6.728
 5031SOL     OW15991   6.500   6.960   6.046
 5031SOL    HW115992   6.568   6.892   6.074
 5031SOL    HW215993   6.480   0.006   6.124
 5032SOL     OW15994   2.737   3.299   5.344
 5032SOL    HW115995   2.807   3.350   5.394
 5032SOL    HW215996   2.654   3.355   5.338
 5033SOL     OW15997   2.191   0.462   6.673
 5033SOL    HW115998   2.126   0.421   6.737
 5033SOL    HW215999   2.171   0.559   6.662
 5034SOL     OW16000   4.707   6.492   4.607
 5034SOL    HW116001   4.627   6.552   4.617
 5034SOL    HW216002   4.706   6.449   4.517
 5035SOL     OW16003   2.147   3.628   3.930
 5035SOL    HW116004   2.070   3.592   3.876
 5035SOL    HW216005   2.204   3.685   3.872
 5036SOL     OW16006   0.249   2.453   5.255
 5036SOL    HW116007   0.162   2.425   5.214
 5036SOL    HW216008   0.317   2.464   5.182
 5037SOL     OW16009   4.433   3.910   1.531
 5037SOL    HW116010   4.402   3.978   1.597
 5037SOL    HW216011   4.468   3.830   1.580
 5038SOL     OW16012   4.056   3.650   3.925
 5038SOL    HW116013   4.103   3.629   4.011
 5038SOL    HW216014   3.957   3.659   3.942
 5039SOL     OW16015   1.339   3.542   6.714
 5039SOL    HW116016   1.300   3.585   6.632
 5039SOL    HW216017   1.299   3.584   6.795
 5040SOL     OW16018   0.162   0.742   5.740
 5040SOL    HW116019   0.097   0.693   5.683
 5040SOL    HW216020   0.251   0.697   5.736
 5041SOL     OW16021   6.898   3.074   1.858
 5041SOL    HW116022   6.860   3.076   1.950
 5041SOL    HW216023   6.910   3.168   1.825
 5042SOL     OW16024   0.845   2.441   6.168
 5042SOL    HW116025   0.827   2.344   6.184
 5042SOL    HW216026   0.772   2.496   6.209
 5043SOL     OW16027   4.135   6.337   1.519
 5043SOL    HW116028   4.199   6.402   1.478
 5043SOL    HW216029   4.103   6.273   1.450
 5044SOL     OW16030   6.579   4.609   0.515
 5044SOL    HW116031   6.523   4.526   0.515
 5044SOL    HW216032   6.628   4.616   0.601
 5045SOL     OW16033   6.105   3.342   6.582
 5045SOL    HW116034   6.182   3.392   6.541
 5045SOL    HW216035   6.110   3.349   6.682
 5046SOL     OW16036   3.500   3.179   2.865
 5046SOL    HW116037   3.505   3.132   2.953
 5046SOL    HW216038   3.472   3.114   2.794
 5047SOL     OW16039   0.821   3.915   3.480
 5047SOL    HW116040   0.841   3.984   3.550
 5047SOL    HW216041   0.838   3.824   3.518
 5048SOL     OW16042   1.843   0.981   5.767
 5048SOL    HW116043   1.798   1.030   5.692
 5048SOL    HW216044   1.874   1.047   5.835
 5049SOL     OW16045   4.966   1.532   6.508
 5049SOL    HW116046   4.925   1.519   6.418
 5049SOL    HW216047   4.931   1.463   6.572
 5050SOL     OW16048   1.579   0.444   0.655
 5050SOL    HW116049   1.632   0.502   0.716
 5050SOL    HW216050   1.640   0.402   0.587
 5051SOL     OW16051   4.674   5.435   1.084
 5051SOL    HW116052   4.613   5.494   1.136
 5051SOL    HW216053   4.706   5.360   1.142
 5052SOL     OW16054   2.451   1.270   4.882
 5052SOL    HW116055   2.372   1.331   4.873
 5052SOL    HW216056   2.432   1.200   4.950
 5053SOL     OW16057   0.150   0.106   1.457
 5053SOL    HW116058   0.129   0.050   1.377
 5053SOL    HW216059   0.237   0.154   1.443
 5054SOL     OW16060   3.766   4.935   4.175
 5054SOL    HW116061   3.693   4.925   4.108
 5054SOL    HW216062   3.730   4.978   4.258
 5055SOL     OW16063   6.953   3.271   6.893
 5055SOL    HW116064   7.003   3.273   6.980
 5055SOL    HW216065   7.011   3.232   6.822
 5056SOL     OW16066   5.490   4.267   4.627
 5056SOL    HW116067   5.576   4.317   4.638
 5056SOL    HW216068   5.488   4.225   4.536
 5057SOL     OW16069   0.719   5.999   1.948
 5057SOL    HW116070   0.777   5.928   1.989
 5057SOL    HW216071   0.763   6.034   1.865
 5058SOL     OW16072   2.858   5.364   5.419
 5058SOL    HW116073   2.891   5.377   5.326
 5058SOL    HW216074   2.927   5.316   5.473
 5059SOL     OW16075   0.048   0.331   2.122
 5059SOL    HW116076   0.130   0.280   2.147
 5059SOL    HW216077   0.001   0.284   2.047
 5060SOL     OW16078   6.624   1.845   5.540
 5060SOL    HW116079   6.670   1.921   5.585
 5060SOL    HW216080   6.601   1.871   5.446
 5061SOL     OW16081   5.575   4.241   0.231
 5061SOL    HW116082   5.498   4.239   0.168
 5061SOL    HW216083   5.541   4.239   0.325
 5062SOL     OW16084   0.222   0.430   1.038
 5062SOL    HW116085   0.176   0.432   1.127
 5062SOL    HW216086   0.319   0.411   1.051
 5063SOL     OW16087   1.447   6.409   1.227
 5063SOL    HW116088   1.503   6.338   1.185
 5063SOL    HW216089   1.360   6.370   1.258
 5064SOL     OW16090   5.044   3.224   0.155
 5064SOL    HW116091   5.063   3.165   0.077
 5064SOL    HW216092   5.112   3.297   0.159
 5065SOL     OW16093   2.283   5.988   5.416
 5065SOL    HW116094   2.330   6.064   5.370
 5065SOL    HW216095   2.346   5.948   5.483
 5066SOL     OW16096   4.917   5.044   1.131
 5066SOL    HW116097   4.924   4.945   1.122
 5066SOL    HW216098   4.964   5.074   1.214
 5067SOL     OW16099   4.728   1.205   6.888
 5067SOL    HW116100   4.699   1.231   6.980
 5067SOL    HW216101   4.797   1.132   6.894
 5068SOL     OW16102   2.794   5.161   1.858
 5068SOL    HW116103   2.797   5.064   1.832
 5068SOL    HW216104   2.860   5.212   1.804
 5069SOL     OW16105   0.663   4.997   3.332
 5069SOL    HW116106   0.604   4.948   3.395
 5069SOL    HW216107   0.742   5.033   3.381
 5070SOL     OW16108   4.850   3.251   4.384
 5070SOL    HW116109   4.855   3.341   4.428
 5070SOL    HW216110   4.825   3.182   4.452
 5071SOL     OW16111   4.236   0.875   6.624
 5071SOL    HW116112   4.166   0.942   6.648
 5071SOL    HW216113   4.256   0.882   6.526
 5072SOL     OW16114   1.270   4.266   1.167
 5072SOL    HW116115   1.317   4.338   1.116
 5072SOL    HW216116   1.220   4.207   1.104
 5073SOL     OW16117   4.368   1.947   3.712
 5073SOL    HW116118   4.353   2.031   3.659
 5073SOL    HW216119   4.398   1.971   3.804
 5074SOL     OW16120   3.324   4.113   5.762
 5074SOL    HW116121   3.225   4.114   5.752
 5074SOL    HW216122   3.366   4.157   5.682
 5075SOL     OW16123   0.148   5.781   4.362
 5075SOL    HW116124   0.177   5.697   4.407
 5075SOL    HW216125   0.059   5.809   4.397
 5076SOL     OW16126   3.315   0.220   1.247
 5076SOL    HW116127   3.339   0.247   1.154
 5076SOL    HW216128   3.221   0.248   1.266
 5077SOL     OW16129   0.391   2.262   2.054
 5077SOL    HW116130   0.308   2.312   2.030
 5077SOL    HW216131   0.371   2.165   2.059
 5078SOL     OW16132   1.263   0.944   3.896
 5078SOL    HW116133   1.319   0.913   3.819
 5078SOL    HW216134   1.167   0.921   3.879
 5079SOL     OW16135   4.092   4.810   5.134
 5079SOL    HW116136   4.067   4.807   5.037
 5079SOL    HW216137   4.050   4.891   5.176
 5080SOL     OW16138   5.908   6.519   6.070
 5080SOL    HW116139   5.924   6.440   6.129
 5080SOL    HW216140   5.934   6.496   5.976
 5081SOL     OW16141   3.215   3.481   3.247
 5081SOL    HW116142   3.196   3.414   3.319
 5081SOL    HW216143   3.238   3.569   3.289
 5082SOL     OW16144   6.308   6.548   4.941
 5082SOL    HW116145   6.305   6.511   5.034
 5082SOL    HW216146   6.220   6.592   4.920
 5083SOL     OW16147   1.406   6.114   1.719
 5083SOL    HW116148   1.315   6.114   1.759
 5083SOL    HW216149   1.411   6.184   1.647
 5084SOL     OW16150   2.380   5.875   3.148
 5084SOL    HW116151   2.446   5.934   3.194
 5084SOL    HW216152   2.345   5.920   3.066
 5085SOL     OW16153   6.530   3.059   5.776
 5085SOL    HW116154   6.518   3.038   5.873
 5085SOL    HW216155   6.443   3.091   5.738
 5086SOL     OW16156   6.488   5.225   3.525
 5086SOL    HW116157   6.538   5.240   3.610
 5086SOL    HW216158   6.517   5.291   3.456
 5087SOL     OW16159   0.370   5.923   5.306
 5087SOL    HW116160   0.359   5.882   5.396
 5087SOL    HW216161   0.410   5.856   5.243
 5088SOL     OW16162   5.932   0.439   6.993
 5088SOL    HW116163   5.968   0.516   0.031
 5088SOL    HW216164   5.924   0.359   0.039
 5089SOL     OW16165   5.113   2.888   3.381
 5089SOL    HW116166   5.070   2.834   3.453
 5089SOL    HW216167   5.107   2.985   3.404
 5090SOL     OW16168   1.470   4.769   0.849
 5090SOL    HW116169   1.460   4.713   0.767
 5090SOL    HW216170   1.380   4.791   0.886
 5091SOL     OW16171   1.556   5.921   2.410
 5091SOL    HW116172   1.601   6.006   2.384
 5091SOL    HW216173   1.492   5.938   2.485
 5092SOL     OW16174   3.599   2.646   1.699
 5092SOL    HW116175   3.535   2.718   1.674
 5092SOL    HW216176   3.610   2.643   1.798
 5093SOL     OW16177   0.634   2.139   1.239
 5093SOL    HW116178   0.592   2.136   1.149
 5093SOL    HW216179   0.733   2.151   1.230
 5094SOL     OW16180   6.665   0.626   6.622
 5094SOL    HW116181   6.680   0.628   6.720
 5094SOL    HW216182   6.632   0.535   6.595
 5095SOL     OW16183   3.109   0.066   5.152
 5095SOL    HW116184   3.208   0.064   5.165
 5095SOL    HW216185   3.088   0.043   5.056
 5096SOL     OW16186   4.239   5.171   2.089
 5096SOL    HW116187   4.265   5.245   2.028
 5096SOL    HW216188   4.142   5.179   2.112
 5097SOL     OW16189   0.552   0.610   6.694
 5097SOL    HW116190   0.624   0.662   6.740
 5097SOL    HW216191   0.502   0.671   6.632
 5098SOL     OW16192   6.946   2.653   2.230
 5098SOL    HW116193   6.932   2.568   2.178
 5098SOL    HW216194   7.011   2.636   2.304
 5099SOL     OW16195   0.913   6.521   4.453
 5099SOL    HW116196   1.001   6.554   4.487
 5099SOL    HW216197   0.859   6.483   4.528
 5100SOL     OW16198   5.068   6.143   6.442
 5100SOL    HW116199   5.145   6.081   6.425
 5100SOL    HW216200   4.986   6.089   6.460
 5101SOL     OW16201   4.454   5.903   0.466
 5101SOL    HW116202   4.532   5.941   0.417
 5101SOL    HW216203   4.405   5.840   0.406
 5102SOL     OW16204   3.472   6.032   4.990
 5102SOL    HW116205   3.408   6.032   5.066
 5102SOL    HW216206   3.428   5.992   4.909
 5103SOL     OW16207   1.244   0.341   4.659
 5103SOL    HW116208   1.227   0.327   4.561
 5103SOL    HW216209   1.329   0.296   4.685
 5104SOL     OW16210   1.362   6.666   1.010
 5104SOL    HW116211   1.432   6.731   0.981
 5104SOL    HW216212   1.403   6.598   1.071
 5105SOL     OW16213   2.148   3.167   6.476
 5105SOL    HW116214   2.131   3.226   6.398
 5105SOL    HW216215   2.182   3.222   6.553
 5106SOL     OW16216   3.468   0.693   2.116
 5106SOL    HW116217   3.395   0.627   2.095
 5106SOL    HW216218   3.428   0.784   2.128
 5107SOL     OW16219   1.205   0.212   5.546
 5107SOL    HW116220   1.128   0.244   5.490
 5107SOL    HW216221   1.183   0.122   5.584
 5108SOL     OW16222   3.072   3.890   3.945
 5108SOL    HW116223   3.041   3.863   3.854
 5108SOL    HW216224   3.167   3.862   3.957
 5109SOL     OW16225   0.066   1.519   0.952
 5109SOL    HW116226   0.099   1.610   0.926
 5109SOL    HW216227   0.009   1.526   1.034
 5110SOL     OW16228   1.934   6.018   5.526
 5110SOL    HW116229   1.950   5.949   5.456
 5110SOL    HW216230   1.990   6.099   5.507
 5111SOL     OW16231   1.689   1.214   0.155
 5111SOL    HW116232   1.729   1.131   0.116
 5111SOL    HW216233   1.674   1.280   0.082
 5112SOL     OW16234   0.357   6.800   3.576
 5112SOL    HW116235   0.334   6.725   3.638
 5112SOL    HW216236   0.287   6.807   3.505
 5113SOL     OW16237   0.717   0.135   6.732
 5113SOL    HW116238   0.750   0.081   6.809
 5113SOL    HW216239   0.740   0.231   6.746
 5114SOL     OW16240   3.736   4.855   0.025
 5114SOL    HW116241   3.643   4.888   0.008
 5114SOL    HW216242   3.795   4.882   6.963
 5115SOL     OW16243   1.990   3.984   5.183
 5115SOL    HW116244   1.997   4.021   5.091
 5115SOL    HW216245   2.076   3.942   5.210
 5116SOL     OW16246   7.012   3.370   1.550
 5116SOL    HW116247   0.014   3.282   1.505
 5116SOL    HW216248   0.062   3.438   1.513
 5117SOL     OW16249   2.583   4.501   3.821
 5117SOL    HW116250   2.526   4.433   3.776
 5117SOL    HW216251   2.565   4.500   3.920
 5118SOL     OW16252   4.425   6.922   1.513
 5118SOL    HW116253   4.431   6.964   1.423
 5118SOL    HW216254   4.467   6.983   1.581
 5119SOL     OW16255   6.548   0.055   2.726
 5119SOL    HW116256   6.490   6.990   2.745
 5119SOL    HW216257   6.590   0.087   2.811
 5120SOL     OW16258   4.500   1.060   2.885
 5120SOL    HW116259   4.415   1.018   2.917
 5120SOL    HW216260   4.479   1.125   2.812
 5121SOL     OW16261   1.168   3.793   4.733
 5121SOL    HW116262   1.162   3.749   4.823
 5121SOL    HW216263   1.255   3.770   4.690
 5122SOL     OW16264   2.231   5.773   3.474
 5122SOL    HW116265   2.166   5.811   3.540
 5122SOL    HW216266   2.182   5.746   3.391
 5123SOL     OW16267   6.025   4.344   1.820
 5123SOL    HW116268   6.089   4.272   1.791
 5123SOL    HW216269   5.931   4.313   1.805
 5124SOL     OW16270   2.733   5.926   0.476
 5124SOL    HW116271   2.658   5.869   0.441
 5124SOL    HW216272   2.702   5.975   0.557
 5125SOL     OW16273   6.881   2.493   5.805
 5125SOL    HW116274   6.797   2.521   5.759
 5125SOL    HW216275   6.934   2.573   5.831
 5126SOL     OW16276   4.478   2.826   6.608
 5126SOL    HW116277   4.516   2.918   6.613
 5126SOL    HW216278   4.552   2.759   6.611
 5127SOL     OW16279   5.286   3.173   6.594
 5127SOL    HW116280   5.315   3.234   6.520
 5127SOL    HW216281   5.305   3.216   6.682
 5128SOL     OW16282   0.422   6.967   0.201
 5128SOL    HW116283   0.443   6.999   0.109
 5128SOL    HW216284   0.331   6.925   0.202
 5129SOL     OW16285   4.173   2.210   2.127
 5129SOL    HW116286   4.228   2.135   2.162
 5129SOL    HW216287   4.135   2.262   2.205
 5130SOL     OW16288   1.129   6.720   5.102
 5130SOL    HW116289   1.191   6.724   5.180
 5130SOL    HW216290   1.065   6.644   5.113
 5131SOL     OW16291   3.629   4.892   3.609
 5131SOL    HW116292   3.616   4.899   3.510
 5131SOL    HW216293   3.725   4.867   3.628
 5132SOL     OW16294   3.533   1.344   6.712
 5132SOL    HW116295   3.571   1.384   6.628
 5132SOL    HW216296   3.434   1.347   6.709
 5133SOL     OW16297   4.858   4.630   0.022
 5133SOL    HW116298   4.774   4.681   0.005
 5133SOL    HW216299   4.916   4.633   6.954
 5134SOL     OW16300   5.894   6.006   0.601
 5134SOL    HW116301   5.825   5.957   0.656
 5134SOL    HW216302   5.973   5.946   0.588
 5135SOL     OW16303   0.111   2.572   2.437
 5135SOL    HW116304   0.184   2.529   2.384
 5135SOL    HW216305   0.071   2.505   2.499
 5136SOL     OW16306   1.151   1.477   5.856
 5136SOL    HW116307   1.130   1.485   5.954
 5136SOL    HW216308   1.093   1.407   5.815
 5137SOL     OW16309   5.287   0.455   3.728
 5137SOL    HW116310   5.336   0.385   3.676
 5137SOL    HW216311   5.193   0.462   3.695
 5138SOL     OW16312   2.918   3.225   2.958
 5138SOL    HW116313   2.946   3.140   2.913
 5138SOL    HW216314   2.907   3.297   2.889
 5139SOL     OW16315   3.084   0.451   5.766
 5139SOL    HW116316   3.019   0.467   5.693
 5139SOL    HW216317   3.103   0.537   5.813
 5140SOL     OW16318   3.228   3.291   6.539
 5140SOL    HW116319   3.278   3.280   6.454
 5140SOL    HW216320   3.231   3.206   6.591
 5141SOL     OW16321   6.917   2.785   1.391
 5141SOL    HW116322   6.912   2.740   1.480
 5141SOL    HW216323   6.853   2.862   1.388
 5142SOL     OW16324   0.269   0.186   2.082
 5142SOL    HW116325   0.304   0.105   2.035
 5142SOL    HW216326   0.236   0.252   2.015
 5143SOL     OW16327   6.926   6.298   2.907
 5143SOL    HW116328   6.829   6.271   2.905
 5143SOL    HW216329   6.980   6.223   2.944
 5144SOL     OW16330   2.251   2.919   5.304
 5144SOL    HW116331   2.220   2.849   5.239
 5144SOL    HW216332   2.319   2.978   5.258
 5145SOL     OW16333   2.468   5.759   5.958
 5145SOL    HW116334   2.403   5.834   5.970
 5145SOL    HW216335   2.483   5.743   5.861
 5146SOL     OW16336   5.896   6.442   6.947
 5146SOL    HW116337   5.825   6.441   0.004
 5146SOL    HW216338   5.976   6.391   6.980
 5147SOL     OW16339   4.679   2.300   3.264
 5147SOL    HW116340   4.614   2.374   3.276
 5147SOL    HW216341   4.670   2.234   3.339
 5148SOL     OW16342   0.223   0.640   6.523
 5148SOL    HW116343   0.241   0.623   6.620
 5148SOL    HW216344   0.138   0.594   6.496
 5149SOL     OW16345   4.091   5.648   4.332
 5149SOL    HW116346   4.018   5.589   4.296
 5149SOL    HW216347   4.148   5.681   4.256
 5150SOL     OW16348   6.165   6.951   3.188
 5150SOL    HW116349   6.247   6.914   3.231
 5150SOL    HW216350   6.167   6.932   3.090
 5151SOL     OW16351   6.007   6.009   2.147
 5151SOL    HW116352   6.024   5.966   2.236
 5151SOL    HW216353   6.081   6.073   2.127
 5152SOL     OW16354   2.026   1.822   6.940
 5152SOL    HW116355   2.048   1.814   0.023
 5152SOL    HW216356   2.109   1.846   6.889
 5153SOL     OW16357   1.051   1.983   0.554
 5153SOL    HW116358   1.120   2.055   0.545
 5153SOL    HW216359   1.096   1.896   0.574
 5154SOL     OW16360   0.540   2.945   1.015
 5154SOL    HW116361   0.445   2.917   1.027
 5154SOL    HW216362   0.579   2.968   1.104
 5155SOL     OW16363   1.816   1.649   0.117
 5155SOL    HW116364   1.821   1.712   0.040
 5155SOL    HW216365   1.775   1.563   0.088
 5156SOL     OW16366   6.416   6.284   5.586
 5156SOL    HW116367   6.390   6.239   5.501
 5156SOL    HW216368   6.423   6.382   5.571
 5157SOL     OW16369   3.578   0.245   1.648
 5157SOL    HW116370   3.486   0.280   1.633
 5157SOL    HW216371   3.614   0.208   1.562
 5158SOL     OW16372   1.027   2.231   2.014
 5158SOL    HW116373   0.968   2.248   1.935
 5158SOL    HW216374   1.122   2.248   1.989
 5159SOL     OW16375   6.026   3.416   5.730
 5159SOL    HW116376   6.001   3.319   5.734
 5159SOL    HW216377   5.963   3.464   5.669
 5160SOL     OW16378   6.136   6.850   2.929
 5160SOL    HW116379   6.042   6.815   2.931
 5160SOL    HW216380   6.171   6.846   2.836
 5161SOL     OW16381   1.345   3.141   0.319
 5161SOL    HW116382   1.436   3.174   0.291
 5161SOL    HW216383   1.351   3.045   0.345
 5162SOL     OW16384   7.002   6.633   4.447
 5162SOL    HW116385   6.917   6.613   4.399
 5162SOL    HW216386   0.039   6.703   4.397
 5163SOL     OW16387   3.633   0.262   2.112
 5163SOL    HW116388   3.550   0.272   2.167
 5163SOL    HW216389   3.609   0.225   2.023
 5164SOL     OW16390   2.939   3.587   0.256
 5164SOL    HW116391   3.005   3.633   0.316
 5164SOL    HW216392   2.851   3.579   0.303
 5165SOL     OW16393   1.577   3.895   5.689
 5165SOL    HW116394   1.604   3.969   5.750
 5165SOL    HW216395   1.656   3.862   5.639
 5166SOL     OW16396   0.910   4.321   0.791
 5166SOL    HW116397   0.968   4.243   0.766
 5166SOL    HW216398   0.819   4.288   0.813
 5167SOL     OW16399   5.449   3.439   5.465
 5167SOL    HW116400   5.379   3.374   5.496
 5167SOL    HW216401   5.423   3.531   5.493
 5168SOL     OW16402   4.133   2.285   2.780
 5168SOL    HW116403   4.189   2.342   2.720
 5168SOL    HW216404   4.176   2.279   2.870
 5169SOL     OW16405   4.979   5.832   4.512
 5169SOL    HW116406   4.993   5.881   4.426
 5169SOL    HW216407   4.946   5.896   4.582
 5170SOL     OW16408   1.936   3.568   6.383
 5170SOL    HW116409   1.944   3.556   6.284
 5170SOL    HW216410   1.890   3.655   6.403
 5171SOL     OW16411   1.849   6.223   5.880
 5171SOL    HW116412   1.811   6.240   5.972
 5171SOL    HW216413   1.907   6.142   5.883
 5172SOL     OW16414   5.820   5.546   5.326
 5172SOL    HW116415   5.796   5.495   5.409
 5172SOL    HW216416   5.792   5.642   5.337
 5173SOL     OW16417   4.703   5.596   5.542
 5173SOL    HW116418   4.712   5.678   5.486
 5173SOL    HW216419   4.752   5.521   5.499
 5174SOL     OW16420   2.204   6.731   3.143
 5174SOL    HW116421   2.257   6.679   3.076
 5174SOL    HW216422   2.135   6.671   3.184
 5175SOL     OW16423   2.561   3.091   0.117
 5175SOL    HW116424   2.632   3.054   0.177
 5175SOL    HW216425   2.481   3.032   0.121
 5176SOL     OW16426   6.455   5.866   6.620
 5176SOL    HW116427   6.436   5.819   6.706
 5176SOL    HW216428   6.397   5.947   6.613
 5177SOL     OW16429   6.076   0.025   0.543
 5177SOL    HW116430   6.104   6.944   0.530
 5177SOL    HW216431   6.158   0.082   0.553
 5178SOL     OW16432   0.968   4.174   1.243
 5178SOL    HW116433   0.965   4.079   1.274
 5178SOL    HW216434   1.011   4.231   1.313
 5179SOL     OW16435   4.773   5.908   3.271
 5179SOL    HW116436   4.793   5.963   3.352
 5179SOL    HW216437   4.674   5.891   3.266
 5180SOL     OW16438   1.818   4.715   2.802
 5180SOL    HW116439   1.894   4.780   2.797
 5180SOL    HW216440   1.851   4.623   2.785
 5181SOL     OW16441   6.413   0.848   5.793
 5181SOL    HW116442   6.425   0.751   5.813
 5181SOL    HW216443   6.443   0.868   5.700
 5182SOL     OW16444   2.412   6.266   2.830
 5182SOL    HW116445   2.488   6.218   2.787
 5182SOL    HW216446   2.330   6.259   2.773
 5183SOL     OW16447   4.126   2.176   3.860
 5183SOL    HW116448   4.172   2.234   3.793
 5183SOL    HW216449   4.107   2.230   3.942
 5184SOL     OW16450   1.830   1.259   3.121
 5184SOL    HW116451   1.732   1.278   3.118
 5184SOL    HW216452   1.854   1.224   3.212
 5185SOL     OW16453   6.963   0.203   2.676
 5185SOL    HW116454   6.926   0.111   2.689
 5185SOL    HW216455   6.913   0.250   2.603
 5186SOL     OW16456   6.723   4.040   6.769
 5186SOL    HW116457   6.655   3.988   6.821
 5186SOL    HW216458   6.686   4.060   6.678
 5187SOL     OW16459   1.281   4.763   5.137
 5187SOL    HW116460   1.281   4.818   5.053
 5187SOL    HW216461   1.376   4.738   5.160
 5188SOL     OW16462   5.963   0.526   2.369
 5188SOL    HW116463   5.931   0.478   2.451
 5188SOL    HW216464   6.063   0.522   2.364
 5189SOL     OW16465   4.678   6.354   6.919
 5189SOL    HW116466   4.629   6.433   6.882
 5189SOL    HW216467   4.766   6.384   6.956
 5190SOL     OW16468   1.667   4.797   6.898
 5190SOL    HW116469   1.712   4.754   6.976
 5190SOL    HW216470   1.568   4.782   6.905
 5191SOL     OW16471   2.646   4.644   2.121
 5191SOL    HW116472   2.738   4.625   2.088
 5191SOL    HW216473   2.589   4.677   2.045
 5192SOL     OW16474   1.102   4.859   2.252
 5192SOL    HW116475   1.010   4.883   2.283
 5192SOL    HW216476   1.146   4.798   2.318
 5193SOL     OW16477   5.693   0.895   5.508
 5193SOL    HW116478   5.755   0.911   5.431
 5193SOL    HW216479   5.742   0.910   5.594
 5194SOL     OW16480   4.893   1.343   5.681
 5194SOL    HW116481   4.797   1.327   5.659
 5194SOL    HW216482   4.902   1.429   5.732
 5195SOL     OW16483   0.395   0.670   5.347
 5195SOL    HW116484   0.465   0.600   5.330
 5195SOL    HW216485   0.311   0.626   5.377
 5196SOL     OW16486   5.662   6.816   3.702
 5196SOL    HW116487   5.743   6.766   3.673
 5196SOL    HW216488   5.583   6.785   3.650
 5197SOL     OW16489   1.047   2.370   4.948
 5197SOL    HW116490   1.030   2.465   4.976
 5197SOL    HW216491   0.960   2.327   4.923
 5198SOL     OW16492   5.882   5.216   2.947
 5198SOL    HW116493   5.790   5.250   2.926
 5198SOL    HW216494   5.945   5.293   2.957
 5199SOL     OW16495   0.299   4.827   1.028
 5199SOL    HW116496   0.236   4.816   1.104
 5199SOL    HW216497   0.312   4.925   1.009
 5200SOL     OW16498   6.900   3.715   4.857
 5200SOL    HW116499   6.937   3.622   4.854
 5200SOL    HW216500   6.833   3.727   4.783
 5201SOL     OW16501   0.225   5.371   4.202
 5201SOL    HW116502   0.153   5.359   4.134
 5201SOL    HW216503   0.298   5.428   4.165
 5202SOL     OW16504   0.854   4.517   1.268
 5202SOL    HW116505   0.831   4.421   1.279
 5202SOL    HW216506   0.831   4.567   1.352
 5203SOL     OW16507   0.419   2.693   0.131
 5203SOL    HW116508   0.383   2.684   0.038
 5203SOL    HW216509   0.350   2.659   0.196
 5204SOL     OW16510   4.613   4.541   6.800
 5204SOL    HW116511   4.577   4.621   6.847
 5204SOL    HW216512   4.550   4.515   6.726
 5205SOL     OW16513   1.285   0.146   0.730
 5205SOL    HW116514   1.312   0.087   0.654
 5205SOL    HW216515   1.188   0.170   0.720
 5206SOL     OW16516   0.612   4.367   4.893
 5206SOL    HW116517   0.685   4.411   4.840
 5206SOL    HW216518   0.525   4.411   4.874
 5207SOL     OW16519   1.811   4.551   3.525
 5207SOL    HW116520   1.891   4.534   3.468
 5207SOL    HW216521   1.773   4.640   3.503
 5208SOL     OW16522   4.666   1.109   0.333
 5208SOL    HW116523   4.649   1.017   0.299
 5208SOL    HW216524   4.618   1.122   0.420
 5209SOL     OW16525   5.430   5.665   2.835
 5209SOL    HW116526   5.501   5.714   2.886
 5209SOL    HW216527   5.448   5.673   2.737
 5210SOL     OW16528   4.764   4.141   3.147
 5210SOL    HW116529   4.725   4.167   3.236
 5210SOL    HW216530   4.825   4.063   3.160
 5211SOL     OW16531   3.666   3.894   2.380
 5211SOL    HW116532   3.653   3.817   2.443
 5211SOL    HW216533   3.757   3.932   2.391
 5212SOL     OW16534   0.717   1.066   0.216
 5212SOL    HW116535   0.697   1.160   0.187
 5212SOL    HW216536   0.814   1.046   0.198
 5213SOL     OW16537   4.522   2.484   6.622
 5213SOL    HW116538   4.619   2.464   6.608
 5213SOL    HW216539   4.484   2.528   6.541
 5214SOL     OW16540   5.844   1.633   6.730
 5214SOL    HW116541   5.930   1.680   6.751
 5214SOL    HW216542   5.829   1.560   6.797
 5215SOL     OW16543   5.897   5.090   2.409
 5215SOL    HW116544   5.936   5.144   2.484
 5215SOL    HW216545   5.888   5.148   2.328
 5216SOL     OW16546   4.746   5.687   1.449
 5216SOL    HW116547   4.717   5.782   1.451
 5216SOL    HW216548   4.845   5.682   1.435
 5217SOL     OW16549   3.004   5.056   3.589
 5217SOL    HW116550   2.926   5.003   3.557
 5217SOL    HW216551   3.055   5.003   3.657
 5218SOL     OW16552   1.809   6.587   4.527
 5218SOL    HW116553   1.749   6.628   4.459
 5218SOL    HW216554   1.755   6.562   4.607
 5219SOL     OW16555   2.810   5.795   0.898
 5219SOL    HW116556   2.836   5.757   0.987
 5219SOL    HW216557   2.837   5.891   0.894
 5220SOL     OW16558   0.739   0.027   2.310
 5220SOL    HW116559   0.743   0.062   2.404
 5220SOL    HW216560   0.748   6.941   2.311
 5221SOL     OW16561   4.829   1.696   5.004
 5221SOL    HW116562   4.766   1.765   5.041
 5221SOL    HW216563   4.791   1.660   4.919
 5222SOL     OW16564   0.822   6.664   2.573
 5222SOL    HW116565   0.759   6.646   2.648
 5222SOL    HW216566   0.915   6.675   2.609
 5223SOL     OW16567   5.199   6.910   0.686
 5223SOL    HW116568   5.116   6.945   0.643
 5223SOL    HW216569   5.260   6.874   0.615
 5224SOL     OW16570   5.187   1.249   3.028
 5224SOL    HW116571   5.118   1.286   2.965
 5224SOL    HW216572   5.253   1.321   3.050
 5225SOL     OW16573   6.013   6.453   5.311
 5225SOL    HW116574   5.975   6.479   5.399
 5225SOL    HW216575   5.991   6.357   5.292
 5226SOL     OW16576   2.016   6.330   3.593
 5226SOL    HW116577   2.068   6.245   3.588
 5226SOL    HW216578   1.921   6.310   3.615
 5227SOL     OW16579   5.356   3.807   3.533
 5227SOL    HW116580   5.412   3.884   3.564
 5227SOL    HW216581   5.416   3.734   3.500
 5228SOL     OW16582   5.301   0.288   1.383
 5228SOL    HW116583   5.360   0.365   1.355
 5228SOL    HW216584   5.334   0.204   1.342
 5229SOL     OW16585   1.181   4.247   4.013
 5229SOL    HW116586   1.172   4.278   4.107
 5229SOL    HW216587   1.097   4.200   3.985
 5230SOL     OW16588   1.380   6.338   6.777
 5230SOL    HW116589   1.463   6.393   6.773
 5230SOL    HW216590   1.343   6.339   6.870
 5231SOL     OW16591   3.675   2.866   3.740
 5231SOL    HW116592   3.670   2.795   3.670
 5231SOL    HW216593   3.771   2.884   3.762
 5232SOL     OW16594   5.152   3.068   5.315
 5232SOL    HW116595   5.151   3.168   5.307
 5232SOL    HW216596   5.081   3.030   5.255
 5233SOL     OW16597   0.547   0.861   2.592
 5233SOL    HW116598   0.452   0.891   2.598
 5233SOL    HW216599   0.595   0.886   2.676
 5234SOL     OW16600   4.282   5.929   1.037
 5234SOL    HW116601   4.239   5.895   0.954
 5234SOL    HW216602   4.236   5.890   1.117
 5235SOL     OW16603   1.038   3.675   1.132
 5235SOL    HW116604   1.093   3.689   1.050
 5235SOL    HW216605   0.988   3.588   1.125
 5236SOL     OW16606   5.302   3.153   1.169
 5236SOL    HW116607   5.271   3.130   1.077
 5236SOL    HW216608   5.321   3.070   1.220
 5237SOL     OW16609   2.036   1.722   4.622
 5237SOL    HW116610   2.131   1.730   4.653
 5237SOL    HW216611   2.008   1.807   4.578
 5238SOL     OW16612   1.701   4.064   1.244
 5238SOL    HW116613   1.764   4.076   1.167
 5238SOL    HW216614   1.753   4.063   1.329
 5239SOL     OW16615   3.261   3.004   5.199
 5239SOL    HW116616   3.287   2.920   5.246
 5239SOL    HW216617   3.277   2.995   5.101
 5240SOL     OW16618   2.594   1.878   4.905
 5240SOL    HW116619   2.517   1.817   4.924
 5240SOL    HW216620   2.572   1.971   4.936
 5241SOL     OW16621   2.875   5.675   5.788
 5241SOL    HW116622   2.973   5.660   5.803
 5241SOL    HW216623   2.835   5.719   5.868
 5242SOL     OW16624   4.684   0.936   6.092
 5242SOL    HW116625   4.705   1.022   6.045
 5242SOL    HW216626   4.615   0.953   6.163
 5243SOL     OW16627   0.359   3.917   0.074
 5243SOL    HW116628   0.438   3.882   0.124
 5243SOL    HW216629   0.378   4.009   0.040
 5244SOL     OW16630   5.847   3.857   6.926
 5244SOL    HW116631   5.802   3.924   6.866
 5244SOL    HW216632   5.855   3.770   6.878
 5245SOL     OW16633   4.760   4.135   6.678
 5245SOL    HW116634   4.795   4.226   6.700
 5245SOL    HW216635   4.787   4.070   6.750
 5246SOL     OW16636   0.842   3.655   2.905
 5246SOL    HW116637   0.773   3.661   2.977
 5246SOL    HW216638   0.929   3.627   2.944
 5247SOL     OW16639   0.488   5.185   1.287
 5247SOL    HW116640   0.487   5.086   1.274
 5247SOL    HW216641   0.394   5.220   1.285
 5248SOL     OW16642   4.423   0.532   6.834
 5248SOL    HW116643   4.357   0.580   6.891
 5248SOL    HW216644   4.512   0.532   6.880
 5249SOL     OW16645   1.536   5.455   5.204
 5249SOL    HW116646   1.634   5.434   5.202
 5249SOL    HW216647   1.485   5.377   5.240
 5250SOL     OW16648   0.547   1.500   5.866
 5250SOL    HW116649   0.514   1.591   5.845
 5250SOL    HW216650   0.475   1.433   5.847
 5251SOL     OW16651   0.202   2.922   1.372
 5251SOL    HW116652   0.265   2.894   1.299
 5251SOL    HW216653   0.110   2.888   1.352
 5252SOL     OW16654   4.125   6.059   0.421
 5252SOL    HW116655   4.041   6.094   0.379
 5252SOL    HW216656   4.154   5.975   0.375
 5253SOL     OW16657   5.862   2.720   3.668
 5253SOL    HW116658   5.836   2.812   3.697
 5253SOL    HW216659   5.941   2.725   3.607
 5254SOL     OW16660   4.545   1.172   4.133
 5254SOL    HW116661   4.643   1.176   4.112
 5254SOL    HW216662   4.496   1.130   4.057
 5255SOL     OW16663   3.461   6.575   4.532
 5255SOL    HW116664   3.514   6.491   4.540
 5255SOL    HW216665   3.458   6.622   4.621
 5256SOL     OW16666   5.691   6.686   2.908
 5256SOL    HW116667   5.769   6.724   2.957
 5256SOL    HW216668   5.622   6.655   2.973
 5257SOL     OW16669   3.394   1.435   2.288
 5257SOL    HW116670   3.304   1.440   2.245
 5257SOL    HW216671   3.432   1.528   2.297
 5258SOL     OW16672   5.923   2.316   2.183
 5258SOL    HW116673   5.836   2.292   2.227
 5258SOL    HW216674   5.918   2.293   2.086
 5259SOL     OW16675   5.016   4.458   2.241
 5259SOL    HW116676   5.048   4.434   2.149
 5259SOL    HW216677   4.921   4.430   2.251
 5260SOL     OW16678   5.182   3.272   1.659
 5260SOL    HW116679   5.212   3.188   1.614
 5260SOL    HW216680   5.187   3.348   1.594
 5261SOL     OW16681   2.262   2.540   4.525
 5261SOL    HW116682   2.262   2.530   4.625
 5261SOL    HW216683   2.300   2.629   4.501
 5262SOL     OW16684   2.325   0.576   1.916
 5262SOL    HW116685   2.315   0.652   1.852
 5262SOL    HW216686   2.330   0.611   2.009
 5263SOL     OW16687   0.696   6.691   0.674
 5263SOL    HW116688   0.705   6.600   0.714
 5263SOL    HW216689   0.608   6.698   0.628
 5264SOL     OW16690   0.774   2.085   0.698
 5264SOL    HW116691   0.819   2.171   0.721
 5264SOL    HW216692   0.823   2.009   0.740
 5265SOL     OW16693   5.760   4.799   2.431
 5265SOL    HW116694   5.717   4.873   2.381
 5265SOL    HW216695   5.736   4.806   2.528
 5266SOL     OW16696   1.587   6.806   0.897
 5266SOL    HW116697   1.597   6.905   0.888
 5266SOL    HW216698   1.661   6.770   0.954
 5267SOL     OW16699   4.916   4.247   4.850
 5267SOL    HW116700   4.848   4.270   4.780
 5267SOL    HW216701   4.905   4.151   4.876
 5268SOL     OW16702   5.565   5.049   5.544
 5268SOL    HW116703   5.586   4.970   5.601
 5268SOL    HW216704   5.509   5.021   5.467
 5269SOL     OW16705   1.024   5.260   4.787
 5269SOL    HW116706   0.974   5.185   4.831
 5269SOL    HW216707   1.015   5.343   4.842
 5270SOL     OW16708   6.756   3.036   2.862
 5270SOL    HW116709   6.850   3.056   2.833
 5270SOL    HW216710   6.695   3.042   2.782
 5271SOL     OW16711   5.105   4.384   4.988
 5271SOL    HW116712   5.043   4.346   4.920
 5271SOL    HW216713   5.178   4.436   4.941
 5272SOL     OW16714   1.575   1.319   3.607
 5272SOL    HW116715   1.670   1.321   3.638
 5272SOL    HW216716   1.545   1.412   3.586
 5273SOL     OW16717   0.564   0.778   4.665
 5273SOL    HW116718   0.589   0.849   4.731
 5273SOL    HW216719   0.579   0.812   4.572
 5274SOL     OW16720   6.399   5.379   4.442
 5274SOL    HW116721   6.320   5.318   4.443
 5274SOL    HW216722   6.426   5.395   4.347
 5275SOL     OW16723   2.505   6.653   6.662
 5275SOL    HW116724   2.444   6.704   6.601
 5275SOL    HW216725   2.494   6.555   6.647
 5276SOL     OW16726   6.917   0.614   1.048
 5276SOL    HW116727   6.822   0.628   1.077
 5276SOL    HW216728   6.964   0.557   1.115
 5277SOL     OW16729   0.859   1.673   2.613
 5277SOL    HW116730   0.806   1.588   2.609
 5277SOL    HW216731   0.823   1.730   2.687
 5278SOL     OW16732   0.565   3.955   6.470
 5278SOL    HW116733   0.596   4.018   6.541
 5278SOL    HW216734   0.480   3.989   6.431
 5279SOL     OW16735   2.299   6.033   6.479
 5279SOL    HW116736   2.353   5.971   6.421
 5279SOL    HW216737   2.203   6.030   6.451
 5280SOL     OW16738   4.591   6.517   5.026
 5280SOL    HW116739   4.548   6.427   5.013
 5280SOL    HW216740   4.675   6.521   4.972
 5281SOL     OW16741   2.677   6.922   5.159
 5281SOL    HW116742   2.707   6.949   5.250
 5281SOL    HW216743   2.756   6.890   5.106
 5282SOL     OW16744   1.357   6.724   1.707
 5282SOL    HW116745   1.444   6.760   1.673
 5282SOL    HW216746   1.283   6.753   1.647
 5283SOL     OW16747   1.013   0.739   4.266
 5283SOL    HW116748   0.994   0.641   4.263
 5283SOL    HW216749   0.931   0.788   4.295
 5284SOL     OW16750   4.377   2.772   1.566
 5284SOL    HW116751   4.334   2.796   1.653
 5284SOL    HW216752   4.470   2.738   1.583
 5285SOL     OW16753   1.713   2.049   4.359
 5285SOL    HW116754   1.683   2.107   4.283
 5285SOL    HW216755   1.634   2.003   4.400
 5286SOL     OW16756   6.008   3.162   1.405
 5286SOL    HW116757   6.100   3.192   1.428
 5286SOL    HW216758   5.993   3.069   1.440
 5287SOL     OW16759   1.969   5.105   1.319
 5287SOL    HW116760   1.908   5.064   1.386
 5287SOL    HW216761   2.064   5.084   1.343
 5288SOL     OW16762   4.109   0.329   1.211
 5288SOL    HW116763   4.033   0.378   1.253
 5288SOL    HW216764   4.182   0.394   1.189
 5289SOL     OW16765   2.463   4.990   6.214
 5289SOL    HW116766   2.442   4.893   6.226
 5289SOL    HW216767   2.430   5.041   6.294
 5290SOL     OW16768   1.630   3.220   4.615
 5290SOL    HW116769   1.572   3.281   4.562
 5290SOL    HW216770   1.713   3.199   4.564
 5291SOL     OW16771   2.799   4.737   4.560
 5291SOL    HW116772   2.711   4.783   4.555
 5291SOL    HW216773   2.799   4.657   4.499
 5292SOL     OW16774   0.348   3.762   5.704
 5292SOL    HW116775   0.422   3.811   5.658
 5292SOL    HW216776   0.277   3.738   5.637
 5293SOL     OW16777   2.206   6.267   3.955
 5293SOL    HW116778   2.278   6.295   4.019
 5293SOL    HW216779   2.205   6.329   3.877
 5294SOL     OW16780   4.121   0.072   5.212
 5294SOL    HW116781   4.075   6.999   5.196
 5294SOL    HW216782   4.218   0.064   5.189
 5295SOL     OW16783   2.982   1.647   2.575
 5295SOL    HW116784   2.894   1.616   2.540
 5295SOL    HW216785   3.039   1.681   2.499
 5296SOL     OW16786   4.752   4.910   1.642
 5296SOL    HW116787   4.797   4.950   1.721
 5296SOL    HW216788   4.712   4.982   1.586
 5297SOL     OW16789   2.749   5.179   0.298
 5297SOL    HW116790   2.699   5.095   0.318
 5297SOL    HW216791   2.724   5.249   0.365
 5298SOL     OW16792   1.999   0.446   0.125
 5298SOL    HW116793   2.054   0.362   0.131
 5298SOL    HW216794   1.904   0.422   0.110
 5299SOL     OW16795   2.686   1.343   1.469
 5299SOL    HW116796   2.776   1.363   1.432
 5299SOL    HW216797   2.696   1.288   1.552
 5300SOL     OW16798   2.263   4.539   6.847
 5300SOL    HW116799   2.309   4.469   6.902
 5300SOL    HW216800   2.332   4.593   6.798
 5301SOL     OW16801   5.308   0.052   5.976
 5301SOL    HW116802   5.312   6.967   5.978
 5301SOL    HW216803   5.281   0.083   5.885
 5302SOL     OW16804   5.749   6.170   3.361
 5302SOL    HW116805   5.655   6.204   3.364
 5302SOL    HW216806   5.748   6.070   3.354
 5303SOL     OW16807   0.814   5.389   6.011
 5303SOL    HW116808   0.747   5.463   6.011
 5303SOL    HW216809   0.870   5.395   6.094
 5304SOL     OW16810   6.930   0.707   2.391
 5304SOL    HW116811   6.914   0.661   2.303
 5304SOL    HW216812   6.964   0.640   2.457
 5305SOL     OW16813   0.941   5.103   3.303
 5305SOL    HW116814   0.924   5.024   3.243
 5305SOL    HW216815   0.994   5.172   3.253
 5306SOL     OW16816   0.242   3.226   6.275
 5306SOL    HW116817   0.259   3.324   6.291
 5306SOL    HW216818   0.153   3.215   6.231
 5307SOL     OW16819   6.277   1.501   1.778
 5307SOL    HW116820   6.311   1.534   1.690
 5307SOL    HW216821   6.271   1.401   1.776
 5308SOL     OW16822   1.628   3.872   3.124
 5308SOL    HW116823   1.587   3.887   3.214
 5308SOL    HW216824   1.618   3.955   3.069
 5309SOL     OW16825   6.218   6.153   2.700
 5309SOL    HW116826   6.282   6.081   2.674
 5309SOL    HW216827   6.148   6.163   2.629
 5310SOL     OW16828   5.443   2.720   2.724
 5310SOL    HW116829   5.454   2.725   2.625
 5310SOL    HW216830   5.498   2.645   2.760
 5311SOL     OW16831   5.696   0.054   0.493
 5311SOL    HW116832   5.596   0.051   0.495
 5311SOL    HW216833   5.726   0.133   0.440
 5312SOL     OW16834   6.977   6.564   0.483
 5312SOL    HW116835   6.917   6.641   0.508
 5312SOL    HW216836   6.929   6.504   0.419
 5313SOL     OW16837   1.007   5.579   5.459
 5313SOL    HW116838   1.100   5.565   5.492
 5313SOL    HW216839   0.965   5.655   5.508
 5314SOL     OW16840   6.098   0.776   2.215
 5314SOL    HW116841   6.170   0.706   2.209
 5314SOL    HW216842   6.009   0.731   2.217
 5315SOL     OW16843   4.622   1.173   4.480
 5315SOL    HW116844   4.587   1.260   4.447
 5315SOL    HW216845   4.713   1.185   4.519
 5316SOL     OW16846   0.587   2.257   4.645
 5316SOL    HW116847   0.590   2.342   4.591
 5316SOL    HW216848   0.653   2.192   4.608
 5317SOL     OW16849   6.402   2.099   6.588
 5317SOL    HW116850   6.358   2.181   6.623
 5317SOL    HW216851   6.359   2.018   6.628
 5318SOL     OW16852   6.832   3.790   6.582
 5318SOL    HW116853   6.740   3.789   6.542
 5318SOL    HW216854   6.825   3.776   6.681
 5319SOL     OW16855   4.569   7.008   1.157
 5319SOL    HW116856   4.527   6.947   1.090
 5319SOL    HW216857   4.499   0.053   1.197
 5320SOL     OW16858   3.181   5.631   1.144
 5320SOL    HW116859   3.136   5.640   1.234
 5320SOL    HW216860   3.197   5.722   1.106
 5321SOL     OW16861   1.754   4.323   4.750
 5321SOL    HW116862   1.694   4.376   4.810
 5321SOL    HW216863   1.846   4.320   4.789
 5322SOL     OW16864   5.773   6.526   2.361
 5322SOL    HW116865   5.675   6.525   2.342
 5322SOL    HW216866   5.805   6.620   2.368
 5323SOL     OW16867   4.112   1.102   5.791
 5323SOL    HW116868   4.105   1.098   5.890
 5323SOL    HW216869   4.028   1.066   5.749
 5324SOL     OW16870   2.230   1.612   0.475
 5324SOL    HW116871   2.166   1.681   0.509
 5324SOL    HW216872   2.180   1.545   0.420
 5325SOL     OW16873   1.961   1.661   4.875
 5325SOL    HW116874   2.030   1.711   4.927
 5325SOL    HW216875   1.964   1.689   4.779
 5326SOL     OW16876   6.370   6.657   2.691
 5326SOL    HW116877   6.420   6.628   2.609
 5326SOL    HW216878   6.425   6.635   2.772
 5327SOL     OW16879   6.246   2.553   4.735
 5327SOL    HW116880   6.232   2.560   4.834
 5327SOL    HW216881   6.248   2.457   4.708
 5328SOL     OW16882   4.233   4.746   0.048
 5328SOL    HW116883   4.177   4.768   0.128
 5328SOL    HW216884   4.252   4.647   0.048
 5329SOL     OW16885   1.427   6.642   6.263
 5329SOL    HW116886   1.478   6.646   6.177
 5329SOL    HW216887   1.425   6.547   6.296
 5330SOL     OW16888   2.307   3.562   0.619
 5330SOL    HW116889   2.407   3.562   0.616
 5330SOL    HW216890   2.272   3.497   0.551
 5331SOL     OW16891   6.212   0.729   6.407
 5331SOL    HW116892   6.236   0.757   6.315
 5331SOL    HW216893   6.118   0.757   6.427
 5332SOL     OW16894   1.167   5.167   2.256
 5332SOL    HW116895   1.259   5.144   2.222
 5332SOL    HW216896   1.100   5.151   2.184
 5333SOL     OW16897   0.721   5.911   4.118
 5333SOL    HW116898   0.686   5.969   4.045
 5333SOL    HW216899   0.820   5.921   4.124
 5334SOL     OW16900   2.816   0.173   4.373
 5334SOL    HW116901   2.908   0.211   4.372
 5334SOL    HW216902   2.819   0.076   4.394
 5335SOL     OW16903   6.665   5.865   0.629
 5335SOL    HW116904   6.731   5.896   0.697
 5335SOL    HW216905   6.572   5.884   0.661
 5336SOL     OW16906   1.288   3.974   1.898
 5336SOL    HW116907   1.321   4.029   1.821
 5336SOL    HW216908   1.354   3.977   1.972
 5337SOL     OW16909   4.856   4.594   1.295
 5337SOL    HW116910   4.775   4.648   1.317
 5337SOL    HW216911   4.902   4.567   1.380
 5338SOL     OW16912   6.393   2.401   6.439
 5338SOL    HW116913   6.377   2.416   6.536
 5338SOL    HW216914   6.456   2.471   6.405
 5339SOL     OW16915   6.388   1.610   3.507
 5339SOL    HW116916   6.317   1.573   3.447
 5339SOL    HW216917   6.370   1.706   3.525
 5340SOL     OW16918   5.245   2.265   6.255
 5340SOL    HW116919   5.231   2.179   6.303
 5340SOL    HW216920   5.320   2.316   6.297
 5341SOL     OW16921   4.419   0.198   0.283
 5341SOL    HW116922   4.355   0.244   0.221
 5341SOL    HW216923   4.499   0.168   0.231
 5342SOL     OW16924   3.559   0.832   5.573
 5342SOL    HW116925   3.503   0.827   5.490
 5342SOL    HW216926   3.582   0.739   5.602
 5343SOL     OW16927   3.937   3.940   2.463
 5343SOL    HW116928   3.966   3.850   2.497
 5343SOL    HW216929   3.897   3.992   2.539
 5344SOL     OW16930   2.484   2.225   3.144
 5344SOL    HW116931   2.436   2.226   3.056
 5344SOL    HW216932   2.545   2.304   3.150
 5345SOL     OW16933   4.612   6.656   1.878
 5345SOL    HW116934   4.675   6.710   1.822
 5345SOL    HW216935   4.553   6.601   1.820
 5346SOL     OW16936   2.749   6.350   3.135
 5346SOL    HW116937   2.771   6.429   3.078
 5346SOL    HW216938   2.667   6.369   3.189
 5347SOL     OW16939   0.325   1.996   1.276
 5347SOL    HW116940   0.393   1.924   1.265
 5347SOL    HW216941   0.354   2.078   1.227
 5348SOL     OW16942   0.404   1.176   6.848
 5348SOL    HW116943   0.431   1.221   6.933
 5348SOL    HW216944   0.412   1.240   6.772
 5349SOL     OW16945   6.142   0.989   1.421
 5349SOL    HW116946   6.119   0.918   1.354
 5349SOL    HW216947   6.219   0.958   1.477
 5350SOL     OW16948   2.472   1.447   6.071
 5350SOL    HW116949   2.511   1.414   6.157
 5350SOL    HW216950   2.438   1.540   6.083
 5351SOL     OW16951   4.104   6.797   1.984
 5351SOL    HW116952   4.203   6.794   1.969
 5351SOL    HW216953   4.057   6.771   1.900
 5352SOL     OW16954   3.324   5.222   3.601
 5352SOL    HW116955   3.392   5.265   3.660
 5352SOL    HW216956   3.332   5.122   3.608
 5353SOL     OW16957   5.981   6.167   5.508
 5353SOL    HW116958   5.993   6.247   5.566
 5353SOL    HW216959   6.058   6.105   5.520
 5354SOL     OW16960   0.775   3.902   1.542
 5354SOL    HW116961   0.844   3.968   1.573
 5354SOL    HW216962   0.701   3.898   1.609
 5355SOL     OW16963   4.640   1.899   5.063
 5355SOL    HW116964   4.583   1.820   5.038
 5355SOL    HW216965   4.648   1.960   4.984
 5356SOL     OW16966   6.452   3.745   1.285
 5356SOL    HW116967   6.507   3.828   1.298
 5356SOL    HW216968   6.513   3.667   1.271
 5357SOL     OW16969   3.720   6.964   0.273
 5357SOL    HW116970   3.751   0.039   0.240
 5357SOL    HW216971   3.726   6.896   0.200
 5358SOL     OW16972   4.696   3.119   0.555
 5358SOL    HW116973   4.746   3.150   0.475
 5358SOL    HW216974   4.721   3.175   0.634
 5359SOL     OW16975   2.032   0.870   6.794
 5359SOL    HW116976   1.945   0.918   6.779
 5359SOL    HW216977   2.015   0.786   6.844
 5360SOL     OW16978   3.727   0.168   6.941
 5360SOL    HW116979   3.813   0.144   6.896
 5360SOL    HW216980   3.670   0.086   6.950
 5361SOL     OW16981   2.085   0.660   5.892
 5361SOL    HW116982   2.035   0.714   5.960
 5361SOL    HW216983   2.059   0.691   5.800
 5362SOL     OW16984   4.637   5.455   2.614
 5362SOL    HW116985   4.670   5.461   2.520
 5362SOL    HW216986   4.656   5.364   2.650
 5363SOL     OW16987   0.862   5.683   6.133
 5363SOL    HW116988   0.798   5.756   6.110
 5363SOL    HW216989   0.842   5.650   6.226
 5364SOL     OW16990   0.717   6.397   0.775
 5364SOL    HW116991   0.807   6.439   0.766
 5364SOL    HW216992   0.701   6.373   0.871
 5365SOL     OW16993   4.337   2.057   5.962
 5365SOL    HW116994   4.381   2.139   5.928
 5365SOL    HW216995   4.371   1.977   5.913
 5366SOL     OW16996   3.833   3.061   0.243
 5366SOL    HW116997   3.863   3.078   0.149
 5366SOL    HW216998   3.733   3.051   0.244
 5367SOL     OW16999   0.033   5.091   0.939
 5367SOL    HW117000   6.997   5.029   1.000
 5367SOL    HW217001   0.067   5.169   0.992
 5368SOL     OW17002   6.170   1.574   3.740
 5368SOL    HW117003   6.110   1.533   3.809
 5368SOL    HW217004   6.249   1.616   3.786
 5369SOL     OW17005   2.138   3.861   2.863
 5369SOL    HW117006   2.062   3.798   2.852
 5369SOL    HW217007   2.178   3.881   2.773
 5370SOL     OW17008   3.625   3.074   1.186
 5370SOL    HW117009   3.659   2.980   1.196
 5370SOL    HW217010   3.656   3.129   1.264
 5371SOL     OW17011   0.527   3.891   5.040
 5371SOL    HW117012   0.590   3.962   5.008
 5371SOL    HW217013   0.579   3.808   5.063
 5372SOL     OW17014   2.868   5.316   2.466
 5372SOL    HW117015   2.808   5.376   2.520
 5372SOL    HW217016   2.912   5.369   2.394
 5373SOL     OW17017   2.961   4.860   3.287
 5373SOL    HW117018   2.886   4.829   3.345
 5373SOL    HW217019   2.960   4.960   3.280
 5374SOL     OW17020   2.824   2.080   0.255
 5374SOL    HW117021   2.818   1.987   0.220
 5374SOL    HW217022   2.867   2.079   0.346
 5375SOL     OW17023   1.586   4.771   3.941
 5375SOL    HW117024   1.599   4.847   3.877
 5375SOL    HW217025   1.645   4.783   4.020
 5376SOL     OW17026   1.738   3.538   0.889
 5376SOL    HW117027   1.755   3.584   0.802
 5376SOL    HW217028   1.773   3.445   0.886
 5377SOL     OW17029   0.475   1.405   1.059
 5377SOL    HW117030   0.542   1.337   1.088
 5377SOL    HW217031   0.389   1.359   1.036
 5378SOL     OW17032   5.408   0.601   0.773
 5378SOL    HW117033   5.383   0.619   0.869
 5378SOL    HW217034   5.424   0.688   0.726
 5379SOL     OW17035   0.161   6.186   2.068
 5379SOL    HW117036   0.208   6.100   2.088
 5379SOL    HW217037   0.181   6.252   2.140
 5380SOL     OW17038   2.873   0.413   4.081
 5380SOL    HW117039   2.904   0.507   4.074
 5380SOL    HW217040   2.822   0.400   4.166
 5381SOL     OW17041   5.524   4.264   1.336
 5381SOL    HW117042   5.470   4.184   1.309
 5381SOL    HW217043   5.611   4.234   1.376
 5382SOL     OW17044   1.893   0.156   1.535
 5382SOL    HW117045   1.924   0.061   1.535
 5382SOL    HW217046   1.821   0.166   1.466
 5383SOL     OW17047   2.201   1.825   4.919
 5383SOL    HW117048   2.276   1.779   4.967
 5383SOL    HW217049   2.192   1.919   4.954
 5384SOL     OW17050   5.693   6.472   4.067
 5384SOL    HW117051   5.665   6.376   4.063
 5384SOL    HW217052   5.743   6.488   4.152
 5385SOL     OW17053   3.500   4.041   2.191
 5385SOL    HW117054   3.587   4.027   2.238
 5385SOL    HW217055   3.434   3.972   2.221
 5386SOL     OW17056   5.417   6.377   4.935
 5386SOL    HW117057   5.497   6.339   4.887
 5386SOL    HW217058   5.447   6.417   5.022
 5387SOL     OW17059   2.698   5.602   1.695
 5387SOL    HW117060   2.641   5.683   1.677
 5387SOL    HW217061   2.784   5.630   1.737
 5388SOL     OW17062   5.656   0.562   2.595
 5388SOL    HW117063   5.575   0.614   2.622
 5388SOL    HW217064   5.635   0.504   2.517
 5389SOL     OW17065   4.686   2.243   0.996
 5389SOL    HW117066   4.761   2.192   1.038
 5389SOL    HW217067   4.614   2.259   1.063
 5390SOL     OW17068   6.193   4.651   6.083
 5390SOL    HW117069   6.268   4.687   6.138
 5390SOL    HW217070   6.187   4.552   6.095
 5391SOL     OW17071   2.366   2.982   6.810
 5391SOL    HW117072   2.416   3.067   6.829
 5391SOL    HW217073   2.431   2.913   6.777
 5392SOL     OW17074   6.444   3.007   2.406
 5392SOL    HW117075   6.522   2.955   2.372
 5392SOL    HW217076   6.404   3.059   2.331
 5393SOL     OW17077   6.790   0.196   6.992
 5393SOL    HW117078   6.818   0.103   0.002
 5393SOL    HW217079   6.846   0.229   6.916
 5394SOL     OW17080   0.957   4.014   5.774
 5394SOL    HW117081   0.900   4.071   5.715
 5394SOL    HW217082   0.983   4.066   5.855
 5395SOL     OW17083   3.959   1.534   0.131
 5395SOL    HW117084   4.055   1.525   0.108
 5395SOL    HW217085   3.920   1.443   0.146
 5396SOL     OW17086   5.260   3.378   2.351
 5396SOL    HW117087   5.195   3.347   2.282
 5396SOL    HW217088   5.273   3.306   2.419
 5397SOL     OW17089   0.377   3.531   1.571
 5397SOL    HW117090   0.361   3.538   1.670
 5397SOL    HW217091   0.465   3.572   1.549
 5398SOL     OW17092   2.868   2.564   1.715
 5398SOL    HW117093   2.887   2.504   1.637
 5398SOL    HW217094   2.881   2.513   1.800
 5399SOL     OW17095   1.523   5.868   0.735
 5399SOL    HW117096   1.578   5.940   0.694
 5399SOL    HW217097   1.434   5.904   0.762
 5400SOL     OW17098   2.876   4.438   0.761
 5400SOL    HW117099   2.785   4.474   0.780
 5400SOL    HW217100   2.914   4.398   0.845
 5401SOL     OW17101   6.273   3.268   1.404
 5401SOL    HW117102   6.321   3.204   1.343
 5401SOL    HW217103   6.340   3.327   1.450
 5402SOL     OW17104   0.998   6.117   2.066
 5402SOL    HW117105   0.899   6.129   2.067
 5402SOL    HW217106   1.043   6.206   2.071
 5403SOL     OW17107   0.217   2.603   6.343
 5403SOL    HW117108   0.284   2.581   6.414
 5403SOL    HW217109   0.148   2.531   6.338
 5404SOL     OW17110   1.925   2.789   3.394
 5404SOL    HW117111   2.022   2.785   3.371
 5404SOL    HW217112   1.890   2.696   3.407
 5405SOL     OW17113   6.762   5.132   6.174
 5405SOL    HW117114   6.827   5.101   6.244
 5405SOL    HW217115   6.676   5.157   6.218
 5406SOL     OW17116   2.316   0.513   5.529
 5406SOL    HW117117   2.230   0.564   5.531
 5406SOL    HW217118   2.389   0.572   5.492
 5407SOL     OW17119   4.108   3.373   6.348
 5407SOL    HW117120   4.164   3.431   6.289
 5407SOL    HW217121   4.025   3.421   6.375
 5408SOL     OW17122   2.907   0.825   6.619
 5408SOL    HW117123   2.930   0.920   6.597
 5408SOL    HW217124   2.819   0.822   6.667
 5409SOL     OW17125   3.668   0.860   2.381
 5409SOL    HW117126   3.651   0.833   2.286
 5409SOL    HW217127   3.750   0.813   2.414
 5410SOL     OW17128   2.402   2.251   2.221
 5410SOL    HW117129   2.344   2.298   2.154
 5410SOL    HW217130   2.469   2.195   2.173
 5411SOL     OW17131   0.643   5.551   5.009
 5411SOL    HW117132   0.715   5.531   5.075
 5411SOL    HW217133   0.677   5.616   4.940
 5412SOL     OW17134   6.174   2.981   1.177
 5412SOL    HW117135   6.206   2.984   1.083
 5412SOL    HW217136   6.083   3.023   1.183
 5413SOL     OW17137   1.838   0.977   1.540
 5413SOL    HW117138   1.741   0.953   1.545
 5413SOL    HW217139   1.880   0.931   1.462
 5414SOL     OW17140   3.964   1.040   5.369
 5414SOL    HW117141   4.064   1.047   5.362
 5414SOL    HW217142   3.927   1.004   5.283
 5415SOL     OW17143   6.121   5.081   1.901
 5415SOL    HW117144   6.155   5.007   1.842
 5415SOL    HW217145   6.196   5.114   1.959
 5416SOL     OW17146   4.550   5.820   4.794
 5416SOL    HW117147   4.632   5.829   4.849
 5416SOL    HW217148   4.530   5.723   4.779
 5417SOL     OW17149   3.336   6.727   4.764
 5417SOL    HW117150   3.284   6.783   4.699
 5417SOL    HW217151   3.373   6.786   4.836
 5418SOL     OW17152   3.732   0.488   2.948
 5418SOL    HW117153   3.808   0.442   2.902
 5418SOL    HW217154   3.672   0.530   2.880
 5419SOL     OW17155   3.473   4.264   6.837
 5419SOL    HW117156   3.404   4.214   6.889
 5419SOL    HW217157   3.445   4.359   6.826
 5420SOL     OW17158   1.197   1.526   2.711
 5420SOL    HW117159   1.284   1.571   2.732
 5420SOL    HW217160   1.122   1.587   2.735
 5421SOL     OW17161   1.603   3.552   1.669
 5421SOL    HW117162   1.657   3.478   1.630
 5421SOL    HW217163   1.590   3.535   1.767
 5422SOL     OW17164   2.181   3.431   1.029
 5422SOL    HW117165   2.158   3.455   1.123
 5422SOL    HW217166   2.245   3.353   1.029
 5423SOL     OW17167   5.912   3.409   6.953
 5423SOL    HW117168   5.951   3.431   0.029
 5423SOL    HW217169   5.821   3.450   6.946
 5424SOL     OW17170   5.223   4.054   4.870
 5424SOL    HW117171   5.208   4.099   4.782
 5424SOL    HW217172   5.171   3.968   4.872
 5425SOL     OW17173   5.030   0.445   5.100
 5425SOL    HW117174   5.009   0.541   5.120
 5425SOL    HW217175   4.947   0.398   5.071
 5426SOL     OW17176   6.145   0.200   5.334
 5426SOL    HW117177   6.136   0.224   5.238
 5426SOL    HW217178   6.055   0.185   5.373
 5427SOL     OW17179   3.947   5.544   6.530
 5427SOL    HW117180   3.956   5.524   6.627
 5427SOL    HW217181   3.994   5.630   6.509
 5428SOL     OW17182   1.463   0.363   6.957
 5428SOL    HW117183   1.479   0.284   0.001
 5428SOL    HW217184   1.427   0.332   6.869
 5429SOL     OW17185   1.021   2.319   6.743
 5429SOL    HW117186   1.059   2.364   6.662
 5429SOL    HW217187   0.955   2.379   6.787
 5430SOL     OW17188   2.142   2.690   5.717
 5430SOL    HW117189   2.202   2.625   5.764
 5430SOL    HW217190   2.151   2.780   5.760
 5431SOL     OW17191   3.868   6.017   4.637
 5431SOL    HW117192   3.936   6.087   4.658
 5431SOL    HW217193   3.781   6.060   4.613
 5432SOL     OW17194   5.168   6.650   1.221
 5432SOL    HW117195   5.184   6.704   1.138
 5432SOL    HW217196   5.178   6.553   1.199
 5433SOL     OW17197   0.236   1.822   4.735
 5433SOL    HW117198   0.326   1.779   4.724
 5433SOL    HW217199   0.177   1.764   4.791
 5434SOL     OW17200   2.798   0.178   5.834
 5434SOL    HW117201   2.701   0.153   5.840
 5434SOL    HW217202   2.809   0.252   5.768
 5435SOL     OW17203   4.495   0.724   1.874
 5435SOL    HW117204   4.465   0.658   1.805
 5435SOL    HW217205   4.559   0.680   1.937
 5436SOL     OW17206   4.822   3.896   2.676
 5436SOL    HW117207   4.830   3.844   2.590
 5436SOL    HW217208   4.805   3.992   2.655
 5437SOL     OW17209   3.019   3.443   0.031
 5437SOL    HW117210   2.974   3.416   6.959
 5437SOL    HW217211   2.952   3.489   0.090
 5438SOL     OW17212   6.428   2.395   0.832
 5438SOL    HW117213   6.489   2.418   0.908
 5438SOL    HW217214   6.480   2.346   0.762
 5439SOL     OW17215   1.203   2.144   1.413
 5439SOL    HW117216   1.192   2.187   1.503
 5439SOL    HW217217   1.247   2.055   1.424
 5440SOL     OW17218   0.965   1.740   1.054
 5440SOL    HW117219   1.062   1.731   1.077
 5440SOL    HW217220   0.913   1.761   1.137
 5441SOL     OW17221   3.777   2.150   3.301
 5441SOL    HW117222   3.716   2.171   3.378
 5441SOL    HW217223   3.751   2.062   3.262
 5442SOL     OW17224   3.993   0.449   2.266
 5442SOL    HW117225   3.901   0.419   2.290
 5442SOL    HW217226   4.056   0.424   2.340
 5443SOL     OW17227   3.373   6.857   5.397
 5443SOL    HW117228   3.352   6.926   5.328
 5443SOL    HW217229   3.291   6.805   5.421
 5444SOL     OW17230   6.848   6.842   3.389
 5444SOL    HW117231   6.890   6.903   3.322
 5444SOL    HW217232   6.750   6.860   3.395
 5445SOL     OW17233   5.823   3.609   1.975
 5445SOL    HW117234   5.901   3.549   1.955
 5445SOL    HW217235   5.836   3.696   1.928
 5446SOL     OW17236   6.711   5.616   5.673
 5446SOL    HW117237   6.641   5.629   5.743
 5446SOL    HW217238   6.667   5.614   5.583
 5447SOL     OW17239   3.756   1.885   0.168
 5447SOL    HW117240   3.820   1.834   0.226
 5447SOL    HW217241   3.758   1.849   0.075
 5448SOL     OW17242   5.630   2.323   5.622
 5448SOL    HW117243   5.577   2.298   5.541
 5448SOL    HW217244   5.615   2.420   5.642
 5449SOL     OW17245   0.960   3.403   6.500
 5449SOL    HW117246   1.012   3.330   6.455
 5449SOL    HW217247   0.944   3.378   6.596
 5450SOL     OW17248   1.934   6.909   1.044
 5450SOL    HW117249   2.023   6.910   0.999
 5450SOL    HW217250   1.904   7.003   1.062
 5451SOL     OW17251   1.065   7.000   2.857
 5451SOL    HW117252   1.121   6.960   2.785
 5451SOL    HW217253   1.097   0.079   2.876
 5452SOL     OW17254   2.499   3.979   6.358
 5452SOL    HW117255   2.550   4.036   6.293
 5452SOL    HW217256   2.555   3.962   6.439
 5453SOL     OW17257   6.244   5.276   6.903
 5453SOL    HW117258   6.219   5.180   6.891
 5453SOL    HW217259   6.216   5.306   6.994
 5454SOL     OW17260   6.965   4.670   6.735
 5454SOL    HW117261   6.929   4.731   6.806
 5454SOL    HW217262   6.982   4.580   6.774
 5455SOL     OW17263   6.525   3.456   1.317
 5455SOL    HW117264   6.476   3.375   1.286
 5455SOL    HW217265   6.620   3.451   1.286
 5456SOL     OW17266   3.087   6.626   0.565
 5456SOL    HW117267   3.029   6.620   0.646
 5456SOL    HW217268   3.175   6.583   0.584
 5457SOL     OW17269   6.417   3.223   0.636
 5457SOL    HW117270   6.426   3.301   0.698
 5457SOL    HW217271   6.502   3.170   0.636
 5458SOL     OW17272   2.300   4.145   6.970
 5458SOL    HW117273   2.306   4.065   0.015
 5458SOL    HW217274   2.209   4.150   6.930
 5459SOL     OW17275   1.510   4.471   6.142
 5459SOL    HW117276   1.427   4.516   6.108
 5459SOL    HW217277   1.528   4.500   6.236
 5460SOL     OW17278   2.850   0.531   1.428
 5460SOL    HW117279   2.897   0.479   1.357
 5460SOL    HW217280   2.847   0.477   1.513
 5461SOL     OW17281   4.644   6.858   5.106
 5461SOL    HW117282   4.694   6.856   5.019
 5461SOL    HW217283   4.643   6.767   5.145
 5462SOL     OW17284   0.691   0.369   0.727
 5462SOL    HW117285   0.630   0.448   0.731
 5462SOL    HW217286   0.731   0.362   0.635
 5463SOL     OW17287   6.845   3.003   0.834
 5463SOL    HW117288   6.896   2.987   0.919
 5463SOL    HW217289   6.897   2.966   0.757
 5464SOL     OW17290   2.144   7.002   4.448
 5464SOL    HW117291   2.048   7.011   4.476
 5464SOL    HW217292   2.158   0.036   4.361
 5465SOL     OW17293   2.782   6.895   5.495
 5465SOL    HW117294   2.869   6.878   5.541
 5465SOL    HW217295   2.760   6.992   5.498
 5466SOL     OW17296   4.523   4.565   4.465
 5466SOL    HW117297   4.505   4.595   4.372
 5466SOL    HW217298   4.536   4.466   4.467
 5467SOL     OW17299   5.875   1.413   2.135
 5467SOL    HW117300   5.902   1.501   2.096
 5467SOL    HW217301   5.956   1.366   2.171
 5468SOL     OW17302   4.155   1.736   5.260
 5468SOL    HW117303   4.177   1.660   5.200
 5468SOL    HW217304   4.117   1.812   5.206
 5469SOL     OW17305   4.191   4.203   6.488
 5469SOL    HW117306   4.260   4.261   6.445
 5469SOL    HW217307   4.100   4.231   6.457
 5470SOL     OW17308   1.737   5.323   3.801
 5470SOL    HW117309   1.681   5.386   3.747
 5470SOL    HW217310   1.702   5.318   3.894
 5471SOL     OW17311   6.367   5.644   1.886
 5471SOL    HW117312   6.315   5.563   1.859
 5471SOL    HW217313   6.442   5.617   1.947
 5472SOL     OW17314   3.842   4.947   5.691
 5472SOL    HW117315   3.910   4.876   5.675
 5472SOL    HW217316   3.873   5.034   5.652
 5473SOL     OW17317   1.010   3.409   3.578
 5473SOL    HW117318   1.088   3.360   3.619
 5473SOL    HW217319   0.962   3.349   3.515
 5474SOL     OW17320   1.552   5.754   3.566
 5474SOL    HW117321   1.563   5.726   3.662
 5474SOL    HW217322   1.619   5.706   3.510
 5475SOL     OW17323   2.682   2.603   1.020
 5475SOL    HW117324   2.738   2.680   1.050
 5475SOL    HW217325   2.741   2.525   0.999
 5476SOL     OW17326   1.112   3.265   5.749
 5476SOL    HW117327   1.164   3.300   5.827
 5476SOL    HW217328   1.139   3.315   5.666
 5477SOL     OW17329   2.118   3.238   3.247
 5477SOL    HW117330   2.063   3.268   3.168
 5477SOL    HW217331   2.215   3.252   3.227
 5478SOL     OW17332   6.576   6.152   6.022
 5478SOL    HW117333   6.506   6.088   6.055
 5478SOL    HW217334   6.591   6.136   5.924
 5479SOL     OW17335   4.665   0.472   4.851
 5479SOL    HW117336   4.661   0.558   4.901
 5479SOL    HW217337   4.574   0.429   4.850
 5480SOL     OW17338   0.202   3.738   4.294
 5480SOL    HW117339   0.267   3.771   4.363
 5480SOL    HW217340   0.211   3.639   4.284
 5481SOL     OW17341   4.644   6.223   3.985
 5481SOL    HW117342   4.591   6.170   3.919
 5481SOL    HW217343   4.682   6.304   3.940
 5482SOL     OW17344   1.749   4.326   1.493
 5482SOL    HW117345   1.649   4.333   1.492
 5482SOL    HW217346   1.776   4.230   1.502
 5483SOL     OW17347   0.304   2.324   5.692
 5483SOL    HW117348   0.308   2.377   5.777
 5483SOL    HW217349   0.252   2.376   5.624
 5484SOL     OW17350   4.598   0.459   5.154
 5484SOL    HW117351   4.688   0.434   5.189
 5484SOL    HW217352   4.602   0.552   5.116
 5485SOL     OW17353   3.212   0.314   5.039
 5485SOL    HW117354   3.240   0.409   5.054
 5485SOL    HW217355   3.152   0.285   5.113
 5486SOL     OW17356   2.738   6.289   5.065
 5486SOL    HW117357   2.830   6.294   5.103
 5486SOL    HW217358   2.692   6.378   5.076
 5487SOL     OW17359   3.029   5.297   5.644
 5487SOL    HW117360   2.967   5.261   5.712
 5487SOL    HW217361   3.110   5.335   5.689
 5488SOL     OW17362   5.739   2.161   0.503
 5488SOL    HW117363   5.826   2.146   0.549
 5488SOL    HW217364   5.711   2.257   0.515
 5489SOL     OW17365   6.728   4.446   3.031
 5489SOL    HW117366   6.722   4.368   3.093
 5489SOL    HW217367   6.715   4.531   3.082
 5490SOL     OW17368   1.787   6.311   2.810
 5490SOL    HW117369   1.868   6.369   2.821
 5490SOL    HW217370   1.799   6.251   2.731
 5491SOL     OW17371   6.481   4.335   0.557
 5491SOL    HW117372   6.471   4.241   0.526
 5491SOL    HW217373   6.565   4.344   0.611
 5492SOL     OW17374   6.964   2.227   5.949
 5492SOL    HW117375   0.003   2.199   5.869
 5492SOL    HW217376   6.909   2.307   5.926
 5493SOL     OW17377   4.182   3.658   1.290
 5493SOL    HW117378   4.129   3.584   1.331
 5493SOL    HW217379   4.169   3.657   1.191
 5494SOL     OW17380   5.781   4.095   5.403
 5494SOL    HW117381   5.778   4.003   5.365
 5494SOL    HW217382   5.875   4.120   5.423
 5495SOL     OW17383   5.626   6.723   0.490
 5495SOL    HW117384   5.704   6.775   0.455
 5495SOL    HW217385   5.657   6.633   0.520
 5496SOL     OW17386   4.151   0.509   4.204
 5496SOL    HW117387   4.129   0.595   4.251
 5496SOL    HW217388   4.067   0.457   4.190
 5497SOL     OW17389   0.970   0.757   5.815
 5497SOL    HW117390   0.969   0.677   5.875
 5497SOL    HW217391   0.955   0.728   5.720
 5498SOL     OW17392   0.696   5.348   1.173
 5498SOL    HW117393   0.785   5.316   1.204
 5498SOL    HW217394   0.625   5.282   1.201
 5499SOL     OW17395   1.885   0.424   4.915
 5499SOL    HW117396   1.951   0.500   4.916
 5499SOL    HW217397   1.796   0.457   4.945
 5500SOL     OW17398   2.741   0.789   0.790
 5500SOL    HW117399   2.790   0.859   0.842
 5500SOL    HW217400   2.649   0.820   0.770
 5501SOL     OW17401   3.815   3.658   6.692
 5501SOL    HW117402   3.752   3.719   6.738
 5501SOL    HW217403   3.885   3.626   6.756
 5502SOL     OW17404   4.736   2.898   0.050
 5502SOL    HW117405   4.684   2.974   0.089
 5502SOL    HW217406   4.675   2.838   7.014
 5503SOL     OW17407   6.439   3.810   0.949
 5503SOL    HW117408   6.510   3.740   0.944
 5503SOL    HW217409   6.373   3.784   1.020
 5504SOL     OW17410   3.607   1.558   6.975
 5504SOL    HW117411   3.680   1.624   6.962
 5504SOL    HW217412   3.631   1.472   6.930
 5505SOL     OW17413   3.104   5.376   3.064
 5505SOL    HW117414   3.036   5.449   3.066
 5505SOL    HW217415   3.173   5.393   3.134
 5506SOL     OW17416   0.563   3.240   5.774
 5506SOL    HW117417   0.502   3.244   5.853
 5506SOL    HW217418   0.629   3.315   5.780
 5507SOL     OW17419   2.647   6.833   6.824
 5507SOL    HW117420   2.603   6.764   6.767
 5507SOL    HW217421   2.688   6.902   6.765
 5508SOL     OW17422   6.697   1.075   6.423
 5508SOL    HW117423   6.785   1.076   6.470
 5508SOL    HW217424   6.635   1.011   6.468
 5509SOL     OW17425   6.434   5.148   0.748
 5509SOL    HW117426   6.511   5.128   0.808
 5509SOL    HW217427   6.353   5.171   0.803
 5510SOL     OW17428   4.108   4.920   0.269
 5510SOL    HW117429   4.155   4.925   0.357
 5510SOL    HW217430   4.031   4.858   0.275
 5511SOL     OW17431   0.191   2.186   5.306
 5511SOL    HW117432   0.214   2.147   5.217
 5511SOL    HW217433   0.220   2.282   5.308
 5512SOL     OW17434   2.612   0.683   2.091
 5512SOL    HW117435   2.531   0.642   2.132
 5512SOL    HW217436   2.687   0.616   2.092
 5513SOL     OW17437   4.233   4.130   0.307
 5513SOL    HW117438   4.276   4.128   0.398
 5513SOL    HW217439   4.194   4.040   0.287
 5514SOL     OW17440   3.207   1.333   0.590
 5514SOL    HW117441   3.202   1.234   0.607
 5514SOL    HW217442   3.130   1.378   0.635
 5515SOL     OW17443   2.970   5.611   2.060
 5515SOL    HW117444   3.022   5.564   2.132
 5515SOL    HW217445   2.879   5.572   2.054
 5516SOL     OW17446   1.609   2.210   5.434
 5516SOL    HW117447   1.532   2.153   5.406
 5516SOL    HW217448   1.607   2.296   5.383
 5517SOL     OW17449   1.268   2.485   3.283
 5517SOL    HW117450   1.214   2.564   3.253
 5517SOL    HW217451   1.358   2.517   3.314
 5518SOL     OW17452   4.645   4.797   6.978
 5518SOL    HW117453   4.582   4.823   0.037
 5518SOL    HW217454   4.648   4.870   6.909
 5519SOL     OW17455   4.616   2.626   4.257
 5519SOL    HW117456   4.577   2.540   4.288
 5519SOL    HW217457   4.550   2.700   4.271
 5520SOL     OW17458   4.999   0.071   1.694
 5520SOL    HW117459   5.019   6.987   1.684
 5520SOL    HW217460   5.066   0.113   1.754
 5521SOL     OW17461   4.565   6.339   2.282
 5521SOL    HW117462   4.548   6.420   2.225
 5521SOL    HW217463   4.542   6.360   2.377
 5522SOL     OW17464   5.918   6.308   1.155
 5522SOL    HW117465   5.935   6.272   1.063
 5522SOL    HW217466   5.838   6.264   1.194
 5523SOL     OW17467   5.137   1.121   1.098
 5523SOL    HW117468   5.184   1.170   1.172
 5523SOL    HW217469   5.206   1.082   1.037
 5524SOL     OW17470   2.409   1.355   3.938
 5524SOL    HW117471   2.322   1.399   3.914
 5524SOL    HW217472   2.393   1.289   4.012
 5525SOL     OW17473   6.000   1.352   1.751
 5525SOL    HW117474   5.916   1.300   1.739
 5525SOL    HW217475   6.049   1.357   1.664
 5526SOL     OW17476   5.347   4.867   4.107
 5526SOL    HW117477   5.253   4.873   4.139
 5526SOL    HW217478   5.392   4.789   4.150
 5527SOL     OW17479   5.948   0.891   3.759
 5527SOL    HW117480   5.939   0.896   3.858
 5527SOL    HW217481   6.025   0.948   3.729
 5528SOL     OW17482   0.695   1.124   6.763
 5528SOL    HW117483   0.675   1.222   6.768
 5528SOL    HW217484   0.613   1.073   6.790
 5529SOL     OW17485   3.764   0.693   1.819
 5529SOL    HW117486   3.753   0.613   1.878
 5529SOL    HW217487   3.847   0.742   1.845
 5530SOL     OW17488   6.758   2.328   1.227
 5530SOL    HW117489   6.757   2.362   1.321
 5530SOL    HW217490   6.791   2.234   1.226
 5531SOL     OW17491   2.114   4.057   1.519
 5531SOL    HW117492   2.148   4.043   1.426
 5531SOL    HW217493   2.165   4.130   1.564
 5532SOL     OW17494   1.350   2.981   6.988
 5532SOL    HW117495   1.445   2.951   6.990
 5532SOL    HW217496   1.293   2.919   0.028
 5533SOL     OW17497   3.160   1.734   2.381
 5533SOL    HW117498   3.110   1.813   2.348
 5533SOL    HW217499   3.216   1.696   2.307
 5534SOL     OW17500   1.484   0.020   4.880
 5534SOL    HW117501   1.491   6.936   4.860
 5534SOL    HW217502   1.462   0.070   4.797
 5535SOL     OW17503   0.346   1.988   3.032
 5535SOL    HW117504   0.310   2.076   3.064
 5535SOL    HW217505   0.353   1.988   2.932
 5536SOL     OW17506   3.985   6.167   4.404
 5536SOL    HW117507   3.931   6.161   4.488
 5536SOL    HW217508   4.062   6.104   4.409
 5537SOL     OW17509   3.098   1.598   3.337
 5537SOL    HW117510   3.062   1.559   3.422
 5537SOL    HW217511   3.066   1.543   3.260
 5538SOL     OW17512   4.522   5.550   4.759
 5538SOL    HW117513   4.466   5.566   4.840
 5538SOL    HW217514   4.493   5.465   4.714
 5539SOL     OW17515   2.219   4.823   0.598
 5539SOL    HW117516   2.123   4.827   0.624
 5539SOL    HW217517   2.242   4.730   0.571
 5540SOL     OW17518   4.982   5.420   1.636
 5540SOL    HW117519   5.035   5.443   1.555
 5540SOL    HW217520   4.888   5.398   1.610
 5541SOL     OW17521   4.709   1.586   5.554
 5541SOL    HW117522   4.673   1.670   5.513
 5541SOL    HW217523   4.753   1.607   5.641
 5542SOL     OW17524   5.364   4.663   6.641
 5542SOL    HW117525   5.310   4.745   6.656
 5542SOL    HW217526   5.426   4.677   6.563
 5543SOL     OW17527   6.796   1.940   5.706
 5543SOL    HW117528   6.882   1.987   5.720
 5543SOL    HW217529   6.793   1.857   5.762
 5544SOL     OW17530   5.948   0.835   6.999
 5544SOL    HW117531   5.873   0.799   6.945
 5544SOL    HW217532   6.023   0.862   6.938
 5545SOL     OW17533   2.652   2.340   1.885
 5545SOL    HW117534   2.747   2.369   1.896
 5545SOL    HW217535   2.627   2.344   1.789
 5546SOL     OW17536   3.091   4.995   5.656
 5546SOL    HW117537   3.167   5.058   5.668
 5546SOL    HW217538   3.125   4.901   5.651
 5547SOL     OW17539   3.460   5.807   3.995
 5547SOL    HW117540   3.448   5.728   4.055
 5547SOL    HW217541   3.435   5.891   4.043
 5548SOL     OW17542   0.347   2.734   5.111
 5548SOL    HW117543   0.357   2.717   5.209
 5548SOL    HW217544   0.388   2.658   5.060
 5549SOL     OW17545   3.563   4.346   0.589
 5549SOL    HW117546   3.556   4.440   0.624
 5549SOL    HW217547   3.629   4.296   0.644
 5550SOL     OW17548   3.336   6.593   2.307
 5550SOL    HW117549   3.246   6.605   2.266
 5550SOL    HW217550   3.404   6.581   2.236
 5551SOL     OW17551   0.068   1.318   2.711
 5551SOL    HW117552   0.033   1.403   2.672
 5551SOL    HW217553   0.168   1.323   2.720
 5552SOL     OW17554   0.883   2.538   1.488
 5552SOL    HW117555   0.827   2.604   1.438
 5552SOL    HW217556   0.827   2.491   1.555
 5553SOL     OW17557   4.893   6.153   6.839
 5553SOL    HW117558   4.967   6.106   6.888
 5553SOL    HW217559   4.830   6.194   6.906
 5554SOL     OW17560   3.499   1.262   4.328
 5554SOL    HW117561   3.475   1.358   4.347
 5554SOL    HW217562   3.418   1.205   4.338
 5555SOL     OW17563   0.441   5.920   1.943
 5555SOL    HW117564   0.397   5.941   2.031
 5555SOL    HW217565   0.534   5.955   1.943
 5556SOL     OW17566   0.832   1.017   4.528
 5556SOL    HW117567   0.836   0.946   4.458
 5556SOL    HW217568   0.887   0.989   4.607
 5557SOL     OW17569   2.583   0.859   3.368
 5557SOL    HW117570   2.624   0.947   3.393
 5557SOL    HW217571   2.513   0.872   3.298
 5558SOL     OW17572   5.064   2.477   5.315
 5558SOL    HW117573   4.970   2.458   5.289
 5558SOL    HW217574   5.070   2.569   5.353
 5559SOL     OW17575   2.563   0.794   1.591
 5559SOL    HW117576   2.591   0.880   1.547
 5559SOL    HW217577   2.642   0.752   1.634
 5560SOL     OW17578   6.902   0.994   4.432
 5560SOL    HW117579   6.982   1.013   4.376
 5560SOL    HW217580   6.857   1.080   4.457
 5561SOL     OW17581   1.805   3.618   2.571
 5561SOL    HW117582   1.893   3.602   2.615
 5561SOL    HW217583   1.736   3.636   2.641
 5562SOL     OW17584   3.126   2.223   6.481
 5562SOL    HW117585   3.201   2.209   6.416
 5562SOL    HW217586   3.149   2.178   6.568
 5563SOL     OW17587   4.007   4.228   1.680
 5563SOL    HW117588   3.958   4.237   1.593
 5563SOL    HW217589   3.952   4.174   1.744
 5564SOL     OW17590   5.937   3.328   1.953
 5564SOL    HW117591   5.874   3.251   1.951
 5564SOL    HW217592   6.031   3.295   1.963
 5565SOL     OW17593   3.223   2.983   5.529
 5565SOL    HW117594   3.212   3.067   5.583
 5565SOL    HW217595   3.196   3.000   5.435
 5566SOL     OW17596   1.998   4.559   0.355
 5566SOL    HW117597   1.941   4.485   0.389
 5566SOL    HW217598   2.021   4.542   0.259
 5567SOL     OW17599   1.705   5.195   3.109
 5567SOL    HW117600   1.714   5.270   3.044
 5567SOL    HW217601   1.790   5.142   3.111
 5568SOL     OW17602   3.692   2.568   1.017
 5568SOL    HW117603   3.742   2.544   1.101
 5568SOL    HW217604   3.670   2.485   0.966
 5569SOL     OW17605   5.090   1.953   6.774
 5569SOL    HW117606   5.044   2.028   6.821
 5569SOL    HW217607   5.025   1.904   6.716
 5570SOL     OW17608   0.534   3.485   5.124
 5570SOL    HW117609   0.558   3.410   5.185
 5570SOL    HW217610   0.616   3.520   5.079
 5571SOL     OW17611   6.445   4.801   6.722
 5571SOL    HW117612   6.370   4.822   6.659
 5571SOL    HW217613   6.408   4.763   6.807
 5572SOL     OW17614   5.943   2.886   5.058
 5572SOL    HW117615   5.846   2.860   5.051
 5572SOL    HW217616   5.989   2.827   5.124
 5573SOL     OW17617   6.994   4.181   0.145
 5573SOL    HW117618   7.006   4.100   0.087
 5573SOL    HW217619   6.912   4.170   0.201
 5574SOL     OW17620   0.650   6.278   4.289
 5574SOL    HW117621   0.649   6.179   4.307
 5574SOL    HW217622   0.745   6.309   4.281
 5575SOL     OW17623   0.821   1.264   1.478
 5575SOL    HW117624   0.905   1.263   1.532
 5575SOL    HW217625   0.749   1.311   1.529
 5576SOL     OW17626   5.794   5.995   6.879
 5576SOL    HW117627   5.732   5.921   6.907
 5576SOL    HW217628   5.762   6.082   6.916
 5577SOL     OW17629   2.375   4.448   4.911
 5577SOL    HW117630   2.376   4.372   4.975
 5577SOL    HW217631   2.455   4.506   4.927
 5578SOL     OW17632   3.289   1.906   6.448
 5578SOL    HW117633   3.335   1.993   6.433
 5578SOL    HW217634   3.315   1.868   6.537
 5579SOL     OW17635   4.773   5.277   1.861
 5579SOL    HW117636   4.847   5.212   1.845
 5579SOL    HW217637   4.717   5.245   1.938
 5580SOL     OW17638   5.220   1.094   1.628
 5580SOL    HW117639   5.204   1.193   1.629
 5580SOL    HW217640   5.185   1.055   1.543
 5581SOL     OW17641   2.420   3.028   0.468
 5581SOL    HW117642   2.451   2.978   0.549
 5581SOL    HW217643   2.415   2.966   0.390
 5582SOL     OW17644   3.164   3.051   3.758
 5582SOL    HW117645   3.225   2.975   3.735
 5582SOL    HW217646   3.212   3.138   3.744
 5583SOL     OW17647   4.896   0.841   0.095
 5583SOL    HW117648   4.827   0.835   0.023
 5583SOL    HW217649   4.858   0.809   0.181
 5584SOL     OW17650   5.384   3.210   3.018
 5584SOL    HW117651   5.362   3.113   3.008
 5584SOL    HW217652   5.473   3.219   3.064
 5585SOL     OW17653   0.319   6.382   4.511
 5585SOL    HW117654   0.345   6.365   4.605
 5585SOL    HW217655   0.254   6.312   4.480
 5586SOL     OW17656   2.587   1.333   6.312
 5586SOL    HW117657   2.571   1.244   6.354
 5586SOL    HW217658   2.684   1.357   6.321
 5587SOL     OW17659   3.314   6.551   4.307
 5587SOL    HW117660   3.215   6.557   4.300
 5587SOL    HW217661   3.340   6.546   4.403
 5588SOL     OW17662   5.078   0.446   6.235
 5588SOL    HW117663   5.116   0.429   6.144
 5588SOL    HW217664   4.987   0.487   6.225
 5589SOL     OW17665   2.913   4.029   6.968
 5589SOL    HW117666   2.959   4.005   6.883
 5589SOL    HW217667   2.893   4.127   6.970
 5590SOL     OW17668   6.687   0.007   3.725
 5590SOL    HW117669   6.651   6.935   3.760
 5590SOL    HW217670   6.784   0.015   3.749
 5591SOL     OW17671   5.336   0.286   0.275
 5591SOL    HW117672   5.295   0.228   0.205
 5591SOL    HW217673   5.331   0.239   0.364
 5592SOL     OW17674   1.566   2.482   2.707
 5592SOL    HW117675   1.502   2.538   2.653
 5592SOL    HW217676   1.574   2.520   2.799
 5593SOL     OW17677   2.281   4.463   4.661
 5593SOL    HW117678   2.316   4.457   4.754
 5593SOL    HW217679   2.249   4.556   4.643
 5594SOL     OW17680   3.141   1.485   6.114
 5594SOL    HW117681   3.104   1.577   6.124
 5594SOL    HW217682   3.195   1.480   6.030
 5595SOL     OW17683   0.330   1.947   5.968
 5595SOL    HW117684   0.350   2.045   5.968
 5595SOL    HW217685   0.370   1.904   6.050
 5596SOL     OW17686   4.775   2.597   4.031
 5596SOL    HW117687   4.732   2.616   4.119
 5596SOL    HW217688   4.725   2.645   3.959
 5597SOL     OW17689   0.132   2.138   6.379
 5597SOL    HW117690   0.078   2.145   6.463
 5597SOL    HW217691   0.081   2.087   6.310
 5598SOL     OW17692   6.837   1.523   4.048
 5598SOL    HW117693   6.760   1.490   3.993
 5598SOL    HW217694   6.923   1.503   4.001
 5599SOL     OW17695   5.217   2.247   2.739
 5599SOL    HW117696   5.138   2.276   2.685
 5599SOL    HW217697   5.190   2.173   2.801
 5600SOL     OW17698   2.116   2.303   2.040
 5600SOL    HW117699   2.207   2.329   2.008
 5600SOL    HW217700   2.080   2.231   1.982
 5601SOL     OW17701   5.597   3.459   5.966
 5601SOL    HW117702   5.598   3.519   5.886
 5601SOL    HW217703   5.618   3.512   6.048
 5602SOL     OW17704   6.529   2.322   2.382
 5602SOL    HW117705   6.473   2.255   2.431
 5602SOL    HW217706   6.546   2.401   2.442
 5603SOL     OW17707   3.463   2.076   6.023
 5603SOL    HW117708   3.506   2.030   6.101
 5603SOL    HW217709   3.420   2.161   6.054
 5604SOL     OW17710   0.901   6.339   3.669
 5604SOL    HW117711   0.943   6.425   3.696
 5604SOL    HW217712   0.963   6.288   3.610
 5605SOL     OW17713   4.356   0.503   3.612
 5605SOL    HW117714   4.258   0.494   3.629
 5605SOL    HW217715   4.395   0.571   3.675
 5606SOL     OW17716   4.608   3.121   0.146
 5606SOL    HW117717   4.640   3.216   0.153
 5606SOL    HW217718   4.508   3.119   0.154
 5607SOL     OW17719   0.240   2.325   3.487
 5607SOL    HW117720   0.316   2.260   3.490
 5607SOL    HW217721   0.276   2.418   3.485
 5608SOL     OW17722   5.071   0.117   4.184
 5608SOL    HW117723   5.128   0.174   4.124
 5608SOL    HW217724   4.990   0.168   4.213
 5609SOL     OW17725   6.599   1.086   6.721
 5609SOL    HW117726   6.590   0.987   6.737
 5609SOL    HW217727   6.695   1.112   6.732
 5610SOL     OW17728   6.016   5.836   6.442
 5610SOL    HW117729   6.058   5.774   6.509
 5610SOL    HW217730   5.951   5.896   6.489
 5611SOL     OW17731   5.832   3.851   1.834
 5611SOL    HW117732   5.922   3.867   1.794
 5611SOL    HW217733   5.810   3.924   1.898
 5612SOL     OW17734   3.971   2.358   0.425
 5612SOL    HW117735   3.893   2.310   0.465
 5612SOL    HW217736   3.959   2.457   0.438
 5613SOL     OW17737   6.140   5.038   5.917
 5613SOL    HW117738   6.148   5.126   5.869
 5613SOL    HW217739   6.117   5.054   6.013
 5614SOL     OW17740   4.872   2.216   5.092
 5614SOL    HW117741   4.966   2.230   5.060
 5614SOL    HW217742   4.873   2.154   5.171
 5615SOL     OW17743   0.356   3.151   3.734
 5615SOL    HW117744   0.322   3.242   3.756
 5615SOL    HW217745   0.449   3.140   3.770
 5616SOL     OW17746   1.930   3.219   2.495
 5616SOL    HW117747   2.017   3.198   2.449
 5616SOL    HW217748   1.948   3.269   2.579
 5617SOL     OW17749   1.282   4.737   6.222
 5617SOL    HW117750   1.294   4.830   6.189
 5617SOL    HW217751   1.358   4.712   6.282
 5618SOL     OW17752   4.829   6.682   2.509
 5618SOL    HW117753   4.895   6.688   2.584
 5618SOL    HW217754   4.737   6.700   2.545
 5619SOL     OW17755   3.257   3.324   2.819
 5619SOL    HW117756   3.176   3.266   2.829
 5619SOL    HW217757   3.339   3.269   2.834
 5620SOL     OW17758   4.970   4.625   4.377
 5620SOL    HW117759   4.942   4.545   4.324
 5620SOL    HW217760   4.973   4.601   4.475
 5621SOL     OW17761   0.984   2.691   6.431
 5621SOL    HW117762   0.933   2.775   6.413
 5621SOL    HW217763   0.994   2.678   6.529
 5622SOL     OW17764   4.837   5.328   3.975
 5622SOL    HW117765   4.743   5.329   4.008
 5622SOL    HW217766   4.870   5.422   3.964
 5623SOL     OW17767   4.531   4.539   3.894
 5623SOL    HW117768   4.434   4.564   3.893
 5623SOL    HW217769   4.573   4.568   3.808
 5624SOL     OW17770   4.807   4.426   3.557
 5624SOL    HW117771   4.903   4.406   3.576
 5624SOL    HW217772   4.765   4.469   3.637
 5625SOL     OW17773   2.776   6.403   5.969
 5625SOL    HW117774   2.839   6.465   6.015
 5625SOL    HW217775   2.768   6.319   6.023
 5626SOL     OW17776   1.025   4.504   6.508
 5626SOL    HW117777   0.993   4.459   6.591
 5626SOL    HW217778   0.945   4.537   6.456
 5627SOL     OW17779   1.199   5.254   0.258
 5627SOL    HW117780   1.112   5.289   0.224
 5627SOL    HW217781   1.183   5.190   0.333
 5628SOL     OW17782   1.831   3.541   0.133
 5628SOL    HW117783   1.912   3.581   0.175
 5628SOL    HW217784   1.859   3.473   0.065
 5629SOL     OW17785   6.792   3.553   3.395
 5629SOL    HW117786   6.884   3.555   3.433
 5629SOL    HW217787   6.764   3.458   3.380
 5630SOL     OW17788   0.713   3.446   0.731
 5630SOL    HW117789   0.805   3.451   0.768
 5630SOL    HW217790   0.717   3.421   0.634
 5631SOL     OW17791   3.465   1.313   1.356
 5631SOL    HW117792   3.449   1.273   1.446
 5631SOL    HW217793   3.533   1.386   1.363
 5632SOL     OW17794   4.893   6.514   5.939
 5632SOL    HW117795   4.834   6.495   5.860
 5632SOL    HW217796   4.842   6.496   6.023
 5633SOL     OW17797   1.286   5.273   5.504
 5633SOL    HW117798   1.297   5.199   5.570
 5633SOL    HW217799   1.344   5.255   5.424
 5634SOL     OW17800   2.855   0.784   1.464
 5634SOL    HW117801   2.940   0.821   1.427
 5634SOL    HW217802   2.850   0.686   1.444
 5635SOL     OW17803   3.444   0.696   1.701
 5635SOL    HW117804   3.479   0.643   1.778
 5635SOL    HW217805   3.364   0.748   1.730
 5636SOL     OW17806   5.268   0.353   5.759
 5636SOL    HW117807   5.242   0.404   5.841
 5636SOL    HW217808   5.241   0.404   5.678
 5637SOL     OW17809   5.249   6.960   4.847
 5637SOL    HW117810   5.316   6.983   4.777
 5637SOL    HW217811   5.292   6.965   4.938
 5638SOL     OW17812   6.369   5.725   0.559
 5638SOL    HW117813   6.406   5.632   0.564
 5638SOL    HW217814   6.372   5.757   0.465
 5639SOL     OW17815   2.887   0.457   1.671
 5639SOL    HW117816   2.855   0.489   1.760
 5639SOL    HW217817   2.975   0.500   1.649
 5640SOL     OW17818   3.019   6.623   3.428
 5640SOL    HW117819   3.104   6.589   3.388
 5640SOL    HW217820   3.036   6.710   3.475
 5641SOL     OW17821   6.785   3.971   3.722
 5641SOL    HW117822   6.706   4.030   3.706
 5641SOL    HW217823   6.868   4.017   3.689
 5642SOL     OW17824   2.226   3.582   6.506
 5642SOL    HW117825   2.251   3.495   6.549
 5642SOL    HW217826   2.129   3.581   6.482
 5643SOL     OW17827   6.102   2.484   4.425
 5643SOL    HW117828   6.190   2.500   4.471
 5643SOL    HW217829   6.087   2.556   4.358
 5644SOL     OW17830   4.047   0.629   4.958
 5644SOL    HW117831   3.964   0.662   5.003
 5644SOL    HW217832   4.045   0.529   4.953
 5645SOL     OW17833   6.270   6.158   3.707
 5645SOL    HW117834   6.189   6.197   3.750
 5645SOL    HW217835   6.315   6.228   3.651
 5646SOL     OW17836   6.531   6.328   3.865
 5646SOL    HW117837   6.439   6.355   3.894
 5646SOL    HW217838   6.538   6.338   3.766
 5647SOL     OW17839   6.836   4.273   6.770
 5647SOL    HW117840   6.825   4.305   6.675
 5647SOL    HW217841   6.833   4.173   6.772
 5648SOL     OW17842   2.628   1.127   4.726
 5648SOL    HW117843   2.579   1.197   4.778
 5648SOL    HW217844   2.598   1.129   4.631
 5649SOL     OW17845   1.017   6.907   5.370
 5649SOL    HW117846   1.060   6.847   5.437
 5649SOL    HW217847   1.082   6.977   5.340
 5650SOL     OW17848   6.612   4.794   6.390
 5650SOL    HW117849   6.596   4.874   6.448
 5650SOL    HW217850   6.638   4.716   6.446
 5651SOL     OW17851   5.592   1.420   2.249
 5651SOL    HW117852   5.544   1.402   2.163
 5651SOL    HW217853   5.690   1.428   2.231
 5652SOL     OW17854   5.796   3.927   0.524
 5652SOL    HW117855   5.797   4.001   0.591
 5652SOL    HW217856   5.702   3.914   0.490
 5653SOL     OW17857   2.093   5.853   6.730
 5653SOL    HW117858   2.003   5.896   6.718
 5653SOL    HW217859   2.123   5.864   6.824
 5654SOL     OW17860   1.444   6.028   6.539
 5654SOL    HW117861   1.397   6.065   6.459
 5654SOL    HW217862   1.455   6.099   6.608
 5655SOL     OW17863   0.197   5.741   3.121
 5655SOL    HW117864   0.275   5.713   3.178
 5655SOL    HW217865   0.151   5.818   3.165
 5656SOL     OW17866   3.671   5.592   6.540
 5656SOL    HW117867   3.767   5.570   6.527
 5656SOL    HW217868   3.639   5.648   6.463
 5657SOL     OW17869   4.071   5.691   2.003
 5657SOL    HW117870   4.144   5.678   1.936
 5657SOL    HW217871   4.047   5.603   2.044
 5658SOL     OW17872   5.518   6.894   5.617
 5658SOL    HW117873   5.566   6.959   5.559
 5658SOL    HW217874   5.582   6.824   5.648
 5659SOL     OW17875   3.445   4.088   2.803
 5659SOL    HW117876   3.370   4.025   2.825
 5659SOL    HW217877   3.413   4.155   2.736
 5660SOL     OW17878   6.249   6.496   1.336
 5660SOL    HW117879   6.345   6.475   1.353
 5660SOL    HW217880   6.195   6.412   1.344
 5661SOL     OW17881   6.293   6.051   4.567
 5661SOL    HW117882   6.211   6.013   4.609
 5661SOL    HW217883   6.367   6.054   4.635
 5662SOL     OW17884   2.181   4.722   4.654
 5662SOL    HW117885   2.127   4.762   4.729
 5662SOL    HW217886   2.264   4.776   4.640
 5663SOL     OW17887   2.529   4.113   1.388
 5663SOL    HW117888   2.453   4.171   1.359
 5663SOL    HW217889   2.542   4.039   1.323
 5664SOL     OW17890   0.062   6.030   2.605
 5664SOL    HW117891   0.122   6.104   2.635
 5664SOL    HW217892   0.055   5.961   2.677
 5665SOL     OW17893   1.500   1.241   5.968
 5665SOL    HW117894   1.455   1.189   5.895
 5665SOL    HW217895   1.573   1.186   6.009
 5666SOL     OW17896   5.772   6.252   0.228
 5666SOL    HW117897   5.768   6.346   0.194
 5666SOL    HW217898   5.858   6.209   0.198
 5667SOL     OW17899   6.365   5.876   3.183
 5667SOL    HW117900   6.351   5.937   3.104
 5667SOL    HW217901   6.422   5.799   3.155
 5668SOL     OW17902   6.281   3.343   5.762
 5668SOL    HW117903   6.198   3.396   5.744
 5668SOL    HW217904   6.349   3.363   5.692
 5669SOL     OW17905   6.899   3.443   4.911
 5669SOL    HW117906   6.853   3.415   4.995
 5669SOL    HW217907   6.868   3.385   4.835
 5670SOL     OW17908   1.599   3.645   2.740
 5670SOL    HW117909   1.542   3.564   2.742
 5670SOL    HW217910   1.629   3.668   2.833
 5671SOL     OW17911   1.183   1.179   5.450
 5671SOL    HW117912   1.182   1.087   5.489
 5671SOL    HW217913   1.173   1.246   5.523
 5672SOL     OW17914   5.638   3.602   5.747
 5672SOL    HW117915   5.709   3.658   5.789
 5672SOL    HW217916   5.637   3.618   5.648
 5673SOL     OW17917   1.463   0.663   1.155
 5673SOL    HW117918   1.427   0.617   1.236
 5673SOL    HW217919   1.388   0.688   1.095
 5674SOL     OW17920   6.870   3.122   1.260
 5674SOL    HW117921   6.834   3.212   1.238
 5674SOL    HW217922   6.796   3.063   1.291
 5675SOL     OW17923   3.861   1.165   6.195
 5675SOL    HW117924   3.856   1.215   6.282
 5675SOL    HW217925   3.774   1.119   6.178
 5676SOL     OW17926   3.506   6.739   1.614
 5676SOL    HW117927   3.420   6.790   1.623
 5676SOL    HW217928   3.486   6.642   1.603
 5677SOL     OW17929   6.969   1.142   4.117
 5677SOL    HW117930   6.873   1.153   4.093
 5677SOL    HW217931   0.008   1.217   4.078
 5678SOL     OW17932   1.845   5.147   3.413
 5678SOL    HW117933   1.857   5.056   3.453
 5678SOL    HW217934   1.750   5.175   3.423
 5679SOL     OW17935   3.308   5.764   5.337
 5679SOL    HW117936   3.228   5.824   5.335
 5679SOL    HW217937   3.278   5.669   5.341
 5680SOL     OW17938   1.627   0.003   6.439
 5680SOL    HW117939   1.559   7.014   6.366
 5680SOL    HW217940   1.718   7.004   6.400
 5681SOL     OW17941   2.306   3.947   0.158
 5681SOL    HW117942   2.338   3.955   0.253
 5681SOL    HW217943   2.365   3.884   0.108
 5682SOL     OW17944   1.101   3.918   4.154
 5682SOL    HW117945   1.179   3.856   4.141
 5682SOL    HW217946   1.079   3.961   4.066
 5683SOL     OW17947   4.122   3.421   4.535
 5683SOL    HW117948   4.144   3.417   4.633
 5683SOL    HW217949   4.145   3.511   4.500
 5684SOL     OW17950   3.072   3.953   3.184
 5684SOL    HW117951   3.015   3.878   3.152
 5684SOL    HW217952   3.039   3.984   3.273
 5685SOL     OW17953   0.884   5.395   2.099
 5685SOL    HW117954   0.823   5.452   2.044
 5685SOL    HW217955   0.943   5.454   2.155
 5686SOL     OW17956   3.493   5.250   6.954
 5686SOL    HW117957   3.487   5.200   6.868
 5686SOL    HW217958   3.409   5.237   7.006
 5687SOL     OW17959   4.303   5.582   6.314
 5687SOL    HW117960   4.298   5.682   6.306
 5687SOL    HW217961   4.357   5.546   6.238
 5688SOL     OW17962   5.877   1.658   2.830
 5688SOL    HW117963   5.897   1.563   2.806
 5688SOL    HW217964   5.958   1.698   2.873
 5689SOL     OW17965   4.494   2.909   6.144
 5689SOL    HW117966   4.519   2.985   6.203
 5689SOL    HW217967   4.433   2.847   6.194
 5690SOL     OW17968   4.765   6.599   2.265
 5690SOL    HW117969   4.671   6.575   2.291
 5690SOL    HW217970   4.811   6.641   2.344
 5691SOL     OW17971   2.573   0.097   3.385
 5691SOL    HW117972   2.479   0.130   3.374
 5691SOL    HW217973   2.636   0.174   3.388
 5692SOL     OW17974   6.006   3.410   0.196
 5692SOL    HW117975   6.006   3.319   0.238
 5692SOL    HW217976   6.078   3.466   0.236
 5693SOL     OW17977   4.669   2.742   2.583
 5693SOL    HW117978   4.587   2.751   2.526
 5693SOL    HW217979   4.730   2.675   2.542
 5694SOL     OW17980   1.353   1.978   4.080
 5694SOL    HW117981   1.293   1.978   4.160
 5694SOL    HW217982   1.444   2.012   4.107
 5695SOL     OW17983   1.904   3.784   3.655
 5695SOL    HW117984   1.866   3.696   3.624
 5695SOL    HW217985   1.893   3.852   3.582
 5696SOL     OW17986   3.467   0.320   5.993
 5696SOL    HW117987   3.560   0.286   6.006
 5696SOL    HW217988   3.470   0.419   5.979
 5697SOL     OW17989   6.426   3.459   0.052
 5697SOL    HW117990   6.356   3.527   0.034
 5697SOL    HW217991   6.513   3.489   0.012
 5698SOL     OW17992   1.049   4.545   2.548
 5698SOL    HW117993   0.985   4.613   2.512
 5698SOL    HW217994   1.083   4.574   2.638
 5699SOL     OW17995   6.556   1.646   4.971
 5699SOL    HW117996   6.505   1.635   4.886
 5699SOL    HW217997   6.585   1.742   4.980
 5700SOL     OW17998   1.092   5.340   2.728
 5700SOL    HW117999   1.012   5.328   2.787
 5700SOL    HW218000   1.108   5.255   2.677
 5701SOL     OW18001   5.122   5.077   2.066
 5701SOL    HW118002   5.062   5.111   1.994
 5701SOL    HW218003   5.163   5.154   2.115
 5702SOL     OW18004   2.624   0.392   6.922
 5702SOL    HW118005   2.655   0.317   6.981
 5702SOL    HW218006   2.703   0.434   6.877
 5703SOL     OW18007   4.640   4.165   1.677
 5703SOL    HW118008   4.569   4.191   1.742
 5703SOL    HW218009   4.696   4.092   1.715
 5704SOL     OW18010   4.797   4.830   3.606
 5704SOL    HW118011   4.810   4.927   3.628
 5704SOL    HW218012   4.807   4.816   3.508
 5705SOL     OW18013   5.881   1.350   2.817
 5705SOL    HW118014   5.797   1.297   2.827
 5705SOL    HW218015   5.958   1.299   2.855
 5706SOL     OW18016   2.271   0.975   6.908
 5706SOL    HW118017   2.343   0.983   6.839
 5706SOL    HW218018   2.187   0.943   6.864
 5707SOL     OW18019   3.180   1.810   6.162
 5707SOL    HW118020   3.141   1.821   6.253
 5707SOL    HW218021   3.141   1.880   6.101
 5708SOL     OW18022   6.090   0.200   2.018
 5708SOL    HW118023   6.070   0.206   2.115
 5708SOL    HW218024   6.187   0.183   2.005
 5709SOL     OW18025   0.858   1.252   2.275
 5709SOL    HW118026   0.935   1.314   2.265
 5709SOL    HW218027   0.776   1.304   2.300
 5710SOL     OW18028   3.166   4.277   6.414
 5710SOL    HW118029   3.152   4.246   6.320
 5710SOL    HW218030   3.134   4.372   6.423
 5711SOL     OW18031   5.062   1.376   4.878
 5711SOL    HW118032   5.095   1.300   4.935
 5711SOL    HW218033   5.116   1.458   4.898
 5712SOL     OW18034   6.913   6.098   6.627
 5712SOL    HW118035   6.978   6.132   6.695
 5712SOL    HW218036   6.961   6.079   6.541
 5713SOL     OW18037   0.019   2.417   2.664
 5713SOL    HW118038   0.090   2.374   2.721
 5713SOL    HW218039   6.943   2.387   2.695
 5714SOL     OW18040   2.184   0.608   6.352
 5714SOL    HW118041   2.161   0.668   6.429
 5714SOL    HW218042   2.100   0.573   6.311
 5715SOL     OW18043   1.697   6.545   3.150
 5715SOL    HW118044   1.662   6.455   3.177
 5715SOL    HW218045   1.696   6.552   3.051
 5716SOL     OW18046   1.682   2.782   5.019
 5716SOL    HW118047   1.763   2.828   5.057
 5716SOL    HW218048   1.699   2.759   4.923
 5717SOL     OW18049   0.447   3.584   0.036
 5717SOL    HW118050   0.480   3.663   0.087
 5717SOL    HW218051   0.497   3.502   0.065
 5718SOL     OW18052   2.128   5.148   5.026
 5718SOL    HW118053   2.171   5.061   5.053
 5718SOL    HW218054   2.035   5.152   5.064
 5719SOL     OW18055   2.976   0.046   0.205
 5719SOL    HW118056   2.974   0.060   0.106
 5719SOL    HW218057   3.029   0.119   0.248
 5720SOL     OW18058   1.987   5.605   3.944
 5720SOL    HW118059   2.025   5.688   3.983
 5720SOL    HW218060   1.945   5.550   4.017
 5721SOL     OW18061   6.784   4.219   0.517
 5721SOL    HW118062   6.767   4.317   0.525
 5721SOL    HW218063   6.746   4.172   0.597
 5722SOL     OW18064   5.680   1.190   3.941
 5722SOL    HW118065   5.647   1.099   3.965
 5722SOL    HW218066   5.732   1.228   4.017
 5723SOL     OW18067   1.496   4.582   0.631
 5723SOL    HW118068   1.486   4.484   0.652
 5723SOL    HW218069   1.411   4.616   0.591
 5724SOL     OW18070   4.946   2.291   6.454
 5724SOL    HW118071   4.989   2.370   6.410
 5724SOL    HW218072   4.974   2.207   6.408
 5725SOL     OW18073   5.451   5.430   6.001
 5725SOL    HW118074   5.502   5.352   5.965
 5725SOL    HW218075   5.494   5.515   5.969
 5726SOL     OW18076   4.490   3.528   5.799
 5726SOL    HW118077   4.517   3.451   5.741
 5726SOL    HW218078   4.433   3.591   5.746
 5727SOL     OW18079   5.875   2.241   3.922
 5727SOL    HW118080   5.959   2.271   3.877
 5727SOL    HW218081   5.815   2.198   3.854
 5728SOL     OW18082   5.099   0.762   6.030
 5728SOL    HW118083   5.134   0.844   5.984
 5728SOL    HW218084   5.042   0.789   6.108
 5729SOL     OW18085   1.248   2.949   4.957
 5729SOL    HW118086   1.149   2.959   4.971
 5729SOL    HW218087   1.277   3.006   4.880
 5730SOL     OW18088   3.938   5.291   7.008
 5730SOL    HW118089   4.004   5.227   0.033
 5730SOL    HW218090   3.932   5.277   6.909
 5731SOL     OW18091   4.046   0.945   4.640
 5731SOL    HW118092   4.025   1.042   4.649
 5731SOL    HW218093   4.110   0.932   4.565
 5732SOL     OW18094   5.867   3.902   3.977
 5732SOL    HW118095   5.770   3.879   3.970
 5732SOL    HW218096   5.894   3.906   4.074
 5733SOL     OW18097   2.794   0.140   1.040
 5733SOL    HW118098   2.784   0.060   0.981
 5733SOL    HW218099   2.706   0.188   1.047
 5734SOL     OW18100   1.729   6.325   6.571
 5734SOL    HW118101   1.722   6.423   6.590
 5734SOL    HW218102   1.783   6.311   6.488
 5735SOL     OW18103   4.919   0.664   2.089
 5735SOL    HW118104   4.927   0.741   2.026
 5735SOL    HW218105   4.828   0.663   2.130
 5736SOL     OW18106   6.138   4.964   7.006
 5736SOL    HW118107   6.075   4.890   0.014
 5736SOL    HW218108   6.129   4.989   6.910
 5737SOL     OW18109   4.738   5.381   1.546
 5737SOL    HW118110   4.724   5.424   1.635
 5737SOL    HW218111   4.687   5.431   1.477
 5738SOL     OW18112   2.655   0.924   0.516
 5738SOL    HW118113   2.737   0.947   0.463
 5738SOL    HW218114   2.633   0.827   0.503
 5739SOL     OW18115   2.368   0.953   5.735
 5739SOL    HW118116   2.431   0.891   5.783
 5739SOL    HW218117   2.319   1.009   5.802
 5740SOL     OW18118   4.958   3.564   2.296
 5740SOL    HW118119   4.922   3.494   2.234
 5740SOL    HW218120   5.058   3.558   2.299
 5741SOL     OW18121   0.194   3.460   4.206
 5741SOL    HW118122   0.144   3.374   4.198
 5741SOL    HW218123   0.288   3.447   4.173
 5742SOL     OW18124   5.422   0.230   3.620
 5742SOL    HW118125   5.409   0.201   3.525
 5742SOL    HW218126   5.398   0.155   3.681
 5743SOL     OW18127   3.212   5.473   6.753
 5743SOL    HW118128   3.310   5.496   6.746
 5743SOL    HW218129   3.178   5.446   6.663
 5744SOL     OW18130   5.257   6.716   3.229
 5744SOL    HW118131   5.199   6.735   3.150
 5744SOL    HW218132   5.211   6.652   3.289
 5745SOL     OW18133   1.278   2.981   1.688
 5745SOL    HW118134   1.222   2.976   1.771
 5745SOL    HW218135   1.375   2.973   1.712
 5746SOL     OW18136   5.040   6.589   3.423
 5746SOL    HW118137   4.996   6.642   3.351
 5746SOL    HW218138   5.007   6.620   3.512
 5747SOL     OW18139   1.811   6.871   0.696
 5747SOL    HW118140   1.767   6.823   0.772
 5747SOL    HW218141   1.886   6.927   0.731
 5748SOL     OW18142   6.918   6.184   0.979
 5748SOL    HW118143   6.867   6.109   0.937
 5748SOL    HW218144   6.939   6.162   1.074
 5749SOL     OW18145   1.895   5.532   6.157
 5749SOL    HW118146   1.803   5.550   6.122
 5749SOL    HW218147   1.893   5.450   6.214
 5750SOL     OW18148   0.069   3.022   4.435
 5750SOL    HW118149   0.149   3.037   4.493
 5750SOL    HW218150   7.009   2.984   4.490
 5751SOL     OW18151   1.157   4.114   4.733
 5751SOL    HW118152   1.193   4.021   4.729
 5751SOL    HW218153   1.204   4.164   4.806
 5752SOL     OW18154   4.995   0.645   0.950
 5752SOL    HW118155   4.983   0.740   0.977
 5752SOL    HW218156   4.936   0.625   0.872
 5753SOL     OW18157   3.904   4.119   5.033
 5753SOL    HW118158   3.963   4.038   5.029
 5753SOL    HW218159   3.952   4.196   4.992
 5754SOL     OW18160   0.647   5.558   1.340
 5754SOL    HW118161   0.651   5.520   1.432
 5754SOL    HW218162   0.657   5.484   1.273
 5755SOL     OW18163   1.272   2.524   6.658
 5755SOL    HW118164   1.227   2.449   6.609
 5755SOL    HW218165   1.343   2.564   6.600
 5756SOL     OW18166   5.857   6.218   1.794
 5756SOL    HW118167   5.836   6.255   1.704
 5756SOL    HW218168   5.838   6.120   1.795
 5757SOL     OW18169   6.732   0.811   4.278
 5757SOL    HW118170   6.688   0.826   4.189
 5757SOL    HW218171   6.781   0.893   4.305
 5758SOL     OW18172   5.885   6.796   3.079
 5758SOL    HW118173   5.908   6.730   3.150
 5758SOL    HW218174   5.849   6.880   3.122
 5759SOL     OW18175   2.989   0.369   1.259
 5759SOL    HW118176   3.000   0.445   1.195
 5759SOL    HW218177   2.988   0.282   1.208
 5760SOL     OW18178   1.552   2.867   0.273
 5760SOL    HW118179   1.562   2.915   0.359
 5760SOL    HW218180   1.605   2.913   0.202
 5761SOL     OW18181   6.201   0.299   4.841
 5761SOL    HW118182   6.166   0.211   4.809
 5761SOL    HW218183   6.200   0.365   4.766
 5762SOL     OW18184   0.114   5.446   6.884
 5762SOL    HW118185   0.015   5.451   6.895
 5762SOL    HW218186   0.136   5.388   6.806
 5763SOL     OW18187   5.827   0.205   0.125
 5763SOL    HW118188   5.740   0.228   0.169
 5763SOL    HW218189   5.871   0.130   0.174
 5764SOL     OW18190   5.067   6.279   4.080
 5764SOL    HW118191   5.097   6.337   4.004
 5764SOL    HW218192   4.972   6.253   4.067
 5765SOL     OW18193   6.385   5.116   2.340
 5765SOL    HW118194   6.398   5.140   2.436
 5765SOL    HW218195   6.350   5.023   2.333
 5766SOL     OW18196   0.144   1.172   4.417
 5766SOL    HW118197   0.172   1.267   4.403
 5766SOL    HW218198   0.225   1.116   4.438
 5767SOL     OW18199   4.006   6.361   6.696
 5767SOL    HW118200   3.939   6.392   6.764
 5767SOL    HW218201   4.033   6.267   6.717
 5768SOL     OW18202   0.584   0.526   5.238
 5768SOL    HW118203   0.542   0.479   5.160
 5768SOL    HW218204   0.636   0.605   5.205
 5769SOL     OW18205   1.825   3.865   5.537
 5769SOL    HW118206   1.872   3.927   5.474
 5769SOL    HW218207   1.848   3.770   5.514
 5770SOL     OW18208   1.551   4.428   1.784
 5770SOL    HW118209   1.592   4.515   1.813
 5770SOL    HW218210   1.601   4.353   1.826
 5771SOL     OW18211   3.616   4.924   3.956
 5771SOL    HW118212   3.591   4.905   3.861
 5771SOL    HW218213   3.547   4.983   3.998
 5772SOL     OW18214   3.092   0.460   2.369
 5772SOL    HW118215   3.078   0.489   2.464
 5772SOL    HW218216   3.005   0.427   2.332
 5773SOL     OW18217   4.868   1.580   2.164
 5773SOL    HW118218   4.950   1.525   2.152
 5773SOL    HW218219   4.798   1.525   2.210
 5774SOL     OW18220   0.431   6.850   2.195
 5774SOL    HW118221   0.342   6.809   2.173
 5774SOL    HW218222   0.425   6.949   2.187
 5775SOL     OW18223   6.526   5.429   1.278
 5775SOL    HW118224   6.523   5.527   1.299
 5775SOL    HW218225   6.464   5.410   1.202
 5776SOL     OW18226   2.461   1.138   4.117
 5776SOL    HW118227   2.461   1.061   4.053
 5776SOL    HW218228   2.378   1.136   4.172
 5777SOL     OW18229   1.517   6.486   2.385
 5777SOL    HW118230   1.449   6.477   2.457
 5777SOL    HW218231   1.477   6.459   2.298
 5778SOL     OW18232   0.561   1.920   0.709
 5778SOL    HW118233   0.641   1.979   0.695
 5778SOL    HW218234   0.589   1.835   0.753
 5779SOL     OW18235   5.819   1.378   5.975
 5779SOL    HW118236   5.885   1.304   5.960
 5779SOL    HW218237   5.867   1.460   6.004
 5780SOL     OW18238   4.783   5.496   4.321
 5780SOL    HW118239   4.786   5.528   4.416
 5780SOL    HW218240   4.744   5.568   4.263
 5781SOL     OW18241   0.701   5.213   5.229
 5781SOL    HW118242   0.797   5.199   5.205
 5781SOL    HW218243   0.674   5.306   5.203
 5782SOL     OW18244   0.195   0.573   0.437
 5782SOL    HW118245   0.209   0.635   0.360
 5782SOL    HW218246   0.166   0.625   0.517
 5783SOL     OW18247   1.653   2.161   0.809
 5783SOL    HW118248   1.604   2.199   0.887
 5783SOL    HW218249   1.743   2.204   0.802
 5784SOL     OW18250   6.711   5.911   6.718
 5784SOL    HW118251   6.650   5.882   6.645
 5784SOL    HW218252   6.765   5.989   6.687
 5785SOL     OW18253   0.713   1.309   0.580
 5785SOL    HW118254   0.705   1.216   0.543
 5785SOL    HW218255   0.800   1.348   0.552
 5786SOL     OW18256   5.724   5.125   1.383
 5786SOL    HW118257   5.732   5.191   1.309
 5786SOL    HW218258   5.642   5.144   1.437
 5787SOL     OW18259   2.424   2.695   5.903
 5787SOL    HW118260   2.392   2.617   5.850
 5787SOL    HW218261   2.499   2.740   5.854
 5788SOL     OW18262   2.423   0.919   3.634
 5788SOL    HW118263   2.498   0.882   3.580
 5788SOL    HW218264   2.339   0.869   3.614
 5789SOL     OW18265   4.021   4.801   6.079
 5789SOL    HW118266   4.080   4.802   5.998
 5789SOL    HW218267   3.930   4.833   6.054
 5790SOL     OW18268   0.920   3.183   3.445
 5790SOL    HW118269   0.825   3.206   3.421
 5790SOL    HW218270   0.957   3.119   3.378
 5791SOL     OW18271   2.292   0.720   2.960
 5791SOL    HW118272   2.322   0.641   3.012
 5791SOL    HW218273   2.359   0.794   2.968
 5792SOL     OW18274   0.112   2.193   2.213
 5792SOL    HW118275   0.115   2.282   2.166
 5792SOL    HW218276   0.137   2.206   2.309
 5793SOL     OW18277   0.122   0.324   3.967
 5793SOL    HW118278   0.190   0.321   3.894
 5793SOL    HW218279   0.031   0.312   3.928
 5794SOL     OW18280   4.878   4.429   6.801
 5794SOL    HW118281   4.943   4.432   6.724
 5794SOL    HW218282   4.793   4.475   6.775
 5795SOL     OW18283   6.114   4.445   0.044
 5795SOL    HW118284   6.162   4.501   6.990
 5795SOL    HW218285   6.103   4.352   0.009
 5796SOL     OW18286   3.754   1.922   0.641
 5796SOL    HW118287   3.661   1.886   0.638
 5796SOL    HW218288   3.819   1.847   0.647
 5797SOL     OW18289   2.995   2.022   5.711
 5797SOL    HW118290   3.047   2.061   5.635
 5797SOL    HW218291   2.897   2.031   5.692
 5798SOL     OW18292   6.996   4.714   4.189
 5798SOL    HW118293   0.021   4.665   4.268
 5798SOL    HW218294   6.965   4.648   4.121
 5799SOL     OW18295   5.664   0.245   3.917
 5799SOL    HW118296   5.591   0.188   3.955
 5799SOL    HW218297   5.724   0.275   3.991
 5800SOL     OW18298   5.782   5.400   0.874
 5800SOL    HW118299   5.779   5.318   0.817
 5800SOL    HW218300   5.692   5.414   0.916
 5801SOL     OW18301   2.413   1.521   3.252
 5801SOL    HW118302   2.432   1.593   3.185
 5801SOL    HW218303   2.325   1.479   3.230
 5802SOL     OW18304   0.812   3.318   5.232
 5802SOL    HW118305   0.825   3.237   5.288
 5802SOL    HW218306   0.899   3.342   5.186
 5803SOL     OW18307   1.572   4.790   0.339
 5803SOL    HW118308   1.549   4.703   0.382
 5803SOL    HW218309   1.579   4.861   0.409
 5804SOL     OW18310   6.277   3.317   4.888
 5804SOL    HW118311   6.287   3.249   4.961
 5804SOL    HW218312   6.296   3.274   4.799
 5805SOL     OW18313   5.380   3.466   6.567
 5805SOL    HW118314   5.309   3.513   6.515
 5805SOL    HW218315   5.462   3.522   6.569
 5806SOL     OW18316   0.352   6.528   0.198
 5806SOL    HW118317   0.314   6.441   0.166
 5806SOL    HW218318   0.443   6.511   0.236
 5807SOL     OW18319   1.997   3.530   1.900
 5807SOL    HW118320   2.069   3.474   1.941
 5807SOL    HW218321   1.986   3.505   1.804
 5808SOL     OW18322   6.737   3.384   2.986
 5808SOL    HW118323   6.776   3.348   2.901
 5808SOL    HW218324   6.663   3.325   3.017
 5809SOL     OW18325   6.613   3.366   4.101
 5809SOL    HW118326   6.547   3.314   4.156
 5809SOL    HW218327   6.650   3.441   4.156
 5810SOL     OW18328   2.621   2.239   2.398
 5810SOL    HW118329   2.578   2.223   2.487
 5810SOL    HW218330   2.551   2.266   2.332
 5811SOL     OW18331   2.316   1.556   3.595
 5811SOL    HW118332   2.371   1.624   3.643
 5811SOL    HW218333   2.360   1.466   3.604
 5812SOL     OW18334   4.356   0.590   4.975
 5812SOL    HW118335   4.341   0.546   4.886
 5812SOL    HW218336   4.328   0.529   5.048
 5813SOL     OW18337   1.635   0.510   5.187
 5813SOL    HW118338   1.692   0.430   5.201
 5813SOL    HW218339   1.582   0.500   5.103
 5814SOL     OW18340   0.211   5.075   0.717
 5814SOL    HW118341   0.179   5.067   0.623
 5814SOL    HW218342   0.136   5.055   0.780
 5815SOL     OW18343   3.266   1.735   2.885
 5815SOL    HW118344   3.353   1.691   2.906
 5815SOL    HW218345   3.205   1.670   2.840
 5816SOL     OW18346   4.862   0.487   0.691
 5816SOL    HW118347   4.798   0.416   0.720
 5816SOL    HW218348   4.950   0.446   0.668
 5817SOL     OW18349   5.121   2.211   4.906
 5817SOL    HW118350   5.045   2.232   4.844
 5817SOL    HW218351   5.202   2.263   4.878
 5818SOL     OW18352   5.932   6.260   6.205
 5818SOL    HW118353   5.864   6.188   6.215
 5818SOL    HW218354   6.020   6.220   6.180
 5819SOL     OW18355   6.034   0.371   1.276
 5819SOL    HW118356   6.042   0.360   1.375
 5819SOL    HW218357   6.121   0.405   1.239
 5820SOL     OW18358   5.282   6.285   3.168
 5820SOL    HW118359   5.253   6.240   3.252
 5820SOL    HW218360   5.203   6.298   3.108
 5821SOL     OW18361   2.748   0.889   1.856
 5821SOL    HW118362   2.745   0.797   1.896
 5821SOL    HW218363   2.837   0.903   1.811
 5822SOL     OW18364   0.133   1.249   2.154
 5822SOL    HW118365   0.164   1.155   2.166
 5822SOL    HW218366   0.038   1.249   2.123
 5823SOL     OW18367   2.637   2.076   3.732
 5823SOL    HW118368   2.625   2.032   3.821
 5823SOL    HW218369   2.699   2.155   3.741
 5824SOL     OW18370   4.873   0.257   3.735
 5824SOL    HW118371   4.882   0.326   3.807
 5824SOL    HW218372   4.821   0.295   3.658
 5825SOL     OW18373   2.504   0.918   0.758
 5825SOL    HW118374   2.483   0.969   0.674
 5825SOL    HW218375   2.457   0.960   0.835
 5826SOL     OW18376   6.581   0.570   4.413
 5826SOL    HW118377   6.588   0.583   4.512
 5826SOL    HW218378   6.634   0.640   4.367
 5827SOL     OW18379   1.018   5.746   4.843
 5827SOL    HW118380   0.919   5.758   4.836
 5827SOL    HW218381   1.062   5.835   4.829
 5828SOL     OW18382   6.931   3.335   1.816
 5828SOL    HW118383   6.974   3.366   1.901
 5828SOL    HW218384   6.985   3.368   1.738
 5829SOL     OW18385   1.559   1.487   1.861
 5829SOL    HW118386   1.620   1.561   1.835
 5829SOL    HW218387   1.592   1.401   1.820
 5830SOL     OW18388   1.946   1.631   5.964
 5830SOL    HW118389   1.874   1.569   5.932
 5830SOL    HW218390   1.928   1.723   5.931
 5831SOL     OW18391   5.547   6.378   3.098
 5831SOL    HW118392   5.484   6.312   3.139
 5831SOL    HW218393   5.495   6.457   3.064
 5832SOL     OW18394   3.789   3.650   5.108
 5832SOL    HW118395   3.792   3.715   5.033
 5832SOL    HW218396   3.838   3.689   5.187
 5833SOL     OW18397   3.470   3.165   5.019
 5833SOL    HW118398   3.496   3.126   4.931
 5833SOL    HW218399   3.376   3.198   5.015
 5834SOL     OW18400   5.954   1.180   0.712
 5834SOL    HW118401   5.944   1.280   0.717
 5834SOL    HW218402   6.027   1.157   0.647
 5835SOL     OW18403   5.061   2.600   3.970
 5835SOL    HW118404   4.966   2.599   4.000
 5835SOL    HW218405   5.088   2.694   3.948
 5836SOL     OW18406   3.232   6.208   2.440
 5836SOL    HW118407   3.146   6.169   2.472
 5836SOL    HW218408   3.232   6.212   2.340
 5837SOL     OW18409   4.660   4.563   6.443
 5837SOL    HW118410   4.704   4.477   6.415
 5837SOL    HW218411   4.571   4.542   6.483
 5838SOL     OW18412   0.897   0.890   5.422
 5838SOL    HW118413   0.852   0.968   5.465
 5838SOL    HW218414   0.938   0.918   5.335
 5839SOL     OW18415   0.223   3.146   2.681
 5839SOL    HW118416   0.312   3.185   2.659
 5839SOL    HW218417   0.171   3.210   2.737
 5840SOL     OW18418   1.934   4.911   6.435
 5840SOL    HW118419   1.988   4.831   6.411
 5840SOL    HW218420   1.869   4.887   6.508
 5841SOL     OW18421   0.149   2.021   3.608
 5841SOL    HW118422   0.064   1.968   3.602
 5841SOL    HW218423   0.129   2.112   3.646
 5842SOL     OW18424   3.724   3.471   0.849
 5842SOL    HW118425   3.682   3.394   0.896
 5842SOL    HW218426   3.816   3.447   0.820
 5843SOL     OW18427   1.355   3.470   1.751
 5843SOL    HW118428   1.423   3.488   1.680
 5843SOL    HW218429   1.314   3.556   1.781
 5844SOL     OW18430   1.115   6.328   6.629
 5844SOL    HW118431   1.136   6.414   6.675
 5844SOL    HW218432   1.108   6.344   6.531
 5845SOL     OW18433   0.972   2.367   4.395
 5845SOL    HW118434   0.975   2.432   4.471
 5845SOL    HW218435   1.028   2.287   4.418
 5846SOL     OW18436   6.824   3.137   6.367
 5846SOL    HW118437   6.908   3.157   6.316
 5846SOL    HW218438   6.745   3.146   6.306
 5847SOL     OW18439   2.291   2.871   2.939
 5847SOL    HW118440   2.311   2.953   2.885
 5847SOL    HW218441   2.263   2.898   3.031
 5848SOL     OW18442   1.390   4.331   3.595
 5848SOL    HW118443   1.436   4.243   3.611
 5848SOL    HW218444   1.337   4.326   3.510
 5849SOL     OW18445   2.310   6.645   5.639
 5849SOL    HW118446   2.286   6.700   5.560
 5849SOL    HW218447   2.235   6.648   5.706
 5850SOL     OW18448   1.029   4.854   2.729
 5850SOL    HW118449   1.033   4.761   2.767
 5850SOL    HW218450   0.936   4.890   2.740
 5851SOL     OW18451   6.355   3.487   2.148
 5851SOL    HW118452   6.343   3.584   2.170
 5851SOL    HW218453   6.271   3.451   2.108
 5852SOL     OW18454   3.973   5.641   2.756
 5852SOL    HW118455   3.933   5.649   2.848
 5852SOL    HW218456   3.961   5.548   2.722
 5853SOL     OW18457   3.544   4.621   5.911
 5853SOL    HW118458   3.553   4.564   5.830
 5853SOL    HW218459   3.504   4.568   5.986
 5854SOL     OW18460   6.918   1.305   6.226
 5854SOL    HW118461   6.980   1.283   6.151
 5854SOL    HW218462   6.951   1.385   6.275
 5855SOL     OW18463   1.718   0.930   4.840
 5855SOL    HW118464   1.771   0.942   4.756
 5855SOL    HW218465   1.633   0.883   4.820
 5856SOL     OW18466   2.104   4.838   3.744
 5856SOL    HW118467   2.188   4.794   3.714
 5856SOL    HW218468   2.065   4.787   3.821
 5857SOL     OW18469   6.749   2.742   5.209
 5857SOL    HW118470   6.809   2.816   5.179
 5857SOL    HW218471   6.764   2.662   5.152
 5858SOL     OW18472   3.950   0.850   2.410
 5858SOL    HW118473   4.031   0.812   2.365
 5858SOL    HW218474   3.934   0.943   2.377
 5859SOL     OW18475   6.222   6.463   1.033
 5859SOL    HW118476   6.163   6.522   0.978
 5859SOL    HW218477   6.211   6.487   1.130
 5860SOL     OW18478   1.498   3.647   0.964
 5860SOL    HW118479   1.588   3.607   0.950
 5860SOL    HW218480   1.503   3.720   1.033
 5861SOL     OW18481   6.308   2.550   4.036
 5861SOL    HW118482   6.219   2.536   4.081
 5861SOL    HW218483   6.294   2.589   3.946
 5862SOL     OW18484   4.739   4.283   2.923
 5862SOL    HW118485   4.734   4.222   3.002
 5862SOL    HW218486   4.803   4.357   2.941
 5863SOL     OW18487   2.145   1.413   6.738
 5863SOL    HW118488   2.222   1.354   6.760
 5863SOL    HW218489   2.175   1.486   6.677
 5864SOL     OW18490   4.871   4.756   1.085
 5864SOL    HW118491   4.865   4.697   1.166
 5864SOL    HW218492   4.830   4.710   1.007
 5865SOL     OW18493   4.171   0.431   2.992
 5865SOL    HW118494   4.176   0.354   3.055
 5865SOL    HW218495   4.162   0.516   3.045
 5866SOL     OW18496   4.366   0.220   6.641
 5866SOL    HW118497   4.372   0.296   6.576
 5866SOL    HW218498   4.296   0.155   6.610
 5867SOL     OW18499   0.246   2.536   1.496
 5867SOL    HW118500   0.315   2.544   1.424
 5867SOL    HW218501   0.290   2.538   1.585
 5868SOL     OW18502   1.646   6.738   5.174
 5868SOL    HW118503   1.703   6.701   5.248
 5868SOL    HW218504   1.683   6.826   5.144
 5869SOL     OW18505   2.842   4.833   3.546
 5869SOL    HW118506   2.752   4.802   3.574
 5869SOL    HW218507   2.912   4.777   3.590
 5870SOL     OW18508   5.281   5.121   5.059
 5870SOL    HW118509   5.297   5.191   4.989
 5870SOL    HW218510   5.229   5.046   5.020
 5871SOL     OW18511   2.862   3.360   6.825
 5871SOL    HW118512   2.788   3.425   6.808
 5871SOL    HW218513   2.826   3.267   6.823
 5872SOL     OW18514   3.207   6.087   5.361
 5872SOL    HW118515   3.228   6.174   5.315
 5872SOL    HW218516   3.267   6.077   5.440
 5873SOL     OW18517   2.689   3.832   7.001
 5873SOL    HW118518   2.769   3.891   6.993
 5873SOL    HW218519   2.659   3.829   0.082
 5874SOL     OW18520   1.621   4.193   0.952
 5874SOL    HW118521   1.588   4.171   1.044
 5874SOL    HW218522   1.620   4.111   0.895
 5875SOL     OW18523   4.416   2.022   0.068
 5875SOL    HW118524   4.354   1.973   0.007
 5875SOL    HW218525   4.373   2.030   0.158
 5876SOL     OW18526   3.268   4.580   5.773
 5876SOL    HW118527   3.289   4.666   5.819
 5876SOL    HW218528   3.354   4.535   5.747
 5877SOL     OW18529   0.099   6.697   2.782
 5877SOL    HW118530   0.140   6.777   2.827
 5877SOL    HW218531   0.087   6.624   2.850
 5878SOL     OW18532   5.103   4.469   2.511
 5878SOL    HW118533   5.030   4.479   2.579
 5878SOL    HW218534   5.061   4.454   2.421
 5879SOL     OW18535   3.414   3.400   5.702
 5879SOL    HW118536   3.433   3.308   5.736
 5879SOL    HW218537   3.496   3.438   5.660
 5880SOL     OW18538   5.523   2.560   5.688
 5880SOL    HW118539   5.433   2.563   5.644
 5880SOL    HW218540   5.522   2.617   5.770
 5881SOL     OW18541   1.284   6.178   2.421
 5881SOL    HW118542   1.252   6.254   2.476
 5881SOL    HW218543   1.341   6.117   2.477
 5882SOL     OW18544   1.406   4.986   5.601
 5882SOL    HW118545   1.468   4.910   5.620
 5882SOL    HW218546   1.344   4.961   5.527
 5883SOL     OW18547   6.621   4.768   0.809
 5883SOL    HW118548   6.674   4.706   0.867
 5883SOL    HW218549   6.681   4.814   0.744
 5884SOL     OW18550   6.502   2.152   2.888
 5884SOL    HW118551   6.438   2.178   2.815
 5884SOL    HW218552   6.503   2.222   2.959
 5885SOL     OW18553   6.648   5.637   0.114
 5885SOL    HW118554   6.555   5.621   0.081
 5885SOL    HW218555   6.685   5.553   0.153
 5886SOL     OW18556   2.119   4.314   3.618
 5886SOL    HW118557   2.206   4.339   3.660
 5886SOL    HW218558   2.046   4.315   3.686
 5887SOL     OW18559   2.415   2.816   0.666
 5887SOL    HW118560   2.339   2.764   0.628
 5887SOL    HW218561   2.404   2.824   0.765
 5888SOL     OW18562   3.438   6.656   1.175
 5888SOL    HW118563   3.375   6.607   1.235
 5888SOL    HW218564   3.451   6.749   1.209
 5889SOL     OW18565   5.943   0.994   2.064
 5889SOL    HW118566   6.011   0.925   2.090
 5889SOL    HW218567   5.948   1.010   1.965
 5890SOL     OW18568   1.590   5.379   2.681
 5890SOL    HW118569   1.502   5.342   2.710
 5890SOL    HW218570   1.631   5.318   2.612
 5891SOL     OW18571   2.282   3.395   0.007
 5891SOL    HW118572   2.257   3.426   0.099
 5891SOL    HW218573   2.216   3.430   6.955
 5892SOL     OW18574   1.106   3.223   0.231
 5892SOL    HW118575   1.197   3.196   0.264
 5892SOL    HW218576   1.036   3.177   0.284
 5893SOL     OW18577   0.875   6.227   1.404
 5893SOL    HW118578   0.889   6.131   1.382
 5893SOL    HW218579   0.800   6.236   1.470
 5894SOL     OW18580   2.326   5.475   6.622
 5894SOL    HW118581   2.407   5.499   6.568
 5894SOL    HW218582   2.321   5.533   6.703
 5895SOL     OW18583   5.225   4.038   3.988
 5895SOL    HW118584   5.271   4.126   3.984
 5895SOL    HW218585   5.220   3.999   3.896
 5896SOL     OW18586   5.951   2.313   2.571
 5896SOL    HW118587   6.035   2.326   2.518
 5896SOL    HW218588   5.872   2.325   2.511
 5897SOL     OW18589   4.009   2.373   0.143
 5897SOL    HW118590   3.975   2.360   0.235
 5897SOL    HW218591   3.958   2.447   0.099
 5898SOL     OW18592   2.165   1.352   5.736
 5898SOL    HW118593   2.177   1.444   5.773
 5898SOL    HW218594   2.216   1.287   5.792
 5899SOL     OW18595   0.017   6.437   6.521
 5899SOL    HW118596   7.013   6.478   6.610
 5899SOL    HW218597   0.091   6.371   6.528
 5900SOL     OW18598   5.883   6.390   3.193
 5900SOL    HW118599   5.837   6.473   3.225
 5900SOL    HW218600   5.833   6.310   3.226
 5901SOL     OW18601   2.594   0.719   5.029
 5901SOL    HW118602   2.667   0.727   4.962
 5901SOL    HW218603   2.508   0.696   4.982
 5902SOL     OW18604   4.533   4.019   6.068
 5902SOL    HW118605   4.583   3.933   6.080
 5902SOL    HW218606   4.441   4.000   6.034
 5903SOL     OW18607   6.260   2.129   5.626
 5903SOL    HW118608   6.314   2.065   5.680
 5903SOL    HW218609   6.277   2.223   5.657
 5904SOL     OW18610   1.269   4.353   1.830
 5904SOL    HW118611   1.245   4.264   1.791
 5904SOL    HW218612   1.367   4.370   1.816
 5905SOL     OW18613   5.724   1.122   4.565
 5905SOL    HW118614   5.709   1.140   4.662
 5905SOL    HW218615   5.775   1.037   4.554
 5906SOL     OW18616   4.924   1.085   5.793
 5906SOL    HW118617   4.914   1.159   5.727
 5906SOL    HW218618   4.878   1.110   5.878
 5907SOL     OW18619   1.895   3.550   5.477
 5907SOL    HW118620   1.891   3.451   5.461
 5907SOL    HW218621   1.837   3.597   5.410
 5908SOL     OW18622   5.375   3.245   6.320
 5908SOL    HW118623   5.413   3.334   6.296
 5908SOL    HW218624   5.447   3.176   6.315
 5909SOL     OW18625   6.466   4.412   3.752
 5909SOL    HW118626   6.547   4.369   3.712
 5909SOL    HW218627   6.417   4.464   3.682
 5910SOL     OW18628   2.630   4.531   0.861
 5910SOL    HW118629   2.571   4.460   0.900
 5910SOL    HW218630   2.577   4.616   0.850
 5911SOL     OW18631   5.255   6.890   6.930
 5911SOL    HW118632   5.254   6.792   6.953
 5911SOL    HW218633   5.344   6.914   6.894
 5912SOL     OW18634   0.014   3.178   6.125
 5912SOL    HW118635   0.015   3.277   6.112
 5912SOL    HW218636   0.013   3.132   6.036
 5913SOL     OW18637   1.247   1.885   5.260
 5913SOL    HW118638   1.168   1.841   5.304
 5913SOL    HW218639   1.242   1.868   5.161
 5914SOL     OW18640   2.058   6.054   1.347
 5914SOL    HW118641   2.020   6.023   1.260
 5914SOL    HW218642   1.984   6.068   1.413
 5915SOL     OW18643   5.052   3.180   3.154
 5915SOL    HW118644   4.994   3.101   3.136
 5915SOL    HW218645   5.142   3.167   3.112
 5916SOL     OW18646   3.104   6.948   6.142
 5916SOL    HW118647   3.183   7.009   6.134
 5916SOL    HW218648   3.052   6.951   6.057
 5917SOL     OW18649   3.712   2.944   2.636
 5917SOL    HW118650   3.713   2.948   2.536
 5917SOL    HW218651   3.767   3.020   2.673
 5918SOL     OW18652   2.290   2.872   3.776
 5918SOL    HW118653   2.329   2.963   3.795
 5918SOL    HW218654   2.205   2.861   3.828
 5919SOL     OW18655   1.292   2.819   0.334
 5919SOL    HW118656   1.246   2.760   0.267
 5919SOL    HW218657   1.386   2.835   0.305
 5920SOL     OW18658   3.009   5.527   6.953
 5920SOL    HW118659   3.073   5.514   6.876
 5920SOL    HW218660   2.917   5.501   6.925
 5921SOL     OW18661   3.977   5.317   5.240
 5921SOL    HW118662   4.061   5.281   5.281
 5921SOL    HW218663   3.982   5.416   5.236
 5922SOL     OW18664   5.785   4.195   1.798
 5922SOL    HW118665   5.710   4.259   1.815
 5922SOL    HW218666   5.758   4.130   1.727
 5923SOL     OW18667   0.139   6.816   3.401
 5923SOL    HW118668   0.108   6.895   3.348
 5923SOL    HW218669   0.168   6.743   3.340
 5924SOL     OW18670   5.459   2.365   4.105
 5924SOL    HW118671   5.518   2.365   4.025
 5924SOL    HW218672   5.446   2.459   4.137
 5925SOL     OW18673   6.291   5.940   1.007
 5925SOL    HW118674   6.269   6.025   0.960
 5925SOL    HW218675   6.377   5.904   0.972
 5926SOL     OW18676   3.656   4.982   2.063
 5926SOL    HW118677   3.576   5.002   2.120
 5926SOL    HW218678   3.639   4.898   2.011
 5927SOL     OW18679   2.270   5.449   1.990
 5927SOL    HW118680   2.229   5.534   2.022
 5927SOL    HW218681   2.345   5.470   1.926
 5928SOL     OW18682   0.978   6.450   1.864
 5928SOL    HW118683   1.063   6.410   1.898
 5928SOL    HW218684   0.934   6.387   1.800
 5929SOL     OW18685   1.607   6.873   5.611
 5929SOL    HW118686   1.555   6.933   5.672
 5929SOL    HW218687   1.557   6.860   5.526
 5930SOL     OW18688   0.100   1.563   5.131
 5930SOL    HW118689   0.040   1.639   5.109
 5930SOL    HW218690   0.047   1.488   5.171
 5931SOL     OW18691   5.406   5.418   1.368
 5931SOL    HW118692   5.457   5.342   1.409
 5931SOL    HW218693   5.467   5.496   1.358
 5932SOL     OW18694   2.287   6.647   0.239
 5932SOL    HW118695   2.204   6.619   0.191
 5932SOL    HW218696   2.359   6.667   0.173
 5933SOL     OW18697   6.164   3.495   2.803
 5933SOL    HW118698   6.259   3.525   2.813
 5933SOL    HW218699   6.135   3.448   2.887
 5934SOL     OW18700   3.826   3.979   3.113
 5934SOL    HW118701   3.872   3.965   3.025
 5934SOL    HW218702   3.728   3.991   3.098
 5935SOL     OW18703   3.477   3.056   3.120
 5935SOL    HW118704   3.557   3.006   3.152
 5935SOL    HW218705   3.394   3.015   3.157
 5936SOL     OW18706   5.715   5.838   6.277
 5936SOL    HW118707   5.789   5.784   6.317
 5936SOL    HW218708   5.746   5.884   6.194
 5937SOL     OW18709   1.014   3.669   0.791
 5937SOL    HW118710   0.947   3.734   0.827
 5937SOL    HW218711   1.081   3.717   0.735
 5938SOL     OW18712   1.825   4.059   1.498
 5938SOL    HW118713   1.916   4.054   1.539
 5938SOL    HW218714   1.772   3.978   1.524
 5939SOL     OW18715   2.800   0.675   3.196
 5939SOL    HW118716   2.756   0.725   3.271
 5939SOL    HW218717   2.743   0.597   3.170
 5940SOL     OW18718   4.416   5.467   3.845
 5940SOL    HW118719   4.387   5.554   3.805
 5940SOL    HW218720   4.499   5.435   3.798
 5941SOL     OW18721   6.262   4.454   2.509
 5941SOL    HW118722   6.328   4.489   2.442
 5941SOL    HW218723   6.261   4.354   2.505
 5942SOL     OW18724   5.935   1.714   5.464
 5942SOL    HW118725   6.021   1.752   5.498
 5942SOL    HW218726   5.940   1.614   5.464
 5943SOL     OW18727   1.531   5.629   6.796
 5943SOL    HW118728   1.551   5.699   6.864
 5943SOL    HW218729   1.457   5.570   6.829
 5944SOL     OW18730   4.418   2.008   2.494
 5944SOL    HW118731   4.340   1.990   2.555
 5944SOL    HW218732   4.502   1.973   2.537
 5945SOL     OW18733   0.028   4.748   5.774
 5945SOL    HW118734   0.101   4.767   5.709
 5945SOL    HW218735   0.058   4.771   5.866
 5946SOL     OW18736   3.714   2.840   5.358
 5946SOL    HW118737   3.663   2.920   5.328
 5946SOL    HW218738   3.788   2.821   5.294
 5947SOL     OW18739   4.166   3.546   1.671
 5947SOL    HW118740   4.170   3.634   1.720
 5947SOL    HW218741   4.087   3.546   1.609
 5948SOL     OW18742   3.959   4.812   2.710
 5948SOL    HW118743   3.976   4.794   2.807
 5948SOL    HW218744   3.865   4.843   2.698
 5949SOL     OW18745   4.724   4.676   2.123
 5949SOL    HW118746   4.629   4.676   2.093
 5949SOL    HW218747   4.755   4.582   2.137
 5950SOL     OW18748   6.187   2.583   3.784
 5950SOL    HW118749   6.141   2.607   3.698
 5950SOL    HW218750   6.284   2.566   3.766
 5951SOL     OW18751   2.123   5.931   3.678
 5951SOL    HW118752   2.146   5.936   3.775
 5951SOL    HW218753   2.140   6.020   3.635
 5952SOL     OW18754   6.715   6.779   4.707
 5952SOL    HW118755   6.753   6.697   4.665
 5952SOL    HW218756   6.722   6.771   4.807
 5953SOL     OW18757   0.375   2.939   6.302
 5953SOL    HW118758   0.308   3.011   6.318
 5953SOL    HW218759   0.431   2.927   6.384
 5954SOL     OW18760   0.963   5.017   6.834
 5954SOL    HW118761   1.049   4.987   6.794
 5954SOL    HW218762   0.978   5.101   6.887
 5955SOL     OW18763   5.171   5.852   2.457
 5955SOL    HW118764   5.230   5.914   2.406
 5955SOL    HW218765   5.181   5.759   2.420
 5956SOL     OW18766   6.315   2.373   0.017
 5956SOL    HW118767   6.292   2.457   0.066
 5956SOL    HW218768   6.403   2.384   6.985
 5957SOL     OW18769   5.314   6.735   5.812
 5957SOL    HW118770   5.385   6.788   5.768
 5957SOL    HW218771   5.344   6.708   5.904
 5958SOL     OW18772   0.546   5.657   2.270
 5958SOL    HW118773   0.601   5.652   2.353
 5958SOL    HW218774   0.535   5.566   2.231
 5959SOL     OW18775   1.992   1.391   6.172
 5959SOL    HW118776   1.972   1.472   6.118
 5959SOL    HW218777   2.057   1.414   6.244
 5960SOL     OW18778   3.621   0.489   4.604
 5960SOL    HW118779   3.669   0.402   4.596
 5960SOL    HW218780   3.679   0.555   4.651
 5961SOL     OW18781   3.110   0.687   5.885
 5961SOL    HW118782   3.098   0.725   5.977
 5961SOL    HW218783   3.153   0.756   5.827
 5962SOL     OW18784   5.831   5.399   2.456
 5962SOL    HW118785   5.743   5.374   2.415
 5962SOL    HW218786   5.840   5.498   2.457
 5963SOL     OW18787   3.991   3.886   2.178
 5963SOL    HW118788   3.971   3.967   2.122
 5963SOL    HW218789   3.976   3.907   2.274
 5964SOL     OW18790   1.369   4.185   5.933
 5964SOL    HW118791   1.384   4.190   5.834
 5964SOL    HW218792   1.326   4.097   5.955
 5965SOL     OW18793   2.330   1.695   4.573
 5965SOL    HW118794   2.351   1.776   4.517
 5965SOL    HW218795   2.365   1.613   4.528
 5966SOL     OW18796   1.499   6.702   3.722
 5966SOL    HW118797   1.567   6.630   3.737
 5966SOL    HW218798   1.529   6.785   3.768
 5967SOL     OW18799   4.829   0.009   2.133
 5967SOL    HW118800   4.875   7.007   2.220
 5967SOL    HW218801   4.849   0.101   2.100
 5968SOL     OW18802   0.396   2.200   4.427
 5968SOL    HW118803   0.436   2.233   4.513
 5968SOL    HW218804   0.425   2.261   4.353
 5969SOL     OW18805   5.750   2.904   2.623
 5969SOL    HW118806   5.782   2.814   2.595
 5969SOL    HW218807   5.742   2.963   2.543
 5970SOL     OW18808   1.826   2.541   3.444
 5970SOL    HW118809   1.765   2.486   3.500
 5970SOL    HW218810   1.876   2.482   3.381
 5971SOL     OW18811   2.432   6.898   2.475
 5971SOL    HW118812   2.354   6.864   2.423
 5971SOL    HW218813   2.514   6.844   2.453
 5972SOL     OW18814   4.600   6.184   1.457
 5972SOL    HW118815   4.594   6.174   1.358
 5972SOL    HW218816   4.659   6.261   1.480
 5973SOL     OW18817   1.082   4.628   3.713
 5973SOL    HW118818   1.178   4.640   3.691
 5973SOL    HW218819   1.056   4.532   3.699
 5974SOL     OW18820   0.737   3.931   5.945
 5974SOL    HW118821   0.783   3.869   5.881
 5974SOL    HW218822   0.696   3.878   6.019
 5975SOL     OW18823   2.008   2.633   6.973
 5975SOL    HW118824   2.040   2.545   6.939
 5975SOL    HW218825   1.950   2.618   0.039
 5976SOL     OW18826   3.374   4.152   5.275
 5976SOL    HW118827   3.295   4.104   5.314
 5976SOL    HW218828   3.371   4.146   5.175
 5977SOL     OW18829   1.027   3.274   3.146
 5977SOL    HW118830   1.107   3.305   3.198
 5977SOL    HW218831   1.026   3.175   3.142
 5978SOL     OW18832   5.383   5.380   2.835
 5978SOL    HW118833   5.341   5.376   2.925
 5978SOL    HW218834   5.394   5.476   2.807
 5979SOL     OW18835   0.088   0.786   3.009
 5979SOL    HW118836   0.040   0.781   3.096
 5979SOL    HW218837   0.031   0.833   2.942
 5980SOL     OW18838   6.585   3.825   6.424
 5980SOL    HW118839   6.619   3.858   6.335
 5980SOL    HW218840   6.492   3.859   6.439
 5981SOL     OW18841   3.954   1.082   1.609
 5981SOL    HW118842   3.984   1.105   1.516
 5981SOL    HW218843   3.979   0.987   1.629
 5982SOL     OW18844   6.024   2.328   6.664
 5982SOL    HW118845   6.036   2.353   6.760
 5982SOL    HW218846   5.994   2.408   6.612
 5983SOL     OW18847   0.999   0.923   4.741
 5983SOL    HW118848   0.992   0.933   4.840
 5983SOL    HW218849   1.085   0.965   4.709
 5984SOL     OW18850   7.008   0.070   5.529
 5984SOL    HW118851   0.076   0.025   5.565
 5984SOL    HW218852   6.986   0.150   5.585
 5985SOL     OW18853   4.537   2.372   4.300
 5985SOL    HW118854   4.466   2.322   4.350
 5985SOL    HW218855   4.624   2.364   4.349
 5986SOL     OW18856   3.130   2.963   2.254
 5986SOL    HW118857   3.118   2.909   2.171
 5986SOL    HW218858   3.096   3.056   2.238
 5987SOL     OW18859   4.191   6.703   5.313
 5987SOL    HW118860   4.266   6.676   5.252
 5987SOL    HW218861   4.207   6.795   5.347
 5988SOL     OW18862   4.091   1.159   4.020
 5988SOL    HW118863   4.008   1.211   4.043
 5988SOL    HW218864   4.140   1.137   4.104
 5989SOL     OW18865   2.810   1.016   6.417
 5989SOL    HW118866   2.879   1.039   6.348
 5989SOL    HW218867   2.730   0.976   6.373
 5990SOL     OW18868   3.091   4.740   1.820
 5990SOL    HW118869   3.115   4.674   1.749
 5990SOL    HW218870   3.019   4.702   1.878
 5991SOL     OW18871   2.892   5.267   3.736
 5991SOL    HW118872   2.921   5.351   3.690
 5991SOL    HW218873   2.919   5.188   3.681
 5992SOL     OW18874   4.817   0.928   4.218
 5992SOL    HW118875   4.760   1.005   4.246
 5992SOL    HW218876   4.881   0.958   4.146
 5993SOL     OW18877   3.622   5.424   4.645
 5993SOL    HW118878   3.661   5.371   4.570
 5993SOL    HW218879   3.676   5.506   4.660
 5994SOL     OW18880   7.013   2.314   1.599
 5994SOL    HW118881   0.038   2.318   1.691
 5994SOL    HW218882   6.980   2.222   1.580
 5995SOL     OW18883   0.166   4.408   1.426
 5995SOL    HW118884   0.159   4.314   1.458
 5995SOL    HW218885   0.183   4.408   1.327
 5996SOL     OW18886   0.953   4.972   6.313
 5996SOL    HW118887   0.876   5.034   6.297
 5996SOL    HW218888   1.003   4.959   6.227
 5997SOL     OW18889   0.588   0.309   1.999
 5997SOL    HW118890   0.488   0.306   1.995
 5997SOL    HW218891   0.619   0.275   2.088
 5998SOL     OW18892   4.415   2.094   3.270
 5998SOL    HW118893   4.460   2.015   3.311
 5998SOL    HW218894   4.470   2.128   3.194
 5999SOL     OW18895   1.571   1.499   2.524
 5999SOL    HW118896   1.669   1.491   2.543
 5999SOL    HW218897   1.523   1.526   2.608
 6000SOL     OW18898   4.354   6.510   2.791
 6000SOL    HW118899   4.384   6.428   2.838
 6000SOL    HW218900   4.299   6.485   2.710
 6001SOL     OW18901   6.110   2.138   6.918
 6001SOL    HW118902   6.021   2.182   6.929
 6001SOL    HW218903   6.180   2.207   6.903
 6002SOL     OW18904   1.674   0.403   1.825
 6002SOL    HW118905   1.747   0.399   1.893
 6002SOL    HW218906   1.704   0.357   1.741
 6003SOL     OW18907   4.645   4.331   4.106
 6003SOL    HW118908   4.601   4.345   4.018
 6003SOL    HW218909   4.632   4.412   4.163
 6004SOL     OW18910   0.030   3.812   2.387
 6004SOL    HW118911   6.970   3.842   2.447
 6004SOL    HW218912   0.051   3.883   2.321
 6005SOL     OW18913   3.011   6.105   2.547
 6005SOL    HW118914   2.960   6.124   2.631
 6005SOL    HW218915   3.062   6.020   2.558
 6006SOL     OW18916   2.525   6.068   6.924
 6006SOL    HW118917   2.578   5.989   6.955
 6006SOL    HW218918   2.509   6.129   7.001
 6007SOL     OW18919   5.483   2.482   3.668
 6007SOL    HW118920   5.388   2.508   3.689
 6007SOL    HW218921   5.487   2.445   3.575
 6008SOL     OW18922   3.906   4.411   0.014
 6008SOL    HW118923   3.844   4.468   0.068
 6008SOL    HW218924   3.937   4.334   0.069
 6009SOL     OW18925   3.060   1.745   4.481
 6009SOL    HW118926   3.136   1.716   4.423
 6009SOL    HW218927   3.016   1.665   4.521
 6010SOL     OW18928   1.666   2.495   2.993
 6010SOL    HW118929   1.747   2.514   3.048
 6010SOL    HW218930   1.645   2.397   2.997
 6011SOL     OW18931   6.491   3.301   2.814
 6011SOL    HW118932   6.429   3.262   2.882
 6011SOL    HW218933   6.491   3.400   2.822
 6012SOL     OW18934   6.741   3.266   0.911
 6012SOL    HW118935   6.745   3.341   0.845
 6012SOL    HW218936   6.806   3.194   0.885
 6013SOL     OW18937   5.785   1.469   2.566
 6013SOL    HW118938   5.870   1.477   2.515
 6013SOL    HW218939   5.803   1.431   2.657
 6014SOL     OW18940   5.574   0.319   1.104
 6014SOL    HW118941   5.513   0.372   1.164
 6014SOL    HW218942   5.615   0.380   1.036
 6015SOL     OW18943   4.930   1.934   4.559
 6015SOL    HW118944   4.848   1.948   4.613
 6015SOL    HW218945   4.948   2.015   4.503
 6016SOL     OW18946   1.999   6.901   5.180
 6016SOL    HW118947   1.954   6.929   5.096
 6016SOL    HW218948   1.931   6.871   5.247
 6017SOL     OW18949   6.646   4.516   2.488
 6017SOL    HW118950   6.689   4.480   2.570
 6017SOL    HW218951   6.716   4.549   2.425
 6018SOL     OW18952   2.647   4.846   0.926
 6018SOL    HW118953   2.624   4.927   0.871
 6018SOL    HW218954   2.586   4.841   1.005
 6019SOL     OW18955   4.331   6.730   4.042
 6019SOL    HW118956   4.273   6.807   4.070
 6019SOL    HW218957   4.415   6.764   4.001
 6020SOL     OW18958   3.653   0.596   2.696
 6020SOL    HW118959   3.736   0.596   2.640
 6020SOL    HW218960   3.586   0.659   2.656
 6021SOL     OW18961   4.340   0.811   2.730
 6021SOL    HW118962   4.301   0.901   2.711
 6021SOL    HW218963   4.395   0.781   2.652
 6022SOL     OW18964   4.406   1.855   5.305
 6022SOL    HW118965   4.398   1.933   5.243
 6022SOL    HW218966   4.342   1.783   5.278
 6023SOL     OW18967   6.604   1.809   2.697
 6023SOL    HW118968   6.618   1.838   2.602
 6023SOL    HW218969   6.668   1.735   2.719
 6024SOL     OW18970   0.886   4.706   2.393
 6024SOL    HW118971   0.855   4.799   2.412
 6024SOL    HW218972   0.889   4.691   2.295
 6025SOL     OW18973   4.431   1.899   1.765
 6025SOL    HW118974   4.346   1.938   1.798
 6025SOL    HW218975   4.498   1.895   1.839
 6026SOL     OW18976   0.871   4.755   5.340
 6026SOL    HW118977   0.784   4.803   5.338
 6026SOL    HW218978   0.943   4.819   5.369
 6027SOL     OW18979   2.843   3.432   0.600
 6027SOL    HW118980   2.851   3.457   0.697
 6027SOL    HW218981   2.792   3.347   0.592
 6028SOL     OW18982   1.632   4.013   0.063
 6028SOL    HW118983   1.606   4.108   0.046
 6028SOL    HW218984   1.552   3.954   0.051
 6029SOL     OW18985   1.297   4.794   1.204
 6029SOL    HW118986   1.295   4.784   1.304
 6029SOL    HW218987   1.232   4.729   1.163
 6030SOL     OW18988   2.114   0.510   0.710
 6030SOL    HW118989   2.178   0.576   0.751
 6030SOL    HW218990   2.162   0.454   0.642
 6031SOL     OW18991   5.419   7.000   5.313
 6031SOL    HW118992   5.360   6.935   5.267
 6031SOL    HW218993   5.364   0.053   5.363
 6032SOL     OW18994   0.421   3.309   2.659
 6032SOL    HW118995   0.502   3.318   2.718
 6032SOL    HW218996   0.392   3.399   2.627
 6033SOL     OW18997   1.251   0.264   4.359
 6033SOL    HW118998   1.313   0.291   4.286
 6033SOL    HW218999   1.265   0.167   4.381
 6034SOL     OW19000   2.125   4.084   4.970
 6034SOL    HW119001   2.201   4.111   5.030
 6034SOL    HW219002   2.126   3.984   4.958
 6035SOL     OW19003   6.120   0.648   3.987
 6035SOL    HW119004   6.204   0.700   4.001
 6035SOL    HW219005   6.106   0.633   3.889
 6036SOL     OW19006   0.362   1.013   4.374
 6036SOL    HW119007   0.426   1.023   4.451
 6036SOL    HW219008   0.324   0.920   4.375
 6037SOL     OW19009   6.724   4.935   4.955
 6037SOL    HW119010   6.684   5.006   4.897
 6037SOL    HW219011   6.660   4.913   5.029
 6038SOL     OW19012   4.844   3.998   6.400
 6038SOL    HW119013   4.847   3.993   6.500
 6038SOL    HW219014   4.765   3.947   6.366
 6039SOL     OW19015   3.233   3.727   3.386
 6039SOL    HW119016   3.318   3.753   3.433
 6039SOL    HW219017   3.223   3.781   3.303
 6040SOL     OW19018   0.725   1.920   0.012
 6040SOL    HW119019   0.740   1.916   0.111
 6040SOL    HW219020   0.733   2.015   6.996
 6041SOL     OW19021   0.625   2.534   0.337
 6041SOL    HW119022   0.598   2.614   0.283
 6041SOL    HW219023   0.558   2.460   0.323
 6042SOL     OW19024   5.464   5.107   4.006
 6042SOL    HW119025   5.552   5.078   3.967
 6042SOL    HW219026   5.410   5.026   4.030
 6043SOL     OW19027   0.499   4.707   3.942
 6043SOL    HW119028   0.405   4.679   3.963
 6043SOL    HW219029   0.509   4.805   3.959
 6044SOL     OW19030   1.010   0.335   1.492
 6044SOL    HW119031   1.006   0.406   1.563
 6044SOL    HW219032   1.102   0.333   1.452
 6045SOL     OW19033   0.385   3.981   1.174
 6045SOL    HW119034   0.377   3.890   1.215
 6045SOL    HW219035   0.415   4.046   1.244
 6046SOL     OW19036   2.716   3.008   0.323
 6046SOL    HW119037   2.796   3.030   0.380
 6046SOL    HW219038   2.702   2.909   0.325
 6047SOL     OW19039   6.978   6.545   5.133
 6047SOL    HW119040   6.927   6.602   5.198
 6047SOL    HW219041   0.062   6.553   5.152
 6048SOL     OW19042   4.820   6.534   4.881
 6048SOL    HW119043   4.897   6.597   4.875
 6048SOL    HW219044   4.785   6.517   4.789
 6049SOL     OW19045   6.157   5.238   1.462
 6049SOL    HW119046   6.245   5.264   1.502
 6049SOL    HW219047   6.168   5.156   1.407
 6050SOL     OW19048   4.974   4.228   5.439
 6050SOL    HW119049   5.011   4.238   5.347
 6050SOL    HW219050   4.919   4.308   5.462
 6051SOL     OW19051   1.622   2.210   3.005
 6051SOL    HW119052   1.587   2.205   2.912
 6051SOL    HW219053   1.651   2.119   3.035
 6052SOL     OW19054   6.649   1.036   0.259
 6052SOL    HW119055   6.626   0.976   0.335
 6052SOL    HW219056   6.742   1.071   0.270
 6053SOL     OW19057   2.025   0.216   6.329
 6053SOL    HW119058   2.106   0.217   6.388
 6053SOL    HW219059   2.053   0.202   6.234
 6054SOL     OW19060   2.457   4.863   0.249
 6054SOL    HW119061   2.474   4.765   0.250
 6054SOL    HW219062   2.431   4.894   0.340
 6055SOL     OW19063   5.158   0.474   4.077
 6055SOL    HW119064   5.185   0.568   4.098
 6055SOL    HW219065   5.067   0.473   4.037
 6056SOL     OW19066   4.743   2.774   6.120
 6056SOL    HW119067   4.729   2.676   6.104
 6056SOL    HW219068   4.655   2.821   6.120
 6057SOL     OW19069   3.575   0.752   6.121
 6057SOL    HW119070   3.515   0.757   6.041
 6057SOL    HW219071   3.669   0.736   6.092
 6058SOL     OW19072   5.393   1.913   4.320
 6058SOL    HW119073   5.317   1.849   4.328
 6058SOL    HW219074   5.475   1.864   4.289
 6059SOL     OW19075   0.275   5.394   6.400
 6059SOL    HW119076   0.270   5.356   6.307
 6059SOL    HW219077   0.215   5.473   6.407
 6060SOL     OW19078   3.857   6.462   6.254
 6060SOL    HW119079   3.899   6.416   6.176
 6060SOL    HW219080   3.884   6.558   6.255
 6061SOL     OW19081   2.384   2.034   6.304
 6061SOL    HW119082   2.312   1.967   6.322
 6061SOL    HW219083   2.416   2.072   6.391
 6062SOL     OW19084   2.288   0.728   4.315
 6062SOL    HW119085   2.231   0.756   4.238
 6062SOL    HW219086   2.306   0.807   4.373
 6063SOL     OW19087   4.192   6.988   0.213
 6063SOL    HW119088   4.135   6.945   0.283
 6063SOL    HW219089   4.271   6.930   0.193
 6064SOL     OW19090   0.963   5.904   3.452
 6064SOL    HW119091   0.902   5.825   3.457
 6064SOL    HW219092   1.012   5.914   3.539
 6065SOL     OW19093   6.841   0.623   0.787
 6065SOL    HW119094   6.808   0.529   0.799
 6065SOL    HW219095   6.889   0.653   0.870
 6066SOL     OW19096   4.382   2.523   6.944
 6066SOL    HW119097   4.387   2.442   6.886
 6066SOL    HW219098   4.355   2.496   0.023
 6067SOL     OW19099   6.006   2.488   6.907
 6067SOL    HW119100   6.059   2.548   6.967
 6067SOL    HW219101   5.957   2.421   6.963
 6068SOL     OW19102   4.784   2.447   5.260
 6068SOL    HW119103   4.811   2.353   5.239
 6068SOL    HW219104   4.722   2.480   5.189
 6069SOL     OW19105   6.228   3.696   4.253
 6069SOL    HW119106   6.171   3.778   4.253
 6069SOL    HW219107   6.299   3.704   4.183
 6070SOL     OW19108   3.652   2.126   6.592
 6070SOL    HW119109   3.696   2.160   6.675
 6070SOL    HW219110   3.674   2.030   6.579
 6071SOL     OW19111   4.609   6.006   5.235
 6071SOL    HW119112   4.550   6.025   5.156
 6071SOL    HW219113   4.704   6.005   5.206
 6072SOL     OW19114   6.962   2.064   0.726
 6072SOL    HW119115   6.979   2.157   0.758
 6072SOL    HW219116   6.941   2.006   0.804
 6073SOL     OW19117   6.779   2.394   1.504
 6073SOL    HW119118   6.873   2.370   1.526
 6073SOL    HW219119   6.756   2.482   1.547
 6074SOL     OW19120   0.560   0.130   4.807
 6074SOL    HW119121   0.468   0.167   4.794
 6074SOL    HW219122   0.617   0.154   4.729
 6075SOL     OW19123   5.476   4.396   6.701
 6075SOL    HW119124   5.462   4.495   6.709
 6075SOL    HW219125   5.545   4.367   6.767
 6076SOL     OW19126   2.404   6.573   3.413
 6076SOL    HW119127   2.451   6.654   3.446
 6076SOL    HW219128   2.307   6.579   3.437
 6077SOL     OW19129   5.722   5.834   2.321
 6077SOL    HW119130   5.648   5.768   2.312
 6077SOL    HW219131   5.697   5.903   2.388
 6078SOL     OW19132   2.628   4.940   3.213
 6078SOL    HW119133   2.694   4.873   3.245
 6078SOL    HW219134   2.591   4.911   3.125
 6079SOL     OW19135   2.152   1.300   0.406
 6079SOL    HW119136   2.148   1.299   0.306
 6079SOL    HW219137   2.083   1.238   0.443
 6080SOL     OW19138   5.823   2.110   2.678
 6080SOL    HW119139   5.860   2.101   2.771
 6080SOL    HW219140   5.883   2.170   2.625
 6081SOL     OW19141   0.364   4.479   3.427
 6081SOL    HW119142   0.297   4.406   3.413
 6081SOL    HW219143   0.322   4.568   3.406
 6082SOL     OW19144   3.954   1.650   4.624
 6082SOL    HW119145   3.934   1.684   4.532
 6082SOL    HW219146   3.884   1.683   4.688
 6083SOL     OW19147   1.930   6.491   0.433
 6083SOL    HW119148   1.831   6.488   0.443
 6083SOL    HW219149   1.961   6.586   0.442
 6084SOL     OW19150   0.916   5.089   6.039
 6084SOL    HW119151   0.848   5.057   6.105
 6084SOL    HW219152   0.897   5.184   6.015
 6085SOL     OW19153   4.496   4.213   1.408
 6085SOL    HW119154   4.516   4.182   1.501
 6085SOL    HW219155   4.412   4.170   1.376
 6086SOL     OW19156   2.812   1.718   3.350
 6086SOL    HW119157   2.794   1.653   3.423
 6086SOL    HW219158   2.877   1.679   3.286
 6087SOL     OW19159   4.919   6.687   0.080
 6087SOL    HW119160   4.925   6.760   0.148
 6087SOL    HW219161   4.860   6.716   0.004
 6088SOL     OW19162   6.930   6.837   4.933
 6088SOL    HW119163   6.939   6.886   5.020
 6088SOL    HW219164   6.938   6.901   4.857
 6089SOL     OW19165   0.402   2.950   0.145
 6089SOL    HW119166   0.435   2.856   0.140
 6089SOL    HW219167   0.303   2.950   0.162
 6090SOL     OW19168   0.296   5.733   4.088
 6090SOL    HW119169   0.362   5.659   4.100
 6090SOL    HW219170   0.282   5.779   4.176
 6091SOL     OW19171   5.813   2.297   1.875
 6091SOL    HW119172   5.893   2.345   1.839
 6091SOL    HW219173   5.730   2.343   1.844
 6092SOL     OW19174   1.837   2.677   1.183
 6092SOL    HW119175   1.933   2.670   1.208
 6092SOL    HW219176   1.809   2.773   1.180
 6093SOL     OW19177   1.352   2.990   1.123
 6093SOL    HW119178   1.360   3.090   1.113
 6093SOL    HW219179   1.283   2.969   1.192
 6094SOL     OW19180   1.125   0.885   0.987
 6094SOL    HW119181   1.170   0.796   0.998
 6094SOL    HW219182   1.179   0.955   1.033
 6095SOL     OW19183   6.741   4.074   5.470
 6095SOL    HW119184   6.766   4.027   5.385
 6095SOL    HW219185   6.673   4.020   5.519
 6096SOL     OW19186   4.020   1.918   2.821
 6096SOL    HW119187   4.053   1.877   2.906
 6096SOL    HW219188   3.990   2.012   2.838
 6097SOL     OW19189   2.796   1.951   1.818
 6097SOL    HW119190   2.857   2.013   1.769
 6097SOL    HW219191   2.777   1.988   1.909
 6098SOL     OW19192   1.798   1.490   5.691
 6098SOL    HW119193   1.713   1.543   5.687
 6098SOL    HW219194   1.793   1.425   5.767
 6099SOL     OW19195   6.052   5.363   5.004
 6099SOL    HW119196   6.132   5.387   4.948
 6099SOL    HW219197   6.046   5.264   5.013
 6100SOL     OW19198   6.337   2.931   0.386
 6100SOL    HW119199   6.306   2.940   0.291
 6100SOL    HW219200   6.277   2.984   0.446
 6101SOL     OW19201   5.896   1.747   4.352
 6101SOL    HW119202   5.938   1.763   4.263
 6101SOL    HW219203   5.855   1.656   4.354
 6102SOL     OW19204   3.321   0.538   5.150
 6102SOL    HW119205   3.370   0.482   5.216
 6102SOL    HW219206   3.381   0.612   5.118
 6103SOL     OW19207   5.987   0.575   5.613
 6103SOL    HW119208   6.029   0.666   5.616
 6103SOL    HW219209   6.055   0.506   5.638
 6104SOL     OW19210   1.567   2.972   0.531
 6104SOL    HW119211   1.654   2.926   0.550
 6104SOL    HW219212   1.565   3.061   0.577
 6105SOL     OW19213   3.440   5.602   4.188
 6105SOL    HW119214   3.507   5.659   4.236
 6105SOL    HW219215   3.478   5.511   4.175
 6106SOL     OW19216   3.211   5.699   4.727
 6106SOL    HW119217   3.257   5.617   4.693
 6106SOL    HW219218   3.217   5.702   4.827
 6107SOL     OW19219   2.238   4.923   5.131
 6107SOL    HW119220   2.220   4.824   5.126
 6107SOL    HW219221   2.244   4.951   5.226
 6108SOL     OW19222   6.801   2.058   4.366
 6108SOL    HW119223   6.898   2.069   4.389
 6108SOL    HW219224   6.792   2.033   4.269
 6109SOL     OW19225   6.507   4.489   1.796
 6109SOL    HW119226   6.431   4.555   1.793
 6109SOL    HW219227   6.563   4.499   1.713
 6110SOL     OW19228   3.284   2.055   4.481
 6110SOL    HW119229   3.274   2.066   4.580
 6110SOL    HW219230   3.344   1.978   4.462
 6111SOL     OW19231   0.876   4.899   3.110
 6111SOL    HW119232   0.879   4.807   3.148
 6111SOL    HW219233   0.784   4.918   3.076
 6112SOL     OW19234   0.679   1.641   2.355
 6112SOL    HW119235   0.666   1.739   2.342
 6112SOL    HW219236   0.775   1.623   2.377
 6113SOL     OW19237   1.627   5.713   5.277
 6113SOL    HW119238   1.575   5.628   5.280
 6113SOL    HW219239   1.627   5.755   5.368
 6114SOL     OW19240   5.457   5.430   0.626
 6114SOL    HW119241   5.454   5.346   0.572
 6114SOL    HW219242   5.479   5.407   0.721
 6115SOL     OW19243   6.095   4.827   2.632
 6115SOL    HW119244   6.193   4.846   2.641
 6115SOL    HW219245   6.065   4.850   2.539
 6116SOL     OW19246   3.769   1.422   1.349
 6116SOL    HW119247   3.855   1.468   1.370
 6116SOL    HW219248   3.785   1.324   1.339
 6117SOL     OW19249   5.365   6.913   4.350
 6117SOL    HW119250   5.269   6.920   4.377
 6117SOL    HW219251   5.371   6.893   4.253
 6118SOL     OW19252   5.787   0.130   3.073
 6118SOL    HW119253   5.802   0.044   3.122
 6118SOL    HW219254   5.795   0.207   3.138
 6119SOL     OW19255   6.387   5.149   3.855
 6119SOL    HW119256   6.347   5.241   3.847
 6119SOL    HW219257   6.321   5.081   3.824
 6120SOL     OW19258   2.974   0.950   2.882
 6120SOL    HW119259   2.935   0.991   2.800
 6120SOL    HW219260   2.903   0.899   2.931
 6121SOL     OW19261   6.674   2.262   4.496
 6121SOL    HW119262   6.710   2.257   4.589
 6121SOL    HW219263   6.708   2.185   4.443
 6122SOL     OW19264   4.715   5.534   3.502
 6122SOL    HW119265   4.684   5.621   3.540
 6122SOL    HW219266   4.712   5.539   3.402
 6123SOL     OW19267   6.453   1.304   2.457
 6123SOL    HW119268   6.482   1.229   2.396
 6123SOL    HW219269   6.438   1.267   2.549
 6124SOL     OW19270   3.279   0.268   5.794
 6124SOL    HW119271   3.223   0.350   5.780
 6124SOL    HW219272   3.359   0.291   5.850
 6125SOL     OW19273   1.773   5.453   1.859
 6125SOL    HW119274   1.746   5.412   1.772
 6125SOL    HW219275   1.872   5.444   1.870
 6126SOL     OW19276   5.210   5.589   2.357
 6126SOL    HW119277   5.170   5.518   2.415
 6126SOL    HW219278   5.139   5.630   2.300
 6127SOL     OW19279   1.905   4.539   1.634
 6127SOL    HW119280   1.884   4.469   1.566
 6127SOL    HW219281   1.943   4.619   1.589
 6128SOL     OW19282   4.995   2.527   0.913
 6128SOL    HW119283   5.014   2.608   0.857
 6128SOL    HW219284   4.899   2.529   0.943
 6129SOL     OW19285   5.874   4.245   3.883
 6129SOL    HW119286   5.934   4.304   3.830
 6129SOL    HW219287   5.926   4.201   3.956
 6130SOL     OW19288   5.507   4.070   2.591
 6130SOL    HW119289   5.556   4.149   2.555
 6130SOL    HW219290   5.409   4.082   2.575
 6131SOL     OW19291   6.811   0.917   5.007
 6131SOL    HW119292   6.876   0.855   5.051
 6131SOL    HW219293   6.861   0.987   4.955
 6132SOL     OW19294   6.491   2.438   0.299
 6132SOL    HW119295   6.420   2.368   0.287
 6132SOL    HW219296   6.447   2.525   0.321
 6133SOL     OW19297   1.718   4.073   0.547
 6133SOL    HW119298   1.761   4.049   0.460
 6133SOL    HW219299   1.619   4.069   0.537
 6134SOL     OW19300   4.843   3.024   6.823
 6134SOL    HW119301   4.930   3.073   6.833
 6134SOL    HW219302   4.822   2.975   6.908
 6135SOL     OW19303   5.458   0.195   1.612
 6135SOL    HW119304   5.445   0.281   1.562
 6135SOL    HW219305   5.393   0.127   1.579
 6136SOL     OW19306   0.175   1.506   1.701
 6136SOL    HW119307   0.164   1.446   1.780
 6136SOL    HW219308   0.096   1.568   1.696
 6137SOL     OW19309   2.673   6.815   5.819
 6137SOL    HW119310   2.716   6.724   5.816
 6137SOL    HW219311   2.647   6.843   5.727
 6138SOL     OW19312   4.731   0.104   2.851
 6138SOL    HW119313   4.634   0.089   2.866
 6138SOL    HW219314   4.744   0.164   2.772
 6139SOL     OW19315   1.908   4.747   4.419
 6139SOL    HW119316   1.915   4.697   4.505
 6139SOL    HW219317   1.976   4.713   4.354
 6140SOL     OW19318   2.213   6.652   0.932
 6140SOL    HW119319   2.302   6.607   0.933
 6140SOL    HW219320   2.219   6.739   0.981
 6141SOL     OW19321   6.225   6.612   5.768
 6141SOL    HW119322   6.264   6.693   5.812
 6141SOL    HW219323   6.133   6.633   5.734
 6142SOL     OW19324   0.869   4.648   3.260
 6142SOL    HW119325   0.877   4.720   3.329
 6142SOL    HW219326   0.797   4.584   3.286
 6143SOL     OW19327   6.788   4.360   6.520
 6143SOL    HW119328   6.881   4.389   6.501
 6143SOL    HW219329   6.726   4.438   6.513
 6144SOL     OW19330   0.020   5.584   3.787
 6144SOL    HW119331   6.995   5.525   3.859
 6144SOL    HW219332   0.014   5.679   3.816
 6145SOL     OW19333   5.041   5.672   3.384
 6145SOL    HW119334   5.117   5.705   3.328
 6145SOL    HW219335   4.956   5.682   3.333
 6146SOL     OW19336   5.423   0.899   3.172
 6146SOL    HW119337   5.359   0.948   3.232
 6146SOL    HW219338   5.506   0.877   3.223
 6147SOL     OW19339   1.729   3.666   2.981
 6147SOL    HW119340   1.659   3.609   3.023
 6147SOL    HW219341   1.722   3.759   3.016
 6148SOL     OW19342   6.334   5.910   3.754
 6148SOL    HW119343   6.297   5.893   3.846
 6148SOL    HW219344   6.316   6.004   3.728
 6149SOL     OW19345   1.890   6.666   3.726
 6149SOL    HW119346   1.858   6.760   3.720
 6149SOL    HW219347   1.839   6.610   3.660
 6150SOL     OW19348   4.347   5.289   6.081
 6150SOL    HW119349   4.442   5.265   6.097
 6150SOL    HW219350   4.330   5.382   6.113
 6151SOL     OW19351   4.399   1.438   5.686
 6151SOL    HW119352   4.341   1.517   5.667
 6151SOL    HW219353   4.346   1.354   5.671
 6152SOL     OW19354   0.007   4.491   6.427
 6152SOL    HW119355   0.021   4.589   6.417
 6152SOL    HW219356   0.077   4.453   6.487
 6153SOL     OW19357   5.081   3.680   0.222
 6153SOL    HW119358   4.997   3.653   0.269
 6153SOL    HW219359   5.133   3.599   0.198
 6154SOL     OW19360   5.271   2.967   2.686
 6154SOL    HW119361   5.200   3.001   2.748
 6154SOL    HW219362   5.326   2.897   2.732
 6155SOL     OW19363   1.187   3.689   4.374
 6155SOL    HW119364   1.244   3.733   4.444
 6155SOL    HW219365   1.233   3.696   4.285
 6156SOL     OW19366   6.675   0.438   3.881
 6156SOL    HW119367   6.657   0.425   3.783
 6156SOL    HW219368   6.772   0.459   3.894
 6157SOL     OW19369   1.737   1.785   3.307
 6157SOL    HW119370   1.728   1.817   3.402
 6157SOL    HW219371   1.790   1.700   3.306
 6158SOL     OW19372   4.521   0.880   0.412
 6158SOL    HW119373   4.473   0.967   0.421
 6158SOL    HW219374   4.474   0.811   0.467
 6159SOL     OW19375   5.087   3.133   6.857
 6159SOL    HW119376   5.116   3.066   6.788
 6159SOL    HW219377   5.162   3.196   6.875
 6160SOL     OW19378   6.634   5.092   2.000
 6160SOL    HW119379   6.585   5.111   2.086
 6160SOL    HW219380   6.717   5.148   1.996
 6161SOL     OW19381   5.421   0.544   6.446
 6161SOL    HW119382   5.394   0.635   6.476
 6161SOL    HW219383   5.359   0.476   6.486
 6162SOL     OW19384   5.860   5.524   4.115
 6162SOL    HW119385   5.776   5.560   4.156
 6162SOL    HW219386   5.841   5.435   4.073
 6163SOL     OW19387   7.001   4.190   2.004
 6163SOL    HW119388   0.044   4.225   2.079
 6163SOL    HW219389   0.008   4.094   1.988
 6164SOL     OW19390   4.328   2.957   0.473
 6164SOL    HW119391   4.281   3.000   0.551
 6164SOL    HW219392   4.416   2.922   0.504
 6165SOL     OW19393   4.454   6.347   0.667
 6165SOL    HW119394   4.392   6.346   0.588
 6165SOL    HW219395   4.542   6.385   0.639
 6166SOL     OW19396   3.392   1.767   6.641
 6166SOL    HW119397   3.418   1.791   6.735
 6166SOL    HW219398   3.471   1.731   6.592
 6167SOL     OW19399   6.633   4.858   3.297
 6167SOL    HW119400   6.708   4.913   3.260
 6167SOL    HW219401   6.604   4.791   3.229
 6168SOL     OW19402   0.930   2.368   1.787
 6168SOL    HW119403   0.952   2.432   1.861
 6168SOL    HW219404   0.849   2.400   1.738
 6169SOL     OW19405   1.669   4.143   2.090
 6169SOL    HW119406   1.682   4.108   2.183
 6169SOL    HW219407   1.726   4.224   2.077
 6170SOL     OW19408   0.096   2.350   3.764
 6170SOL    HW119409   0.183   2.303   3.766
 6170SOL    HW219410   0.034   2.308   3.831
 6171SOL     OW19411   6.678   0.752   6.091
 6171SOL    HW119412   6.614   0.823   6.121
 6171SOL    HW219413   6.685   0.753   5.992
 6172SOL     OW19414   1.009   4.368   3.778
 6172SOL    HW119415   0.923   4.318   3.795
 6172SOL    HW219416   1.044   4.403   3.864
 6173SOL     OW19417   5.740   5.902   3.373
 6173SOL    HW119418   5.807   5.828   3.374
 6173SOL    HW219419   5.675   5.887   3.298
 6174SOL     OW19420   6.284   3.034   2.150
 6174SOL    HW119421   6.359   3.098   2.131
 6174SOL    HW219422   6.229   3.022   2.067
 6175SOL     OW19423   3.023   2.409   6.033
 6175SOL    HW119424   2.930   2.441   6.052
 6175SOL    HW219425   3.078   2.417   6.116
 6176SOL     OW19426   4.113   4.466   6.145
 6176SOL    HW119427   4.033   4.456   6.085
 6176SOL    HW219428   4.086   4.446   6.239
 6177SOL     OW19429   5.733   0.091   1.235
 6177SOL    HW119430   5.674   0.171   1.243
 6177SOL    HW219431   5.823   0.120   1.202
 6178SOL     OW19432   4.117   4.708   1.728
 6178SOL    HW119433   4.125   4.609   1.716
 6178SOL    HW219434   4.023   4.732   1.751
 6179SOL     OW19435   6.077   5.060   4.997
 6179SOL    HW119436   6.095   5.004   5.077
 6179SOL    HW219437   6.119   5.018   4.917
 6180SOL     OW19438   2.885   4.479   6.784
 6180SOL    HW119439   2.964   4.429   6.750
 6180SOL    HW219440   2.801   4.432   6.755
 6181SOL     OW19441   6.248   6.206   6.993
 6181SOL    HW119442   6.202   6.198   6.905
 6181SOL    HW219443   6.325   6.269   6.986
 6182SOL     OW19444   3.463   2.532   0.622
 6182SOL    HW119445   3.390   2.466   0.635
 6182SOL    HW219446   3.530   2.496   0.558
 6183SOL     OW19447   0.163   6.911   0.517
 6183SOL    HW119448   0.150   6.835   0.453
 6183SOL    HW219449   0.138   6.997   0.473
 6184SOL     OW19450   2.566   6.542   5.593
 6184SOL    HW119451   2.469   6.565   5.603
 6184SOL    HW219452   2.609   6.608   5.531
 6185SOL     OW19453   3.565   3.088   4.751
 6185SOL    HW119454   3.500   3.133   4.690
 6185SOL    HW219455   3.652   3.074   4.702
 6186SOL     OW19456   0.240   1.448   2.030
 6186SOL    HW119457   0.337   1.471   2.038
 6186SOL    HW219458   0.224   1.358   2.070
 6187SOL     OW19459   3.606   1.115   5.901
 6187SOL    HW119460   3.526   1.170   5.924
 6187SOL    HW219461   3.578   1.020   5.888
 6188SOL     OW19462   1.168   1.201   4.959
 6188SOL    HW119463   1.189   1.208   5.057
 6188SOL    HW219464   1.224   1.129   4.919
 6189SOL     OW19465   6.673   5.864   1.113
 6189SOL    HW119466   6.727   5.931   1.165
 6189SOL    HW219467   6.626   5.803   1.177
 6190SOL     OW19468   0.745   3.309   4.814
 6190SOL    HW119469   0.734   3.235   4.880
 6190SOL    HW219470   0.829   3.296   4.761
 6191SOL     OW19471   3.372   3.612   0.314
 6191SOL    HW119472   3.313   3.630   0.393
 6191SOL    HW219473   3.323   3.554   0.249
 6192SOL     OW19474   3.164   1.596   0.681
 6192SOL    HW119475   3.118   1.667   0.627
 6192SOL    HW219476   3.098   1.549   0.739
 6193SOL     OW19477   4.140   5.722   6.844
 6193SOL    HW119478   4.131   5.821   6.854
 6193SOL    HW219479   4.229   5.700   6.805
 6194SOL     OW19480   5.495   6.930   6.827
 6194SOL    HW119481   5.500   0.016   6.822
 6194SOL    HW219482   5.567   6.890   6.771
 6195SOL     OW19483   5.798   5.937   6.602
 6195SOL    HW119484   5.707   5.958   6.566
 6195SOL    HW219485   5.802   5.960   6.699
 6196SOL     OW19486   5.645   3.582   2.675
 6196SOL    HW119487   5.702   3.499   2.668
 6196SOL    HW219488   5.584   3.587   2.596
 6197SOL     OW19489   1.177   5.441   1.123
 6197SOL    HW119490   1.079   5.426   1.130
 6197SOL    HW219491   1.195   5.531   1.084
 6198SOL     OW19492   5.904   1.323   6.658
 6198SOL    HW119493   5.823   1.302   6.712
 6198SOL    HW219494   5.888   1.300   6.562
 6199SOL     OW19495   1.874   0.029   6.128
 6199SOL    HW119496   1.931   6.990   6.065
 6199SOL    HW219497   1.815   0.091   6.076
 6200SOL     OW19498   1.343   0.424   1.810
 6200SOL    HW119499   1.377   0.461   1.896
 6200SOL    HW219500   1.327   0.499   1.745
 6201SOL     OW19501   0.461   5.113   2.890
 6201SOL    HW119502   0.438   5.050   2.817
 6201SOL    HW219503   0.484   5.062   2.973
 6202SOL     OW19504   5.640   1.214   2.875
 6202SOL    HW119505   5.627   1.267   2.791
 6202SOL    HW219506   5.554   1.169   2.898
 6203SOL     OW19507   6.390   0.557   1.971
 6203SOL    HW119508   6.471   0.528   2.022
 6203SOL    HW219509   6.397   0.655   1.950
 6204SOL     OW19510   1.479   6.402   5.139
 6204SOL    HW119511   1.399   6.401   5.079
 6204SOL    HW219512   1.491   6.311   5.178
 6205SOL     OW19513   5.223   4.374   3.722
 6205SOL    HW119514   5.271   4.291   3.751
 6205SOL    HW219515   5.199   4.428   3.802
 6206SOL     OW19516   5.759   1.804   3.939
 6206SOL    HW119517   5.771   1.889   3.888
 6206SOL    HW219518   5.721   1.734   3.878
 6207SOL     OW19519   1.096   5.498   4.407
 6207SOL    HW119520   1.089   5.422   4.342
 6207SOL    HW219521   1.031   5.484   4.481
 6208SOL     OW19522   4.162   4.334   5.756
 6208SOL    HW119523   4.112   4.271   5.697
 6208SOL    HW219524   4.256   4.344   5.723
 6209SOL     OW19525   3.215   2.413   1.590
 6209SOL    HW119526   3.308   2.418   1.625
 6209SOL    HW219527   3.198   2.487   1.526
 6210SOL     OW19528   5.032   2.144   4.425
 6210SOL    HW119529   4.990   2.159   4.335
 6210SOL    HW219530   5.131   2.139   4.414
 6211SOL     OW19531   5.715   4.346   5.017
 6211SOL    HW119532   5.717   4.248   4.998
 6211SOL    HW219533   5.638   4.388   4.969
 6212SOL     OW19534   4.866   5.096   5.399
 6212SOL    HW119535   4.863   5.056   5.308
 6212SOL    HW219536   4.956   5.081   5.440
 6213SOL     OW19537   4.377   5.696   0.306
 6213SOL    HW119538   4.298   5.670   0.361
 6213SOL    HW219539   4.358   5.676   0.210
 6214SOL     OW19540   6.004   6.994   6.524
 6214SOL    HW119541   5.904   7.001   6.523
 6214SOL    HW219542   6.034   6.941   6.445
 6215SOL     OW19543   5.489   2.590   5.267
 6215SOL    HW119544   5.503   2.501   5.310
 6215SOL    HW219545   5.444   2.578   5.179
 6216SOL     OW19546   4.490   1.790   4.258
 6216SOL    HW119547   4.471   1.751   4.348
 6216SOL    HW219548   4.434   1.745   4.189
 6217SOL     OW19549   0.213   4.753   3.034
 6217SOL    HW119550   0.280   4.712   3.096
 6217SOL    HW219551   0.225   4.853   3.034
 6218SOL     OW19552   4.637   5.944   0.057
 6218SOL    HW119553   4.568   5.960   7.000
 6218SOL    HW219554   4.695   5.867   0.030
 6219SOL     OW19555   2.255   1.174   6.368
 6219SOL    HW119556   2.206   1.249   6.324
 6219SOL    HW219557   2.318   1.133   6.302
 6220SOL     OW19558   3.606   6.528   0.599
 6220SOL    HW119559   3.620   6.612   0.650
 6220SOL    HW219560   3.546   6.546   0.521
 6221SOL     OW19561   5.374   6.108   6.793
 6221SOL    HW119562   5.442   6.163   6.744
 6221SOL    HW219563   5.283   6.134   6.762
 6222SOL     OW19564   6.614   1.311   1.993
 6222SOL    HW119565   6.632   1.241   2.062
 6222SOL    HW219566   6.670   1.391   2.011
 6223SOL     OW19567   0.015   4.997   4.009
 6223SOL    HW119568   0.059   5.087   4.001
 6223SOL    HW219569   0.071   4.929   3.962
 6224SOL     OW19570   3.864   0.179   0.171
 6224SOL    HW119571   3.961   0.193   0.154
 6224SOL    HW219572   3.814   0.188   0.085
 6225SOL     OW19573   4.612   5.787   6.628
 6225SOL    HW119574   4.571   5.864   6.579
 6225SOL    HW219575   4.540   5.724   6.658
 6226SOL     OW19576   1.312   0.643   4.439
 6226SOL    HW119577   1.269   0.665   4.352
 6226SOL    HW219578   1.244   0.648   4.512
 6227SOL     OW19579   2.871   4.999   5.497
 6227SOL    HW119580   2.959   5.001   5.544
 6227SOL    HW219581   2.885   5.018   5.399
 6228SOL     OW19582   0.645   3.185   3.309
 6228SOL    HW119583   0.570   3.122   3.291
 6228SOL    HW219584   0.609   3.269   3.349
 6229SOL     OW19585   0.434   2.888   3.963
 6229SOL    HW119586   0.500   2.923   4.030
 6229SOL    HW219587   0.396   2.965   3.910
 6230SOL     OW19588   6.783   0.917   1.601
 6230SOL    HW119589   6.799   0.868   1.687
 6230SOL    HW219590   6.737   1.004   1.621
 6231SOL     OW19591   2.450   5.127   6.450
 6231SOL    HW119592   2.493   5.207   6.408
 6231SOL    HW219593   2.373   5.156   6.506
 6232SOL     OW19594   4.139   0.295   6.087
 6232SOL    HW119595   4.195   0.213   6.094
 6232SOL    HW219596   4.168   0.362   6.156
 6233SOL     OW19597   6.766   3.359   1.182
 6233SOL    HW119598   6.749   3.328   1.088
 6233SOL    HW219599   6.845   3.419   1.184
 6234SOL     OW19600   4.892   5.263   4.409
 6234SOL    HW119601   4.824   5.336   4.402
 6234SOL    HW219602   4.950   5.279   4.489
 6235SOL     OW19603   0.467   0.476   2.638
 6235SOL    HW119604   0.553   0.428   2.655
 6235SOL    HW219605   0.461   0.500   2.541
 6236SOL     OW19606   6.740   5.394   1.438
 6236SOL    HW119607   6.676   5.366   1.367
 6236SOL    HW219608   6.689   5.433   1.515
 6237SOL     OW19609   3.492   1.203   2.146
 6237SOL    HW119610   3.544   1.206   2.231
 6237SOL    HW219611   3.423   1.276   2.147
 6238SOL     OW19612   2.291   0.275   3.884
 6238SOL    HW119613   2.382   0.235   3.895
 6238SOL    HW219614   2.294   0.372   3.905
 6239SOL     OW19615   4.827   1.110   4.724
 6239SOL    HW119616   4.910   1.156   4.755
 6239SOL    HW219617   4.844   1.012   4.716
 6240SOL     OW19618   3.838   3.008   4.030
 6240SOL    HW119619   3.810   3.100   4.054
 6240SOL    HW219620   3.762   2.944   4.047
 6241SOL     OW19621   3.426   0.141   3.842
 6241SOL    HW119622   3.448   0.178   3.752
 6241SOL    HW219623   3.331   0.110   3.844
 6242SOL     OW19624   2.743   1.957   3.404
 6242SOL    HW119625   2.769   1.863   3.382
 6242SOL    HW219626   2.761   2.016   3.325
 6243SOL     OW19627   4.480   1.708   6.442
 6243SOL    HW119628   4.549   1.711   6.370
 6243SOL    HW219629   4.461   1.613   6.467
 6244SOL     OW19630   4.656   2.708   1.886
 6244SOL    HW119631   4.660   2.666   1.977
 6244SOL    HW219632   4.633   2.805   1.894
 6245SOL     OW19633   0.335   5.165   1.926
 6245SOL    HW119634   0.337   5.265   1.933
 6245SOL    HW219635   0.249   5.136   1.884
 6246SOL     OW19636   6.716   6.857   4.052
 6246SOL    HW119637   6.618   6.847   4.035
 6246SOL    HW219638   6.763   6.772   4.030
 6247SOL     OW19639   6.012   5.954   3.892
 6247SOL    HW119640   5.997   5.917   3.801
 6247SOL    HW219641   6.040   6.050   3.885
 6248SOL     OW19642   4.010   3.128   5.334
 6248SOL    HW119643   3.925   3.147   5.383
 6248SOL    HW219644   4.011   3.032   5.304
 6249SOL     OW19645   6.103   3.382   2.380
 6249SOL    HW119646   6.073   3.413   2.290
 6249SOL    HW219647   6.061   3.439   2.450
 6250SOL     OW19648   5.719   0.216   6.517
 6250SOL    HW119649   5.723   0.313   6.541
 6250SOL    HW219650   5.728   0.205   6.418
 6251SOL     OW19651   2.425   0.325   4.235
 6251SOL    HW119652   2.457   0.232   4.216
 6251SOL    HW219653   2.487   0.390   4.192
 6252SOL     OW19654   3.122   5.438   6.473
 6252SOL    HW119655   3.082   5.504   6.409
 6252SOL    HW219656   3.143   5.353   6.424
 6253SOL     OW19657   3.828   5.551   3.513
 6253SOL    HW119658   3.850   5.460   3.479
 6253SOL    HW219659   3.766   5.544   3.592
 6254SOL     OW19660   0.403   0.231   1.376
 6254SOL    HW119661   0.428   0.254   1.470
 6254SOL    HW219662   0.473   0.171   1.336
 6255SOL     OW19663   1.298   1.828   0.575
 6255SOL    HW119664   1.329   1.923   0.585
 6255SOL    HW219665   1.377   1.768   0.566
 6256SOL     OW19666   5.655   5.989   2.561
 6256SOL    HW119667   5.721   5.996   2.636
 6256SOL    HW219668   5.607   6.077   2.551
 6257SOL     OW19669   3.118   4.512   0.908
 6257SOL    HW119670   3.172   4.491   0.826
 6257SOL    HW219671   3.178   4.512   0.988
 6258SOL     OW19672   4.431   5.378   5.100
 6258SOL    HW119673   4.445   5.312   5.026
 6258SOL    HW219674   4.509   5.376   5.162
 6259SOL     OW19675   4.219   1.229   5.067
 6259SOL    HW119676   4.222   1.198   5.162
 6259SOL    HW219677   4.254   1.156   5.008
 6260SOL     OW19678   1.935   1.590   6.798
 6260SOL    HW119679   2.003   1.518   6.790
 6260SOL    HW219680   1.977   1.672   6.835
 6261SOL     OW19681   3.469   0.314   0.546
 6261SOL    HW119682   3.453   0.220   0.575
 6261SOL    HW219683   3.542   0.316   0.478
 6262SOL     OW19684   5.908   1.196   2.566
 6262SOL    HW119685   5.922   1.228   2.659
 6262SOL    HW219686   5.836   1.127   2.564
 6263SOL     OW19687   6.254   5.840   5.937
 6263SOL    HW119688   6.284   5.881   5.850
 6263SOL    HW219689   6.302   5.884   6.012
 6264SOL     OW19690   2.527   6.321   6.625
 6264SOL    HW119691   2.468   6.252   6.667
 6264SOL    HW219692   2.614   6.325   6.675
 6265SOL     OW19693   4.700   6.568   6.682
 6265SOL    HW119694   4.616   6.618   6.659
 6265SOL    HW219695   4.709   6.489   6.621
 6266SOL     OW19696   3.072   5.109   2.957
 6266SOL    HW119697   2.985   5.062   2.945
 6266SOL    HW219698   3.057   5.197   3.001
 6267SOL     OW19699   1.722   6.416   5.007
 6267SOL    HW119700   1.796   6.473   5.043
 6267SOL    HW219701   1.640   6.430   5.063
 6268SOL     OW19702   3.122   1.806   0.486
 6268SOL    HW119703   3.179   1.886   0.501
 6268SOL    HW219704   3.161   1.750   0.412
 6269SOL     OW19705   6.857   5.412   6.907
 6269SOL    HW119706   6.779   5.430   6.847
 6269SOL    HW219707   6.859   5.315   6.931
 6270SOL     OW19708   2.073   6.260   1.116
 6270SOL    HW119709   2.041   6.166   1.125
 6270SOL    HW219710   2.135   6.282   1.192
 6271SOL     OW19711   6.741   3.053   5.351
 6271SOL    HW119712   6.807   3.125   5.334
 6271SOL    HW219713   6.782   2.964   5.331
 6272SOL     OW19714   6.991   0.540   7.007
 6272SOL    HW119715   6.948   0.567   0.079
 6272SOL    HW219716   0.041   0.612   6.978
 6273SOL     OW19717   0.818   6.662   2.278
 6273SOL    HW119718   0.899   6.607   2.260
 6273SOL    HW219719   0.817   6.690   2.374
 6274SOL     OW19720   2.941   5.552   3.618
 6274SOL    HW119721   2.972   5.639   3.658
 6274SOL    HW219722   2.843   5.542   3.635
 6275SOL     OW19723   3.196   5.925   6.505
 6275SOL    HW119724   3.211   5.871   6.588
 6275SOL    HW219725   3.281   5.972   6.480
 6276SOL     OW19726   1.245   5.568   2.435
 6276SOL    HW119727   1.308   5.573   2.512
 6276SOL    HW219728   1.265   5.486   2.380
 6277SOL     OW19729   5.322   2.920   1.317
 6277SOL    HW119730   5.226   2.925   1.346
 6277SOL    HW219731   5.332   2.851   1.245
 6278SOL     OW19732   4.265   2.360   0.458
 6278SOL    HW119733   4.291   2.441   0.405
 6278SOL    HW219734   4.166   2.360   0.471
 6279SOL     OW19735   3.608   6.799   1.379
 6279SOL    HW119736   3.704   6.772   1.378
 6279SOL    HW219737   3.573   6.793   1.472
 6280SOL     OW19738   5.497   2.578   6.100
 6280SOL    HW119739   5.531   2.635   6.025
 6280SOL    HW219740   5.518   2.622   6.187
 6281SOL     OW19741   5.048   4.149   6.251
 6281SOL    HW119742   4.980   4.096   6.302
 6281SOL    HW219743   5.119   4.182   6.313
 6282SOL     OW19744   0.483   3.493   5.998
 6282SOL    HW119745   0.454   3.496   5.902
 6282SOL    HW219746   0.415   3.443   6.052
 6283SOL     OW19747   1.896   6.274   4.164
 6283SOL    HW119748   1.929   6.184   4.192
 6283SOL    HW219749   1.974   6.331   4.137
 6284SOL     OW19750   1.022   3.375   5.043
 6284SOL    HW119751   1.111   3.331   5.038
 6284SOL    HW219752   0.992   3.401   4.952
 6285SOL     OW19753   1.376   3.280   2.987
 6285SOL    HW119754   1.286   3.306   3.022
 6285SOL    HW219755   1.395   3.331   2.903
 6286SOL     OW19756   0.793   2.323   6.584
 6286SOL    HW119757   0.871   2.321   6.646
 6286SOL    HW219758   0.805   2.396   6.517
 6287SOL     OW19759   5.003   4.813   5.315
 6287SOL    HW119760   4.931   4.864   5.270
 6287SOL    HW219761   4.989   4.715   5.300
 6288SOL     OW19762   2.799   3.702   6.030
 6288SOL    HW119763   2.771   3.652   6.112
 6288SOL    HW219764   2.823   3.796   6.054
 6289SOL     OW19765   2.160   4.406   5.606
 6289SOL    HW119766   2.239   4.466   5.592
 6289SOL    HW219767   2.131   4.368   5.518
 6290SOL     OW19768   5.851   6.797   4.380
 6290SOL    HW119769   5.766   6.848   4.390
 6290SOL    HW219770   5.835   6.716   4.323
 6291SOL     OW19771   3.609   3.663   2.259
 6291SOL    HW119772   3.601   3.761   2.276
 6291SOL    HW219773   3.697   3.643   2.217
 6292SOL     OW19774   1.459   4.319   3.937
 6292SOL    HW119775   1.381   4.260   3.957
 6292SOL    HW219776   1.426   4.408   3.906
 6293SOL     OW19777   2.885   1.664   6.221
 6293SOL    HW119778   2.794   1.699   6.198
 6293SOL    HW219779   2.930   1.727   6.283
 6294SOL     OW19780   1.872   1.264   2.320
 6294SOL    HW119781   1.972   1.262   2.326
 6294SOL    HW219782   1.841   1.191   2.259
 6295SOL     OW19783   4.216   3.161   6.111
 6295SOL    HW119784   4.310   3.155   6.145
 6295SOL    HW219785   4.152   3.138   6.185
 6296SOL     OW19786   1.155   2.700   0.118
 6296SOL    HW119787   1.093   2.773   0.092
 6296SOL    HW219788   1.104   2.615   0.130
 6297SOL     OW19789   6.233   1.314   3.649
 6297SOL    HW119790   6.191   1.393   3.695
 6297SOL    HW219791   6.331   1.330   3.637
 6298SOL     OW19792   0.483   6.497   0.929
 6298SOL    HW119793   0.425   6.578   0.926
 6298SOL    HW219794   0.442   6.425   0.872
 6299SOL     OW19795   3.918   1.813   3.988
 6299SOL    HW119796   3.938   1.805   3.890
 6299SOL    HW219797   3.943   1.728   4.034
 6300SOL     OW19798   2.671   1.629   6.633
 6300SOL    HW119799   2.743   1.578   6.679
 6300SOL    HW219800   2.654   1.715   6.682
 6301SOL     OW19801   4.215   5.991   6.955
 6301SOL    HW119802   4.196   5.961   0.035
 6301SOL    HW219803   4.301   5.951   6.925
 6302SOL     OW19804   2.125   2.596   6.428
 6302SOL    HW119805   2.141   2.499   6.410
 6302SOL    HW219806   2.063   2.632   6.358
 6303SOL     OW19807   0.429   5.801   4.488
 6303SOL    HW119808   0.458   5.741   4.414
 6303SOL    HW219809   0.407   5.747   4.569
 6304SOL     OW19810   3.362   0.696   4.635
 6304SOL    HW119811   3.431   0.672   4.566
 6304SOL    HW219812   3.273   0.658   4.607
 6305SOL     OW19813   1.145   5.645   5.749
 6305SOL    HW119814   1.241   5.669   5.762
 6305SOL    HW219815   1.128   5.554   5.787
 6306SOL     OW19816   0.428   4.560   5.162
 6306SOL    HW119817   0.416   4.549   5.064
 6306SOL    HW219818   0.492   4.490   5.196
 6307SOL     OW19819   3.415   2.846   1.956
 6307SOL    HW119820   3.317   2.839   1.978
 6307SOL    HW219821   3.468   2.847   2.040
 6308SOL     OW19822   0.489   2.113   0.203
 6308SOL    HW119823   0.544   2.104   0.120
 6308SOL    HW219824   0.478   2.209   0.226
 6309SOL     OW19825   2.406   6.440   4.790
 6309SOL    HW119826   2.463   6.506   4.839
 6309SOL    HW219827   2.438   6.347   4.810
 6310SOL     OW19828   1.404   0.079   2.941
 6310SOL    HW119829   1.482   0.086   3.003
 6310SOL    HW219830   1.423   0.010   2.871
 6311SOL     OW19831   6.204   1.152   6.474
 6311SOL    HW119832   6.243   1.196   6.555
 6311SOL    HW219833   6.107   1.133   6.490
 6312SOL     OW19834   3.154   5.627   0.184
 6312SOL    HW119835   3.118   5.607   0.094
 6312SOL    HW219836   3.253   5.613   0.184
 6313SOL     OW19837   6.363   4.610   4.240
 6313SOL    HW119838   6.372   4.563   4.152
 6313SOL    HW219839   6.454   4.627   4.278
 6314SOL     OW19840   1.758   6.581   2.459
 6314SOL    HW119841   1.839   6.524   2.457
 6314SOL    HW219842   1.678   6.526   2.434
 6315SOL     OW19843   1.997   1.612   3.770
 6315SOL    HW119844   2.059   1.548   3.816
 6315SOL    HW219845   1.941   1.659   3.838
 6316SOL     OW19846   4.359   1.048   4.862
 6316SOL    HW119847   4.296   0.970   4.870
 6316SOL    HW219848   4.414   1.038   4.779
 6317SOL     OW19849   5.444   4.686   2.570
 6317SOL    HW119850   5.416   4.607   2.515
 6317SOL    HW219851   5.522   4.661   2.627
 6318SOL     OW19852   6.432   6.855   0.233
 6318SOL    HW119853   6.491   6.935   0.225
 6318SOL    HW219854   6.482   6.774   0.203
 6319SOL     OW19855   5.155   1.898   4.108
 6319SOL    HW119856   5.220   1.864   4.040
 6319SOL    HW219857   5.071   1.928   4.062
 6320SOL     OW19858   6.175   1.838   5.577
 6320SOL    HW119859   6.220   1.791   5.653
 6320SOL    HW219860   6.202   1.934   5.576
 6321SOL     OW19861   0.426   2.363   0.230
 6321SOL    HW119862   0.331   2.380   0.257
 6321SOL    HW219863   0.433   2.368   0.130
 6322SOL     OW19864   1.250   1.315   2.956
 6322SOL    HW119865   1.238   1.282   2.863
 6322SOL    HW219866   1.340   1.289   2.990
 6323SOL     OW19867   1.922   4.896   0.839
 6323SOL    HW119868   1.969   4.827   0.784
 6323SOL    HW219869   1.877   4.852   0.917
 6324SOL     OW19870   4.947   3.619   1.186
 6324SOL    HW119871   4.926   3.671   1.103
 6324SOL    HW219872   4.916   3.524   1.173
 6325SOL     OW19873   1.250   2.915   4.133
 6325SOL    HW119874   1.208   2.967   4.058
 6325SOL    HW219875   1.319   2.972   4.178
 6326SOL     OW19876   5.285   5.494   5.521
 6326SOL    HW119877   5.348   5.432   5.566
 6326SOL    HW219878   5.219   5.442   5.467
 6327SOL     OW19879   0.621   1.181   3.536
 6327SOL    HW119880   0.592   1.268   3.497
 6327SOL    HW219881   0.564   1.159   3.614
 6328SOL     OW19882   4.745   3.844   5.274
 6328SOL    HW119883   4.689   3.766   5.246
 6328SOL    HW219884   4.777   3.831   5.368
 6329SOL     OW19885   0.644   2.122   5.857
 6329SOL    HW119886   0.558   2.137   5.905
 6329SOL    HW219887   0.712   2.085   5.921
 6330SOL     OW19888   4.770   1.294   4.073
 6330SOL    HW119889   4.806   1.387   4.058
 6330SOL    HW219890   4.810   1.257   4.157
 6331SOL     OW19891   1.096   3.250   4.086
 6331SOL    HW119892   1.121   3.177   4.021
 6331SOL    HW219893   1.057   3.327   4.035
 6332SOL     OW19894   3.257   1.530   6.612
 6332SOL    HW119895   3.297   1.620   6.595
 6332SOL    HW219896   3.254   1.478   6.527
 6333SOL     OW19897   5.917   1.197   1.256
 6333SOL    HW119898   5.872   1.280   1.289
 6333SOL    HW219899   5.878   1.118   1.302
 6334SOL     OW19900   1.333   0.961   1.467
 6334SOL    HW119901   1.316   1.055   1.437
 6334SOL    HW219902   1.281   0.943   1.550
 6335SOL     OW19903   6.418   3.300   6.246
 6335SOL    HW119904   6.354   3.272   6.175
 6335SOL    HW219905   6.509   3.264   6.225
 6336SOL     OW19906   0.517   3.713   5.430
 6336SOL    HW119907   0.499   3.807   5.456
 6336SOL    HW219908   0.609   3.706   5.390
 6337SOL     OW19909   5.245   6.887   5.147
 6337SOL    HW119910   5.214   6.802   5.190
 6337SOL    HW219911   5.167   6.949   5.134
 6338SOL     OW19912   1.012   0.732   3.326
 6338SOL    HW119913   0.925   0.741   3.375
 6338SOL    HW219914   1.006   0.781   3.239
 6339SOL     OW19915   0.407   4.195   3.707
 6339SOL    HW119916   0.366   4.125   3.648
 6339SOL    HW219917   0.482   4.240   3.658
 6340SOL     OW19918   2.661   4.251   0.666
 6340SOL    HW119919   2.639   4.197   0.747
 6340SOL    HW219920   2.724   4.325   0.690
 6341SOL     OW19921   0.495   5.699   1.778
 6341SOL    HW119922   0.404   5.696   1.735
 6341SOL    HW219923   0.487   5.741   1.868
 6342SOL     OW19924   1.498   1.196   1.606
 6342SOL    HW119925   1.556   1.248   1.669
 6342SOL    HW219926   1.555   1.155   1.536
 6343SOL     OW19927   1.291   5.678   0.524
 6343SOL    HW119928   1.360   5.727   0.472
 6343SOL    HW219929   1.216   5.740   0.548
 6344SOL     OW19930   1.053   1.155   4.101
 6344SOL    HW119931   1.086   1.087   4.036
 6344SOL    HW219932   0.991   1.218   4.054
 6345SOL     OW19933   6.122   2.541   2.799
 6345SOL    HW119934   6.146   2.638   2.801
 6345SOL    HW219935   6.024   2.532   2.782
 6346SOL     OW19936   0.273   4.191   5.022
 6346SOL    HW119937   0.337   4.173   5.095
 6346SOL    HW219938   0.253   4.106   4.972
 6347SOL     OW19939   2.159   2.405   3.515
 6347SOL    HW119940   2.188   2.426   3.608
 6347SOL    HW219941   2.076   2.457   3.494
 6348SOL     OW19942   1.097   2.441   6.057
 6348SOL    HW119943   1.002   2.427   6.088
 6348SOL    HW219944   1.133   2.355   6.023
 6349SOL     OW19945   6.376   1.174   0.887
 6349SOL    HW119946   6.368   1.273   0.903
 6349SOL    HW219947   6.321   1.125   0.955
 6350SOL     OW19948   1.204   6.268   1.328
 6350SOL    HW119949   1.156   6.183   1.306
 6350SOL    HW219950   1.191   6.290   1.425
 6351SOL     OW19951   5.787   4.160   1.404
 6351SOL    HW119952   5.765   4.091   1.335
 6351SOL    HW219953   5.886   4.171   1.410
 6352SOL     OW19954   3.689   1.017   4.729
 6352SOL    HW119955   3.591   1.036   4.721
 6352SOL    HW219956   3.727   1.001   4.638
 6353SOL     OW19957   3.856   6.410   5.423
 6353SOL    HW119958   3.911   6.475   5.476
 6353SOL    HW219959   3.891   6.317   5.438
 6354SOL     OW19960   4.940   5.404   2.197
 6354SOL    HW119961   5.029   5.421   2.155
 6354SOL    HW219962   4.942   5.318   2.247
 6355SOL     OW19963   3.546   5.685   0.303
 6355SOL    HW119964   3.504   5.622   0.237
 6355SOL    HW219965   3.593   5.633   0.374
 6356SOL     OW19966   0.406   5.880   5.993
 6356SOL    HW119967   0.454   5.925   5.918
 6356SOL    HW219968   0.308   5.878   5.974
 6357SOL     OW19969   5.422   0.702   2.348
 6357SOL    HW119970   5.465   0.759   2.279
 6357SOL    HW219971   5.338   0.662   2.311
 6358SOL     OW19972   1.126   2.084   4.888
 6358SOL    HW119973   1.165   2.158   4.833
 6358SOL    HW219974   1.124   2.112   4.985
 6359SOL     OW19975   5.330   5.977   1.482
 6359SOL    HW119976   5.318   5.880   1.504
 6359SOL    HW219977   5.298   5.994   1.389
 6360SOL     OW19978   1.259   1.825   1.177
 6360SOL    HW119979   1.273   1.730   1.148
 6360SOL    HW219980   1.244   1.827   1.276
 6361SOL     OW19981   0.277   1.457   0.735
 6361SOL    HW119982   0.196   1.481   0.681
 6361SOL    HW219983   0.263   1.486   0.829
 6362SOL     OW19984   1.654   5.620   0.654
 6362SOL    HW119985   1.591   5.696   0.673
 6362SOL    HW219986   1.642   5.549   0.723
 6363SOL     OW19987   2.071   3.915   2.036
 6363SOL    HW119988   2.102   3.834   2.085
 6363SOL    HW219989   2.149   3.977   2.023
 6364SOL     OW19990   2.570   2.413   4.471
 6364SOL    HW119991   2.485   2.361   4.468
 6364SOL    HW219992   2.579   2.456   4.561
 6365SOL     OW19993   5.717   6.946   3.238
 6365SOL    HW119994   5.757   6.993   3.317
 6365SOL    HW219995   5.657   6.873   3.269
 6366SOL     OW19996   6.081   1.074   5.152
 6366SOL    HW119997   6.179   1.060   5.165
 6366SOL    HW219998   6.058   1.170   5.170
 6367SOL     OW19999   1.188   2.343   3.075
 6367SOL    HW120000   1.141   2.414   3.022
 6367SOL    HW220001   1.256   2.385   3.135
 6368SOL     OW20002   5.011   3.878   4.836
 6368SOL    HW120003   4.937   3.928   4.881
 6368SOL    HW220004   5.018   3.787   4.876
 6369SOL     OW20005   4.611   5.104   0.546
 6369SOL    HW120006   4.545   5.178   0.532
 6369SOL    HW220007   4.703   5.143   0.550
 6370SOL     OW20008   5.726   3.995   4.305
 6370SOL    HW120009   5.716   3.929   4.380
 6370SOL    HW220010   5.636   4.020   4.272
 6371SOL     OW20011   5.473   4.659   1.316
 6371SOL    HW120012   5.553   4.602   1.297
 6371SOL    HW220013   5.396   4.601   1.342
 6372SOL     OW20014   6.349   1.951   1.746
 6372SOL    HW120015   6.401   1.885   1.799
 6372SOL    HW220016   6.258   1.961   1.784
 6373SOL     OW20017   4.982   3.349   2.089
 6373SOL    HW120018   4.976   3.259   2.130
 6373SOL    HW220019   4.968   3.342   1.990
 6374SOL     OW20020   4.644   3.653   6.674
 6374SOL    HW120021   4.600   3.603   6.599
 6374SOL    HW220022   4.703   3.590   6.725
 6375SOL     OW20023   4.636   1.187   2.047
 6375SOL    HW120024   4.558   1.124   2.046
 6375SOL    HW220025   4.614   1.268   1.993
 6376SOL     OW20026   2.684   0.156   0.597
 6376SOL    HW120027   2.687   0.075   0.538
 6376SOL    HW220028   2.775   0.175   0.632
 6377SOL     OW20029   0.356   0.708   6.965
 6377SOL    HW120030   0.432   0.772   6.951
 6377SOL    HW220031   0.276   0.738   6.913
 6378SOL     OW20032   5.735   4.501   2.327
 6378SOL    HW120033   5.731   4.596   2.360
 6378SOL    HW220034   5.788   4.447   2.391
 6379SOL     OW20035   1.901   5.081   6.235
 6379SOL    HW120036   1.949   5.012   6.288
 6379SOL    HW220037   1.831   5.124   6.292
 6380SOL     OW20038   0.825   3.941   5.414
 6380SOL    HW120039   0.899   3.921   5.479
 6380SOL    HW220040   0.788   3.856   5.378
 6381SOL     OW20041   4.138   3.462   0.465
 6381SOL    HW120042   4.222   3.416   0.435
 6381SOL    HW220043   4.059   3.417   0.423
 6382SOL     OW20044   1.485   1.650   0.473
 6382SOL    HW120045   1.544   1.720   0.432
 6382SOL    HW220046   1.536   1.564   0.482
 6383SOL     OW20047   2.451   2.545   2.333
 6383SOL    HW120048   2.483   2.526   2.426
 6383SOL    HW220049   2.510   2.498   2.267
 6384SOL     OW20050   6.445   2.457   2.149
 6384SOL    HW120051   6.473   2.393   2.220
 6384SOL    HW220052   6.345   2.458   2.142
 6385SOL     OW20053   6.915   3.993   6.945
 6385SOL    HW120054   6.844   4.032   6.886
 6385SOL    HW220055   6.872   3.950   0.010
 6386SOL     OW20056   2.689   2.840   0.749
 6386SOL    HW120057   2.600   2.816   0.711
 6386SOL    HW220058   2.754   2.766   0.730
 6387SOL     OW20059   0.021   6.885   6.996
 6387SOL    HW120060   0.121   6.881   7.001
 6387SOL    HW220061   6.996   6.805   0.027
 6388SOL     OW20062   5.623   5.398   2.256
 6388SOL    HW120063   5.704   5.416   2.200
 6388SOL    HW220064   5.586   5.308   2.233
 6389SOL     OW20065   6.644   6.416   0.886
 6389SOL    HW120066   6.725   6.421   0.828
 6389SOL    HW220067   6.612   6.322   0.891
 6390SOL     OW20068   5.541   0.901   0.134
 6390SOL    HW120069   5.620   0.918   0.192
 6390SOL    HW220070   5.467   0.962   0.160
 6391SOL     OW20071   0.996   1.859   4.926
 6391SOL    HW120072   1.043   1.947   4.922
 6391SOL    HW220073   0.933   1.859   5.004
 6392SOL     OW20074   4.195   7.010   3.890
 6392SOL    HW120075   4.137   0.074   3.913
 6392SOL    HW220076   4.176   6.982   3.795
 6393SOL     OW20077   1.504   5.050   0.154
 6393SOL    HW120078   1.430   4.994   0.116
 6393SOL    HW220079   1.513   5.031   0.252
 6394SOL     OW20080   1.815   4.991   1.503
 6394SOL    HW120081   1.808   4.909   1.560
 6394SOL    HW220082   1.784   5.070   1.555
 6395SOL     OW20083   2.083   4.037   3.957
 6395SOL    HW120084   2.031   4.013   4.038
 6395SOL    HW220085   2.084   3.960   3.893
 6396SOL     OW20086   1.902   2.895   5.107
 6396SOL    HW120087   1.988   2.911   5.059
 6396SOL    HW220088   1.918   2.834   5.185
 6397SOL     OW20089   5.904   3.811   4.936
 6397SOL    HW120090   5.909   3.724   4.985
 6397SOL    HW220091   5.953   3.881   4.988
 6398SOL     OW20092   2.690   0.151   2.674
 6398SOL    HW120093   2.777   0.103   2.661
 6398SOL    HW220094   2.634   0.141   2.593
 6399SOL     OW20095   3.387   6.946   0.110
 6399SOL    HW120096   3.376   7.010   0.185
 6399SOL    HW220097   3.437   6.865   0.142
 6400SOL     OW20098   0.718   6.369   3.027
 6400SOL    HW120099   0.720   6.311   3.108
 6400SOL    HW220100   0.665   6.451   3.046
 6401SOL     OW20101   4.215   5.066   2.974
 6401SOL    HW120102   4.162   5.052   3.058
 6401SOL    HW220103   4.175   5.141   2.921
 6402SOL     OW20104   2.829   4.257   5.854
 6402SOL    HW120105   2.781   4.305   5.781
 6402SOL    HW220106   2.793   4.286   5.943
 6403SOL     OW20107   5.549   5.305   5.678
 6403SOL    HW120108   5.536   5.221   5.625
 6403SOL    HW220109   5.618   5.361   5.633
 6404SOL     OW20110   4.760   6.496   1.385
 6404SOL    HW120111   4.839   6.554   1.402
 6404SOL    HW220112   4.768   6.412   1.438
 6405SOL     OW20113   4.763   1.152   2.861
 6405SOL    HW120114   4.774   1.102   2.776
 6405SOL    HW220115   4.672   1.133   2.899
 6406SOL     OW20116   0.634   3.569   3.052
 6406SOL    HW120117   0.699   3.498   3.081
 6406SOL    HW220118   0.548   3.526   3.024
 6407SOL     OW20119   0.301   6.563   2.464
 6407SOL    HW120120   0.213   6.587   2.422
 6407SOL    HW220121   0.365   6.638   2.452
 6408SOL     OW20122   0.163   0.968   2.231
 6408SOL    HW120123   0.121   0.923   2.152
 6408SOL    HW220124   0.138   0.917   2.314
 6409SOL     OW20125   5.115   4.475   3.985
 6409SOL    HW120126   5.052   4.426   3.925
 6409SOL    HW220127   5.085   4.569   3.997
 6410SOL     OW20128   2.063   1.200   6.905
 6410SOL    HW120129   2.036   1.251   6.987
 6410SOL    HW220130   2.158   1.218   6.883
 6411SOL     OW20131   0.359   2.834   2.350
 6411SOL    HW120132   0.275   2.825   2.297
 6411SOL    HW220133   0.338   2.877   2.439
 6412SOL     OW20134   3.655   1.036   6.961
 6412SOL    HW120135   3.581   0.999   6.905
 6412SOL    HW220136   3.718   0.962   6.985
 6413SOL     OW20137   4.794   6.008   3.548
 6413SOL    HW120138   4.701   6.030   3.575
 6413SOL    HW220139   4.812   5.911   3.566
 6414SOL     OW20140   2.543   0.393   0.643
 6414SOL    HW120141   2.596   0.452   0.704
 6414SOL    HW220142   2.594   0.309   0.625
 6415SOL     OW20143   0.861   2.103   4.259
 6415SOL    HW120144   0.918   2.160   4.317
 6415SOL    HW220145   0.764   2.125   4.274
 6416SOL     OW20146   2.635   4.884   0.030
 6416SOL    HW120147   2.722   4.845   0.060
 6416SOL    HW220148   2.572   4.889   0.108
 6417SOL     OW20149   4.140   2.733   6.902
 6417SOL    HW120150   4.137   2.755   6.805
 6417SOL    HW220151   4.235   2.714   6.929
 6418SOL     OW20152   5.111   4.372   0.375
 6418SOL    HW120153   5.039   4.383   0.306
 6418SOL    HW220154   5.165   4.290   0.354
 6419SOL     OW20155   1.133   6.590   6.274
 6419SOL    HW120156   1.224   6.632   6.281
 6419SOL    HW220157   1.091   6.614   6.187
 6420SOL     OW20158   2.847   4.755   4.130
 6420SOL    HW120159   2.805   4.842   4.156
 6420SOL    HW220160   2.791   4.711   4.060
 6421SOL     OW20161   4.131   0.681   2.266
 6421SOL    HW120162   4.164   0.701   2.174
 6421SOL    HW220163   4.076   0.598   2.265
 6422SOL     OW20164   6.655   2.660   4.655
 6422SOL    HW120165   6.637   2.624   4.564
 6422SOL    HW220166   6.743   2.707   4.655
 6423SOL     OW20167   1.326   5.128   4.649
 6423SOL    HW120168   1.396   5.069   4.608
 6423SOL    HW220169   1.239   5.079   4.654
 6424SOL     OW20170   6.825   4.288   5.837
 6424SOL    HW120171   6.909   4.301   5.889
 6424SOL    HW220172   6.749   4.331   5.885
 6425SOL     OW20173   6.699   6.255   4.392
 6425SOL    HW120174   6.651   6.300   4.468
 6425SOL    HW220175   6.794   6.287   4.389
 6426SOL     OW20176   4.525   5.027   4.598
 6426SOL    HW120177   4.611   5.009   4.551
 6426SOL    HW220178   4.466   4.946   4.590
 6427SOL     OW20179   3.651   2.868   3.235
 6427SOL    HW120180   3.716   2.928   3.281
 6427SOL    HW220181   3.687   2.774   3.235
 6428SOL     OW20182   5.711   2.701   0.373
 6428SOL    HW120183   5.675   2.785   0.413
 6428SOL    HW220184   5.637   2.634   0.366
 6429SOL     OW20185   2.414   1.060   5.103
 6429SOL    HW120186   2.458   0.981   5.146
 6429SOL    HW220187   2.322   1.034   5.072
 6430SOL     OW20188   6.086   0.826   5.542
 6430SOL    HW120189   6.142   0.788   5.468
 6430SOL    HW220190   6.076   0.924   5.529
 6431SOL     OW20191   3.361   4.851   2.121
 6431SOL    HW120192   3.334   4.934   2.072
 6431SOL    HW220193   3.446   4.816   2.082
 6432SOL     OW20194   5.054   3.395   6.006
 6432SOL    HW120195   4.988   3.321   5.994
 6432SOL    HW220196   5.147   3.357   6.011
 6433SOL     OW20197   3.404   4.669   5.245
 6433SOL    HW120198   3.420   4.572   5.261
 6433SOL    HW220199   3.469   4.723   5.298
 6434SOL     OW20200   5.402   5.317   6.274
 6434SOL    HW120201   5.437   5.285   6.186
 6434SOL    HW220202   5.439   5.408   6.293
 6435SOL     OW20203   4.223   1.305   1.232
 6435SOL    HW120204   4.215   1.320   1.134
 6435SOL    HW220205   4.319   1.315   1.260
 6436SOL     OW20206   6.696   3.282   3.413
 6436SOL    HW120207   6.699   3.230   3.328
 6436SOL    HW220208   6.726   3.225   3.489
 6437SOL     OW20209   1.376   2.274   5.617
 6437SOL    HW120210   1.404   2.192   5.568
 6437SOL    HW220211   1.454   2.338   5.623
 6438SOL     OW20212   0.606   4.997   6.997
 6438SOL    HW120213   0.596   5.077   6.937
 6438SOL    HW220214   0.570   4.916   6.950
 6439SOL     OW20215   5.248   6.521   2.771
 6439SOL    HW120216   5.310   6.445   2.790
 6439SOL    HW220217   5.301   6.602   2.747
 6440SOL     OW20218   2.926   1.243   6.083
 6440SOL    HW120219   2.952   1.220   6.177
 6440SOL    HW220220   2.922   1.343   6.074
 6441SOL     OW20221   6.689   1.836   2.424
 6441SOL    HW120222   6.678   1.744   2.387
 6441SOL    HW220223   6.709   1.900   2.350
 6442SOL     OW20224   2.205   1.977   4.664
 6442SOL    HW120225   2.153   2.014   4.741
 6442SOL    HW220226   2.287   1.932   4.697
 6443SOL     OW20227   3.958   2.998   6.664
 6443SOL    HW120228   3.981   2.901   6.674
 6443SOL    HW220229   4.013   3.052   6.728
 6444SOL     OW20230   6.942   4.602   4.903
 6444SOL    HW120231   7.011   4.570   4.839
 6444SOL    HW220232   6.861   4.633   4.853
 6445SOL     OW20233   2.917   3.617   3.454
 6445SOL    HW120234   2.859   3.538   3.475
 6445SOL    HW220235   2.974   3.596   3.375
 6446SOL     OW20236   1.103   1.592   6.606
 6446SOL    HW120237   1.176   1.553   6.662
 6446SOL    HW220238   1.134   1.678   6.566
 6447SOL     OW20239   5.691   3.593   2.318
 6447SOL    HW120240   5.742   3.528   2.261
 6447SOL    HW220241   5.671   3.676   2.266
 6448SOL     OW20242   3.859   4.608   1.125
 6448SOL    HW120243   3.928   4.625   1.055
 6448SOL    HW220244   3.901   4.618   1.215
 6449SOL     OW20245   3.499   5.018   0.398
 6449SOL    HW120246   3.477   4.987   0.305
 6449SOL    HW220247   3.475   5.114   0.408
 6450SOL     OW20248   6.323   4.541   6.581
 6450SOL    HW120249   6.281   4.625   6.547
 6450SOL    HW220250   6.417   4.534   6.549
 6451SOL     OW20251   3.964   2.906   1.595
 6451SOL    HW120252   4.047   2.914   1.540
 6451SOL    HW220253   3.930   2.812   1.590
 6452SOL     OW20254   3.722   1.911   4.687
 6452SOL    HW120255   3.632   1.927   4.728
 6452SOL    HW220256   3.734   1.972   4.609
 6453SOL     OW20257   2.392   0.475   3.055
 6453SOL    HW120258   2.371   0.387   3.097
 6453SOL    HW220259   2.409   0.463   2.957
 6454SOL     OW20260   5.228   2.614   3.321
 6454SOL    HW120261   5.162   2.690   3.322
 6454SOL    HW220262   5.190   2.538   3.268
 6455SOL     OW20263   6.983   2.788   4.253
 6455SOL    HW120264   0.027   2.840   4.191
 6455SOL    HW220265   6.894   2.833   4.262
 6456SOL     OW20266   6.082   1.725   2.263
 6456SOL    HW120267   6.134   1.681   2.189
 6456SOL    HW220268   6.078   1.664   2.342
 6457SOL     OW20269   3.234   6.656   2.734
 6457SOL    HW120270   3.224   6.593   2.657
 6457SOL    HW220271   3.244   6.750   2.699
 6458SOL     OW20272   0.123   6.858   4.266
 6458SOL    HW120273   0.121   6.820   4.173
 6458SOL    HW220274   0.171   6.946   4.265
 6459SOL     OW20275   0.758   3.326   3.106
 6459SOL    HW120276   0.858   3.315   3.106
 6459SOL    HW220277   0.718   3.263   3.172
 6460SOL     OW20278   0.969   5.431   6.844
 6460SOL    HW120279   0.946   5.508   6.784
 6460SOL    HW220280   0.897   5.419   6.912
 6461SOL     OW20281   1.246   6.465   0.850
 6461SOL    HW120282   1.294   6.495   0.933
 6461SOL    HW220283   1.290   6.505   0.770
 6462SOL     OW20284   1.704   3.631   4.975
 6462SOL    HW120285   1.762   3.697   4.927
 6462SOL    HW220286   1.713   3.541   4.933
 6463SOL     OW20287   4.557   3.111   1.007
 6463SOL    HW120288   4.535   3.186   0.944
 6463SOL    HW220289   4.503   3.120   1.090
 6464SOL     OW20290   0.978   4.039   3.951
 6464SOL    HW120291   0.898   4.072   4.002
 6464SOL    HW220292   0.958   3.947   3.916
 6465SOL     OW20293   3.253   0.858   3.962
 6465SOL    HW120294   3.205   0.786   3.912
 6465SOL    HW220295   3.219   0.947   3.933
 6466SOL     OW20296   6.843   4.790   6.942
 6466SOL    HW120297   6.816   4.886   6.941
 6466SOL    HW220298   6.897   4.772   0.010
 6467SOL     OW20299   1.846   2.311   6.524
 6467SOL    HW120300   1.802   2.373   6.458
 6467SOL    HW220301   1.871   2.226   6.478
 6468SOL     OW20302   2.133   0.440   1.153
 6468SOL    HW120303   2.080   0.506   1.205
 6468SOL    HW220304   2.230   0.448   1.177
 6469SOL     OW20305   1.786   1.266   1.573
 6469SOL    HW120306   1.767   1.284   1.670
 6469SOL    HW220307   1.807   1.169   1.561
 6470SOL     OW20308   6.712   2.124   6.887
 6470SOL    HW120309   6.754   2.058   6.824
 6470SOL    HW220310   6.630   2.084   6.927
 6471SOL     OW20311   0.550   6.292   5.796
 6471SOL    HW120312   0.537   6.364   5.728
 6471SOL    HW220313   0.464   6.242   5.808
 6472SOL     OW20314   0.040   6.124   3.058
 6472SOL    HW120315   0.137   6.151   3.058
 6472SOL    HW220316   7.008   6.166   3.136
 6473SOL     OW20317   2.199   1.315   3.222
 6473SOL    HW120318   2.164   1.361   3.303
 6473SOL    HW220319   2.148   1.230   3.207
 6474SOL     OW20320   3.623   6.136   4.561
 6474SOL    HW120321   3.621   6.233   4.537
 6474SOL    HW220322   3.567   6.085   4.496
 6475SOL     OW20323   5.894   5.657   2.503
 6475SOL    HW120324   5.950   5.733   2.536
 6475SOL    HW220325   5.827   5.690   2.437
 6476SOL     OW20326   3.773   2.706   6.808
 6476SOL    HW120327   3.748   2.611   6.825
 6476SOL    HW220328   3.716   2.743   6.734
 6477SOL     OW20329   0.230   6.234   1.807
 6477SOL    HW120330   0.230   6.217   1.906
 6477SOL    HW220331   0.215   6.331   1.790
 6478SOL     OW20332   3.011   5.877   1.222
 6478SOL    HW120333   2.952   5.901   1.299
 6478SOL    HW220334   3.092   5.936   1.222
 6479SOL     OW20335   4.517   5.724   3.302
 6479SOL    HW120336   4.419   5.745   3.308
 6479SOL    HW220337   4.553   5.707   3.394
 6480SOL     OW20338   4.051   1.491   6.191
 6480SOL    HW120339   4.149   1.507   6.195
 6480SOL    HW220340   4.027   1.446   6.105
 6481SOL     OW20341   3.635   2.817   2.148
 6481SOL    HW120342   3.666   2.723   2.159
 6481SOL    HW220343   3.708   2.872   2.110
 6482SOL     OW20344   5.207   3.953   6.123
 6482SOL    HW120345   5.170   3.913   6.039
 6482SOL    HW220346   5.144   4.023   6.157
 6483SOL     OW20347   2.449   5.775   4.863
 6483SOL    HW120348   2.521   5.743   4.802
 6483SOL    HW220349   2.481   5.856   4.914
 6484SOL     OW20350   3.153   1.235   3.035
 6484SOL    HW120351   3.178   1.275   2.947
 6484SOL    HW220352   3.055   1.249   3.051
 6485SOL     OW20353   2.560   6.205   4.833
 6485SOL    HW120354   2.610   6.159   4.760
 6485SOL    HW220355   2.622   6.222   4.910
 6486SOL     OW20356   0.384   4.947   2.682
 6486SOL    HW120357   0.408   4.851   2.692
 6486SOL    HW220358   0.331   4.959   2.598
 6487SOL     OW20359   6.419   4.749   3.891
 6487SOL    HW120360   6.369   4.797   3.964
 6487SOL    HW220361   6.483   4.685   3.931
 6488SOL     OW20362   3.580   5.322   4.133
 6488SOL    HW120363   3.566   5.244   4.194
 6488SOL    HW220364   3.674   5.356   4.144
 6489SOL     OW20365   5.402   2.887   5.337
 6489SOL    HW120366   5.408   2.788   5.322
 6489SOL    HW220367   5.308   2.918   5.320
 6490SOL     OW20368   2.096   2.287   0.576
 6490SOL    HW120369   2.121   2.351   0.504
 6490SOL    HW220370   2.100   2.194   0.541
 6491SOL     OW20371   1.662   6.772   1.896
 6491SOL    HW120372   1.703   6.849   1.944
 6491SOL    HW220373   1.564   6.787   1.884
 6492SOL     OW20374   4.143   3.307   3.950
 6492SOL    HW120375   4.134   3.346   3.859
 6492SOL    HW220376   4.105   3.372   4.017
 6493SOL     OW20377   1.141   4.312   4.273
 6493SOL    HW120378   1.205   4.363   4.331
 6493SOL    HW220379   1.047   4.334   4.300
 6494SOL     OW20380   6.778   0.926   2.321
 6494SOL    HW120381   6.776   0.923   2.221
 6494SOL    HW220382   6.804   0.836   2.356
 6495SOL     OW20383   6.643   0.088   2.984
 6495SOL    HW120384   6.672   0.104   3.078
 6495SOL    HW220385   6.567   0.023   2.983
 6496SOL     OW20386   3.336   1.986   1.888
 6496SOL    HW120387   3.268   2.018   1.953
 6496SOL    HW220388   3.428   1.999   1.927
 6497SOL     OW20389   0.087   1.034   0.518
 6497SOL    HW120390   0.029   1.115   0.531
 6497SOL    HW220391   0.164   1.039   0.581
 6498SOL     OW20392   2.244   4.255   4.185
 6498SOL    HW120393   2.305   4.311   4.242
 6498SOL    HW220394   2.217   4.173   4.236
 6499SOL     OW20395   4.958   2.704   3.531
 6499SOL    HW120396   4.874   2.756   3.512
 6499SOL    HW220397   4.941   2.607   3.516
 6500SOL     OW20398   1.487   3.711   3.337
 6500SOL    HW120399   1.498   3.810   3.349
 6500SOL    HW220400   1.533   3.663   3.412
 6501SOL     OW20401   5.769   1.902   2.939
 6501SOL    HW120402   5.780   1.817   2.887
 6501SOL    HW220403   5.673   1.915   2.961
 6502SOL     OW20404   0.213   3.993   1.792
 6502SOL    HW120405   0.231   3.954   1.701
 6502SOL    HW220406   0.115   4.014   1.800
 6503SOL     OW20407   0.156   3.299   5.793
 6503SOL    HW120408   0.183   3.225   5.732
 6503SOL    HW220409   0.228   3.368   5.796
 6504SOL     OW20410   3.879   6.812   6.279
 6504SOL    HW120411   3.929   6.769   6.354
 6504SOL    HW220412   3.814   6.878   6.316
 6505SOL     OW20413   0.332   6.189   0.541
 6505SOL    HW120414   0.277   6.223   0.617
 6505SOL    HW220415   0.403   6.256   0.519
 6506SOL     OW20416   0.675   3.974   2.342
 6506SOL    HW120417   0.687   3.875   2.348
 6506SOL    HW220418   0.749   4.020   2.391
 6507SOL     OW20419   4.444   5.294   0.482
 6507SOL    HW120420   4.353   5.288   0.522
 6507SOL    HW220421   4.460   5.388   0.450
 6508SOL     OW20422   0.192   0.075   3.582
 6508SOL    HW120423   0.233   6.999   3.566
 6508SOL    HW220424   0.093   0.065   3.591
 6509SOL     OW20425   2.467   1.707   0.014
 6509SOL    HW120426   2.449   1.772   6.954
 6509SOL    HW220427   2.512   1.626   6.991
 6510SOL     OW20428   3.074   6.064   4.881
 6510SOL    HW120429   3.021   6.120   4.817
 6510SOL    HW220430   3.156   6.030   4.836
 6511SOL     OW20431   2.893   2.607   0.704
 6511SOL    HW120432   2.943   2.611   0.790
 6511SOL    HW220433   2.950   2.642   0.630
 6512SOL     OW20434   4.709   1.446   0.507
 6512SOL    HW120435   4.731   1.394   0.424
 6512SOL    HW220436   4.676   1.537   0.481
 6513SOL     OW20437   2.610   4.693   2.709
 6513SOL    HW120438   2.540   4.645   2.656
 6513SOL    HW220439   2.681   4.727   2.646
 6514SOL     OW20440   5.237   6.562   5.590
 6514SOL    HW120441   5.291   6.578   5.508
 6514SOL    HW220442   5.260   6.632   5.658
 6515SOL     OW20443   1.081   5.030   2.954
 6515SOL    HW120444   1.000   4.982   2.990
 6515SOL    HW220445   1.101   4.997   2.862
 6516SOL     OW20446   6.695   2.892   2.345
 6516SOL    HW120447   6.794   2.894   2.358
 6516SOL    HW220448   6.667   2.801   2.314
 6517SOL     OW20449   6.853   3.226   0.465
 6517SOL    HW120450   6.819   3.321   0.465
 6517SOL    HW220451   6.886   3.202   0.374
 6518SOL     OW20452   0.799   1.008   2.153
 6518SOL    HW120453   0.816   1.099   2.191
 6518SOL    HW220454   0.744   0.955   2.216
 6519SOL     OW20455   1.111   0.678   3.585
 6519SOL    HW120456   1.178   0.746   3.615
 6519SOL    HW220457   1.075   0.704   3.496
 6520SOL     OW20458   0.426   5.729   0.649
 6520SOL    HW120459   0.369   5.742   0.568
 6520SOL    HW220460   0.501   5.667   0.628
 6521SOL     OW20461   2.016   4.683   3.966
 6521SOL    HW120462   1.918   4.674   3.946
 6521SOL    HW220463   2.055   4.593   3.983
 6522SOL     OW20464   2.499   2.596   5.288
 6522SOL    HW120465   2.568   2.655   5.330
 6522SOL    HW220466   2.420   2.589   5.349
 6523SOL     OW20467   6.007   6.535   0.568
 6523SOL    HW120468   6.003   6.437   0.586
 6523SOL    HW220469   5.997   6.585   0.654
 6524SOL     OW20470   2.776   3.061   1.154
 6524SOL    HW120471   2.763   3.013   1.241
 6524SOL    HW220472   2.692   3.054   1.100
 6525SOL     OW20473   1.090   5.039   3.536
 6525SOL    HW120474   1.142   5.120   3.564
 6525SOL    HW220475   1.032   5.062   3.458
 6526SOL     OW20476   0.835   6.186   0.609
 6526SOL    HW120477   0.792   6.242   0.680
 6526SOL    HW220478   0.807   6.091   0.620
 6527SOL     OW20479   5.862   1.673   0.578
 6527SOL    HW120480   5.935   1.661   0.510
 6527SOL    HW220481   5.902   1.706   0.663
 6528SOL     OW20482   4.140   6.565   0.080
 6528SOL    HW120483   4.148   6.593   0.176
 6528SOL    HW220484   4.188   6.478   0.066
 6529SOL     OW20485   5.190   6.817   2.171
 6529SOL    HW120486   5.278   6.861   2.151
 6529SOL    HW220487   5.161   6.763   2.093
 6530SOL     OW20488   0.549   2.828   3.229
 6530SOL    HW120489   0.483   2.773   3.178
 6530SOL    HW220490   0.500   2.893   3.288
 6531SOL     OW20491   3.798   3.719   4.804
 6531SOL    HW120492   3.798   3.630   4.757
 6531SOL    HW220493   3.704   3.747   4.822
 6532SOL     OW20494   1.372   6.442   0.408
 6532SOL    HW120495   1.343   6.512   0.343
 6532SOL    HW220496   1.331   6.354   0.382
 6533SOL     OW20497   4.825   4.498   1.787
 6533SOL    HW120498   4.792   4.483   1.694
 6533SOL    HW220499   4.866   4.413   1.822
 6534SOL     OW20500   6.953   4.673   3.040
 6534SOL    HW120501   6.972   4.618   2.959
 6534SOL    HW220502   0.023   4.717   3.071
 6535SOL     OW20503   4.877   3.844   5.512
 6535SOL    HW120504   4.929   3.759   5.519
 6535SOL    HW220505   4.932   3.920   5.545
 6536SOL     OW20506   0.773   4.513   5.488
 6536SOL    HW120507   0.782   4.594   5.431
 6536SOL    HW220508   0.826   4.524   5.572
 6537SOL     OW20509   6.145   5.321   3.859
 6537SOL    HW120510   6.082   5.259   3.811
 6537SOL    HW220511   6.098   5.406   3.880
 6538SOL     OW20512   1.175   2.514   4.727
 6538SOL    HW120513   1.122   2.490   4.808
 6538SOL    HW220514   1.114   2.535   4.651
 6539SOL     OW20515   4.880   6.630   6.274
 6539SOL    HW120516   4.843   6.537   6.278
 6539SOL    HW220517   4.861   6.677   6.360
 6540SOL     OW20518   0.002   2.944   5.278
 6540SOL    HW120519   0.037   2.851   5.264
 6540SOL    HW220520   0.019   2.972   5.372
 6541SOL     OW20521   5.004   1.902   5.711
 6541SOL    HW120522   5.022   1.992   5.673
 6541SOL    HW220523   5.090   1.850   5.716
 6542SOL     OW20524   1.266   3.865   2.875
 6542SOL    HW120525   1.236   3.854   2.781
 6542SOL    HW220526   1.262   3.962   2.900
 6543SOL     OW20527   4.215   1.510   5.123
 6543SOL    HW120528   4.148   1.554   5.064
 6543SOL    HW220529   4.248   1.426   5.079
 6544SOL     OW20530   0.424   6.994   0.651
 6544SOL    HW120531   0.378   0.047   0.710
 6544SOL    HW220532   0.356   6.933   0.611
 6545SOL     OW20533   4.735   6.758   1.565
 6545SOL    HW120534   4.648   6.799   1.541
 6545SOL    HW220535   4.757   6.685   1.501
 6546SOL     OW20536   5.406   4.388   6.368
 6546SOL    HW120537   5.458   4.448   6.430
 6546SOL    HW220538   5.469   4.323   6.325
 6547SOL     OW20539   0.767   6.167   5.443
 6547SOL    HW120540   0.698   6.234   5.417
 6547SOL    HW220541   0.734   6.113   5.521
 6548SOL     OW20542   0.124   1.269   6.021
 6548SOL    HW120543   0.062   1.255   5.944
 6548SOL    HW220544   0.160   1.181   6.051
 6549SOL     OW20545   4.225   1.515   2.894
 6549SOL    HW120546   4.193   1.558   2.978
 6549SOL    HW220547   4.266   1.427   2.915
 6550SOL     OW20548   6.021   6.423   2.968
 6550SOL    HW120549   5.958   6.407   3.044
 6550SOL    HW220550   5.968   6.448   2.887
 6551SOL     OW20551   2.625   4.054   0.857
 6551SOL    HW120552   2.616   3.957   0.834
 6551SOL    HW220553   2.705   4.067   0.915
 6552SOL     OW20554   1.864   5.054   0.001
 6552SOL    HW120555   1.839   5.108   0.081
 6552SOL    HW220556   1.821   4.964   0.007
 6553SOL     OW20557   0.684   1.617   3.438
 6553SOL    HW120558   0.727   1.539   3.391
 6553SOL    HW220559   0.750   1.692   3.443
 6554SOL     OW20560   1.402   2.441   4.266
 6554SOL    HW120561   1.495   2.411   4.289
 6554SOL    HW220562   1.394   2.539   4.281
 6555SOL     OW20563   0.076   3.958   3.764
 6555SOL    HW120564   0.051   3.984   3.857
 6555SOL    HW220565   0.023   3.879   3.736
 6556SOL     OW20566   4.825   3.012   2.830
 6556SOL    HW120567   4.818   3.035   2.927
 6556SOL    HW220568   4.817   2.913   2.819
 6557SOL     OW20569   2.040   0.598   2.312
 6557SOL    HW120570   2.063   0.687   2.352
 6557SOL    HW220571   2.037   0.607   2.212
 6558SOL     OW20572   5.177   6.620   6.953
 6558SOL    HW120573   5.181   6.520   6.955
 6558SOL    HW220574   5.133   6.653   0.023
 6559SOL     OW20575   6.492   2.962   6.030
 6559SOL    HW120576   6.561   2.905   6.073
 6559SOL    HW220577   6.409   2.908   6.014
 6560SOL     OW20578   6.840   5.001   0.184
 6560SOL    HW120579   6.891   4.922   0.215
 6560SOL    HW220580   6.893   5.051   0.115
 6561SOL     OW20581   2.868   4.383   0.248
 6561SOL    HW120582   2.903   4.327   0.323
 6561SOL    HW220583   2.939   4.445   0.216
 6562SOL     OW20584   5.317   2.746   1.611
 6562SOL    HW120585   5.343   2.836   1.645
 6562SOL    HW220586   5.396   2.701   1.571
 6563SOL     OW20587   6.058   5.383   5.289
 6563SOL    HW120588   5.979   5.437   5.316
 6563SOL    HW220589   6.081   5.402   5.194
 6564SOL     OW20590   5.934   3.131   2.584
 6564SOL    HW120591   5.940   3.066   2.508
 6564SOL    HW220592   6.027   3.161   2.609
 6565SOL     OW20593   5.442   6.636   3.027
 6565SOL    HW120594   5.431   6.682   2.939
 6565SOL    HW220595   5.377   6.672   3.093
 6566SOL     OW20596   5.247   5.599   3.750
 6566SOL    HW120597   5.346   5.608   3.752
 6566SOL    HW220598   5.223   5.513   3.703
 6567SOL     OW20599   3.794   0.468   2.043
 6567SOL    HW120600   3.743   0.388   2.073
 6567SOL    HW220601   3.813   0.527   2.122
 6568SOL     OW20602   4.214   1.353   0.959
 6568SOL    HW120603   4.265   1.407   0.891
 6568SOL    HW220604   4.117   1.352   0.934
 6569SOL     OW20605   0.813   4.624   4.358
 6569SOL    HW120606   0.828   4.644   4.261
 6569SOL    HW220607   0.875   4.679   4.414
 6570SOL     OW20608   4.398   6.770   2.329
 6570SOL    HW120609   4.419   6.691   2.271
 6570SOL    HW220610   4.443   6.851   2.293
 6571SOL     OW20611   2.791   6.271   3.507
 6571SOL    HW120612   2.882   6.231   3.496
 6571SOL    HW220613   2.724   6.197   3.515
 6572SOL     OW20614   1.635   6.009   3.822
 6572SOL    HW120615   1.579   6.059   3.888
 6572SOL    HW220616   1.589   5.924   3.796
 6573SOL     OW20617   0.747   2.335   3.223
 6573SOL    HW120618   0.751   2.411   3.159
 6573SOL    HW220619   0.654   2.299   3.227
 6574SOL     OW20620   1.403   4.611   2.129
 6574SOL    HW120621   1.364   4.630   2.039
 6574SOL    HW220622   1.338   4.638   2.200
 6575SOL     OW20623   0.426   1.425   3.524
 6575SOL    HW120624   0.415   1.476   3.609
 6575SOL    HW220625   0.480   1.479   3.459
 6576SOL     OW20626   4.373   6.652   1.661
 6576SOL    HW120627   4.343   6.604   1.579
 6576SOL    HW220628   4.401   6.745   1.637
 6577SOL     OW20629   3.317   1.370   4.073
 6577SOL    HW120630   3.237   1.362   4.013
 6577SOL    HW220631   3.295   1.333   4.163
 6578SOL     OW20632   0.890   4.749   0.457
 6578SOL    HW120633   0.811   4.770   0.516
 6578SOL    HW220634   0.921   4.656   0.475
 6579SOL     OW20635   0.661   0.864   4.063
 6579SOL    HW120636   0.564   0.871   4.042
 6579SOL    HW220637   0.697   0.777   4.029
 6580SOL     OW20638   2.343   2.009   0.465
 6580SOL    HW120639   2.263   1.961   0.500
 6580SOL    HW220640   2.401   1.946   0.415
 6581SOL     OW20641   0.680   2.257   0.964
 6581SOL    HW120642   0.700   2.300   0.877
 6581SOL    HW220643   0.614   2.183   0.950
 6582SOL     OW20644   5.764   1.126   3.086
 6582SOL    HW120645   5.727   1.152   2.997
 6582SOL    HW220646   5.846   1.071   3.073
 6583SOL     OW20647   3.142   4.423   0.309
 6583SOL    HW120648   3.118   4.414   0.406
 6583SOL    HW220649   3.220   4.364   0.289
 6584SOL     OW20650   4.577   2.171   6.452
 6584SOL    HW120651   4.620   2.212   6.532
 6584SOL    HW220652   4.478   2.171   6.463
 6585SOL     OW20653   5.730   0.198   2.111
 6585SOL    HW120654   5.760   0.190   2.206
 6585SOL    HW220655   5.807   0.228   2.054
 6586SOL     OW20656   6.927   1.250   6.506
 6586SOL    HW120657   6.964   1.338   6.536
 6586SOL    HW220658   6.910   1.253   6.408
 6587SOL     OW20659   2.499   4.922   5.032
 6587SOL    HW120660   2.404   4.924   5.063
 6587SOL    HW220661   2.559   4.942   5.110
 6588SOL     OW20662   0.381   2.302   0.579
 6588SOL    HW120663   0.332   2.224   0.540
 6588SOL    HW220664   0.479   2.290   0.565
 6589SOL     OW20665   0.054   6.579   2.276
 6589SOL    HW120666   7.013   6.622   2.347
 6589SOL    HW220667   7.009   6.522   2.218
 6590SOL     OW20668   0.941   6.283   4.266
 6590SOL    HW120669   0.943   6.368   4.319
 6590SOL    HW220670   1.029   6.238   4.272
 6591SOL     OW20671   6.233   3.907   3.683
 6591SOL    HW120672   6.264   3.816   3.709
 6591SOL    HW220673   6.283   3.936   3.601
 6592SOL     OW20674   6.246   6.421   3.947
 6592SOL    HW120675   6.157   6.453   3.914
 6592SOL    HW220676   6.233   6.343   4.008
 6593SOL     OW20677   1.728   1.277   1.836
 6593SOL    HW120678   1.763   1.327   1.915
 6593SOL    HW220679   1.707   1.183   1.863
 6594SOL     OW20680   4.988   6.941   6.800
 6594SOL    HW120681   5.075   6.921   6.846
 6594SOL    HW220682   4.920   6.873   6.828
 6595SOL     OW20683   0.867   1.963   5.144
 6595SOL    HW120684   0.819   1.908   5.212
 6595SOL    HW220685   0.845   2.060   5.158
 6596SOL     OW20686   5.144   0.936   2.428
 6596SOL    HW120687   5.070   0.931   2.360
 6596SOL    HW220688   5.187   0.847   2.437
 6597SOL     OW20689   0.476   4.661   1.184
 6597SOL    HW120690   0.445   4.597   1.254
 6597SOL    HW220691   0.397   4.699   1.135
 6598SOL     OW20692   1.898   4.907   3.546
 6598SOL    HW120693   1.991   4.880   3.570
 6598SOL    HW220694   1.839   4.897   3.626
 6599SOL     OW20695   0.595   5.546   6.010
 6599SOL    HW120696   0.612   5.645   6.015
 6599SOL    HW220697   0.536   5.527   5.932
 6600SOL     OW20698   4.512   0.007   5.534
 6600SOL    HW120699   4.611   7.005   5.539
 6600SOL    HW220700   4.495   0.106   5.531
 6601SOL     OW20701   1.464   2.115   1.783
 6601SOL    HW120702   1.461   2.134   1.684
 6601SOL    HW220703   1.557   2.129   1.817
 6602SOL     OW20704   0.224   5.653   1.741
 6602SOL    HW120705   0.142   5.598   1.756
 6602SOL    HW220706   0.203   5.750   1.752
 6603SOL     OW20707   0.159   3.939   2.745
 6603SOL    HW120708   0.063   3.925   2.721
 6603SOL    HW220709   0.217   3.890   2.680
 6604SOL     OW20710   1.811   5.728   3.256
 6604SOL    HW120711   1.782   5.823   3.268
 6604SOL    HW220712   1.836   5.690   3.345
 6605SOL     OW20713   0.043   5.885   1.089
 6605SOL    HW120714   0.100   5.904   1.009
 6605SOL    HW220715   0.077   5.938   1.167
 6606SOL     OW20716   1.760   3.139   2.877
 6606SOL    HW120717   1.799   3.223   2.839
 6606SOL    HW220718   1.699   3.163   2.953
 6607SOL     OW20719   5.917   3.408   3.689
 6607SOL    HW120720   5.834   3.461   3.670
 6607SOL    HW220721   5.903   3.313   3.659
 6608SOL     OW20722   1.368   6.703   5.859
 6608SOL    HW120723   1.268   6.706   5.855
 6608SOL    HW220724   1.396   6.654   5.942
 6609SOL     OW20725   4.112   1.556   6.776
 6609SOL    HW120726   4.205   1.578   6.806
 6609SOL    HW220727   4.059   1.641   6.767
 6610SOL     OW20728   2.867   5.354   1.198
 6610SOL    HW120729   2.954   5.304   1.208
 6610SOL    HW220730   2.815   5.348   1.283
 6611SOL     OW20731   2.877   1.916   4.930
 6611SOL    HW120732   2.917   1.981   4.866
 6611SOL    HW220733   2.780   1.903   4.908
 6612SOL     OW20734   0.276   0.454   6.745
 6612SOL    HW120735   0.241   0.399   6.820
 6612SOL    HW220736   0.369   0.483   6.766
 6613SOL     OW20737   4.313   0.037   0.484
 6613SOL    HW120738   4.389   0.048   0.548
 6613SOL    HW220739   4.327   0.097   0.405
 6614SOL     OW20740   4.142   5.214   0.479
 6614SOL    HW120741   4.062   5.269   0.456
 6614SOL    HW220742   4.113   5.122   0.503
 6615SOL     OW20743   3.855   5.687   5.944
 6615SOL    HW120744   3.810   5.602   5.916
 6615SOL    HW220745   3.880   5.681   6.041
 6616SOL     OW20746   4.097   1.196   0.040
 6616SOL    HW120747   4.089   1.220   6.957
 6616SOL    HW220748   4.005   1.184   0.079
 6617SOL     OW20749   3.585   0.819   4.058
 6617SOL    HW120750   3.514   0.876   4.016
 6617SOL    HW220751   3.659   0.878   4.092
 6618SOL     OW20752   6.045   2.485   4.085
 6618SOL    HW120753   5.989   2.402   4.091
 6618SOL    HW220754   5.990   2.565   4.106
 6619SOL     OW20755   5.210   5.483   4.020
 6619SOL    HW120756   5.223   5.562   3.960
 6619SOL    HW220757   5.231   5.399   3.970
 6620SOL     OW20758   1.338   2.794   3.246
 6620SOL    HW120759   1.382   2.708   3.273
 6620SOL    HW220760   1.369   2.820   3.154
 6621SOL     OW20761   3.284   3.757   4.373
 6621SOL    HW120762   3.327   3.701   4.445
 6621SOL    HW220763   3.240   3.697   4.307
 6622SOL     OW20764   0.303   5.654   1.008
 6622SOL    HW120765   0.391   5.608   0.993
 6622SOL    HW220766   0.256   5.612   1.085
 6623SOL     OW20767   3.125   4.054   4.460
 6623SOL    HW120768   3.088   4.146   4.446
 6623SOL    HW220769   3.106   4.025   4.554
 6624SOL     OW20770   2.558   2.147   2.753
 6624SOL    HW120771   2.626   2.077   2.775
 6624SOL    HW220772   2.604   2.235   2.740
 6625SOL     OW20773   6.394   3.954   5.439
 6625SOL    HW120774   6.410   4.044   5.399
 6625SOL    HW220775   6.464   3.891   5.406
 6626SOL     OW20776   3.025   6.088   5.676
 6626SOL    HW120777   3.106   6.138   5.647
 6626SOL    HW220778   3.013   6.007   5.620
 6627SOL     OW20779   2.133   6.014   3.942
 6627SOL    HW120780   2.039   6.015   3.975
 6627SOL    HW220781   2.175   6.104   3.956
 6628SOL     OW20782   3.432   6.077   3.679
 6628SOL    HW120783   3.441   6.121   3.768
 6628SOL    HW220784   3.392   6.142   3.614
 6629SOL     OW20785   5.120   5.792   5.953
 6629SOL    HW120786   5.070   5.847   5.887
 6629SOL    HW220787   5.175   5.723   5.904
 6630SOL     OW20788   1.311   1.129   0.231
 6630SOL    HW120789   1.269   1.039   0.246
 6630SOL    HW220790   1.395   1.136   0.286
 6631SOL     OW20791   1.873   3.356   5.753
 6631SOL    HW120792   1.892   3.378   5.658
 6631SOL    HW220793   1.818   3.429   5.794
 6632SOL     OW20794   1.342   0.049   0.050
 6632SOL    HW120795   1.294   0.039   6.978
 6632SOL    HW220796   1.350   6.974   0.095
 6633SOL     OW20797   3.999   5.199   6.165
 6633SOL    HW120798   3.967   5.213   6.071
 6633SOL    HW220799   4.057   5.276   6.192
 6634SOL     OW20800   3.473   2.117   4.009
 6634SOL    HW120801   3.529   2.048   3.963
 6634SOL    HW220802   3.380   2.113   3.973
 6635SOL     OW20803   4.773   5.289   4.969
 6635SOL    HW120804   4.862   5.287   4.924
 6635SOL    HW220805   4.705   5.330   4.908
 6636SOL     OW20806   4.529   0.828   0.143
 6636SOL    HW120807   4.451   0.876   0.103
 6636SOL    HW220808   4.515   0.817   0.242
 6637SOL     OW20809   0.194   2.055   0.534
 6637SOL    HW120810   0.247   1.979   0.497
 6637SOL    HW220811   0.108   2.064   0.484
 6638SOL     OW20812   3.262   4.118   3.998
 6638SOL    HW120813   3.171   4.088   3.968
 6638SOL    HW220814   3.277   4.087   4.092
 6639SOL     OW20815   5.162   2.746   0.790
 6639SOL    HW120816   5.247   2.774   0.835
 6639SOL    HW220817   5.126   2.823   0.737
 6640SOL     OW20818   1.677   4.298   5.132
 6640SOL    HW120819   1.724   4.358   5.198
 6640SOL    HW220820   1.690   4.203   5.159
 6641SOL     OW20821   6.034   2.254   1.052
 6641SOL    HW120822   6.006   2.345   1.082
 6641SOL    HW220823   6.067   2.258   0.958
 6642SOL     OW20824   1.550   5.784   0.005
 6642SOL    HW120825   1.460   5.765   0.046
 6642SOL    HW220826   1.568   5.882   0.008
 6643SOL     OW20827   3.079   5.954   5.932
 6643SOL    HW120828   3.047   6.004   5.852
 6643SOL    HW220829   3.035   5.989   6.015
 6644SOL     OW20830   1.841   6.283   3.835
 6644SOL    HW120831   1.896   6.348   3.887
 6644SOL    HW220832   1.861   6.190   3.867
 6645SOL     OW20833   5.699   3.137   6.396
 6645SOL    HW120834   5.635   3.069   6.360
 6645SOL    HW220835   5.792   3.111   6.369
 6646SOL     OW20836   3.899   6.825   5.726
 6646SOL    HW120837   3.877   6.821   5.823
 6646SOL    HW220838   3.905   6.920   5.696
 6647SOL     OW20839   4.370   5.022   1.169
 6647SOL    HW120840   4.275   4.990   1.163
 6647SOL    HW220841   4.420   4.991   1.088
 6648SOL     OW20842   3.017   6.268   5.124
 6648SOL    HW120843   3.106   6.305   5.149
 6648SOL    HW220844   3.029   6.182   5.075
 6649SOL     OW20845   4.977   2.749   6.258
 6649SOL    HW120846   4.887   2.748   6.215
 6649SOL    HW220847   5.038   2.810   6.207
 6650SOL     OW20848   1.496   1.350   5.523
 6650SOL    HW120849   1.423   1.414   5.498
 6650SOL    HW220850   1.469   1.297   5.603
 6651SOL     OW20851   6.835   1.694   5.823
 6651SOL    HW120852   6.814   1.618   5.885
 6651SOL    HW220853   6.859   1.659   5.733
 6652SOL     OW20854   6.658   4.606   0.008
 6652SOL    HW120855   6.720   4.668   6.973
 6652SOL    HW220856   6.704   4.570   0.089
 6653SOL     OW20857   5.745   4.865   0.261
 6653SOL    HW120858   5.666   4.920   0.286
 6653SOL    HW220859   5.806   4.856   0.340
 6654SOL     OW20860   6.362   3.666   3.752
 6654SOL    HW120861   6.299   3.606   3.702
 6654SOL    HW220862   6.436   3.611   3.790
 6655SOL     OW20863   0.073   5.810   1.987
 6655SOL    HW120864   0.149   5.773   2.040
 6655SOL    HW220865   0.108   5.853   1.904
 6656SOL     OW20866   4.166   1.422   3.617
 6656SOL    HW120867   4.099   1.423   3.691
 6656SOL    HW220868   4.251   1.464   3.650
 6657SOL     OW20869   5.313   1.856   3.888
 6657SOL    HW120870   5.328   1.951   3.861
 6657SOL    HW220871   5.345   1.795   3.816
 6658SOL     OW20872   6.775   5.899   5.506
 6658SOL    HW120873   6.726   5.939   5.429
 6658SOL    HW220874   6.814   5.811   5.478
 6659SOL     OW20875   0.845   4.967   1.536
 6659SOL    HW120876   0.794   5.052   1.526
 6659SOL    HW220877   0.935   4.976   1.495
 6660SOL     OW20878   6.726   6.974   4.481
 6660SOL    HW120879   6.744   6.886   4.526
 6660SOL    HW220880   6.741   6.964   4.383
 6661SOL     OW20881   4.033   5.702   3.899
 6661SOL    HW120882   4.103   5.686   3.969
 6661SOL    HW220883   3.981   5.618   3.884
 6662SOL     OW20884   3.838   6.795   2.390
 6662SOL    HW120885   3.852   6.879   2.442
 6662SOL    HW220886   3.918   6.736   2.402
 6663SOL     OW20887   0.760   4.463   5.885
 6663SOL    HW120888   0.745   4.374   5.928
 6663SOL    HW220889   0.673   4.505   5.863
 6664SOL     OW20890   2.544   0.300   1.076
 6664SOL    HW120891   2.565   0.395   1.100
 6664SOL    HW220892   2.469   0.267   1.132
 6665SOL     OW20893   2.675   0.819   6.748
 6665SOL    HW120894   2.634   0.782   6.831
 6665SOL    HW220895   2.618   0.894   6.713
 6666SOL     OW20896   3.709   6.166   5.021
 6666SOL    HW120897   3.788   6.105   5.014
 6666SOL    HW220898   3.626   6.116   4.996
 6667SOL     OW20899   1.085   5.821   6.713
 6667SOL    HW120900   1.162   5.780   6.665
 6667SOL    HW220901   1.100   5.920   6.722
 6668SOL     OW20902   0.166   4.126   0.429
 6668SOL    HW120903   0.167   4.226   0.429
 6668SOL    HW220904   0.082   4.093   0.473
 6669SOL     OW20905   1.584   1.886   2.696
 6669SOL    HW120906   1.507   1.929   2.743
 6669SOL    HW220907   1.668   1.936   2.718
 6670SOL     OW20908   3.664   2.743   0.169
 6670SOL    HW120909   3.749   2.759   0.219
 6670SOL    HW220910   3.656   2.812   0.096
 6671SOL     OW20911   4.443   4.870   0.162
 6671SOL    HW120912   4.481   4.822   0.241
 6671SOL    HW220913   4.356   4.828   0.136
 6672SOL     OW20914   1.150   2.277   1.632
 6672SOL    HW120915   1.221   2.347   1.639
 6672SOL    HW220916   1.067   2.311   1.678
 6673SOL     OW20917   6.374   2.862   4.011
 6673SOL    HW120918   6.404   2.877   4.105
 6673SOL    HW220919   6.279   2.891   4.000
 6674SOL     OW20920   0.500   1.510   0.577
 6674SOL    HW120921   0.553   1.427   0.557
 6674SOL    HW220922   0.425   1.487   0.639
 6675SOL     OW20923   4.748   0.544   6.701
 6675SOL    HW120924   4.699   0.619   6.657
 6675SOL    HW220925   4.788   0.576   6.787
 6676SOL     OW20926   0.654   4.018   4.061
 6676SOL    HW120927   0.654   3.943   4.128
 6676SOL    HW220928   0.562   4.031   4.025
 6677SOL     OW20929   0.770   1.615   5.989
 6677SOL    HW120930   0.830   1.542   6.021
 6677SOL    HW220931   0.696   1.575   5.934
 6678SOL     OW20932   2.669   4.146   6.168
 6678SOL    HW120933   2.735   4.200   6.220
 6678SOL    HW220934   2.630   4.202   6.095
 6679SOL     OW20935   1.501   0.651   3.529
 6679SOL    HW120936   1.432   0.716   3.563
 6679SOL    HW220937   1.492   0.565   3.578
 6680SOL     OW20938   6.669   6.085   1.345
 6680SOL    HW120939   6.626   6.161   1.394
 6680SOL    HW220940   6.603   6.044   1.282
 6681SOL     OW20941   3.459   5.829   1.558
 6681SOL    HW120942   3.489   5.909   1.505
 6681SOL    HW220943   3.525   5.810   1.631
 6682SOL     OW20944   3.140   5.684   5.896
 6682SOL    HW120945   3.124   5.781   5.916
 6682SOL    HW220946   3.175   5.674   5.803
 6683SOL     OW20947   0.032   4.928   6.037
 6683SOL    HW120948   0.063   4.968   6.123
 6683SOL    HW220949   6.948   4.908   6.043
 6684SOL     OW20950   2.989   6.178   0.018
 6684SOL    HW120951   2.916   6.242   0.043
 6684SOL    HW220952   3.024   6.133   0.100
 6685SOL     OW20953   5.451   3.175   0.275
 6685SOL    HW120954   5.513   3.241   0.317
 6685SOL    HW220955   5.469   3.171   0.176
 6686SOL     OW20956   5.348   5.313   4.881
 6686SOL    HW120957   5.384   5.370   4.807
 6686SOL    HW220958   5.419   5.300   4.950
 6687SOL     OW20959   6.704   1.623   1.611
 6687SOL    HW120960   6.705   1.711   1.563
 6687SOL    HW220961   6.797   1.599   1.639
 6688SOL     OW20962   4.465   4.861   0.947
 6688SOL    HW120963   4.526   4.904   0.881
 6688SOL    HW220964   4.483   4.763   0.951
 6689SOL     OW20965   2.565   4.531   5.698
 6689SOL    HW120966   2.647   4.489   5.658
 6689SOL    HW220967   2.592   4.604   5.761
 6690SOL     OW20968   0.633   0.572   6.308
 6690SOL    HW120969   0.679   0.578   6.397
 6690SOL    HW220970   0.534   0.563   6.322
 6691SOL     OW20971   3.025   1.989   2.396
 6691SOL    HW120972   2.948   2.052   2.387
 6691SOL    HW220973   3.105   2.038   2.431
 6692SOL     OW20974   4.188   5.289   2.682
 6692SOL    HW120975   4.216   5.379   2.649
 6692SOL    HW220976   4.089   5.288   2.697
 6693SOL     OW20977   3.130   1.717   5.201
 6693SOL    HW120978   3.209   1.752   5.151
 6693SOL    HW220979   3.146   1.727   5.299
 6694SOL     OW20980   3.911   4.281   1.431
 6694SOL    HW120981   3.818   4.317   1.442
 6694SOL    HW220982   3.916   4.226   1.347
 6695SOL     OW20983   2.699   1.921   0.652
 6695SOL    HW120984   2.630   1.855   0.681
 6695SOL    HW220985   2.757   1.944   0.730
 6696SOL     OW20986   4.067   3.129   4.156
 6696SOL    HW120987   4.119   3.189   4.096
 6696SOL    HW220988   4.052   3.041   4.111
 6697SOL     OW20989   4.522   2.104   1.989
 6697SOL    HW120990   4.479   2.037   2.049
 6697SOL    HW220991   4.469   2.189   1.992
 6698SOL     OW20992   3.525   4.179   1.583
 6698SOL    HW120993   3.442   4.160   1.635
 6698SOL    HW220994   3.588   4.233   1.639
 6699SOL     OW20995   1.281   3.909   5.380
 6699SOL    HW120996   1.215   3.888   5.452
 6699SOL    HW220997   1.347   3.834   5.373
 6700SOL     OW20998   5.649   0.302   0.679
 6700SOL    HW120999   5.708   0.240   0.731
 6700SOL    HW221000   5.579   0.248   0.631
 6701SOL     OW21001   6.262   0.247   1.732
 6701SOL    HW121002   6.324   0.299   1.790
 6701SOL    HW221003   6.258   0.152   1.764
 6702SOL     OW21004   3.534   3.285   0.979
 6702SOL    HW121005   3.592   3.232   0.916
 6702SOL    HW221006   3.535   3.241   1.069
 6703SOL     OW21007   6.834   1.274   0.471
 6703SOL    HW121008   6.833   1.294   0.374
 6703SOL    HW221009   6.741   1.254   0.502
 6704SOL     OW21010   3.419   6.834   5.845
 6704SOL    HW121011   3.383   6.747   5.810
 6704SOL    HW221012   3.510   6.850   5.808
 6705SOL     OW21013   0.315   4.471   2.423
 6705SOL    HW121014   0.274   4.560   2.402
 6705SOL    HW221015   0.365   4.439   2.343
 6706SOL     OW21016   0.125   6.640   1.587
 6706SOL    HW121017   0.178   6.556   1.586
 6706SOL    HW221018   0.088   6.658   1.496
 6707SOL     OW21019   4.861   1.236   2.419
 6707SOL    HW121020   4.918   1.243   2.337
 6707SOL    HW221021   4.917   1.252   2.500
 6708SOL     OW21022   0.817   3.520   0.304
 6708SOL    HW121023   0.790   3.458   0.378
 6708SOL    HW221024   0.915   3.537   0.308
 6709SOL     OW21025   2.336   4.326   2.356
 6709SOL    HW121026   2.317   4.229   2.337
 6709SOL    HW221027   2.398   4.362   2.285
 6710SOL     OW21028   4.508   1.377   1.221
 6710SOL    HW121029   4.551   1.425   1.297
 6710SOL    HW221030   4.530   1.424   1.136
 6711SOL     OW21031   3.016   6.245   6.244
 6711SOL    HW121032   3.113   6.246   6.221
 6711SOL    HW221033   2.990   6.153   6.275
 6712SOL     OW21034   5.479   4.625   1.739
 6712SOL    HW121035   5.538   4.701   1.715
 6712SOL    HW221036   5.482   4.555   1.667
 6713SOL     OW21037   1.903   5.223   4.371
 6713SOL    HW121038   1.922   5.147   4.309
 6713SOL    HW221039   1.805   5.244   4.369
 6714SOL     OW21040   5.521   1.230   1.782
 6714SOL    HW121041   5.542   1.133   1.794
 6714SOL    HW221042   5.450   1.257   1.846
 6715SOL     OW21043   1.680   0.527   6.599
 6715SOL    HW121044   1.739   0.460   6.553
 6715SOL    HW221045   1.587   0.521   6.563
 6716SOL     OW21046   6.805   5.880   2.477
 6716SOL    HW121047   6.878   5.944   2.502
 6716SOL    HW221048   6.843   5.806   2.422
 6717SOL     OW21049   5.642   1.726   5.883
 6717SOL    HW121050   5.569   1.794   5.879
 6717SOL    HW221051   5.709   1.744   5.810
 6718SOL     OW21052   4.387   1.647   0.813
 6718SOL    HW121053   4.420   1.667   0.721
 6718SOL    HW221054   4.358   1.733   0.857
 6719SOL     OW21055   1.748   1.389   6.786
 6719SOL    HW121056   1.812   1.335   6.731
 6719SOL    HW221057   1.776   1.485   6.784
 6720SOL     OW21058   1.423   0.894   5.968
 6720SOL    HW121059   1.454   0.914   6.061
 6720SOL    HW221060   1.501   0.863   5.913
 6721SOL     OW21061   5.980   0.145   1.134
 6721SOL    HW121062   6.002   0.230   1.183
 6721SOL    HW221063   6.058   0.083   1.137
 6722SOL     OW21064   5.658   3.798   0.143
 6722SOL    HW121065   5.570   3.820   0.099
 6722SOL    HW221066   5.733   3.829   0.084
 6723SOL     OW21067   1.261   2.646   5.733
 6723SOL    HW121068   1.283   2.742   5.713
 6723SOL    HW221069   1.172   2.640   5.778
 6724SOL     OW21070   2.133   3.722   4.195
 6724SOL    HW121071   2.073   3.802   4.186
 6724SOL    HW221072   2.161   3.692   4.104
 6725SOL     OW21073   5.165   2.418   3.152
 6725SOL    HW121074   5.252   2.369   3.152
 6725SOL    HW221075   5.137   2.437   3.058
 6726SOL     OW21076   0.439   0.456   5.737
 6726SOL    HW121077   0.431   0.423   5.643
 6726SOL    HW221078   0.528   0.500   5.749
 6727SOL     OW21079   1.308   4.984   5.867
 6727SOL    HW121080   1.334   4.991   5.771
 6727SOL    HW221081   1.387   4.952   5.920
 6728SOL     OW21082   3.580   1.369   2.905
 6728SOL    HW121083   3.566   1.287   2.961
 6728SOL    HW221084   3.637   1.347   2.827
 6729SOL     OW21085   4.449   1.222   2.338
 6729SOL    HW121086   4.371   1.166   2.311
 6729SOL    HW221087   4.435   1.256   2.432
 6730SOL     OW21088   0.190   1.771   0.908
 6730SOL    HW121089   0.161   1.752   0.814
 6730SOL    HW221090   0.250   1.851   0.909
 6731SOL     OW21091   3.641   0.172   6.487
 6731SOL    HW121092   3.708   0.243   6.508
 6731SOL    HW221093   3.558   0.214   6.450
 6732SOL     OW21094   6.646   5.063   5.734
 6732SOL    HW121095   6.567   5.102   5.781
 6732SOL    HW221096   6.730   5.087   5.782
 6733SOL     OW21097   4.726   4.664   6.006
 6733SOL    HW121098   4.645   4.608   6.016
 6733SOL    HW221099   4.774   4.639   5.922
 6734SOL     OW21100   6.105   2.016   4.026
 6734SOL    HW121101   6.178   2.030   4.093
 6734SOL    HW221102   6.047   2.097   4.023
 6735SOL     OW21103   6.510   2.405   3.090
 6735SOL    HW121104   6.432   2.445   3.042
 6735SOL    HW221105   6.590   2.463   3.079
 6736SOL     OW21106   3.666   3.748   0.804
 6736SOL    HW121107   3.577   3.760   0.848
 6736SOL    HW221108   3.701   3.656   0.823
 6737SOL     OW21109   0.010   3.685   0.151
 6737SOL    HW121110   0.065   3.764   0.175
 6737SOL    HW221111   6.939   3.716   0.108
 6738SOL     OW21112   1.092   6.178   3.555
 6738SOL    HW121113   1.092   6.124   3.471
 6738SOL    HW221114   1.148   6.132   3.624
 6739SOL     OW21115   6.787   0.123   4.999
 6739SOL    HW121116   6.856   0.193   4.980
 6739SOL    HW221117   6.746   0.092   4.913
 6740SOL     OW21118   0.554   6.602   3.058
 6740SOL    HW121119   0.620   6.667   3.097
 6740SOL    HW221120   0.468   6.650   3.039
 6741SOL     OW21121   3.964   1.812   6.716
 6741SOL    HW121122   3.945   1.908   6.734
 6741SOL    HW221123   3.968   1.796   6.617
 6742SOL     OW21124   5.605   4.332   3.869
 6742SOL    HW121125   5.685   4.291   3.911
 6742SOL    HW221126   5.634   4.402   3.803
 6743SOL     OW21127   3.963   3.781   0.844
 6743SOL    HW121128   3.876   3.765   0.797
 6743SOL    HW221129   4.021   3.838   0.787
 6744SOL     OW21130   6.121   6.852   6.013
 6744SOL    HW121131   6.135   6.794   6.093
 6744SOL    HW221132   6.198   6.841   5.950
 6745SOL     OW21133   0.208   4.585   5.303
 6745SOL    HW121134   0.121   4.567   5.256
 6745SOL    HW221135   0.283   4.545   5.250
 6746SOL     OW21136   0.861   1.941   2.565
 6746SOL    HW121137   0.899   2.007   2.500
 6746SOL    HW221138   0.896   1.850   2.543
 6747SOL     OW21139   1.745   6.400   5.489
 6747SOL    HW121140   1.683   6.464   5.535
 6747SOL    HW221141   1.713   6.307   5.503
 6748SOL     OW21142   2.092   1.362   4.635
 6748SOL    HW121143   2.097   1.311   4.721
 6748SOL    HW221144   1.998   1.393   4.619
 6749SOL     OW21145   3.982   5.180   2.155
 6749SOL    HW121146   3.893   5.206   2.117
 6749SOL    HW221147   3.968   5.135   2.244
 6750SOL     OW21148   3.861   1.327   5.146
 6750SOL    HW121149   3.959   1.319   5.127
 6750SOL    HW221150   3.813   1.252   5.100
 6751SOL     OW21151   4.615   0.026   4.094
 6751SOL    HW121152   4.547   0.076   4.040
 6751SOL    HW221153   4.699   0.079   4.101
 6752SOL     OW21154   2.071   4.724   2.152
 6752SOL    HW121155   1.979   4.761   2.140
 6752SOL    HW221156   2.119   4.775   2.224
 6753SOL     OW21157   3.824   3.296   5.759
 6753SOL    HW121158   3.825   3.222   5.827
 6753SOL    HW221159   3.902   3.287   5.698
 6754SOL     OW21160   6.116   1.787   0.704
 6754SOL    HW121161   6.171   1.863   0.740
 6754SOL    HW221162   6.029   1.783   0.752
 6755SOL     OW21163   2.842   5.850   6.239
 6755SOL    HW121164   2.772   5.853   6.311
 6755SOL    HW221165   2.924   5.898   6.271
 6756SOL     OW21166   3.015   1.968   5.991
 6756SOL    HW121167   3.032   2.000   5.898
 6756SOL    HW221168   2.928   1.917   5.993
 6757SOL     OW21169   4.437   0.245   0.990
 6757SOL    HW121170   4.378   0.258   0.911
 6757SOL    HW221171   4.481   0.155   0.984
 6758SOL     OW21172   5.101   1.897   3.135
 6758SOL    HW121173   5.056   1.986   3.142
 6758SOL    HW221174   5.065   1.836   3.206
 6759SOL     OW21175   0.386   1.955   2.770
 6759SOL    HW121176   0.359   2.036   2.717
 6759SOL    HW221177   0.324   1.880   2.750
 6760SOL     OW21178   5.404   2.602   4.228
 6760SOL    HW121179   5.353   2.562   4.304
 6760SOL    HW221180   5.497   2.623   4.257
 6761SOL     OW21181   4.013   1.560   4.941
 6761SOL    HW121182   3.925   1.593   4.973
 6761SOL    HW221183   4.027   1.589   4.846
 6762SOL     OW21184   6.384   5.494   4.068
 6762SOL    HW121185   6.370   5.551   3.987
 6762SOL    HW221186   6.400   5.552   4.148
 6763SOL     OW21187   5.581   5.767   4.861
 6763SOL    HW121188   5.493   5.811   4.844
 6763SOL    HW221189   5.571   5.668   4.852
 6764SOL     OW21190   1.375   5.056   0.749
 6764SOL    HW121191   1.333   5.022   0.833
 6764SOL    HW221192   1.469   5.084   0.768
 6765SOL     OW21193   0.188   5.032   2.986
 6765SOL    HW121194   0.123   5.026   2.911
 6765SOL    HW221195   0.277   5.063   2.951
 6766SOL     OW21196   5.816   0.676   1.426
 6766SOL    HW121197   5.909   0.659   1.458
 6766SOL    HW221198   5.809   0.653   1.329
 6767SOL     OW21199   3.083   0.630   0.714
 6767SOL    HW121200   3.151   0.683   0.764
 6767SOL    HW221201   3.029   0.690   0.655
 6768SOL     OW21202   1.708   0.950   0.489
 6768SOL    HW121203   1.769   0.893   0.434
 6768SOL    HW221204   1.722   0.930   0.586
 6769SOL     OW21205   4.203   3.129   1.556
 6769SOL    HW121206   4.283   3.155   1.610
 6769SOL    HW221207   4.121   3.135   1.613
 6770SOL     OW21208   0.250   0.605   1.797
 6770SOL    HW121209   0.293   0.516   1.807
 6770SOL    HW221210   0.313   0.677   1.828
 6771SOL     OW21211   4.282   2.155   3.508
 6771SOL    HW121212   4.335   2.170   3.425
 6771SOL    HW221213   4.202   2.099   3.487
 6772SOL     OW21214   3.409   1.793   3.430
 6772SOL    HW121215   3.392   1.730   3.354
 6772SOL    HW221216   3.397   1.887   3.400
 6773SOL     OW21217   0.511   4.184   2.023
 6773SOL    HW121218   0.431   4.125   2.034
 6773SOL    HW221219   0.582   4.134   1.974
 6774SOL     OW21220   0.612   1.557   6.336
 6774SOL    HW121221   0.678   1.482   6.332
 6774SOL    HW221222   0.660   1.642   6.360
 6775SOL     OW21223   2.328   4.677   0.057
 6775SOL    HW121224   2.293   4.628   6.991
 6775SOL    HW221225   2.365   4.612   0.123
 6776SOL     OW21226   5.609   5.811   7.001
 6776SOL    HW121227   5.625   5.713   0.001
 6776SOL    HW221228   5.541   5.824   6.929
 6777SOL     OW21229   4.995   4.690   6.812
 6777SOL    HW121230   4.930   4.737   6.753
 6777SOL    HW221231   5.031   4.609   6.765
 6778SOL     OW21232   0.509   6.051   2.892
 6778SOL    HW121233   0.541   5.961   2.921
 6778SOL    HW221234   0.547   6.072   2.801
 6779SOL     OW21235   0.541   4.257   0.314
 6779SOL    HW121236   0.498   4.326   0.373
 6779SOL    HW221237   0.638   4.277   0.305
 6780SOL     OW21238   0.107   2.879   2.159
 6780SOL    HW121239   0.049   2.797   2.154
 6780SOL    HW221240   0.049   2.961   2.157
 6781SOL     OW21241   6.010   4.864   6.152
 6781SOL    HW121242   5.955   4.862   6.235
 6781SOL    HW221243   6.094   4.812   6.166
 6782SOL     OW21244   5.937   1.313   3.237
 6782SOL    HW121245   5.872   1.238   3.226
 6782SOL    HW221246   6.028   1.284   3.208
 6783SOL     OW21247   0.552   6.310   6.570
 6783SOL    HW121248   0.642   6.344   6.598
 6783SOL    HW221249   0.532   6.225   6.618
 6784SOL     OW21250   3.303   2.867   0.148
 6784SOL    HW121251   3.390   2.914   0.144
 6784SOL    HW221252   3.266   2.872   0.241
 6785SOL     OW21253   6.092   6.636   2.682
 6785SOL    HW121254   6.074   6.578   2.602
 6785SOL    HW221255   6.191   6.640   2.698
 6786SOL     OW21256   2.213   2.997   6.091
 6786SOL    HW121257   2.313   2.998   6.095
 6786SOL    HW221258   2.177   2.948   6.171
 6787SOL     OW21259   1.016   3.560   2.058
 6787SOL    HW121260   0.983   3.491   1.993
 6787SOL    HW221261   0.999   3.528   2.152
 6788SOL     OW21262   2.681   3.776   0.807
 6788SOL    HW121263   2.714   3.709   0.873
 6788SOL    HW221264   2.611   3.734   0.749
 6789SOL     OW21265   0.323   6.400   2.717
 6789SOL    HW121266   0.305   6.459   2.639
 6789SOL    HW221267   0.324   6.456   2.801
 6790SOL     OW21268   1.626   2.945   7.013
 6790SOL    HW121269   1.679   3.025   0.025
 6790SOL    HW221270   1.679   2.888   6.951
 6791SOL     OW21271   4.318   3.524   6.216
 6791SOL    HW121272   4.396   3.465   6.237
 6791SOL    HW221273   4.339   3.579   6.135
 6792SOL     OW21274   0.121   5.665   0.802
 6792SOL    HW121275   0.194   5.643   0.867
 6792SOL    HW221276   0.032   5.652   0.847
 6793SOL     OW21277   6.681   1.820   1.377
 6793SOL    HW121278   6.613   1.792   1.309
 6793SOL    HW221279   6.648   1.902   1.425
 6794SOL     OW21280   4.707   0.958   5.252
 6794SOL    HW121281   4.608   0.963   5.240
 6794SOL    HW221282   4.750   1.042   5.217
 6795SOL     OW21283   3.182   5.770   6.751
 6795SOL    HW121284   3.212   5.675   6.746
 6795SOL    HW221285   3.214   5.811   6.836
 6796SOL     OW21286   4.454   1.869   2.890
 6796SOL    HW121287   4.467   1.783   2.939
 6796SOL    HW221288   4.366   1.909   2.915
 6797SOL     OW21289   6.554   3.634   2.646
 6797SOL    HW121290   6.479   3.688   2.609
 6797SOL    HW221291   6.590   3.574   2.574
 6798SOL     OW21292   6.416   6.348   2.733
 6798SOL    HW121293   6.485   6.292   2.687
 6798SOL    HW221294   6.329   6.299   2.735
 6799SOL     OW21295   5.031   6.378   1.020
 6799SOL    HW121296   4.931   6.371   1.022
 6799SOL    HW221297   5.062   6.390   0.926
 6800SOL     OW21298   2.642   4.854   6.758
 6800SOL    HW121299   2.655   4.934   6.700
 6800SOL    HW221300   2.634   4.883   6.853
 6801SOL     OW21301   1.549   1.926   2.405
 6801SOL    HW121302   1.552   1.914   2.504
 6801SOL    HW221303   1.617   1.866   2.362
 6802SOL     OW21304   2.227   6.067   2.452
 6802SOL    HW121305   2.233   6.129   2.530
 6802SOL    HW221306   2.268   5.979   2.475
 6803SOL     OW21307   5.292   2.460   0.186
 6803SOL    HW121308   5.315   2.419   0.097
 6803SOL    HW221309   5.194   2.482   0.188
 6804SOL     OW21310   1.695   6.509   3.596
 6804SOL    HW121311   1.688   6.409   3.601
 6804SOL    HW221312   1.623   6.544   3.536
 6805SOL     OW21313   5.647   0.337   4.488
 6805SOL    HW121314   5.662   0.343   4.390
 6805SOL    HW221315   5.735   0.343   4.536
 6806SOL     OW21316   4.484   0.624   5.702
 6806SOL    HW121317   4.568   0.677   5.710
 6806SOL    HW221318   4.413   0.680   5.661
 6807SOL     OW21319   2.919   3.066   0.467
 6807SOL    HW121320   2.976   2.990   0.500
 6807SOL    HW221321   2.960   3.106   0.385
 6808SOL     OW21322   1.485   2.940   5.123
 6808SOL    HW121323   1.411   2.983   5.071
 6808SOL    HW221324   1.541   2.884   5.061
 6809SOL     OW21325   2.068   3.273   6.227
 6809SOL    HW121326   2.031   3.217   6.153
 6809SOL    HW221327   2.153   3.316   6.198
 6810SOL     OW21328   6.021   1.515   2.431
 6810SOL    HW121329   6.039   1.425   2.390
 6810SOL    HW221330   6.056   1.516   2.525
 6811SOL     OW21331   5.499   5.607   1.794
 6811SOL    HW121332   5.555   5.524   1.800
 6811SOL    HW221333   5.553   5.685   1.825
 6812SOL     OW21334   3.172   3.558   2.945
 6812SOL    HW121335   3.210   3.485   2.888
 6812SOL    HW221336   3.246   3.616   2.979
 6813SOL     OW21337   4.412   3.804   1.022
 6813SOL    HW121338   4.495   3.774   0.977
 6813SOL    HW221339   4.431   3.820   1.119
 6814SOL     OW21340   2.272   3.450   0.276
 6814SOL    HW121341   2.239   3.365   0.318
 6814SOL    HW221342   2.371   3.457   0.288
 6815SOL     OW21343   2.117   0.323   1.892
 6815SOL    HW121344   2.113   0.405   1.835
 6815SOL    HW221345   2.131   0.243   1.834
 6816SOL     OW21346   6.651   4.469   1.164
 6816SOL    HW121347   6.597   4.431   1.240
 6816SOL    HW221348   6.590   4.496   1.090
 6817SOL     OW21349   0.191   1.545   6.020
 6817SOL    HW121350   0.152   1.454   6.004
 6817SOL    HW221351   0.242   1.544   6.106
 6818SOL     OW21352   3.352   6.358   2.831
 6818SOL    HW121353   3.349   6.433   2.765
 6818SOL    HW221354   3.261   6.318   2.840
 6819SOL     OW21355   2.997   1.553   4.029
 6819SOL    HW121356   3.011   1.588   3.936
 6819SOL    HW221357   2.988   1.631   4.092
 6820SOL     OW21358   0.729   4.252   3.428
 6820SOL    HW121359   0.657   4.299   3.479
 6820SOL    HW221360   0.734   4.288   3.335
 6821SOL     OW21361   2.471   1.863   4.344
 6821SOL    HW121362   2.427   1.953   4.340
 6821SOL    HW221363   2.532   1.852   4.266
 6822SOL     OW21364   5.205   2.121   5.826
 6822SOL    HW121365   5.135   2.117   5.755
 6822SOL    HW221366   5.274   2.190   5.801
 6823SOL     OW21367   2.911   3.428   2.765
 6823SOL    HW121368   2.915   3.473   2.676
 6823SOL    HW221369   2.819   3.438   2.803
 6824SOL     OW21370   1.664   4.022   6.367
 6824SOL    HW121371   1.728   3.967   6.422
 6824SOL    HW221372   1.701   4.113   6.353
 6825SOL     OW21373   4.756   0.454   3.057
 6825SOL    HW121374   4.740   0.541   3.104
 6825SOL    HW221375   4.669   0.409   3.038
 6826SOL     OW21376   1.426   3.021   2.725
 6826SOL    HW121377   1.440   3.103   2.670
 6826SOL    HW221378   1.387   2.949   2.667
 6827SOL     OW21379   5.665   5.820   5.116
 6827SOL    HW121380   5.624   5.803   5.026
 6827SOL    HW221381   5.763   5.802   5.111
 6828SOL     OW21382   1.688   2.507   1.379
 6828SOL    HW121383   1.590   2.516   1.362
 6828SOL    HW221384   1.738   2.566   1.316
 6829SOL     OW21385   4.687   5.693   4.166
 6829SOL    HW121386   4.705   5.750   4.246
 6829SOL    HW221387   4.660   5.751   4.089
 6830SOL     OW21388   5.434   2.111   3.813
 6830SOL    HW121389   5.486   2.171   3.873
 6830SOL    HW221390   5.371   2.165   3.758
 6831SOL     OW21391   0.210   1.032   6.153
 6831SOL    HW121392   0.287   1.065   6.207
 6831SOL    HW221393   0.219   0.933   6.138
 6832SOL     OW21394   3.072   5.270   2.113
 6832SOL    HW121395   3.106   5.214   2.038
 6832SOL    HW221396   2.972   5.264   2.116
 6833SOL     OW21397   3.868   4.794   0.243
 6833SOL    HW121398   3.851   4.849   0.161
 6833SOL    HW221399   3.820   4.706   0.235
 6834SOL     OW21400   3.830   5.297   2.479
 6834SOL    HW121401   3.744   5.246   2.484
 6834SOL    HW221402   3.817   5.378   2.422
 6835SOL     OW21403   3.779   6.862   4.881
 6835SOL    HW121404   3.866   6.823   4.912
 6835SOL    HW221405   3.749   6.814   4.798
 6836SOL     OW21406   3.576   6.299   0.058
 6836SOL    HW121407   3.629   6.216   0.078
 6836SOL    HW221408   3.480   6.275   0.045
 6837SOL     OW21409   1.443   3.038   2.119
 6837SOL    HW121410   1.514   3.026   2.189
 6837SOL    HW221411   1.419   3.135   2.112
 6838SOL     OW21412   2.162   1.475   6.348
 6838SOL    HW121413   2.111   1.481   6.433
 6838SOL    HW221414   2.215   1.559   6.335
 6839SOL     OW21415   4.511   1.144   1.075
 6839SOL    HW121416   4.414   1.143   1.051
 6839SOL    HW221417   4.530   1.224   1.132
 6840SOL     OW21418   1.029   2.085   6.420
 6840SOL    HW121419   1.077   1.998   6.419
 6840SOL    HW221420   0.934   2.071   6.448
 6841SOL     OW21421   6.966   3.656   6.368
 6841SOL    HW121422   6.892   3.672   6.302
 6841SOL    HW221423   6.959   3.723   6.442
 6842SOL     OW21424   1.864   4.433   2.773
 6842SOL    HW121425   1.913   4.358   2.819
 6842SOL    HW221426   1.766   4.414   2.773
 6843SOL     OW21427   4.391   6.457   6.890
 6843SOL    HW121428   4.375   6.540   6.944
 6843SOL    HW221429   4.332   6.384   6.922
 6844SOL     OW21430   5.191   0.740   5.712
 6844SOL    HW121431   5.113   0.800   5.692
 6844SOL    HW221432   5.183   0.706   5.806
 6845SOL     OW21433   5.349   2.005   2.312
 6845SOL    HW121434   5.271   1.951   2.279
 6845SOL    HW221435   5.316   2.095   2.342
 6846SOL     OW21436   2.608   3.832   0.258
 6846SOL    HW121437   2.560   3.767   0.317
 6846SOL    HW221438   2.640   3.909   0.312
 6847SOL     OW21439   6.480   3.359   3.737
 6847SOL    HW121440   6.534   3.377   3.819
 6847SOL    HW221441   6.419   3.281   3.753
 6848SOL     OW21442   6.053   4.472   3.473
 6848SOL    HW121443   6.032   4.448   3.378
 6848SOL    HW221444   6.071   4.570   3.479
 6849SOL     OW21445   3.170   4.233   6.919
 6849SOL    HW121446   3.105   4.174   6.870
 6849SOL    HW221447   3.174   4.205   0.001
 6850SOL     OW21448   4.198   1.973   4.028
 6850SOL    HW121449   4.154   2.042   3.971
 6850SOL    HW221450   4.135   1.896   4.043
 6851SOL     OW21451   2.178   3.204   3.903
 6851SOL    HW121452   2.194   3.257   3.987
 6851SOL    HW221453   2.119   3.126   3.924
 6852SOL     OW21454   2.494   4.586   0.305
 6852SOL    HW121455   2.545   4.509   0.267
 6852SOL    HW221456   2.519   4.599   0.401
 6853SOL     OW21457   4.993   3.378   6.611
 6853SOL    HW121458   5.017   3.311   6.682
 6853SOL    HW221459   5.015   3.340   6.521
 6854SOL     OW21460   6.010   5.785   6.192
 6854SOL    HW121461   6.097   5.797   6.144
 6854SOL    HW221462   6.025   5.797   6.290
 6855SOL     OW21463   4.126   5.157   3.356
 6855SOL    HW121464   4.201   5.091   3.349
 6855SOL    HW221465   4.162   5.250   3.357
 6856SOL     OW21466   0.625   1.486   6.764
 6856SOL    HW121467   0.707   1.478   6.706
 6856SOL    HW221468   0.650   1.533   6.849
 6857SOL     OW21469   0.878   3.795   4.980
 6857SOL    HW121470   0.813   3.732   4.937
 6857SOL    HW221471   0.894   3.874   4.920
 6858SOL     OW21472   2.210   3.711   1.744
 6858SOL    HW121473   2.257   3.640   1.797
 6858SOL    HW221474   2.116   3.684   1.727
 6859SOL     OW21475   0.961   1.555   2.259
 6859SOL    HW121476   0.964   1.647   2.298
 6859SOL    HW221477   1.054   1.523   2.242
 6860SOL     OW21478   0.833   6.388   2.101
 6860SOL    HW121479   0.888   6.413   2.022
 6860SOL    HW221480   0.736   6.402   2.080
 6861SOL     OW21481   5.698   2.935   5.378
 6861SOL    HW121482   5.724   2.838   5.377
 6861SOL    HW221483   5.598   2.942   5.371
 6862SOL     OW21484   0.893   4.520   5.179
 6862SOL    HW121485   0.803   4.476   5.173
 6862SOL    HW221486   0.902   4.564   5.269
 6863SOL     OW21487   5.844   0.657   5.295
 6863SOL    HW121488   5.930   0.606   5.299
 6863SOL    HW221489   5.795   0.648   5.382
 6864SOL     OW21490   1.148   3.338   6.021
 6864SOL    HW121491   1.126   3.404   6.094
 6864SOL    HW221492   1.232   3.289   6.046
 6865SOL     OW21493   2.026   0.021   3.585
 6865SOL    HW121494   1.939   7.010   3.544
 6865SOL    HW221495   2.101   7.005   3.525
 6866SOL     OW21496   1.082   4.502   0.613
 6866SOL    HW121497   0.997   4.452   0.633
 6866SOL    HW221498   1.097   4.571   0.684
 6867SOL     OW21499   2.062   4.128   6.814
 6867SOL    HW121500   1.992   4.075   6.862
 6867SOL    HW221501   2.021   4.174   6.735
 6868SOL     OW21502   2.559   5.150   4.052
 6868SOL    HW121503   2.481   5.172   3.995
 6868SOL    HW221504   2.636   5.211   4.029
 6869SOL     OW21505   3.297   0.934   6.239
 6869SOL    HW121506   3.323   0.876   6.316
 6869SOL    HW221507   3.370   0.932   6.170
 6870SOL     OW21508   6.132   2.621   0.892
 6870SOL    HW121509   6.198   2.652   0.960
 6870SOL    HW221510   6.171   2.631   0.801
 6871SOL     OW21511   0.441   3.850   2.308
 6871SOL    HW121512   0.529   3.895   2.325
 6871SOL    HW221513   0.403   3.883   2.221
 6872SOL     OW21514   1.649   3.991   0.790
 6872SOL    HW121515   1.666   4.036   0.702
 6872SOL    HW221516   1.735   3.952   0.824
 6873SOL     OW21517   0.664   4.571   3.787
 6873SOL    HW121518   0.596   4.615   3.846
 6873SOL    HW221519   0.756   4.599   3.816
 6874SOL     OW21520   5.508   6.274   3.410
 6874SOL    HW121521   5.451   6.353   3.387
 6874SOL    HW221522   5.451   6.193   3.418
 6875SOL     OW21523   2.290   1.600   0.165
 6875SOL    HW121524   2.360   1.645   0.110
 6875SOL    HW221525   2.214   1.664   0.180
 6876SOL     OW21526   5.056   4.771   3.682
 6876SOL    HW121527   5.070   4.767   3.781
 6876SOL    HW221528   4.959   4.782   3.662
 6877SOL     OW21529   1.427   3.343   2.324
 6877SOL    HW121530   1.517   3.335   2.280
 6877SOL    HW221531   1.401   3.440   2.329
 6878SOL     OW21532   2.001   0.609   4.515
 6878SOL    HW121533   2.029   0.690   4.567
 6878SOL    HW221534   2.045   0.528   4.554
 6879SOL     OW21535   2.328   1.208   0.752
 6879SOL    HW121536   2.415   1.218   0.801
 6879SOL    HW221537   2.342   1.231   0.655
 6880SOL     OW21538   1.713   5.397   6.624
 6880SOL    HW121539   1.668   5.377   6.711
 6880SOL    HW221540   1.671   5.343   6.551
 6881SOL     OW21541   1.008   2.730   0.826
 6881SOL    HW121542   0.973   2.797   0.760
 6881SOL    HW221543   0.934   2.667   0.851
 6882SOL     OW21544   2.479   6.904   6.353
 6882SOL    HW121545   2.496   6.905   6.254
 6882SOL    HW221546   2.565   6.920   6.402
 6883SOL     OW21547   4.778   0.774   0.351
 6883SOL    HW121548   4.694   0.814   0.388
 6883SOL    HW221549   4.856   0.805   0.406
 6884SOL     OW21550   2.187   4.066   3.037
 6884SOL    HW121551   2.213   4.040   3.130
 6884SOL    HW221552   2.177   3.984   2.981
 6885SOL     OW21553   5.959   5.646   4.711
 6885SOL    HW121554   5.909   5.581   4.654
 6885SOL    HW221555   5.921   5.644   4.804
 6886SOL     OW21556   4.805   1.892   6.994
 6886SOL    HW121557   4.890   1.845   0.003
 6886SOL    HW221558   4.800   1.906   6.895
 6887SOL     OW21559   5.731   5.845   5.691
 6887SOL    HW121560   5.676   5.869   5.771
 6887SOL    HW221561   5.828   5.856   5.712
 6888SOL     OW21562   6.340   5.052   6.450
 6888SOL    HW121563   6.431   5.040   6.489
 6888SOL    HW221564   6.289   5.119   6.504
 6889SOL     OW21565   0.283   2.237   6.723
 6889SOL    HW121566   0.233   2.177   6.661
 6889SOL    HW221567   0.230   2.321   6.737
 6890SOL     OW21568   4.577   4.524   3.228
 6890SOL    HW121569   4.576   4.437   3.179
 6890SOL    HW221570   4.668   4.540   3.266
 6891SOL     OW21571   1.816   1.422   0.908
 6891SOL    HW121572   1.903   1.434   0.859
 6891SOL    HW221573   1.741   1.449   0.849
 6892SOL     OW21574   2.819   0.629   4.569
 6892SOL    HW121575   2.749   0.698   4.547
 6892SOL    HW221576   2.889   0.630   4.498
 6893SOL     OW21577   5.611   3.351   0.949
 6893SOL    HW121578   5.547   3.423   0.920
 6893SOL    HW221579   5.637   3.296   0.870
 6894SOL     OW21580   5.903   5.582   0.416
 6894SOL    HW121581   5.861   5.668   0.386
 6894SOL    HW221582   5.984   5.602   0.472
 6895SOL     OW21583   0.293   6.542   1.855
 6895SOL    HW121584   0.302   6.631   1.812
 6895SOL    HW221585   0.383   6.507   1.880
 6896SOL     OW21586   4.606   1.564   4.480
 6896SOL    HW121587   4.574   1.484   4.428
 6896SOL    HW221588   4.679   1.610   4.428
 6897SOL     OW21589   4.853   3.274   5.107
 6897SOL    HW121590   4.774   3.219   5.132
 6897SOL    HW221591   4.823   3.361   5.068
 6898SOL     OW21592   1.923   6.882   1.594
 6898SOL    HW121593   1.965   6.791   1.594
 6898SOL    HW221594   1.862   6.890   1.674
 6899SOL     OW21595   6.470   5.849   2.309
 6899SOL    HW121596   6.520   5.866   2.224
 6899SOL    HW221597   6.492   5.920   2.376
 6900SOL     OW21598   6.168   3.902   5.298
 6900SOL    HW121599   6.252   3.945   5.330
 6900SOL    HW221600   6.177   3.876   5.202
 6901SOL     OW21601   5.182   4.688   0.098
 6901SOL    HW121602   5.195   4.693   7.013
 6901SOL    HW221603   5.110   4.752   0.126
 6902SOL     OW21604   0.834   6.043   5.934
 6902SOL    HW121605   0.898   6.113   5.967
 6902SOL    HW221606   0.886   5.965   5.898
 6903SOL     OW21607   1.353   5.740   4.379
 6903SOL    HW121608   1.407   5.808   4.429
 6903SOL    HW221609   1.264   5.729   4.424
 6904SOL     OW21610   6.785   6.666   5.312
 6904SOL    HW121611   6.794   6.601   5.387
 6904SOL    HW221612   6.834   6.750   5.335
 6905SOL     OW21613   4.793   6.162   5.979
 6905SOL    HW121614   4.827   6.221   5.905
 6905SOL    HW221615   4.719   6.105   5.945
 6906SOL     OW21616   3.222   1.308   3.735
 6906SOL    HW121617   3.305   1.355   3.766
 6906SOL    HW221618   3.177   1.265   3.813
 6907SOL     OW21619   5.945   2.767   0.536
 6907SOL    HW121620   5.892   2.797   0.616
 6907SOL    HW221621   5.882   2.738   0.464
 6908SOL     OW21622   2.892   4.750   0.847
 6908SOL    HW121623   2.930   4.659   0.860
 6908SOL    HW221624   2.798   4.752   0.881
 6909SOL     OW21625   6.542   5.622   2.122
 6909SOL    HW121626   6.575   5.712   2.095
 6909SOL    HW221627   6.442   5.625   2.133
 6910SOL     OW21628   1.282   2.818   2.602
 6910SOL    HW121629   1.324   2.734   2.568
 6910SOL    HW221630   1.189   2.799   2.633
 6911SOL     OW21631   1.968   6.797   5.439
 6911SOL    HW121632   1.933   6.793   5.532
 6911SOL    HW221633   1.946   6.712   5.391
 6912SOL     OW21634   2.473   3.728   6.670
 6912SOL    HW121635   2.383   3.718   6.627
 6912SOL    HW221636   2.524   3.801   6.624
 6913SOL     OW21637   5.162   6.093   6.108
 6913SOL    HW121638   5.081   6.096   6.050
 6913SOL    HW221639   5.137   6.116   6.202
 6914SOL     OW21640   6.180   2.830   2.784
 6914SOL    HW121641   6.093   2.877   2.797
 6914SOL    HW221642   6.216   2.849   2.693
 6915SOL     OW21643   6.476   3.505   3.487
 6915SOL    HW121644   6.459   3.455   3.572
 6915SOL    HW221645   6.548   3.460   3.436
 6916SOL     OW21646   4.849   6.029   6.563
 6916SOL    HW121647   4.847   6.078   6.651
 6916SOL    HW221648   4.851   5.931   6.579
 6917SOL     OW21649   5.064   6.416   1.661
 6917SOL    HW121650   5.024   6.419   1.752
 6917SOL    HW221651   5.131   6.490   1.651
 6918SOL     OW21652   1.994   3.090   0.923
 6918SOL    HW121653   2.068   3.096   0.856
 6918SOL    HW221654   2.031   3.062   1.011
 6919SOL     OW21655   5.520   5.710   3.502
 6919SOL    HW121656   5.509   5.676   3.409
 6919SOL    HW221657   5.598   5.773   3.506
 6920SOL     OW21658   6.047   1.212   5.959
 6920SOL    HW121659   6.059   1.166   5.871
 6920SOL    HW221660   6.097   1.162   6.030
 6921SOL     OW21661   4.294   0.269   4.187
 6921SOL    HW121662   4.254   0.358   4.163
 6921SOL    HW221663   4.372   0.284   4.248
 6922SOL     OW21664   1.697   4.124   5.779
 6922SOL    HW121665   1.692   4.171   5.867
 6922SOL    HW221666   1.791   4.128   5.745
 6923SOL     OW21667   5.693   0.010   2.555
 6923SOL    HW121668   5.757   6.955   2.521
 6923SOL    HW221669   5.684   7.014   2.655
 6924SOL     OW21670   3.046   5.884   1.549
 6924SOL    HW121671   2.953   5.855   1.531
 6924SOL    HW221672   3.110   5.823   1.503
 6925SOL     OW21673   5.679   6.408   5.596
 6925SOL    HW121674   5.611   6.346   5.634
 6925SOL    HW221675   5.637   6.466   5.526
 6926SOL     OW21676   2.971   2.664   0.429
 6926SOL    HW121677   3.028   2.678   0.348
 6926SOL    HW221678   2.958   2.567   0.445
 6927SOL     OW21679   4.990   0.890   0.499
 6927SOL    HW121680   5.039   0.810   0.534
 6927SOL    HW221681   4.927   0.923   0.569
 6928SOL     OW21682   4.639   5.002   0.800
 6928SOL    HW121683   4.734   4.999   0.832
 6928SOL    HW221684   4.632   5.064   0.722
 6929SOL     OW21685   5.959   5.304   1.677
 6929SOL    HW121686   6.016   5.269   1.603
 6929SOL    HW221687   5.959   5.239   1.753
 6930SOL     OW21688   0.506   0.203   0.902
 6930SOL    HW121689   0.477   0.265   0.975
 6930SOL    HW221690   0.564   0.253   0.838
 6931SOL     OW21691   2.544   3.646   1.101
 6931SOL    HW121692   2.622   3.585   1.090
 6931SOL    HW221693   2.474   3.623   1.033
 6932SOL     OW21694   3.989   6.081   6.765
 6932SOL    HW121695   4.038   6.033   6.837
 6932SOL    HW221696   3.914   6.024   6.731
 6933SOL     OW21697   3.362   6.087   6.068
 6933SOL    HW121698   3.349   6.117   5.974
 6933SOL    HW221699   3.365   5.987   6.071
 6934SOL     OW21700   5.212   4.316   6.734
 6934SOL    HW121701   5.169   4.346   6.818
 6934SOL    HW221702   5.306   4.350   6.730
 6935SOL     OW21703   4.404   6.161   2.161
 6935SOL    HW121704   4.328   6.212   2.121
 6935SOL    HW221705   4.464   6.225   2.210
 6936SOL     OW21706   0.187   2.106   5.026
 6936SOL    HW121707   0.239   2.025   5.054
 6936SOL    HW221708   0.134   2.085   4.944
 6937SOL     OW21709   5.704   5.485   0.028
 6937SOL    HW121710   5.739   5.445   6.957
 6937SOL    HW221711   5.657   5.415   0.081
 6938SOL     OW21712   2.084   0.789   4.927
 6938SOL    HW121713   2.005   0.731   4.946
 6938SOL    HW221714   2.092   0.804   4.828
 6939SOL     OW21715   5.972   3.423   3.313
 6939SOL    HW121716   5.916   3.347   3.281
 6939SOL    HW221717   5.914   3.491   3.358
 6940SOL     OW21718   2.928   5.986   0.702
 6940SOL    HW121719   2.866   6.064   0.699
 6940SOL    HW221720   2.893   5.913   0.643
 6941SOL     OW21721   3.397   3.785   3.012
 6941SOL    HW121722   3.467   3.736   3.064
 6941SOL    HW221723   3.399   3.882   3.038
 6942SOL     OW21724   6.241   6.134   2.036
 6942SOL    HW121725   6.298   6.137   2.118
 6942SOL    HW221726   6.280   6.069   1.971
 6943SOL     OW21727   4.213   4.384   6.786
 6943SOL    HW121728   4.203   4.362   6.883
 6943SOL    HW221729   4.159   4.465   6.765
 6944SOL     OW21730   1.300   4.354   5.298
 6944SOL    HW121731   1.341   4.263   5.309
 6944SOL    HW221732   1.234   4.352   5.224
 6945SOL     OW21733   5.146   2.018   1.014
 6945SOL    HW121734   5.076   2.090   1.022
 6945SOL    HW221735   5.162   1.977   1.103
 6946SOL     OW21736   4.787   5.243   3.250
 6946SOL    HW121737   4.880   5.265   3.281
 6946SOL    HW221738   4.770   5.288   3.162
 6947SOL     OW21739   5.773   4.530   5.474
 6947SOL    HW121740   5.700   4.474   5.511
 6947SOL    HW221741   5.759   4.625   5.500
 6948SOL     OW21742   0.287   4.457   6.832
 6948SOL    HW121743   0.377   4.464   6.874
 6948SOL    HW221744   0.217   4.474   6.901
 6949SOL     OW21745   2.233   1.956   4.157
 6949SOL    HW121746   2.259   2.005   4.240
 6949SOL    HW221747   2.172   1.881   4.180
 6950SOL     OW21748   0.340   0.553   4.535
 6950SOL    HW121749   0.256   0.596   4.568
 6950SOL    HW221750   0.411   0.562   4.605
 6951SOL     OW21751   0.681   4.135   6.893
 6951SOL    HW121752   0.611   4.128   6.964
 6951SOL    HW221753   0.751   4.200   6.923
 6952SOL     OW21754   4.860   5.600   3.957
 6952SOL    HW121755   4.782   5.633   4.011
 6952SOL    HW221756   4.920   5.677   3.935
 6953SOL     OW21757   6.456   2.022   1.133
 6953SOL    HW121758   6.482   1.927   1.153
 6953SOL    HW221759   6.497   2.050   1.046
 6954SOL     OW21760   6.375   4.844   0.085
 6954SOL    HW121761   6.293   4.895   0.061
 6954SOL    HW221762   6.378   4.758   0.032
 6955SOL     OW21763   4.508   6.346   3.133
 6955SOL    HW121764   4.608   6.354   3.141
 6955SOL    HW221765   4.484   6.305   3.045
 6956SOL     OW21766   5.936   5.315   2.168
 6956SOL    HW121767   5.898   5.403   2.198
 6956SOL    HW221768   6.012   5.332   2.105
 6957SOL     OW21769   6.181   5.490   5.930
 6957SOL    HW121770   6.097   5.543   5.935
 6957SOL    HW221771   6.226   5.505   5.842
 6958SOL     OW21772   3.049   3.950   3.453
 6958SOL    HW121773   3.140   3.985   3.475
 6958SOL    HW221774   3.024   3.880   3.520
 6959SOL     OW21775   1.370   4.436   2.707
 6959SOL    HW121776   1.351   4.390   2.793
 6959SOL    HW221777   1.455   4.401   2.669
 6960SOL     OW21778   3.505   4.040   0.958
 6960SOL    HW121779   3.546   3.950   0.944
 6960SOL    HW221780   3.566   4.097   1.013
 6961SOL     OW21781   4.472   2.445   4.925
 6961SOL    HW121782   4.466   2.474   4.829
 6961SOL    HW221783   4.380   2.444   4.965
 6962SOL     OW21784   2.295   6.796   6.517
 6962SOL    HW121785   2.267   6.720   6.459
 6962SOL    HW221786   2.360   6.854   6.466
 6963SOL     OW21787   6.372   5.980   0.668
 6963SOL    HW121788   6.362   5.899   0.610
 6963SOL    HW221789   6.383   5.952   0.763
 6964SOL     OW21790   1.551   1.299   5.218
 6964SOL    HW121791   1.511   1.312   5.309
 6964SOL    HW221792   1.621   1.228   5.222
 6965SOL     OW21793   0.738   1.660   6.949
 6965SOL    HW121794   0.724   1.753   6.984
 6965SOL    HW221795   0.757   1.599   0.012
 6966SOL     OW21796   1.790   6.650   1.071
 6966SOL    HW121797   1.837   6.738   1.067
 6966SOL    HW221798   1.849   6.579   1.032
 6967SOL     OW21799   4.411   1.347   6.317
 6967SOL    HW121800   4.502   1.361   6.356
 6967SOL    HW221801   4.342   1.380   6.381
 6968SOL     OW21802   3.865   6.536   3.211
 6968SOL    HW121803   3.897   6.461   3.153
 6968SOL    HW221804   3.785   6.578   3.169
 6969SOL     OW21805   2.141   1.419   2.251
 6969SOL    HW121806   2.172   1.386   2.341
 6969SOL    HW221807   2.194   1.374   2.179
 6970SOL     OW21808   3.950   5.593   5.228
 6970SOL    HW121809   3.884   5.554   5.164
 6970SOL    HW221810   3.953   5.692   5.216
 6971SOL     OW21811   6.537   3.921   0.422
 6971SOL    HW121812   6.550   3.856   0.497
 6971SOL    HW221813   6.463   3.985   0.446
 6972SOL     OW21814   5.284   4.108   1.333
 6972SOL    HW121815   5.278   4.063   1.422
 6972SOL    HW221816   5.264   4.205   1.343
 6973SOL     OW21817   1.948   2.346   2.927
 6973SOL    HW121818   2.009   2.325   3.003
 6973SOL    HW221819   1.950   2.270   2.861
 6974SOL     OW21820   3.807   3.357   3.081
 6974SOL    HW121821   3.714   3.383   3.056
 6974SOL    HW221822   3.825   3.264   3.051
 6975SOL     OW21823   3.030   5.189   4.593
 6975SOL    HW121824   3.025   5.288   4.601
 6975SOL    HW221825   2.938   5.150   4.607
 6976SOL     OW21826   4.757   4.290   6.417
 6976SOL    HW121827   4.844   4.329   6.386
 6976SOL    HW221828   4.774   4.222   6.487
 6977SOL     OW21829   4.344   5.399   1.976
 6977SOL    HW121830   4.332   5.498   1.983
 6977SOL    HW221831   4.374   5.375   1.884
 6978SOL     OW21832   0.001   3.785   1.683
 6978SOL    HW121833   0.021   3.759   1.778
 6978SOL    HW221834   6.958   3.714   1.641
 6979SOL     OW21835   1.835   2.679   2.041
 6979SOL    HW121836   1.784   2.666   2.126
 6979SOL    HW221837   1.927   2.641   2.051
 6980SOL     OW21838   1.752   5.732   1.909
 6980SOL    HW121839   1.837   5.772   1.872
 6980SOL    HW221840   1.757   5.633   1.902
 6981SOL     OW21841   4.201   2.790   6.661
 6981SOL    HW121842   4.299   2.806   6.668
 6981SOL    HW221843   4.169   2.822   6.571
 6982SOL     OW21844   1.682   0.670   2.552
 6982SOL    HW121845   1.590   0.655   2.516
 6982SOL    HW221846   1.732   0.731   2.491
 6983SOL     OW21847   5.666   0.792   4.284
 6983SOL    HW121848   5.618   0.707   4.262
 6983SOL    HW221849   5.693   0.790   4.380
 6984SOL     OW21850   1.065   2.681   3.209
 6984SOL    HW121851   0.974   2.696   3.248
 6984SOL    HW221852   1.116   2.767   3.211
 6985SOL     OW21853   5.672   3.524   6.920
 6985SOL    HW121854   5.580   3.485   6.927
 6985SOL    HW221855   5.666   3.622   6.899
 6986SOL     OW21856   4.759   4.621   5.329
 6986SOL    HW121857   4.689   4.679   5.371
 6986SOL    HW221858   4.767   4.536   5.381
 6987SOL     OW21859   0.287   0.950   6.724
 6987SOL    HW121860   0.229   0.903   6.791
 6987SOL    HW221861   0.331   1.029   6.767
 6988SOL     OW21862   2.932   1.864   6.699
 6988SOL    HW121863   3.012   1.907   6.658
 6988SOL    HW221864   2.936   1.765   6.684
 6989SOL     OW21865   0.767   4.949   2.746
 6989SOL    HW121866   0.706   4.986   2.676
 6989SOL    HW221867   0.733   4.860   2.776
 6990SOL     OW21868   3.919   3.284   0.679
 6990SOL    HW121869   3.998   3.342   0.700
 6990SOL    HW221870   3.946   3.215   0.613
 6991SOL     OW21871   6.577   3.078   2.646
 6991SOL    HW121872   6.538   3.162   2.683
 6991SOL    HW221873   6.529   3.054   2.561
 6992SOL     OW21874   1.289   6.027   6.952
 6992SOL    HW121875   1.275   5.937   6.994
 6992SOL    HW221876   1.387   6.046   6.946
 6993SOL     OW21877   4.630   1.578   1.402
 6993SOL    HW121878   4.602   1.668   1.368
 6993SOL    HW221879   4.726   1.582   1.432
 6994SOL     OW21880   2.721   0.629   3.736
 6994SOL    HW121881   2.807   0.647   3.688
 6994SOL    HW221882   2.654   0.592   3.672
 6995SOL     OW21883   0.177   4.120   1.060
 6995SOL    HW121884   0.226   4.051   1.113
 6995SOL    HW221885   0.238   4.162   0.993
 6996SOL     OW21886   1.343   1.434   6.711
 6996SOL    HW121887   1.306   1.411   6.621
 6996SOL    HW221888   1.423   1.377   6.731
 6997SOL     OW21889   5.801   5.355   6.012
 6997SOL    HW121890   5.861   5.346   5.933
 6997SOL    HW221891   5.728   5.287   6.007
 6998SOL     OW21892   6.813   1.377   0.220
 6998SOL    HW121893   6.817   1.296   0.161
 6998SOL    HW221894   6.881   1.443   0.191
 6999SOL     OW21895   0.378   3.135   6.946
 6999SOL    HW121896   0.285   3.170   6.953
 6999SOL    HW221897   0.403   3.087   0.016
 7000SOL     OW21898   6.815   5.639   3.390
 7000SOL    HW121899   6.751   5.711   3.417
 7000SOL    HW221900   6.905   5.657   3.430
 7001SOL     OW21901   0.028   2.216   4.121
 7001SOL    HW121902   6.943   2.223   4.134
 7001SOL    HW221903   0.067   2.308   4.111
 7002SOL     OW21904   0.813   5.746   2.540
 7002SOL    HW121905   0.863   5.678   2.485
 7002SOL    HW221906   0.815   5.719   2.636
 7003SOL     OW21907   6.648   3.777   0.658
 7003SOL    HW121908   6.742   3.809   0.672
 7003SOL    HW221909   6.639   3.684   0.696
 7004SOL     OW21910   1.729   6.399   0.838
 7004SOL    HW121911   1.683   6.484   0.812
 7004SOL    HW221912   1.828   6.410   0.827
 7005SOL     OW21913   1.133   6.022   0.982
 7005SOL    HW121914   1.074   5.942   0.992
 7005SOL    HW221915   1.140   6.047   0.886
 7006SOL     OW21916   0.929   0.066   3.927
 7006SOL    HW121917   0.850   0.090   3.982
 7006SOL    HW221918   0.990   0.007   3.980
 7007SOL     OW21919   2.524   0.528   6.002
 7007SOL    HW121920   2.599   0.500   6.063
 7007SOL    HW221921   2.450   0.567   6.056
 7008SOL     OW21922   5.350   3.668   2.824
 7008SOL    HW121923   5.277   3.710   2.770
 7008SOL    HW221924   5.320   3.579   2.858
 7009SOL     OW21925   4.460   5.739   2.429
 7009SOL    HW121926   4.513   5.817   2.396
 7009SOL    HW221927   4.483   5.657   2.377
 7010SOL     OW21928   5.091   3.889   1.757
 7010SOL    HW121929   5.086   3.790   1.739
 7010SOL    HW221930   5.168   3.907   1.818
 7011SOL     OW21931   3.362   6.623   6.891
 7011SOL    HW121932   3.331   6.715   6.915
 7011SOL    HW221933   3.424   6.628   6.813
 7012SOL     OW21934   6.749   2.712   0.271
 7012SOL    HW121935   6.701   2.799   0.265
 7012SOL    HW221936   6.769   2.691   0.367
 7013SOL     OW21937   3.106   2.289   0.307
 7013SOL    HW121938   3.028   2.316   0.363
 7013SOL    HW221939   3.076   2.268   0.215
 7014SOL     OW21940   5.755   3.348   0.624
 7014SOL    HW121941   5.853   3.367   0.616
 7014SOL    HW221942   5.742   3.266   0.681
 7015SOL     OW21943   5.409   6.427   1.475
 7015SOL    HW121944   5.413   6.391   1.382
 7015SOL    HW221945   5.353   6.366   1.532
 7016SOL     OW21946   3.219   5.040   0.876
 7016SOL    HW121947   3.260   5.090   0.952
 7016SOL    HW221948   3.230   4.941   0.891
 7017SOL     OW21949   6.097   4.931   5.340
 7017SOL    HW121950   6.016   4.979   5.373
 7017SOL    HW221951   6.070   4.859   5.277
 7018SOL     OW21952   5.212   3.713   4.508
 7018SOL    HW121953   5.303   3.721   4.468
 7018SOL    HW221954   5.153   3.661   4.446
 7019SOL     OW21955   4.198   5.856   2.508
 7019SOL    HW121956   4.262   5.780   2.513
 7019SOL    HW221957   4.249   5.942   2.503
 7020SOL     OW21958   0.644   2.601   6.273
 7020SOL    HW121959   0.651   2.649   6.360
 7020SOL    HW221960   0.548   2.594   6.246
 7021SOL     OW21961   0.792   2.074   4.614
 7021SOL    HW121962   0.816   2.131   4.693
 7021SOL    HW221963   0.834   1.984   4.623
 7022SOL     OW21964   3.358   2.303   0.820
 7022SOL    HW121965   3.287   2.244   0.860
 7022SOL    HW221966   3.441   2.297   0.876
 7023SOL     OW21967   0.454   1.853   0.284
 7023SOL    HW121968   0.406   1.849   0.372
 7023SOL    HW221969   0.455   1.948   0.252
 7024SOL     OW21970   4.191   3.659   4.959
 7024SOL    HW121971   4.288   3.684   4.951
 7024SOL    HW221972   4.171   3.585   4.895
 7025SOL     OW21973   3.137   0.411   0.875
 7025SOL    HW121974   3.079   0.417   0.957
 7025SOL    HW221975   3.109   0.481   0.809
 7026SOL     OW21976   3.419   2.950   1.032
 7026SOL    HW121977   3.412   2.858   1.070
 7026SOL    HW221978   3.481   3.005   1.089
 7027SOL     OW21979   2.452   5.072   2.706
 7027SOL    HW121980   2.551   5.084   2.699
 7027SOL    HW221981   2.409   5.161   2.724
 7028SOL     OW21982   3.174   0.040   3.847
 7028SOL    HW121983   3.140   0.081   3.932
 7028SOL    HW221984   3.121   0.074   3.770
 7029SOL     OW21985   3.339   3.834   3.965
 7029SOL    HW121986   3.416   3.786   4.007
 7029SOL    HW221987   3.369   3.925   3.935
 7030SOL     OW21988   6.582   0.992   4.730
 7030SOL    HW121989   6.560   1.025   4.638
 7030SOL    HW221990   6.657   1.047   4.767
 7031SOL     OW21991   4.388   6.589   0.788
 7031SOL    HW121992   4.315   6.622   0.728
 7031SOL    HW221993   4.413   6.496   0.762
 7032SOL     OW21994   4.532   5.690   4.516
 7032SOL    HW121995   4.572   5.684   4.607
 7032SOL    HW221996   4.476   5.609   4.498
 7033SOL     OW21997   1.566   1.629   4.807
 7033SOL    HW121998   1.630   1.639   4.731
 7033SOL    HW221999   1.617   1.621   4.892
 7034SOL     OW22000   6.633   0.427   3.591
 7034SOL    HW122001   6.725   0.442   3.555
 7034SOL    HW222002   6.590   0.350   3.544
 7035SOL     OW22003   1.754   0.192   0.446
 7035SOL    HW122004   1.787   0.283   0.471
 7035SOL    HW222005   1.828   0.139   0.405
 7036SOL     OW22006   6.376   1.498   2.825
 7036SOL    HW122007   6.357   1.541   2.913
 7036SOL    HW222008   6.469   1.522   2.796
 7037SOL     OW22009   1.374   0.409   5.569
 7037SOL    HW122010   1.434   0.367   5.636
 7037SOL    HW222011   1.289   0.357   5.562
 7038SOL     OW22012   1.029   4.185   0.238
 7038SOL    HW122013   1.049   4.188   0.336
 7038SOL    HW222014   1.095   4.241   0.188
 7039SOL     OW22015   0.311   6.428   2.203
 7039SOL    HW122016   0.272   6.500   2.146
 7039SOL    HW222017   0.244   6.398   2.271
 7040SOL     OW22018   5.227   3.501   5.080
 7040SOL    HW122019   5.156   3.564   5.047
 7040SOL    HW222020   5.184   3.423   5.126
 7041SOL     OW22021   1.792   6.689   4.115
 7041SOL    HW122022   1.858   6.637   4.061
 7041SOL    HW222023   1.821   6.690   4.211
 7042SOL     OW22024   5.239   6.155   5.530
 7042SOL    HW122025   5.262   6.172   5.434
 7042SOL    HW222026   5.258   6.060   5.553
 7043SOL     OW22027   2.265   5.035   1.365
 7043SOL    HW122028   2.282   4.970   1.439
 7043SOL    HW222029   2.298   4.997   1.279
 7044SOL     OW22030   5.495   6.994   5.024
 7044SOL    HW122031   5.536   0.071   5.021
 7044SOL    HW222032   5.441   6.984   5.108
 7045SOL     OW22033   6.363   6.158   2.284
 7045SOL    HW122034   6.452   6.124   2.314
 7045SOL    HW222035   6.290   6.109   2.332
 7046SOL     OW22036   2.311   1.396   4.483
 7046SOL    HW122037   2.215   1.394   4.508
 7046SOL    HW222038   2.322   1.438   4.394
 7047SOL     OW22039   1.335   6.605   0.614
 7047SOL    HW122040   1.349   6.544   0.536
 7047SOL    HW222041   1.260   6.668   0.595
 7048SOL     OW22042   0.037   6.188   4.553
 7048SOL    HW122043   6.978   6.120   4.563
 7048SOL    HW222044   0.013   6.253   4.481
 7049SOL     OW22045   3.620   1.242   3.470
 7049SOL    HW122046   3.619   1.142   3.472
 7049SOL    HW222047   3.610   1.278   3.563
 7050SOL     OW22048   4.124   3.932   1.364
 7050SOL    HW122049   4.186   3.961   1.438
 7050SOL    HW222050   4.130   3.833   1.353
 7051SOL     OW22051   0.871   1.063   1.881
 7051SOL    HW122052   0.898   0.973   1.847
 7051SOL    HW222053   0.823   1.053   1.968
 7052SOL     OW22054   4.714   0.723   3.092
 7052SOL    HW122055   4.780   0.792   3.061
 7052SOL    HW222056   4.649   0.704   3.018
 7053SOL     OW22057   1.983   3.448   3.397
 7053SOL    HW122058   2.041   3.383   3.446
 7053SOL    HW222059   1.907   3.476   3.456
 7054SOL     OW22060   6.151   0.928   0.260
 7054SOL    HW122061   6.145   0.925   0.360
 7054SOL    HW222062   6.139   1.022   0.229
 7055SOL     OW22063   2.626   1.211   0.226
 7055SOL    HW122064   2.542   1.264   0.227
 7055SOL    HW222065   2.604   1.114   0.216
 7056SOL     OW22066   0.041   5.369   1.096
 7056SOL    HW122067   0.072   5.457   1.131
 7056SOL    HW222068   0.044   5.368   0.997
 7057SOL     OW22069   2.493   5.444   4.467
 7057SOL    HW122070   2.520   5.497   4.386
 7057SOL    HW222071   2.397   5.418   4.459
 7058SOL     OW22072   5.622   2.776   5.932
 7058SOL    HW122073   5.674   2.778   6.017
 7058SOL    HW222074   5.681   2.803   5.856
 7059SOL     OW22075   2.099   0.279   5.217
 7059SOL    HW122076   2.134   0.230   5.296
 7059SOL    HW222077   2.174   0.328   5.173
 7060SOL     OW22078   3.205   1.374   1.312
 7060SOL    HW122079   3.159   1.294   1.273
 7060SOL    HW222080   3.303   1.354   1.323
 7061SOL     OW22081   0.848   1.551   1.722
 7061SOL    HW122082   0.768   1.537   1.664
 7061SOL    HW222083   0.849   1.483   1.795
 7062SOL     OW22084   3.248   0.480   4.024
 7062SOL    HW122085   3.324   0.493   3.960
 7062SOL    HW222086   3.242   0.384   4.050
 7063SOL     OW22087   0.395   0.841   1.297
 7063SOL    HW122088   0.436   0.826   1.207
 7063SOL    HW222089   0.305   0.884   1.286
 7064SOL     OW22090   3.969   1.581   5.433
 7064SOL    HW122091   3.955   1.642   5.355
 7064SOL    HW222092   3.904   1.505   5.429
 7065SOL     OW22093   4.171   5.581   5.478
 7065SOL    HW122094   4.262   5.622   5.480
 7065SOL    HW222095   4.138   5.579   5.383
 7066SOL     OW22096   3.667   0.324   0.367
 7066SOL    HW122097   3.692   0.420   0.354
 7066SOL    HW222098   3.682   0.274   0.281
 7067SOL     OW22099   1.703   3.185   6.409
 7067SOL    HW122100   1.723   3.202   6.505
 7067SOL    HW222101   1.626   3.122   6.401
 7068SOL     OW22102   5.166   3.822   4.175
 7068SOL    HW122103   5.070   3.822   4.145
 7068SOL    HW222104   5.214   3.899   4.133
 7069SOL     OW22105   5.618   0.862   6.452
 7069SOL    HW122106   5.547   0.820   6.395
 7069SOL    HW222107   5.576   0.912   6.528
 7070SOL     OW22108   0.092   0.615   5.436
 7070SOL    HW122109   0.064   0.708   5.415
 7070SOL    HW222110   0.059   0.553   5.365
 7071SOL     OW22111   4.732   5.342   6.742
 7071SOL    HW122112   4.638   5.359   6.712
 7071SOL    HW222113   4.736   5.258   6.795
 7072SOL     OW22114   0.860   3.632   5.955
 7072SOL    HW122115   0.879   3.688   6.036
 7072SOL    HW222116   0.796   3.559   5.979
 7073SOL     OW22117   4.550   1.558   4.078
 7073SOL    HW122118   4.628   1.565   4.140
 7073SOL    HW222119   4.553   1.469   4.031
 7074SOL     OW22120   5.282   4.432   3.475
 7074SOL    HW122121   5.286   4.531   3.467
 7074SOL    HW222122   5.314   4.404   3.566
 7075SOL     OW22123   2.794   5.009   2.957
 7075SOL    HW122124   2.817   4.912   2.965
 7075SOL    HW222125   2.695   5.020   2.967
 7076SOL     OW22126   5.624   2.484   1.772
 7076SOL    HW122127   5.593   2.440   1.857
 7076SOL    HW222128   5.548   2.537   1.733
 7077SOL     OW22129   3.770   5.194   1.968
 7077SOL    HW122130   3.707   5.262   2.005
 7077SOL    HW222131   3.748   5.104   2.005
 7078SOL     OW22132   6.322   0.570   6.989
 7078SOL    HW122133   6.299   0.603   0.067
 7078SOL    HW222134   6.267   0.618   6.921
 7079SOL     OW22135   1.574   6.243   4.626
 7079SOL    HW122136   1.602   6.328   4.671
 7079SOL    HW222137   1.583   6.166   4.689
 7080SOL     OW22138   4.122   2.011   5.673
 7080SOL    HW122139   4.099   2.108   5.680
 7080SOL    HW222140   4.056   1.958   5.727
 7081SOL     OW22141   2.009   0.177   0.285
 7081SOL    HW122142   2.094   0.129   0.260
 7081SOL    HW222143   1.948   0.179   0.206
 7082SOL     OW22144   0.201   4.213   3.160
 7082SOL    HW122145   0.234   4.139   3.102
 7082SOL    HW222146   0.260   4.222   3.240
 7083SOL     OW22147   5.488   2.285   2.699
 7083SOL    HW122148   5.404   2.251   2.741
 7083SOL    HW222149   5.529   2.354   2.758
 7084SOL     OW22150   1.323   5.509   6.892
 7084SOL    HW122151   1.292   5.598   6.926
 7084SOL    HW222152   1.308   5.439   6.962
 7085SOL     OW22153   0.547   3.727   2.047
 7085SOL    HW122154   0.643   3.749   2.065
 7085SOL    HW222155   0.542   3.646   1.989
 7086SOL     OW22156   5.352   1.202   3.919
 7086SOL    HW122157   5.346   1.298   3.947
 7086SOL    HW222158   5.385   1.197   3.824
 7087SOL     OW22159   4.947   3.382   2.866
 7087SOL    HW122160   4.892   3.332   2.800
 7087SOL    HW222161   4.925   3.479   2.862
 7088SOL     OW22162   5.866   2.215   5.280
 7088SOL    HW122163   5.917   2.161   5.348
 7088SOL    HW222164   5.908   2.305   5.270
 7089SOL     OW22165   2.696   5.373   1.454
 7089SOL    HW122166   2.718   5.452   1.512
 7089SOL    HW222167   2.743   5.292   1.488
 7090SOL     OW22168   4.299   2.904   1.354
 7090SOL    HW122169   4.339   2.879   1.266
 7090SOL    HW222170   4.346   2.855   1.427
 7091SOL     OW22171   0.521   6.409   0.599
 7091SOL    HW122172   0.590   6.405   0.671
 7091SOL    HW222173   0.558   6.455   0.518
 7092SOL     OW22174   4.506   0.511   6.162
 7092SOL    HW122175   4.550   0.421   6.161
 7092SOL    HW222176   4.552   0.571   6.096
 7093SOL     OW22177   3.268   3.304   0.888
 7093SOL    HW122178   3.259   3.285   0.790
 7093SOL    HW222179   3.355   3.268   0.921
 7094SOL     OW22180   3.413   0.329   6.421
 7094SOL    HW122181   3.382   0.354   6.513
 7094SOL    HW222182   3.367   0.387   6.354
 7095SOL     OW22183   2.537   4.837   4.482
 7095SOL    HW122184   2.547   4.923   4.432
 7095SOL    HW222185   2.501   4.855   4.574
 7096SOL     OW22186   6.654   0.631   1.110
 7096SOL    HW122187   6.600   0.680   1.178
 7096SOL    HW222188   6.606   0.548   1.083
 7097SOL     OW22189   4.884   1.812   2.022
 7097SOL    HW122190   4.875   1.730   2.079
 7097SOL    HW222191   4.941   1.792   1.942
 7098SOL     OW22192   0.838   0.227   3.737
 7098SOL    HW122193   0.857   0.136   3.775
 7098SOL    HW222194   0.815   0.218   3.640
 7099SOL     OW22195   2.985   1.952   4.314
 7099SOL    HW122196   3.034   2.036   4.291
 7099SOL    HW222197   3.037   1.901   4.383
 7100SOL     OW22198   6.802   3.963   1.738
 7100SOL    HW122199   6.871   3.902   1.775
 7100SOL    HW222200   6.773   3.929   1.648
 7101SOL     OW22201   2.468   6.014   5.025
 7101SOL    HW122202   2.437   6.060   5.108
 7101SOL    HW222203   2.467   6.079   4.949
 7102SOL     OW22204   5.832   1.093   2.298
 7102SOL    HW122205   5.850   1.073   2.201
 7102SOL    HW222206   5.914   1.131   2.340
 7103SOL     OW22207   4.903   3.682   3.234
 7103SOL    HW122208   4.980   3.696   3.296
 7103SOL    HW222209   4.916   3.596   3.184
 7104SOL     OW22210   4.994   2.941   4.022
 7104SOL    HW122211   4.958   2.908   4.109
 7104SOL    HW222212   5.081   2.989   4.038
 7105SOL     OW22213   3.474   3.812   3.528
 7105SOL    HW122214   3.542   3.839   3.459
 7105SOL    HW222215   3.521   3.787   3.613
 7106SOL     OW22216   3.156   2.021   1.671
 7106SOL    HW122217   3.096   2.095   1.703
 7106SOL    HW222218   3.208   1.985   1.748
 7107SOL     OW22219   3.957   0.367   6.307
 7107SOL    HW122220   4.018   0.315   6.247
 7107SOL    HW222221   3.982   0.463   6.305
 7108SOL     OW22222   4.658   0.703   2.118
 7108SOL    HW122223   4.691   0.794   2.092
 7108SOL    HW222224   4.587   0.711   2.188
 7109SOL     OW22225   2.365   5.350   0.024
 7109SOL    HW122226   2.307   5.315   0.098
 7109SOL    HW222227   2.458   5.364   0.058
 7110SOL     OW22228   3.567   0.137   4.601
 7110SOL    HW122229   3.627   0.159   4.524
 7110SOL    HW222230   3.490   0.082   4.569
 7111SOL     OW22231   0.008   0.763   5.060
 7111SOL    HW122232   7.011   0.678   5.112
 7111SOL    HW222233   0.070   0.747   4.984
 7112SOL     OW22234   0.860   5.063   4.885
 7112SOL    HW122235   0.896   5.014   4.805
 7112SOL    HW222236   0.836   4.996   4.956
 7113SOL     OW22237   3.501   6.328   5.121
 7113SOL    HW122238   3.561   6.260   5.079
 7113SOL    HW222239   3.556   6.402   5.159
 7114SOL     OW22240   5.759   4.166   0.952
 7114SOL    HW122241   5.838   4.111   0.927
 7114SOL    HW222242   5.736   4.151   1.048
 7115SOL     OW22243   6.228   3.731   6.283
 7115SOL    HW122244   6.285   3.801   6.242
 7115SOL    HW222245   6.267   3.702   6.370
 7116SOL     OW22246   6.499   3.872   4.462
 7116SOL    HW122247   6.447   3.925   4.396
 7116SOL    HW222248   6.437   3.824   4.524
 7117SOL     OW22249   5.495   6.967   3.484
 7117SOL    HW122250   5.510   6.979   3.582
 7117SOL    HW222251   5.480   0.043   3.442
 7118SOL     OW22252   3.832   4.389   6.042
 7118SOL    HW122253   3.778   4.443   6.108
 7118SOL    HW222254   3.771   4.352   5.972
 7119SOL     OW22255   3.516   6.789   5.051
 7119SOL    HW122256   3.488   6.885   5.052
 7119SOL    HW222257   3.603   6.779   5.099
 7120SOL     OW22258   4.474   0.684   0.586
 7120SOL    HW122259   4.432   0.598   0.615
 7120SOL    HW222260   4.538   0.715   0.656
 7121SOL     OW22261   1.117   6.120   1.820
 7121SOL    HW122262   1.117   6.086   1.914
 7121SOL    HW222263   1.041   6.078   1.769
 7122SOL     OW22264   3.618   2.129   0.214
 7122SOL    HW122265   3.639   2.137   0.311
 7122SOL    HW222266   3.673   2.056   0.173
 7123SOL     OW22267   5.581   5.195   5.924
 7123SOL    HW122268   5.562   5.194   5.825
 7123SOL    HW222269   5.522   5.129   5.970
 7124SOL     OW22270   1.362   1.984   0.998
 7124SOL    HW122271   1.283   2.021   0.950
 7124SOL    HW222272   1.332   1.921   1.070
 7125SOL     OW22273   0.563   6.355   2.128
 7125SOL    HW122274   0.610   6.274   2.163
 7125SOL    HW222275   0.476   6.366   2.175
 7126SOL     OW22276   3.508   5.351   0.610
 7126SOL    HW122277   3.422   5.300   0.617
 7126SOL    HW222278   3.492   5.447   0.633
 7127SOL     OW22279   2.297   6.396   6.163
 7127SOL    HW122280   2.379   6.441   6.129
 7127SOL    HW222281   2.310   6.297   6.163
 7128SOL     OW22282   3.660   4.086   6.933
 7128SOL    HW122283   3.757   4.094   6.908
 7128SOL    HW222284   3.607   4.154   6.882
 7129SOL     OW22285   0.648   0.105   0.398
 7129SOL    HW122286   0.582   0.160   0.346
 7129SOL    HW222287   0.607   0.017   0.420
 7130SOL     OW22288   3.368   6.735   4.090
 7130SOL    HW122289   3.357   6.661   4.156
 7130SOL    HW222290   3.279   6.777   4.073
 7131SOL     OW22291   2.024   1.332   1.878
 7131SOL    HW122292   1.930   1.366   1.887
 7131SOL    HW222293   2.028   1.268   1.802
 7132SOL     OW22294   5.261   4.408   0.701
 7132SOL    HW122295   5.195   4.338   0.675
 7132SOL    HW222296   5.314   4.376   0.780
 7133SOL     OW22297   4.870   5.843   2.836
 7133SOL    HW122298   4.870   5.756   2.786
 7133SOL    HW222299   4.779   5.861   2.871
 7134SOL     OW22300   4.835   5.518   0.178
 7134SOL    HW122301   4.932   5.497   0.190
 7134SOL    HW222302   4.784   5.490   0.259
 7135SOL     OW22303   1.328   3.266   1.142
 7135SOL    HW122304   1.311   3.364   1.154
 7135SOL    HW222305   1.369   3.229   1.226
 7136SOL     OW22306   1.293   2.257   1.969
 7136SOL    HW122307   1.315   2.200   1.890
 7136SOL    HW222308   1.365   2.325   1.982
 7137SOL     OW22309   2.513   1.483   1.277
 7137SOL    HW122310   2.601   1.470   1.322
 7137SOL    HW222311   2.469   1.394   1.263
 7138SOL     OW22312   0.781   2.502   0.542
 7138SOL    HW122313   0.710   2.514   0.473
 7138SOL    HW222314   0.871   2.511   0.500
 7139SOL     OW22315   5.949   6.192   0.895
 7139SOL    HW122316   5.929   6.229   0.804
 7139SOL    HW222317   5.985   6.099   0.885
 7140SOL     OW22318   6.214   4.188   0.295
 7140SOL    HW122319   6.244   4.284   0.292
 7140SOL    HW222320   6.114   4.185   0.295
 7141SOL     OW22321   2.984   0.550   1.054
 7141SOL    HW122322   2.988   0.646   1.079
 7141SOL    HW222323   2.902   0.533   0.998
 7142SOL     OW22324   3.962   0.291   5.211
 7142SOL    HW122325   4.037   0.227   5.228
 7142SOL    HW222326   3.959   0.314   5.114
 7143SOL     OW22327   2.695   3.623   6.822
 7143SOL    HW122328   2.628   3.661   6.758
 7143SOL    HW222329   2.697   3.677   6.905
 7144SOL     OW22330   6.590   1.317   6.206
 7144SOL    HW122331   6.561   1.327   6.301
 7144SOL    HW222332   6.542   1.385   6.150
 7145SOL     OW22333   5.408   1.883   6.210
 7145SOL    HW122334   5.496   1.878   6.163
 7145SOL    HW222335   5.413   1.835   6.297
 7146SOL     OW22336   1.171   1.932   5.811
 7146SOL    HW122337   1.253   1.989   5.823
 7146SOL    HW222338   1.093   1.991   5.788
 7147SOL     OW22339   6.450   6.277   1.795
 7147SOL    HW122340   6.357   6.312   1.809
 7147SOL    HW222341   6.503   6.289   1.879
 7148SOL     OW22342   6.100   6.900   1.318
 7148SOL    HW122343   6.050   6.923   1.234
 7148SOL    HW222344   6.060   6.819   1.360
 7149SOL     OW22345   5.713   4.583   5.780
 7149SOL    HW122346   5.729   4.487   5.807
 7149SOL    HW222347   5.799   4.634   5.787
 7150SOL     OW22348   3.293   3.040   6.834
 7150SOL    HW122349   3.257   3.133   6.837
 7150SOL    HW222350   3.230   2.979   6.882
 7151SOL     OW22351   4.638   1.292   0.133
 7151SOL    HW122352   4.642   1.390   0.153
 7151SOL    HW222353   4.658   1.241   0.217
 7152SOL     OW22354   5.917   1.012   6.632
 7152SOL    HW122355   5.836   0.976   6.678
 7152SOL    HW222356   5.895   1.101   6.591
 7153SOL     OW22357   3.635   5.484   6.921
 7153SOL    HW122358   3.591   5.398   6.944
 7153SOL    HW222359   3.598   5.520   6.835
 7154SOL     OW22360   4.000   1.788   1.905
 7154SOL    HW122361   3.998   1.694   1.871
 7154SOL    HW222362   3.921   1.804   1.964
 7155SOL     OW22363   1.267   1.173   2.022
 7155SOL    HW122364   1.334   1.242   2.050
 7155SOL    HW222365   1.175   1.202   2.049
 7156SOL     OW22366   6.301   2.874   5.200
 7156SOL    HW122367   6.373   2.818   5.159
 7156SOL    HW222368   6.322   2.889   5.297
 7157SOL     OW22369   0.254   4.164   6.005
 7157SOL    HW122370   0.312   4.201   5.932
 7157SOL    HW222371   0.269   4.066   6.013
 7158SOL     OW22372   4.587   6.846   3.908
 7158SOL    HW122373   4.662   6.780   3.908
 7158SOL    HW222374   4.590   6.900   3.992
 7159SOL     OW22375   0.073   6.400   3.696
 7159SOL    HW122376   0.024   6.388   3.782
 7159SOL    HW222377   0.148   6.334   3.692
 7160SOL     OW22378   6.251   0.180   3.709
 7160SOL    HW122379   6.283   0.229   3.790
 7160SOL    HW222380   6.151   0.175   3.709
 7161SOL     OW22381   3.719   3.724   2.852
 7161SOL    HW122382   3.679   3.646   2.900
 7161SOL    HW222383   3.661   3.750   2.775
 7162SOL     OW22384   0.326   5.883   1.484
 7162SOL    HW122385   0.360   5.945   1.555
 7162SOL    HW222386   0.397   5.868   1.416
 7163SOL     OW22387   6.773   1.125   0.745
 7163SOL    HW122388   6.685   1.160   0.713
 7163SOL    HW222389   6.840   1.200   0.746
 7164SOL     OW22390   1.758   0.913   6.710
 7164SOL    HW122391   1.664   0.896   6.739
 7164SOL    HW222392   1.761   0.924   6.611
 7165SOL     OW22393   6.208   2.730   0.644
 7165SOL    HW122394   6.268   2.699   0.570
 7165SOL    HW222395   6.113   2.730   0.613
 7166SOL     OW22396   0.319   6.183   5.975
 7166SOL    HW122397   0.306   6.117   6.048
 7166SOL    HW222398   0.292   6.274   6.006
 7167SOL     OW22399   6.583   2.521   4.871
 7167SOL    HW122400   6.505   2.462   4.849
 7167SOL    HW222401   6.609   2.574   4.790
 7168SOL     OW22402   2.023   0.946   1.945
 7168SOL    HW122403   2.115   0.985   1.949
 7168SOL    HW222404   2.000   0.925   1.850
 7169SOL     OW22405   1.962   4.239   5.807
 7169SOL    HW122406   2.015   4.155   5.820
 7169SOL    HW222407   1.997   4.290   5.728
 7170SOL     OW22408   3.656   1.648   1.144
 7170SOL    HW122409   3.564   1.687   1.138
 7170SOL    HW222410   3.682   1.638   1.240
 7171SOL     OW22411   0.099   3.885   0.791
 7171SOL    HW122412   0.058   3.952   0.730
 7171SOL    HW222413   0.198   3.885   0.778
 7172SOL     OW22414   0.941   2.128   3.987
 7172SOL    HW122415   0.929   2.110   4.085
 7172SOL    HW222416   1.038   2.141   3.967
 7173SOL     OW22417   4.933   5.256   6.080
 7173SOL    HW122418   4.893   5.305   6.003
 7173SOL    HW222419   5.009   5.311   6.118
 7174SOL     OW22420   6.587   4.372   2.017
 7174SOL    HW122421   6.520   4.353   2.088
 7174SOL    HW222422   6.541   4.408   1.936
 7175SOL     OW22423   6.622   3.904   5.666
 7175SOL    HW122424   6.587   3.812   5.650
 7175SOL    HW222425   6.722   3.904   5.660
 7176SOL     OW22426   0.020   0.293   6.093
 7176SOL    HW122427   6.977   0.211   6.093
 7176SOL    HW222428   0.053   0.311   6.001
 7177SOL     OW22429   1.247   5.718   3.572
 7177SOL    HW122430   1.346   5.717   3.560
 7177SOL    HW222431   1.204   5.669   3.497
 7178SOL     OW22432   2.079   6.240   5.007
 7178SOL    HW122433   2.112   6.155   4.966
 7178SOL    HW222434   2.041   6.298   4.935
 7179SOL     OW22435   3.735   5.060   6.186
 7179SOL    HW122436   3.724   5.011   6.100
 7179SOL    HW222437   3.824   5.104   6.188
 7180SOL     OW22438   1.894   3.126   1.873
 7180SOL    HW122439   1.840   3.209   1.861
 7180SOL    HW222440   1.989   3.151   1.894
 7181SOL     OW22441   2.255   1.669   6.631
 7181SOL    HW122442   2.321   1.600   6.602
 7181SOL    HW222443   2.298   1.729   6.699
 7182SOL     OW22444   1.873   1.239   4.106
 7182SOL    HW122445   1.863   1.211   4.010
 7182SOL    HW222446   1.848   1.163   4.165
 7183SOL     OW22447   1.366   6.596   1.985
 7183SOL    HW122448   1.459   6.561   1.996
 7183SOL    HW222449   1.359   6.644   1.897
 7184SOL     OW22450   6.601   0.970   3.612
 7184SOL    HW122451   6.511   0.997   3.579
 7184SOL    HW222452   6.669   0.987   3.541
 7185SOL     OW22453   4.216   0.545   4.679
 7185SOL    HW122454   4.132   0.549   4.733
 7185SOL    HW222455   4.239   0.637   4.646
 7186SOL     OW22456   6.189   0.693   6.779
 7186SOL    HW122457   6.105   0.644   6.757
 7186SOL    HW222458   6.175   0.791   6.763
 7187SOL     OW22459   3.266   3.342   4.357
 7187SOL    HW122460   3.189   3.402   4.378
 7187SOL    HW222461   3.288   3.350   4.259
 7188SOL     OW22462   4.589   4.294   6.935
 7188SOL    HW122463   4.541   4.238   6.868
 7188SOL    HW222464   4.602   4.386   6.899
 7189SOL     OW22465   6.306   2.650   5.521
 7189SOL    HW122466   6.309   2.550   5.526
 7189SOL    HW222467   6.259   2.686   5.601
 7190SOL     OW22468   6.376   5.059   0.329
 7190SOL    HW122469   6.396   4.990   0.259
 7190SOL    HW222470   6.462   5.094   0.366
 7191SOL     OW22471   6.537   5.038   2.991
 7191SOL    HW122472   6.551   5.104   3.064
 7191SOL    HW222473   6.581   5.071   2.907
 7192SOL     OW22474   2.577   4.306   5.981
 7192SOL    HW122475   2.513   4.382   5.969
 7192SOL    HW222476   2.570   4.244   5.903
 7193SOL     OW22477   3.478   2.131   3.110
 7193SOL    HW122478   3.504   2.193   3.185
 7193SOL    HW222479   3.556   2.071   3.088
 7194SOL     OW22480   2.718   2.934   6.112
 7194SOL    HW122481   2.770   2.864   6.063
 7194SOL    HW222482   2.685   2.897   6.199
 7195SOL     OW22483   0.790   4.861   5.053
 7195SOL    HW122484   0.878   4.816   5.068
 7195SOL    HW222485   0.740   4.867   5.139
 7196SOL     OW22486   3.503   4.209   1.973
 7196SOL    HW122487   3.466   4.295   2.008
 7196SOL    HW222488   3.509   4.142   2.048
 7197SOL     OW22489   3.123   4.556   6.428
 7197SOL    HW122490   3.046   4.582   6.370
 7197SOL    HW222491   3.110   4.595   6.519
 7198SOL     OW22492   0.905   0.769   1.828
 7198SOL    HW122493   0.832   0.701   1.823
 7198SOL    HW222494   0.947   0.766   1.919
 7199SOL     OW22495   6.160   1.548   2.668
 7199SOL    HW122496   6.230   1.535   2.739
 7199SOL    HW222497   6.186   1.623   2.608
 7200SOL     OW22498   1.236   2.180   0.568
 7200SOL    HW122499   1.192   2.225   0.646
 7200SOL    HW222500   1.334   2.196   0.571
 7201SOL     OW22501   5.923   5.078   4.175
 7201SOL    HW122502   5.945   4.985   4.145
 7201SOL    HW222503   5.910   5.079   4.274
 7202SOL     OW22504   4.882   6.842   6.078
 7202SOL    HW122505   4.935   6.915   6.122
 7202SOL    HW222506   4.879   6.762   6.137
 7203SOL     OW22507   0.291   1.539   1.213
 7203SOL    HW122508   0.333   1.519   1.124
 7203SOL    HW222509   0.285   1.455   1.267
 7204SOL     OW22510   6.529   0.436   2.209
 7204SOL    HW122511   6.628   0.422   2.215
 7204SOL    HW222512   6.484   0.389   2.285
 7205SOL     OW22513   2.875   1.890   3.697
 7205SOL    HW122514   2.855   1.940   3.781
 7205SOL    HW222515   2.806   1.912   3.628
 7206SOL     OW22516   1.839   3.118   7.006
 7206SOL    HW122517   1.834   3.111   6.907
 7206SOL    HW222518   1.924   3.074   0.024
 7207SOL     OW22519   1.793   0.690   3.571
 7207SOL    HW122520   1.694   0.709   3.567
 7207SOL    HW222521   1.843   0.767   3.531
 7208SOL     OW22522   2.939   0.674   4.078
 7208SOL    HW122523   2.857   0.714   4.037
 7208SOL    HW222524   3.018   0.697   4.022
 7209SOL     OW22525   3.831   1.387   1.953
 7209SOL    HW122526   3.791   1.383   1.861
 7209SOL    HW222527   3.921   1.430   1.948
 7210SOL     OW22528   2.861   1.284   3.137
 7210SOL    HW122529   2.916   1.277   3.220
 7210SOL    HW222530   2.768   1.311   3.162
 7211SOL     OW22531   4.573   6.263   5.376
 7211SOL    HW122532   4.582   6.191   5.307
 7211SOL    HW222533   4.664   6.296   5.402
 7212SOL     OW22534   0.133   4.632   6.106
 7212SOL    HW122535   0.202   4.641   6.178
 7212SOL    HW222536   0.098   4.723   6.083
 7213SOL     OW22537   3.975   2.072   6.862
 7213SOL    HW122538   3.955   2.060   6.959
 7213SOL    HW222539   4.027   2.156   6.849
 7214SOL     OW22540   6.158   0.754   6.116
 7214SOL    HW122541   6.091   0.679   6.116
 7214SOL    HW222542   6.250   0.716   6.110
 7215SOL     OW22543   5.945   2.124   2.936
 7215SOL    HW122544   5.874   2.191   2.959
 7215SOL    HW222545   5.910   2.032   2.952
 7216SOL     OW22546   3.851   6.557   3.508
 7216SOL    HW122547   3.936   6.551   3.561
 7216SOL    HW222548   3.872   6.547   3.410
 7217SOL     OW22549   1.172   3.198   2.805
 7217SOL    HW122550   1.188   3.243   2.717
 7217SOL    HW222551   1.259   3.184   2.851
 7218SOL     OW22552   6.589   3.144   4.557
 7218SOL    HW122553   6.604   3.227   4.503
 7218SOL    HW222554   6.493   3.117   4.550
 7219SOL     OW22555   3.288   6.461   2.533
 7219SOL    HW122556   3.235   6.381   2.504
 7219SOL    HW222557   3.313   6.515   2.453
 7220SOL     OW22558   6.313   4.487   3.998
 7220SOL    HW122559   6.375   4.445   3.932
 7220SOL    HW222560   6.243   4.539   3.949
 7221SOL     OW22561   3.767   5.553   4.041
 7221SOL    HW122562   3.726   5.513   3.959
 7221SOL    HW222563   3.793   5.648   4.023
 7222SOL     OW22564   6.412   5.681   4.816
 7222SOL    HW122565   6.491   5.628   4.786
 7222SOL    HW222566   6.406   5.764   4.761
 7223SOL     OW22567   0.134   4.240   2.202
 7223SOL    HW122568   0.077   4.292   2.266
 7223SOL    HW222569   0.215   4.206   2.249
 7224SOL     OW22570   4.197   1.965   2.637
 7224SOL    HW122571   4.147   2.051   2.622
 7224SOL    HW222572   4.152   1.913   2.710
 7225SOL     OW22573   1.447   5.733   0.961
 7225SOL    HW122574   1.519   5.750   1.028
 7225SOL    HW222575   1.483   5.749   0.869
 7226SOL     OW22576   6.497   6.540   0.606
 7226SOL    HW122577   6.451   6.628   0.601
 7226SOL    HW222578   6.541   6.530   0.696
 7227SOL     OW22579   2.010   0.794   2.480
 7227SOL    HW122580   1.920   0.835   2.482
 7227SOL    HW222581   2.031   0.755   2.570
 7228SOL     OW22582   6.960   3.090   2.151
 7228SOL    HW122583   7.009   3.107   2.237
 7228SOL    HW222584   6.862   3.102   2.167
 7229SOL     OW22585   6.366   1.038   5.176
 7229SOL    HW122586   6.459   1.028   5.210
 7229SOL    HW222587   6.358   0.996   5.085
 7230SOL     OW22588   2.154   5.317   4.502
 7230SOL    HW122589   2.074   5.310   4.443
 7230SOL    HW222590   2.142   5.257   4.582
 7231SOL     OW22591   4.100   2.158   6.073
 7231SOL    HW122592   4.188   2.137   6.030
 7231SOL    HW222593   4.039   2.080   6.064
 7232SOL     OW22594   5.104   6.446   3.867
 7232SOL    HW122595   5.186   6.449   3.810
 7232SOL    HW222596   5.028   6.406   3.815
 7233SOL     OW22597   0.194   1.354   4.661
 7233SOL    HW122598   0.156   1.316   4.746
 7233SOL    HW222599   0.283   1.312   4.644
 7234SOL     OW22600   5.024   4.083   3.653
 7234SOL    HW122601   4.964   4.157   3.683
 7234SOL    HW222602   5.089   4.118   3.586
 7235SOL     OW22603   6.939   5.243   1.329
 7235SOL    HW122604   6.957   5.265   1.233
 7235SOL    HW222605   6.892   5.320   1.373
 7236SOL     OW22606   0.970   3.589   2.559
 7236SOL    HW122607   0.917   3.514   2.600
 7236SOL    HW222608   1.040   3.619   2.623
 7237SOL     OW22609   5.877   0.977   0.496
 7237SOL    HW122610   5.977   0.972   0.497
 7237SOL    HW222611   5.847   1.040   0.567
 7238SOL     OW22612   4.152   3.420   0.092
 7238SOL    HW122613   4.079   3.466   0.042
 7238SOL    HW222614   4.120   3.329   0.120
 7239SOL     OW22615   6.806   2.457   1.853
 7239SOL    HW122616   6.706   2.456   1.859
 7239SOL    HW222617   6.833   2.485   1.761
 7240SOL     OW22618   6.539   1.983   0.041
 7240SOL    HW122619   6.574   2.011   0.131
 7240SOL    HW222620   6.442   1.963   0.049
 7241SOL     OW22621   2.417   1.252   1.587
 7241SOL    HW122622   2.481   1.320   1.552
 7241SOL    HW222623   2.348   1.297   1.644
 7242SOL     OW22624   6.616   4.998   4.420
 7242SOL    HW122625   6.527   5.013   4.376
 7242SOL    HW222626   6.687   4.994   4.350
 7243SOL     OW22627   6.024   4.527   6.326
 7243SOL    HW122628   5.962   4.449   6.322
 7243SOL    HW222629   6.112   4.502   6.285
 7244SOL     OW22630   0.439   6.087   6.705
 7244SOL    HW122631   0.460   6.070   6.801
 7244SOL    HW222632   0.442   6.001   6.654
 7245SOL     OW22633   0.735   2.873   0.348
 7245SOL    HW122634   0.783   2.827   0.273
 7245SOL    HW222635   0.770   2.966   0.357
 7246SOL     OW22636   3.973   6.838   3.729
 7246SOL    HW122637   3.925   6.818   3.815
 7246SOL    HW222638   3.947   6.771   3.660
 7247SOL     OW22639   3.066   4.100   5.301
 7247SOL    HW122640   3.082   4.034   5.374
 7247SOL    HW222641   3.017   4.057   5.226
 7248SOL     OW22642   3.261   1.103   5.021
 7248SOL    HW122643   3.213   1.185   4.990
 7248SOL    HW222644   3.195   1.028   5.029
 7249SOL     OW22645   3.952   5.063   2.387
 7249SOL    HW122646   3.882   4.991   2.386
 7249SOL    HW222647   3.922   5.137   2.446
 7250SOL     OW22648   5.174   5.332   5.351
 7250SOL    HW122649   5.158   5.236   5.331
 7250SOL    HW222650   5.211   5.378   5.271
 7251SOL     OW22651   0.105   5.807   5.603
 7251SOL    HW122652   0.196   5.813   5.560
 7251SOL    HW222653   0.062   5.897   5.601
 7252SOL     OW22654   3.606   4.153   2.506
 7252SOL    HW122655   3.585   4.233   2.450
 7252SOL    HW222656   3.526   4.094   2.512
 7253SOL     OW22657   2.154   6.001   4.872
 7253SOL    HW122658   2.235   6.008   4.815
 7253SOL    HW222659   2.167   5.928   4.939
 7254SOL     OW22660   5.411   3.376   3.830
 7254SOL    HW122661   5.313   3.387   3.843
 7254SOL    HW222662   5.458   3.461   3.858
 7255SOL     OW22663   4.954   2.906   6.502
 7255SOL    HW122664   4.935   2.853   6.419
 7255SOL    HW222665   4.874   2.963   6.523
 7256SOL     OW22666   3.460   0.384   5.377
 7256SOL    HW122667   3.421   0.316   5.439
 7256SOL    HW222668   3.549   0.353   5.345
 7257SOL     OW22669   0.692   1.501   4.313
 7257SOL    HW122670   0.674   1.575   4.248
 7257SOL    HW222671   0.787   1.507   4.344
 7258SOL     OW22672   6.220   2.116   2.696
 7258SOL    HW122673   6.157   2.143   2.623
 7258SOL    HW222674   6.244   2.197   2.749
 7259SOL     OW22675   1.542   3.848   2.569
 7259SOL    HW122676   1.562   3.783   2.641
 7259SOL    HW222677   1.563   3.941   2.600
 7260SOL     OW22678   5.885   3.433   1.448
 7260SOL    HW122679   5.920   3.341   1.429
 7260SOL    HW222680   5.862   3.441   1.545
 7261SOL     OW22681   6.631   4.339   6.931
 7261SOL    HW122682   6.709   4.311   6.875
 7261SOL    HW222683   6.645   4.432   6.962
 7262SOL     OW22684   6.325   1.305   5.256
 7262SOL    HW122685   6.361   1.222   5.213
 7262SOL    HW222686   6.329   1.295   5.355
 7263SOL     OW22687   0.642   5.257   6.871
 7263SOL    HW122688   0.574   5.308   6.818
 7263SOL    HW222689   0.620   5.264   6.968
 7264SOL     OW22690   6.202   1.851   0.350
 7264SOL    HW122691   6.262   1.842   0.270
 7264SOL    HW222692   6.151   1.766   0.364
 7265SOL     OW22693   4.445   5.717   5.615
 7265SOL    HW122694   4.540   5.689   5.629
 7265SOL    HW222695   4.396   5.712   5.702
 7266SOL     OW22696   0.203   0.711   3.944
 7266SOL    HW122697   0.178   0.754   4.031
 7266SOL    HW222698   0.120   0.695   3.890
 7267SOL     OW22699   6.213   4.757   4.570
 7267SOL    HW122700   6.178   4.707   4.491
 7267SOL    HW222701   6.313   4.756   4.568
 7268SOL     OW22702   6.233   6.112   4.090
 7268SOL    HW122703   6.326   6.148   4.101
 7268SOL    HW222704   6.186   6.113   4.179
 7269SOL     OW22705   2.508   4.539   5.259
 7269SOL    HW122706   2.597   4.521   5.302
 7269SOL    HW222707   2.523   4.588   5.173
 7270SOL     OW22708   0.927   1.369   4.602
 7270SOL    HW122709   0.925   1.271   4.582
 7270SOL    HW222710   0.913   1.383   4.700
 7271SOL     OW22711   0.973   4.342   3.496
 7271SOL    HW122712   0.882   4.309   3.473
 7271SOL    HW222713   0.991   4.326   3.593
 7272SOL     OW22714   6.347   4.854   2.718
 7272SOL    HW122715   6.328   4.924   2.787
 7272SOL    HW222716   6.433   4.808   2.740
 7273SOL     OW22717   0.498   2.572   5.430
 7273SOL    HW122718   0.497   2.635   5.508
 7273SOL    HW222719   0.408   2.570   5.388
 7274SOL     OW22720   0.553   4.579   0.275
 7274SOL    HW122721   0.617   4.652   0.299
 7274SOL    HW222722   0.490   4.562   0.350
 7275SOL     OW22723   7.010   0.339   2.910
 7275SOL    HW122724   6.998   0.279   2.831
 7275SOL    HW222725   0.030   0.428   2.879
 7276SOL     OW22726   5.549   6.657   4.424
 7276SOL    HW122727   5.468   6.627   4.474
 7276SOL    HW222728   5.618   6.690   4.489
 7277SOL     OW22729   4.778   0.134   6.195
 7277SOL    HW122730   4.732   0.097   6.115
 7277SOL    HW222731   4.876   0.115   6.190
 7278SOL     OW22732   3.160   3.996   2.890
 7278SOL    HW122733   3.124   4.057   2.961
 7278SOL    HW222734   3.134   3.902   2.910
 7279SOL     OW22735   3.465   6.427   6.045
 7279SOL    HW122736   3.417   6.344   6.017
 7279SOL    HW222737   3.545   6.441   5.986
 7280SOL     OW22738   4.790   1.628   5.814
 7280SOL    HW122739   4.696   1.625   5.849
 7280SOL    HW222740   4.833   1.713   5.844
 7281SOL     OW22741   4.809   1.037   6.563
 7281SOL    HW122742   4.865   0.995   6.635
 7281SOL    HW222743   4.718   1.057   6.600
 7282SOL     OW22744   6.256   5.704   2.183
 7282SOL    HW122745   6.281   5.795   2.214
 7282SOL    HW222746   6.230   5.647   2.261
 7283SOL     OW22747   1.967   0.514   3.706
 7283SOL    HW122748   1.900   0.565   3.653
 7283SOL    HW222749   1.940   0.418   3.710
 7284SOL     OW22750   0.229   3.968   4.873
 7284SOL    HW122751   0.227   4.025   4.791
 7284SOL    HW222752   0.234   3.872   4.846
 7285SOL     OW22753   5.076   5.715   1.689
 7285SOL    HW122754   5.035   5.807   1.691
 7285SOL    HW222755   5.037   5.661   1.763
 7286SOL     OW22756   2.267   3.317   1.424
 7286SOL    HW122757   2.244   3.312   1.521
 7286SOL    HW222758   2.352   3.367   1.412
 7287SOL     OW22759   6.020   1.459   6.290
 7287SOL    HW122760   6.045   1.485   6.383
 7287SOL    HW222761   6.097   1.412   6.246
 7288SOL     OW22762   3.694   6.529   0.229
 7288SOL    HW122763   3.618   6.516   0.292
 7288SOL    HW222764   3.774   6.478   0.261
 7289SOL     OW22765   4.536   2.112   3.030
 7289SOL    HW122766   4.632   2.138   3.024
 7289SOL    HW222767   4.524   2.019   2.996
 7290SOL     OW22768   2.743   5.204   4.750
 7290SOL    HW122769   2.759   5.123   4.805
 7290SOL    HW222770   2.732   5.284   4.810
 7291SOL     OW22771   2.360   5.858   1.803
 7291SOL    HW122772   2.456   5.848   1.775
 7291SOL    HW222773   2.348   5.820   1.895
 7292SOL     OW22774   2.648   6.749   3.964
 7292SOL    HW122775   2.560   6.711   3.938
 7292SOL    HW222776   2.650   6.768   4.062
 7293SOL     OW22777   1.124   2.140   5.162
 7293SOL    HW122778   1.169   2.051   5.165
 7293SOL    HW222779   1.093   2.165   5.254
 7294SOL     OW22780   3.260   5.199   0.653
 7294SOL    HW122781   3.244   5.138   0.730
 7294SOL    HW222782   3.258   5.147   0.567
 7295SOL     OW22783   6.063   0.792   1.240
 7295SOL    HW122784   6.100   0.823   1.152
 7295SOL    HW222785   5.974   0.748   1.225
 7296SOL     OW22786   3.793   4.883   1.219
 7296SOL    HW122787   3.817   4.835   1.135
 7296SOL    HW222788   3.786   4.817   1.294
 7297SOL     OW22789   4.986   6.805   1.654
 7297SOL    HW122790   5.002   6.773   1.747
 7297SOL    HW222791   4.891   6.786   1.628
 7298SOL     OW22792   5.731   3.685   4.501
 7298SOL    HW122793   5.674   3.613   4.462
 7298SOL    HW222794   5.673   3.756   4.542
 7299SOL     OW22795   6.468   4.221   6.737
 7299SOL    HW122796   6.523   4.204   6.654
 7299SOL    HW222797   6.529   4.239   6.814
 7300SOL     OW22798   4.676   5.202   1.229
 7300SOL    HW122799   4.583   5.165   1.228
 7300SOL    HW222800   4.740   5.132   1.199
 7301SOL     OW22801   6.787   0.406   5.919
 7301SOL    HW122802   6.799   0.399   6.018
 7301SOL    HW222803   6.743   0.323   5.885
 7302SOL     OW22804   5.654   0.919   6.711
 7302SOL    HW122805   5.643   0.869   6.797
 7302SOL    HW222806   5.693   0.858   6.641
 7303SOL     OW22807   3.393   0.901   0.223
 7303SOL    HW122808   3.481   0.897   0.176
 7303SOL    HW222809   3.350   0.812   0.220
 7304SOL     OW22810   3.543   3.618   5.877
 7304SOL    HW122811   3.463   3.558   5.870
 7304SOL    HW222812   3.626   3.563   5.884
 7305SOL     OW22813   5.043   1.174   0.659
 7305SOL    HW122814   4.946   1.152   0.668
 7305SOL    HW222815   5.056   1.245   0.590
 7306SOL     OW22816   4.848   5.001   1.867
 7306SOL    HW122817   4.792   5.014   1.949
 7306SOL    HW222818   4.888   4.910   1.868
 7307SOL     OW22819   4.195   6.604   2.330
 7307SOL    HW122820   4.250   6.686   2.345
 7307SOL    HW222821   4.139   6.615   2.248
 7308SOL     OW22822   6.794   2.978   4.592
 7308SOL    HW122823   6.825   2.978   4.687
 7308SOL    HW222824   6.712   3.035   4.584
 7309SOL     OW22825   4.720   6.336   1.667
 7309SOL    HW122826   4.633   6.328   1.716
 7309SOL    HW222827   4.792   6.362   1.731
 7310SOL     OW22828   3.129   4.963   1.603
 7310SOL    HW122829   3.145   4.911   1.687
 7310SOL    HW222830   3.045   4.930   1.560
 7311SOL     OW22831   2.771   2.051   2.056
 7311SOL    HW122832   2.814   2.141   2.053
 7311SOL    HW222833   2.673   2.061   2.071
 7312SOL     OW22834   6.580   1.482   5.854
 7312SOL    HW122835   6.513   1.492   5.927
 7312SOL    HW222836   6.669   1.460   5.895
 7313SOL     OW22837   4.041   2.568   6.594
 7313SOL    HW122838   4.108   2.641   6.611
 7313SOL    HW222839   3.992   2.547   6.678
 7314SOL     OW22840   6.928   3.516   4.457
 7314SOL    HW122841   6.958   3.608   4.484
 7314SOL    HW222842   6.991   3.479   4.389
 7315SOL     OW22843   6.421   0.093   3.966
 7315SOL    HW122844   6.469   0.084   4.053
 7315SOL    HW222845   6.415   0.189   3.941
 7316SOL     OW22846   3.484   3.503   5.426
 7316SOL    HW122847   3.467   3.574   5.494
 7316SOL    HW222848   3.555   3.441   5.459
 7317SOL     OW22849   3.549   1.017   3.845
 7317SOL    HW122850   3.565   1.111   3.875
 7317SOL    HW222851   3.572   1.009   3.748
 7318SOL     OW22852   1.788   2.350   1.125
 7318SOL    HW122853   1.842   2.434   1.134
 7318SOL    HW222854   1.844   2.271   1.150
 7319SOL     OW22855   5.986   4.562   6.622
 7319SOL    HW122856   6.071   4.533   6.666
 7319SOL    HW222857   5.993   4.549   6.523
 7320SOL     OW22858   0.024   3.055   2.422
 7320SOL    HW122859   0.078   3.125   2.468
 7320SOL    HW222860   0.046   2.965   2.459
 7321SOL     OW22861   2.672   1.163   4.301
 7321SOL    HW122862   2.607   1.123   4.237
 7321SOL    HW222863   2.679   1.261   4.283
 7322SOL     OW22864   0.357   4.378   2.684
 7322SOL    HW122865   0.446   4.338   2.663
 7322SOL    HW222866   0.315   4.412   2.600
 7323SOL     OW22867   2.052   2.910   3.916
 7323SOL    HW122868   1.987   2.891   3.990
 7323SOL    HW222869   2.002   2.918   3.830
 7324SOL     OW22870   5.595   0.384   2.956
 7324SOL    HW122871   5.648   0.455   2.911
 7324SOL    HW222872   5.557   0.420   3.042
 7325SOL     OW22873   3.283   6.271   6.548
 7325SOL    HW122874   3.237   6.346   6.500
 7325SOL    HW222875   3.242   6.259   6.638
 7326SOL     OW22876   3.084   6.613   5.669
 7326SOL    HW122877   3.165   6.609   5.727
 7326SOL    HW222878   3.008   6.566   5.713
 7327SOL     OW22879   1.500   3.048   5.688
 7327SOL    HW122880   1.447   3.064   5.772
 7327SOL    HW222881   1.570   2.978   5.706
 7328SOL     OW22882   2.610   0.044   6.670
 7328SOL    HW122883   2.519   0.054   6.712
 7328SOL    HW222884   2.664   0.126   6.687
 7329SOL     OW22885   3.943   3.213   1.097
 7329SOL    HW122886   3.976   3.203   1.191
 7329SOL    HW222887   3.850   3.249   1.097
 7330SOL     OW22888   3.612   1.479   0.221
 7330SOL    HW122889   3.599   1.381   0.205
 7330SOL    HW222890   3.640   1.523   0.136
 7331SOL     OW22891   5.421   0.322   1.883
 7331SOL    HW122892   5.354   0.393   1.906
 7331SOL    HW222893   5.498   0.364   1.834
 7332SOL     OW22894   3.643   5.277   0.888
 7332SOL    HW122895   3.611   5.278   0.793
 7332SOL    HW222896   3.615   5.192   0.931
 7333SOL     OW22897   1.266   4.684   2.394
 7333SOL    HW122898   1.220   4.637   2.469
 7333SOL    HW222899   1.364   4.688   2.413
 7334SOL     OW22900   3.686   6.407   4.498
 7334SOL    HW122901   3.765   6.446   4.544
 7334SOL    HW222902   3.691   6.428   4.400
 7335SOL     OW22903   1.868   2.478   2.696
 7335SOL    HW122904   1.887   2.443   2.787
 7335SOL    HW222905   1.769   2.482   2.682
 7336SOL     OW22906   2.230   6.161   3.579
 7336SOL    HW122907   2.214   6.149   3.481
 7336SOL    HW222908   2.315   6.212   3.593
 7337SOL     OW22909   6.690   3.120   2.187
 7337SOL    HW122910   6.678   3.031   2.231
 7337SOL    HW222911   6.610   3.139   2.130
 7338SOL     OW22912   6.777   2.645   0.556
 7338SOL    HW122913   6.825   2.557   0.559
 7338SOL    HW222914   6.681   2.631   0.583
 7339SOL     OW22915   6.714   5.600   4.748
 7339SOL    HW122916   6.712   5.568   4.654
 7339SOL    HW222917   6.737   5.698   4.749
 7340SOL     OW22918   2.329   0.056   6.690
 7340SOL    HW122919   2.305   0.128   6.625
 7340SOL    HW222920   2.287   6.984   6.660
 7341SOL     OW22921   5.923   2.596   6.601
 7341SOL    HW122922   5.852   2.664   6.621
 7341SOL    HW222923   6.002   2.611   6.661
 7342SOL     OW22924   0.146   6.829   2.533
 7342SOL    HW122925   0.061   6.833   2.481
 7342SOL    HW222926   0.127   6.799   2.626
 7343SOL     OW22927   5.301   3.863   0.171
 7343SOL    HW122928   5.283   3.895   0.078
 7343SOL    HW222929   5.245   3.781   0.189
 7344SOL     OW22930   1.580   6.320   6.317
 7344SOL    HW122931   1.524   6.368   6.385
 7344SOL    HW222932   1.522   6.259   6.264
 7345SOL     OW22933   3.666   5.444   6.048
 7345SOL    HW122934   3.616   5.507   5.990
 7345SOL    HW222935   3.603   5.378   6.089
 7346SOL     OW22936   5.139   4.521   3.062
 7346SOL    HW122937   5.187   4.443   3.023
 7346SOL    HW222938   5.206   4.590   3.091
 7347SOL     OW22939   5.679   2.437   6.653
 7347SOL    HW122940   5.625   2.459   6.735
 7347SOL    HW222941   5.766   2.487   6.656
 7348SOL     OW22942   0.398   4.738   1.970
 7348SOL    HW122943   0.366   4.801   2.040
 7348SOL    HW222944   0.366   4.646   1.992
 7349SOL     OW22945   3.761   1.960   1.393
 7349SOL    HW122946   3.787   1.881   1.448
 7349SOL    HW222947   3.662   1.964   1.385
 7350SOL     OW22948   3.584   0.317   5.028
 7350SOL    HW122949   3.516   0.376   4.986
 7350SOL    HW222950   3.644   0.278   4.958
 7351SOL     OW22951   3.425   5.072   4.077
 7351SOL    HW122952   3.409   5.170   4.093
 7351SOL    HW222953   3.376   5.018   4.145
 7352SOL     OW22954   6.696   2.459   3.607
 7352SOL    HW122955   6.712   2.391   3.678
 7352SOL    HW222956   6.783   2.495   3.574
 7353SOL     OW22957   6.356   0.472   6.468
 7353SOL    HW122958   6.405   0.466   6.555
 7353SOL    HW222959   6.303   0.557   6.466
 7354SOL     OW22960   1.019   1.712   2.986
 7354SOL    HW122961   0.956   1.719   2.909
 7354SOL    HW222962   1.016   1.797   3.039
 7355SOL     OW22963   1.472   2.096   6.937
 7355SOL    HW122964   1.408   2.173   6.930
 7355SOL    HW222965   1.565   2.129   6.928
 7356SOL     OW22966   4.584   4.260   6.180
 7356SOL    HW122967   4.652   4.262   6.254
 7356SOL    HW222968   4.566   4.165   6.155
 7357SOL     OW22969   5.350   6.268   2.305
 7357SOL    HW122970   5.283   6.308   2.368
 7357SOL    HW222971   5.339   6.168   2.304
 7358SOL     OW22972   5.285   0.942   3.686
 7358SOL    HW122973   5.357   0.932   3.755
 7358SOL    HW222974   5.234   0.857   3.679
 7359SOL     OW22975   4.809   6.881   0.743
 7359SOL    HW122976   4.854   6.958   0.698
 7359SOL    HW222977   4.857   6.858   0.828
 7360SOL     OW22978   2.969   3.773   5.362
 7360SOL    HW122979   2.925   3.714   5.294
 7360SOL    HW222980   3.063   3.790   5.335
 7361SOL     OW22981   5.045   0.441   3.596
 7361SOL    HW122982   5.018   0.353   3.637
 7361SOL    HW222983   5.048   0.432   3.497
 7362SOL     OW22984   3.780   5.066   6.469
 7362SOL    HW122985   3.751   5.063   6.373
 7362SOL    HW222986   3.748   4.984   6.516
 7363SOL     OW22987   3.854   0.240   1.079
 7363SOL    HW122988   3.923   0.179   1.041
 7363SOL    HW222989   3.866   0.246   1.179
 7364SOL     OW22990   5.512   6.830   1.584
 7364SOL    HW122991   5.431   6.867   1.538
 7364SOL    HW222992   5.593   6.879   1.554
 7365SOL     OW22993   5.791   4.858   2.004
 7365SOL    HW122994   5.867   4.844   1.940
 7365SOL    HW222995   5.733   4.777   2.005
 7366SOL     OW22996   2.032   1.004   4.419
 7366SOL    HW122997   2.017   0.905   4.415
 7366SOL    HW222998   1.953   1.052   4.381
 7367SOL     OW22999   4.632   0.217   6.753
 7367SOL    HW123000   4.540   0.206   6.714
 7367SOL    HW223001   4.638   0.306   6.798
 7368SOL     OW23002   4.083   3.406   3.344
 7368SOL    HW123003   4.162   3.405   3.282
 7368SOL    HW223004   4.069   3.314   3.381
 7369SOL     OW23005   5.524   2.646   1.164
 7369SOL    HW123006   5.573   2.718   1.114
 7369SOL    HW223007   5.556   2.557   1.134
 7370SOL     OW23008   1.987   1.837   4.228
 7370SOL    HW123009   1.914   1.879   4.282
 7370SOL    HW223010   2.019   1.753   4.273
 7371SOL     OW23011   3.723   0.723   3.824
 7371SOL    HW123012   3.629   0.721   3.856
 7371SOL    HW223013   3.759   0.816   3.830
 7372SOL     OW23014   5.336   0.853   5.209
 7372SOL    HW123015   5.381   0.771   5.244
 7372SOL    HW223016   5.261   0.878   5.270
 7373SOL     OW23017   5.455   3.006   4.455
 7373SOL    HW123018   5.463   3.084   4.518
 7373SOL    HW223019   5.477   2.922   4.504
 7374SOL     OW23020   6.435   1.944   5.702
 7374SOL    HW123021   6.386   1.875   5.756
 7374SOL    HW223022   6.505   1.899   5.646
 7375SOL     OW23023   1.763   3.491   2.216
 7375SOL    HW123024   1.731   3.407   2.261
 7375SOL    HW223025   1.749   3.568   2.277
 7376SOL     OW23026   0.187   3.526   6.973
 7376SOL    HW123027   0.135   3.574   0.031
 7376SOL    HW223028   0.284   3.532   6.994
 7377SOL     OW23029   3.188   6.016   0.702
 7377SOL    HW123030   3.091   5.991   0.697
 7377SOL    HW223031   3.210   6.048   0.794
 7378SOL     OW23032   1.068   5.903   3.695
 7378SOL    HW123033   1.138   5.831   3.687
 7378SOL    HW223034   1.067   5.937   3.789
 7379SOL     OW23035   3.820   1.149   1.223
 7379SOL    HW123036   3.777   1.069   1.181
 7379SOL    HW223037   3.911   1.125   1.256
 7380SOL     OW23038   5.217   3.687   2.423
 7380SOL    HW123039   5.275   3.765   2.400
 7380SOL    HW223040   5.174   3.703   2.512
 7381SOL     OW23041   3.659   1.220   0.820
 7381SOL    HW123042   3.651   1.266   0.908
 7381SOL    HW223043   3.579   1.162   0.805
 7382SOL     OW23044   6.435   1.372   6.443
 7382SOL    HW123045   6.441   1.290   6.500
 7382SOL    HW223046   6.482   1.448   6.489
 7383SOL     OW23047   2.203   6.878   0.509
 7383SOL    HW123048   2.279   6.814   0.522
 7383SOL    HW223049   2.120   6.828   0.489
 7384SOL     OW23050   0.066   0.369   0.808
 7384SOL    HW123051   0.143   0.335   0.755
 7384SOL    HW223052   0.094   0.383   0.903
 7385SOL     OW23053   5.700   4.141   2.880
 7385SOL    HW123054   5.636   4.218   2.873
 7385SOL    HW223055   5.650   4.055   2.862
 7386SOL     OW23056   6.011   3.413   0.592
 7386SOL    HW123057   5.978   3.505   0.572
 7386SOL    HW223058   6.075   3.385   0.520
 7387SOL     OW23059   6.934   5.666   5.390
 7387SOL    HW123060   6.981   5.724   5.457
 7387SOL    HW223061   6.944   5.570   5.416
 7388SOL     OW23062   2.099   5.616   2.488
 7388SOL    HW123063   2.191   5.580   2.478
 7388SOL    HW223064   2.046   5.556   2.549
 7389SOL     OW23065   6.141   3.235   0.368
 7389SOL    HW123066   6.233   3.250   0.402
 7389SOL    HW223067   6.092   3.172   0.428
 7390SOL     OW23068   2.342   2.242   2.881
 7390SOL    HW123069   2.435   2.225   2.848
 7390SOL    HW223070   2.278   2.232   2.805
 7391SOL     OW23071   3.748   3.023   3.448
 7391SOL    HW123072   3.821   3.081   3.483
 7391SOL    HW223073   3.659   3.061   3.474
 7392SOL     OW23074   3.142   6.256   6.816
 7392SOL    HW123075   3.102   6.324   6.756
 7392SOL    HW223076   3.074   6.225   6.882
 7393SOL     OW23077   5.269   5.131   4.298
 7393SOL    HW123078   5.188   5.173   4.257
 7393SOL    HW223079   5.351   5.179   4.265
 7394SOL     OW23080   2.651   1.651   5.858
 7394SOL    HW123081   2.750   1.657   5.872
 7394SOL    HW223082   2.613   1.578   5.914
 7395SOL     OW23083   3.002   5.496   0.938
 7395SOL    HW123084   3.068   5.559   0.978
 7395SOL    HW223085   2.940   5.464   1.010
 7396SOL     OW23086   2.523   5.231   1.909
 7396SOL    HW123087   2.612   5.210   1.867
 7396SOL    HW223088   2.496   5.323   1.884
 7397SOL     OW23089   5.680   4.579   4.091
 7397SOL    HW123090   5.608   4.640   4.125
 7397SOL    HW223091   5.702   4.511   4.160
 7398SOL     OW23092   2.509   4.454   2.542
 7398SOL    HW123093   2.601   4.424   2.514
 7398SOL    HW223094   2.440   4.399   2.495
 7399SOL     OW23095   5.311   2.436   5.122
 7399SOL    HW123096   5.240   2.470   5.184
 7399SOL    HW223097   5.317   2.336   5.129
 7400SOL     OW23098   5.272   3.243   5.521
 7400SOL    HW123099   5.184   3.245   5.568
 7400SOL    HW223100   5.282   3.156   5.473
 7401SOL     OW23101   1.678   2.516   4.022
 7401SOL    HW123102   1.611   2.587   4.043
 7401SOL    HW223103   1.660   2.479   3.931
 7402SOL     OW23104   3.363   6.199   4.639
 7402SOL    HW123105   3.456   6.163   4.628
 7402SOL    HW223106   3.360   6.262   4.716
 7403SOL     OW23107   1.711   3.880   4.219
 7403SOL    HW123108   1.655   3.829   4.152
 7403SOL    HW223109   1.672   3.970   4.233
 7404SOL     OW23110   3.002   3.620   1.121
 7404SOL    HW123111   3.086   3.641   1.070
 7404SOL    HW223112   3.026   3.586   1.211
 7405SOL     OW23113   3.624   6.503   4.254
 7405SOL    HW123114   3.535   6.532   4.290
 7405SOL    HW223115   3.691   6.575   4.269
 7406SOL     OW23116   0.924   1.093   4.982
 7406SOL    HW123117   1.020   1.121   4.972
 7406SOL    HW223118   0.864   1.163   4.943
 7407SOL     OW23119   0.875   5.837   5.508
 7407SOL    HW123120   0.813   5.885   5.571
 7407SOL    HW223121   0.836   5.836   5.417
 7408SOL     OW23122   3.479   4.891   5.446
 7408SOL    HW123123   3.427   4.828   5.503
 7408SOL    HW223124   3.513   4.967   5.501
 7409SOL     OW23125   6.189   3.439   0.858
 7409SOL    HW123126   6.106   3.457   0.804
 7409SOL    HW223127   6.181   3.485   0.947
 7410SOL     OW23128   6.939   0.586   1.521
 7410SOL    HW123129   6.965   0.604   1.616
 7410SOL    HW223130   7.008   0.528   1.478
 7411SOL     OW23131   1.732   1.619   5.085
 7411SOL    HW123132   1.797   1.638   5.159
 7411SOL    HW223133   1.639   1.635   5.118
 7412SOL     OW23134   4.279   6.538   6.654
 7412SOL    HW123135   4.303   6.486   6.737
 7412SOL    HW223136   4.257   6.474   6.581
 7413SOL     OW23137   4.227   0.127   3.445
 7413SOL    HW123138   4.143   0.171   3.477
 7413SOL    HW223139   4.244   0.044   3.497
 7414SOL     OW23140   3.049   1.423   4.504
 7414SOL    HW123141   3.013   1.421   4.411
 7414SOL    HW223142   3.044   1.331   4.544
 7415SOL     OW23143   3.695   6.443   6.519
 7415SOL    HW123144   3.725   6.517   6.459
 7415SOL    HW223145   3.738   6.357   6.490
 7416SOL     OW23146   1.182   0.808   2.028
 7416SOL    HW123147   1.095   0.767   2.053
 7416SOL    HW223148   1.191   0.898   2.071
 7417SOL     OW23149   0.546   0.926   3.490
 7417SOL    HW123150   0.465   0.880   3.528
 7417SOL    HW223151   0.552   1.019   3.528
 7418SOL     OW23152   1.728   3.865   6.088
 7418SOL    HW123153   1.674   3.949   6.099
 7418SOL    HW223154   1.792   3.877   6.011
 7419SOL     OW23155   6.729   3.755   3.869
 7419SOL    HW123156   6.743   3.828   3.802
 7419SOL    HW223157   6.718   3.795   3.960
 7420SOL     OW23158   6.688   0.038   1.726
 7420SOL    HW123159   6.605   6.996   1.713
 7420SOL    HW223160   6.751   0.021   1.650
 7421SOL     OW23161   5.213   4.376   1.285
 7421SOL    HW123162   5.146   4.400   1.356
 7421SOL    HW223163   5.192   4.426   1.201
 7422SOL     OW23164   5.464   1.895   2.866
 7422SOL    HW123165   5.462   1.876   2.768
 7422SOL    HW223166   5.406   1.973   2.886
 7423SOL     OW23167   5.249   1.774   5.705
 7423SOL    HW123168   5.324   1.825   5.747
 7423SOL    HW223169   5.284   1.715   5.633
 7424SOL     OW23170   0.926   2.381   3.667
 7424SOL    HW123171   0.875   2.296   3.676
 7424SOL    HW223172   0.957   2.392   3.572
 7425SOL     OW23173   5.776   0.526   0.798
 7425SOL    HW123174   5.776   0.606   0.737
 7425SOL    HW223175   5.733   0.449   0.751
 7426SOL     OW23176   4.074   3.569   5.618
 7426SOL    HW123177   4.154   3.617   5.583
 7426SOL    HW223178   4.022   3.629   5.678
 7427SOL     OW23179   2.951   1.050   3.791
 7427SOL    HW123180   2.871   1.079   3.844
 7427SOL    HW223181   2.922   1.028   3.698
 7428SOL     OW23182   4.356   5.998   5.029
 7428SOL    HW123183   4.354   5.986   4.929
 7428SOL    HW223184   4.308   5.922   5.072
 7429SOL     OW23185   1.774   6.776   2.646
 7429SOL    HW123186   1.761   6.849   2.578
 7429SOL    HW223187   1.780   6.688   2.599
 7430SOL     OW23188   6.578   5.501   2.685
 7430SOL    HW123189   6.584   5.496   2.585
 7430SOL    HW223190   6.669   5.493   2.724
 7431SOL     OW23191   1.706   1.575   3.702
 7431SOL    HW123192   1.662   1.596   3.615
 7431SOL    HW223193   1.802   1.602   3.699
 7432SOL     OW23194   2.522   0.570   3.302
 7432SOL    HW123195   2.497   0.658   3.343
 7432SOL    HW223196   2.467   0.554   3.221
 7433SOL     OW23197   2.831   0.137   6.326
 7433SOL    HW123198   2.926   0.169   6.330
 7433SOL    HW223199   2.829   0.038   6.338
 7434SOL     OW23200   4.241   6.444   5.016
 7434SOL    HW123201   4.297   6.371   5.057
 7434SOL    HW223202   4.267   6.532   5.056
 7435SOL     OW23203   4.860   4.508   2.988
 7435SOL    HW123204   4.818   4.581   3.042
 7435SOL    HW223205   4.957   4.500   3.013
 7436SOL     OW23206   5.394   2.909   5.964
 7436SOL    HW123207   5.474   2.851   5.980
 7436SOL    HW223208   5.375   2.914   5.866
 7437SOL     OW23209   3.262   6.986   0.825
 7437SOL    HW123210   3.292   0.010   0.913
 7437SOL    HW223211   3.223   6.895   0.841
 7438SOL     OW23212   1.994   0.591   6.878
 7438SOL    HW123213   2.018   0.566   6.972
 7438SOL    HW223214   1.953   0.512   6.832
 7439SOL     OW23215   1.388   4.378   6.651
 7439SOL    HW123216   1.371   4.412   6.558
 7439SOL    HW223217   1.318   4.311   6.675
 7440SOL     OW23218   5.626   3.817   4.010
 7440SOL    HW123219   5.575   3.856   4.087
 7440SOL    HW223220   5.633   3.718   4.022
 7441SOL     OW23221   5.808   5.924   1.041
 7441SOL    HW123222   5.897   5.924   0.995
 7441SOL    HW223223   5.789   6.016   1.075
 7442SOL     OW23224   5.499   0.611   5.766
 7442SOL    HW123225   5.551   0.548   5.823
 7442SOL    HW223226   5.430   0.658   5.823
 7443SOL     OW23227   0.503   1.229   2.034
 7443SOL    HW123228   0.522   1.319   2.072
 7443SOL    HW223229   0.465   1.170   2.106
 7444SOL     OW23230   1.617   6.500   6.793
 7444SOL    HW123231   1.631   6.579   6.732
 7444SOL    HW223232   1.563   6.529   6.872
 7445SOL     OW23233   4.056   6.220   1.779
 7445SOL    HW123234   4.109   6.259   1.704
 7445SOL    HW223235   4.089   6.128   1.800
 7446SOL     OW23236   5.525   3.813   0.395
 7446SOL    HW123237   5.574   3.799   0.309
 7446SOL    HW223238   5.435   3.851   0.376
 7447SOL     OW23239   0.262   4.549   0.952
 7447SOL    HW123240   0.358   4.531   0.934
 7447SOL    HW223241   0.248   4.648   0.963
 7448SOL     OW23242   4.680   5.047   6.798
 7448SOL    HW123243   4.773   5.065   6.765
 7448SOL    HW223244   4.617   5.050   6.721
 7449SOL     OW23245   0.576   4.542   6.452
 7449SOL    HW123246   0.642   4.509   6.384
 7449SOL    HW223247   0.588   4.492   6.538
 7450SOL     OW23248   5.484   2.287   5.377
 7450SOL    HW123249   5.548   2.272   5.302
 7450SOL    HW223250   5.403   2.229   5.365
 7451SOL     OW23251   4.873   4.523   3.289
 7451SOL    HW123252   4.866   4.460   3.366
 7451SOL    HW223253   4.949   4.495   3.230
 7452SOL     OW23254   6.062   5.286   5.556
 7452SOL    HW123255   6.067   5.322   5.463
 7452SOL    HW223256   6.128   5.211   5.566
 7453SOL     OW23257   3.643   5.846   5.921
 7453SOL    HW123258   3.659   5.944   5.936
 7453SOL    HW223259   3.725   5.795   5.946
 7454SOL     OW23260   4.534   2.254   0.504
 7454SOL    HW123261   4.545   2.295   0.594
 7454SOL    HW223262   4.488   2.318   0.443
 7455SOL     OW23263   6.838   2.333   2.915
 7455SOL    HW123264   6.777   2.384   2.976
 7455SOL    HW223265   6.791   2.315   2.829
 7456SOL     OW23266   2.743   2.456   6.081
 7456SOL    HW123267   2.733   2.358   6.095
 7456SOL    HW223268   2.699   2.482   5.995
 7457SOL     OW23269   2.682   0.464   3.056
 7457SOL    HW123270   2.731   0.417   2.982
 7457SOL    HW223271   2.589   0.429   3.062
 7458SOL     OW23272   1.570   5.010   5.217
 7458SOL    HW123273   1.549   4.917   5.187
 7458SOL    HW223274   1.599   5.008   5.313
 7459SOL     OW23275   5.892   0.762   2.918
 7459SOL    HW123276   5.895   0.763   2.818
 7459SOL    HW223277   5.800   0.741   2.948
 7460SOL     OW23278   1.993   6.481   0.946
 7460SOL    HW123279   2.028   6.404   0.999
 7460SOL    HW223280   2.065   6.550   0.936
 7461SOL     OW23281   1.803   4.527   5.911
 7461SOL    HW123282   1.714   4.523   5.867
 7461SOL    HW223283   1.859   4.450   5.880
 7462SOL     OW23284   1.329   4.840   0.215
 7462SOL    HW123285   1.268   4.851   0.294
 7462SOL    HW223286   1.414   4.796   0.245
 7463SOL     OW23287   4.005   5.250   1.301
 7463SOL    HW123288   3.930   5.316   1.308
 7463SOL    HW223289   3.994   5.196   1.217
 7464SOL     OW23290   6.319   6.191   5.356
 7464SOL    HW123291   6.388   6.216   5.288
 7464SOL    HW223292   6.244   6.143   5.311
 7465SOL     OW23293   1.556   5.072   6.889
 7465SOL    HW123294   1.603   4.986   6.868
 7465SOL    HW223295   1.564   5.091   6.987
 7466SOL     OW23296   0.572   0.234   5.312
 7466SOL    HW123297   0.648   0.286   5.351
 7466SOL    HW223298   0.586   0.224   5.214
 7467SOL     OW23299   0.484   2.751   5.619
 7467SOL    HW123300   0.524   2.839   5.645
 7467SOL    HW223301   0.461   2.699   5.702
 7468SOL     OW23302   6.338   3.743   5.639
 7468SOL    HW123303   6.271   3.688   5.590
 7468SOL    HW223304   6.349   3.831   5.594
 7469SOL     OW23305   6.661   2.336   0.971
 7469SOL    HW123306   6.706   2.300   1.052
 7469SOL    HW223307   6.707   2.420   0.941
 7470SOL     OW23308   5.564   2.759   3.670
 7470SOL    HW123309   5.551   2.663   3.694
 7470SOL    HW223310   5.489   2.813   3.707
 7471SOL     OW23311   4.278   6.126   5.986
 7471SOL    HW123312   4.210   6.052   5.989
 7471SOL    HW223313   4.329   6.121   5.900
 7472SOL     OW23314   5.995   6.787   5.639
 7472SOL    HW123315   5.959   6.789   5.732
 7472SOL    HW223316   5.969   6.870   5.591
 7473SOL     OW23317   3.829   5.855   4.015
 7473SOL    HW123318   3.905   5.807   3.972
 7473SOL    HW223319   3.751   5.856   3.953
 7474SOL     OW23320   5.780   2.161   6.355
 7474SOL    HW123321   5.756   2.138   6.449
 7474SOL    HW223322   5.789   2.077   6.302
 7475SOL     OW23323   5.012   2.244   0.731
 7475SOL    HW123324   5.067   2.312   0.683
 7475SOL    HW223325   5.042   2.236   0.826
 7476SOL     OW23326   2.128   0.154   2.892
 7476SOL    HW123327   2.151   0.098   2.813
 7476SOL    HW223328   2.071   0.231   2.863
 7477SOL     OW23329   0.715   4.103   4.970
 7477SOL    HW123330   0.793   4.085   4.910
 7477SOL    HW223331   0.665   4.183   4.937
 7478SOL     OW23332   0.722   0.920   6.054
 7478SOL    HW123333   0.751   0.977   5.977
 7478SOL    HW223334   0.659   0.972   6.111
 7479SOL     OW23335   5.500   3.118   0.009
 7479SOL    HW123336   5.488   3.023   0.038
 7479SOL    HW223337   5.589   3.128   6.978
 7480SOL     OW23338   3.521   4.869   2.384
 7480SOL    HW123339   3.596   4.834   2.329
 7480SOL    HW223340   3.436   4.863   2.332
 7481SOL     OW23341   0.505   3.448   6.611
 7481SOL    HW123342   0.590   3.449   6.560
 7481SOL    HW223343   0.524   3.439   6.709
 7482SOL     OW23344   4.506   2.228   2.759
 7482SOL    HW123345   4.495   2.189   2.851
 7482SOL    HW223346   4.603   2.236   2.737
 7483SOL     OW23347   5.072   2.078   5.367
 7483SOL    HW123348   5.144   2.011   5.354
 7483SOL    HW223349   4.984   2.037   5.344
 7484SOL     OW23350   3.118   6.869   4.046
 7484SOL    HW123351   3.048   6.801   4.025
 7484SOL    HW223352   3.150   6.911   3.962
 7485SOL     OW23353   3.629   6.781   5.318
 7485SOL    HW123354   3.532   6.805   5.326
 7485SOL    HW223355   3.685   6.859   5.345
 7486SOL     OW23356   2.357   6.690   1.270
 7486SOL    HW123357   2.366   6.613   1.332
 7486SOL    HW223358   2.261   6.716   1.263
 7487SOL     OW23359   4.294   6.510   4.699
 7487SOL    HW123360   4.196   6.491   4.710
 7487SOL    HW223361   4.346   6.431   4.732
 7488SOL     OW23362   0.561   5.708   4.270
 7488SOL    HW123363   0.556   5.768   4.190
 7488SOL    HW223364   0.656   5.704   4.302
 7489SOL     OW23365   5.334   3.257   6.860
 7489SOL    HW123366   5.397   3.208   6.920
 7489SOL    HW223367   5.341   3.355   6.878
 7490SOL     OW23368   0.584   2.540   2.312
 7490SOL    HW123369   0.576   2.623   2.367
 7490SOL    HW223370   0.636   2.560   2.229
 7491SOL     OW23371   4.361   3.316   0.369
 7491SOL    HW123372   4.411   3.290   0.451
 7491SOL    HW223373   4.333   3.234   0.320
 7492SOL     OW23374   1.755   6.898   4.400
 7492SOL    HW123375   1.771   6.964   4.473
 7492SOL    HW223376   1.832   6.834   4.395
 7493SOL     OW23377   6.754   4.718   5.364
 7493SOL    HW123378   6.671   4.677   5.402
 7493SOL    HW223379   6.782   4.796   5.419
 7494SOL     OW23380   6.777   1.095   2.538
 7494SOL    HW123381   6.785   1.052   2.448
 7494SOL    HW223382   6.699   1.055   2.587
 7495SOL     OW23383   1.475   3.559   5.131
 7495SOL    HW123384   1.559   3.545   5.079
 7495SOL    HW223385   1.478   3.506   5.215
 7496SOL     OW23386   5.869   4.333   2.492
 7496SOL    HW123387   5.879   4.265   2.420
 7496SOL    HW223388   5.921   4.304   2.572
 7497SOL     OW23389   0.091   6.621   0.746
 7497SOL    HW123390   0.061   6.573   0.828
 7497SOL    HW223391   0.042   6.584   0.666
 7498SOL     OW23392   3.161   7.009   2.854
 7498SOL    HW123393   3.220   6.969   2.784
 7498SOL    HW223394   3.102   0.064   2.812
 7499SOL     OW23395   3.200   2.077   3.927
 7499SOL    HW123396   3.182   2.141   3.852
 7499SOL    HW223397   3.116   2.031   3.952
 7500SOL     OW23398   3.577   0.140   3.346
 7500SOL    HW123399   3.581   0.040   3.340
 7500SOL    HW223400   3.621   0.180   3.265
 7501SOL     OW23401   6.190   2.520   4.994
 7501SOL    HW123402   6.252   2.470   5.054
 7501SOL    HW223403   6.133   2.580   5.048
 7502SOL     OW23404   4.440   0.634   4.161
 7502SOL    HW123405   4.454   0.724   4.202
 7502SOL    HW223406   4.343   0.610   4.165
 7503SOL     OW23407   1.701   5.837   1.528
 7503SOL    HW123408   1.650   5.888   1.459
 7503SOL    HW223409   1.781   5.890   1.556
 7504SOL     OW23410   6.434   6.844   4.682
 7504SOL    HW123411   6.366   6.770   4.681
 7504SOL    HW223412   6.526   6.805   4.681
 7505SOL     OW23413   0.310   6.230   5.010
 7505SOL    HW123414   0.295   6.212   5.107
 7505SOL    HW223415   0.224   6.216   4.959
 7506SOL     OW23416   3.422   1.533   3.773
 7506SOL    HW123417   3.390   1.616   3.727
 7506SOL    HW223418   3.465   1.557   3.860
 7507SOL     OW23419   6.510   4.370   5.428
 7507SOL    HW123420   6.493   4.377   5.526
 7507SOL    HW223421   6.608   4.370   5.411
 7508SOL     OW23422   2.665   5.633   0.237
 7508SOL    HW123423   2.760   5.614   0.262
 7508SOL    HW223424   2.629   5.557   0.183
 7509SOL     OW23425   6.284   4.933   1.671
 7509SOL    HW123426   6.347   5.002   1.707
 7509SOL    HW223427   6.295   4.926   1.572
 7510SOL     OW23428   3.556   3.628   3.266
 7510SOL    HW123429   3.652   3.650   3.247
 7510SOL    HW223430   3.550   3.576   3.351
 7511SOL     OW23431   4.459   6.531   3.857
 7511SOL    HW123432   4.372   6.540   3.904
 7511SOL    HW223433   4.532   6.515   3.924
 7512SOL     OW23434   3.831   0.535   6.954
 7512SOL    HW123435   3.890   0.485   6.891
 7512SOL    HW223436   3.827   0.486   0.028
 7513SOL     OW23437   1.212   2.244   2.412
 7513SOL    HW123438   1.225   2.178   2.338
 7513SOL    HW223439   1.209   2.336   2.374
 7514SOL     OW23440   1.337   5.211   1.229
 7514SOL    HW123441   1.291   5.295   1.198
 7514SOL    HW223442   1.407   5.234   1.296
 7515SOL     OW23443   0.356   5.201   4.901
 7515SOL    HW123444   0.383   5.288   4.941
 7515SOL    HW223445   0.311   5.144   4.970
 7516SOL     OW23446   1.350   6.131   5.462
 7516SOL    HW123447   1.391   6.094   5.379
 7516SOL    HW223448   1.265   6.082   5.483
 7517SOL     OW23449   0.652   1.331   6.086
 7517SOL    HW123450   0.744   1.362   6.109
 7517SOL    HW223451   0.616   1.386   6.011
 7518SOL     OW23452   4.713   2.508   3.570
 7518SOL    HW123453   4.630   2.456   3.591
 7518SOL    HW223454   4.791   2.468   3.619
 7519SOL     OW23455   3.653   6.272   4.112
 7519SOL    HW123456   3.752   6.255   4.108
 7519SOL    HW223457   3.636   6.361   4.153
 7520SOL     OW23458   1.855   1.623   0.381
 7520SOL    HW123459   1.829   1.639   0.286
 7520SOL    HW223460   1.788   1.664   0.442
 7521SOL     OW23461   3.266   1.714   5.454
 7521SOL    HW123462   3.364   1.731   5.465
 7521SOL    HW223463   3.217   1.752   5.532
 7522SOL     OW23464   1.911   6.795   3.014
 7522SOL    HW123465   1.971   6.837   3.081
 7522SOL    HW223466   1.910   6.696   3.027
 7523SOL     OW23467   5.506   1.541   0.711
 7523SOL    HW123468   5.408   1.556   0.698
 7523SOL    HW223469   5.556   1.569   0.629
 7524SOL     OW23470   0.474   3.080   4.459
 7524SOL    HW123471   0.441   3.148   4.395
 7524SOL    HW223472   0.509   3.125   4.541
 7525SOL     OW23473   4.107   5.388   6.338
 7525SOL    HW123474   4.191   5.443   6.345
 7525SOL    HW223475   4.055   5.396   6.422
 7526SOL     OW23476   2.478   3.442   1.630
 7526SOL    HW123477   2.491   3.518   1.566
 7526SOL    HW223478   2.435   3.476   1.714
 7527SOL     OW23479   3.891   4.837   3.736
 7527SOL    HW123480   3.907   4.894   3.816
 7527SOL    HW223481   3.979   4.809   3.697
 7528SOL     OW23482   5.862   3.087   6.143
 7528SOL    HW123483   5.947   3.138   6.152
 7528SOL    HW223484   5.800   3.135   6.081
 7529SOL     OW23485   6.073   2.796   3.900
 7529SOL    HW123486   6.124   2.713   3.876
 7529SOL    HW223487   6.005   2.816   3.830
 7530SOL     OW23488   0.062   1.940   1.765
 7530SOL    HW123489   6.987   1.972   1.733
 7530SOL    HW223490   0.130   1.951   1.693
 7531SOL     OW23491   4.303   2.322   3.709
 7531SOL    HW123492   4.387   2.377   3.708
 7531SOL    HW223493   4.287   2.285   3.617
 7532SOL     OW23494   4.265   4.925   6.452
 7532SOL    HW123495   4.281   4.937   6.354
 7532SOL    HW223496   4.181   4.971   6.478
 7533SOL     OW23497   4.221   4.410   1.739
 7533SOL    HW123498   4.134   4.369   1.711
 7533SOL    HW223499   4.291   4.338   1.745
 7534SOL     OW23500   4.273   0.046   4.601
 7534SOL    HW123501   4.269   7.006   4.517
 7534SOL    HW223502   4.187   0.035   4.651
 7535SOL     OW23503   0.620   6.042   3.888
 7535SOL    HW123504   0.597   6.125   3.839
 7535SOL    HW223505   0.696   5.996   3.843
 7536SOL     OW23506   5.065   6.295   4.671
 7536SOL    HW123507   4.996   6.265   4.606
 7536SOL    HW223508   5.155   6.289   4.630
 7537SOL     OW23509   2.441   6.622   3.003
 7537SOL    HW123510   2.489   6.696   3.049
 7537SOL    HW223511   2.490   6.598   2.919
 7538SOL     OW23512   0.491   3.774   0.366
 7538SOL    HW123513   0.560   3.767   0.294
 7538SOL    HW223514   0.499   3.695   0.427
 7539SOL     OW23515   0.171   6.924   3.880
 7539SOL    HW123516   0.198   6.987   3.953
 7539SOL    HW223517   0.201   6.831   3.903
 7540SOL     OW23518   6.297   5.452   2.710
 7540SOL    HW123519   6.300   5.352   2.706
 7540SOL    HW223520   6.391   5.488   2.707
 7541SOL     OW23521   2.130   4.256   6.289
 7541SOL    HW123522   2.083   4.317   6.225
 7541SOL    HW223523   2.108   4.161   6.265
 7542SOL     OW23524   6.229   5.925   4.965
 7542SOL    HW123525   6.265   5.837   4.998
 7542SOL    HW223526   6.302   5.975   4.920
 7543SOL     OW23527   2.486   0.998   6.691
 7543SOL    HW123528   2.455   0.930   6.625
 7543SOL    HW223529   2.434   1.083   6.678
 7544SOL     OW23530   6.734   1.924   4.077
 7544SOL    HW123531   6.687   1.848   4.031
 7544SOL    HW223532   6.833   1.915   4.061
 7545SOL     OW23533   0.843   4.730   6.415
 7545SOL    HW123534   0.851   4.823   6.380
 7545SOL    HW223535   0.816   4.669   6.341
 7546SOL     OW23536   2.279   3.020   1.682
 7546SOL    HW123537   2.313   2.927   1.693
 7546SOL    HW223538   2.356   3.082   1.669
 7547SOL     OW23539   4.403   0.375   1.231
 7547SOL    HW123540   4.430   0.327   1.147
 7547SOL    HW223541   4.467   0.450   1.248
 7548SOL     OW23542   3.390   2.284   6.175
 7548SOL    HW123543   3.340   2.367   6.199
 7548SOL    HW223544   3.484   2.308   6.152
 7549SOL     OW23545   5.587   2.157   4.278
 7549SOL    HW123546   5.535   2.243   4.282
 7549SOL    HW223547   5.523   2.080   4.282
 7550SOL     OW23548   2.667   4.606   4.323
 7550SOL    HW123549   2.632   4.681   4.378
 7550SOL    HW223550   2.761   4.624   4.296
 7551SOL     OW23551   6.280   2.812   5.931
 7551SOL    HW123552   6.352   2.743   5.922
 7551SOL    HW223553   6.199   2.783   5.881
 7552SOL     OW23554   2.524   6.481   5.207
 7552SOL    HW123555   2.579   6.551   5.252
 7552SOL    HW223556   2.529   6.395   5.258
 7553SOL     OW23557   5.437   6.318   5.656
 7553SOL    HW123558   5.382   6.243   5.618
 7553SOL    HW223559   5.382   6.402   5.657
 7554SOL     OW23560   4.927   0.919   0.993
 7554SOL    HW123561   4.941   1.010   0.954
 7554SOL    HW223562   4.917   0.926   1.092
 7555SOL     OW23563   3.948   5.155   4.948
 7555SOL    HW123564   3.865   5.145   4.893
 7555SOL    HW223565   3.926   5.201   5.034
 7556SOL     OW23566   0.417   6.581   1.335
 7556SOL    HW123567   0.448   6.503   1.280
 7556SOL    HW223568   0.416   6.663   1.278
 7557SOL     OW23569   4.732   0.706   0.769
 7557SOL    HW123570   4.686   0.658   0.844
 7557SOL    HW223571   4.793   0.642   0.722
 7558SOL     OW23572   1.160   1.600   4.179
 7558SOL    HW123573   1.228   1.600   4.106
 7558SOL    HW223574   1.104   1.683   4.172
 7559SOL     OW23575   3.097   1.437   5.157
 7559SOL    HW123576   3.048   1.439   5.070
 7559SOL    HW223577   3.130   1.529   5.178
 7560SOL     OW23578   0.702   1.317   5.664
 7560SOL    HW123579   0.718   1.370   5.747
 7560SOL    HW223580   0.604   1.312   5.646
 7561SOL     OW23581   5.977   1.831   5.047
 7561SOL    HW123582   5.958   1.746   5.095
 7561SOL    HW223583   6.038   1.888   5.102
 7562SOL     OW23584   1.875   5.759   3.725
 7562SOL    HW123585   1.916   5.692   3.787
 7562SOL    HW223586   1.940   5.833   3.707
 7563SOL     OW23587   3.526   5.414   2.334
 7563SOL    HW123588   3.544   5.375   2.244
 7563SOL    HW223589   3.613   5.425   2.383
 7564SOL     OW23590   3.527   1.826   5.485
 7564SOL    HW123591   3.536   1.908   5.429
 7564SOL    HW223592   3.500   1.853   5.578
 7565SOL     OW23593   6.754   3.662   6.181
 7565SOL    HW123594   6.781   3.674   6.085
 7565SOL    HW223595   6.676   3.600   6.186
 7566SOL     OW23596   4.594   4.641   1.426
 7566SOL    HW123597   4.603   4.721   1.485
 7566SOL    HW223598   4.637   4.562   1.471
 7567SOL     OW23599   1.425   0.297   4.135
 7567SOL    HW123600   1.366   0.348   4.071
 7567SOL    HW223601   1.410   0.199   4.122
 7568SOL     OW23602   5.988   5.882   1.893
 7568SOL    HW123603   6.085   5.880   1.871
 7568SOL    HW223604   5.974   5.923   1.983
 7569SOL     OW23605   4.496   4.061   0.489
 7569SOL    HW123606   4.519   3.985   0.549
 7569SOL    HW223607   4.539   4.145   0.524
 7570SOL     OW23608   0.207   2.288   2.780
 7570SOL    HW123609   0.254   2.230   2.713
 7570SOL    HW223610   0.274   2.327   2.843
 7571SOL     OW23611   4.770   2.184   2.918
 7571SOL    HW123612   4.827   2.160   2.997
 7571SOL    HW223613   4.801   2.133   2.838
 7572SOL     OW23614   4.451   7.002   3.214
 7572SOL    HW123615   4.411   0.071   3.177
 7572SOL    HW223616   4.382   6.951   3.265
 7573SOL     OW23617   4.999   6.766   5.824
 7573SOL    HW123618   4.980   6.766   5.922
 7573SOL    HW223619   5.098   6.767   5.809
 7574SOL     OW23620   0.888   2.709   3.894
 7574SOL    HW123621   0.950   2.632   3.909
 7574SOL    HW223622   0.862   2.712   3.797
 7575SOL     OW23623   0.324   6.820   1.724
 7575SOL    HW123624   0.414   6.798   1.686
 7575SOL    HW223625   0.255   6.760   1.684
 7576SOL     OW23626   5.253   3.094   0.483
 7576SOL    HW123627   5.306   3.142   0.413
 7576SOL    HW223628   5.179   3.043   0.439
 7577SOL     OW23629   1.141   6.785   1.101
 7577SOL    HW123630   1.217   6.733   1.061
 7577SOL    HW223631   1.162   6.882   1.098
 7578SOL     OW23632   6.487   5.776   3.543
 7578SOL    HW123633   6.429   5.801   3.620
 7578SOL    HW223634   6.520   5.859   3.499
 7579SOL     OW23635   0.364   0.977   0.224
 7579SOL    HW123636   0.331   1.069   0.243
 7579SOL    HW223637   0.435   0.953   0.290
 7580SOL     OW23638   2.528   4.972   3.498
 7580SOL    HW123639   2.429   4.974   3.485
 7580SOL    HW223640   2.573   4.963   3.410
 7581SOL     OW23641   6.672   0.679   2.610
 7581SOL    HW123642   6.771   0.674   2.600
 7581SOL    HW223643   6.645   0.773   2.630
 7582SOL     OW23644   2.669   1.082   5.861
 7582SOL    HW123645   2.665   0.989   5.826
 7582SOL    HW223646   2.742   1.132   5.815
 7583SOL     OW23647   5.086   3.120   2.822
 7583SOL    HW123648   5.066   3.216   2.801
 7583SOL    HW223649   5.002   3.066   2.812
 7584SOL     OW23650   0.350   0.809   3.655
 7584SOL    HW123651   0.394   0.879   3.712
 7584SOL    HW223652   0.384   0.719   3.680
 7585SOL     OW23653   1.524   1.207   6.727
 7585SOL    HW123654   1.596   1.258   6.773
 7585SOL    HW223655   1.520   1.114   6.765
 7586SOL     OW23656   1.487   1.011   2.219
 7586SOL    HW123657   1.404   1.062   2.195
 7586SOL    HW223658   1.536   1.060   2.291
 7587SOL     OW23659   3.891   0.487   0.654
 7587SOL    HW123660   3.949   0.520   0.728
 7587SOL    HW223661   3.948   0.443   0.584
 7588SOL     OW23662   1.884   2.680   4.382
 7588SOL    HW123663   1.940   2.693   4.465
 7588SOL    HW223664   1.937   2.627   4.315
 7589SOL     OW23665   0.431   0.662   2.861
 7589SOL    HW123666   0.431   0.587   2.927
 7589SOL    HW223667   0.434   0.625   2.768
 7590SOL     OW23668   6.824   0.843   6.541
 7590SOL    HW123669   6.763   0.775   6.583
 7590SOL    HW223670   6.846   0.814   6.448
 7591SOL     OW23671   3.786   3.023   4.627
 7591SOL    HW123672   3.826   3.036   4.537
 7591SOL    HW223673   3.858   3.020   4.696
 7592SOL     OW23674   0.077   7.001   5.132
 7592SOL    HW123675   0.163   6.963   5.165
 7592SOL    HW223676   0.006   6.990   5.202
 7593SOL     OW23677   0.915   1.391   6.111
 7593SOL    HW123678   0.938   1.298   6.084
 7593SOL    HW223679   0.999   1.446   6.116
 7594SOL     OW23680   7.007   4.735   0.135
 7594SOL    HW123681   0.086   4.707   0.112
 7594SOL    HW223682   6.984   4.703   0.227
 7595SOL     OW23683   0.854   2.963   6.396
 7595SOL    HW123684   0.898   3.015   6.323
 7595SOL    HW223685   0.787   3.021   6.443
 7596SOL     OW23686   3.426   0.794   5.357
 7596SOL    HW123687   3.424   0.752   5.267
 7596SOL    HW223688   3.348   0.855   5.368
 7597SOL     OW23689   1.851   4.372   2.043
 7597SOL    HW123690   1.917   4.371   1.968
 7597SOL    HW223691   1.901   4.372   2.130
 7598SOL     OW23692   6.499   0.762   3.104
 7598SOL    HW123693   6.590   0.804   3.112
 7598SOL    HW223694   6.451   0.803   3.027
 7599SOL     OW23695   3.617   3.488   0.371
 7599SOL    HW123696   3.537   3.544   0.352
 7599SOL    HW223697   3.694   3.547   0.395
 7600SOL     OW23698   1.538   6.650   4.217
 7600SOL    HW123699   1.632   6.665   4.187
 7600SOL    HW223700   1.521   6.552   4.227
 7601SOL     OW23701   3.184   6.646   1.714
 7601SOL    HW123702   3.127   6.597   1.649
 7601SOL    HW223703   3.207   6.736   1.678
 7602SOL     OW23704   0.081   1.819   0.654
 7602SOL    HW123705   0.047   1.759   0.582
 7602SOL    HW223706   0.078   1.914   0.624
 7603SOL     OW23707   3.953   0.098   5.940
 7603SOL    HW123708   3.978   0.009   5.978
 7603SOL    HW223709   4.025   0.164   5.960
 7604SOL     OW23710   0.140   2.355   4.914
 7604SOL    HW123711   0.180   2.275   4.960
 7604SOL    HW223712   0.195   2.378   4.834
 7605SOL     OW23713   2.367   6.663   0.561
 7605SOL    HW123714   2.365   6.605   0.479
 7605SOL    HW223715   2.317   6.618   0.635
 7606SOL     OW23716   6.610   1.486   3.093
 7606SOL    HW123717   6.530   1.536   3.058
 7606SOL    HW223718   6.657   1.543   3.161
 7607SOL     OW23719   2.138   6.147   5.714
 7607SOL    HW123720   2.224   6.199   5.714
 7607SOL    HW223721   2.064   6.206   5.681
 7608SOL     OW23722   5.880   2.357   6.199
 7608SOL    HW123723   5.822   2.296   6.252
 7608SOL    HW223724   5.900   2.315   6.110
 7609SOL     OW23725   1.305   1.806   4.988
 7609SOL    HW123726   1.262   1.808   4.898
 7609SOL    HW223727   1.351   1.718   5.002
 7610SOL     OW23728   4.024   4.904   4.894
 7610SOL    HW123729   3.998   4.993   4.933
 7610SOL    HW223730   3.945   4.863   4.850
 7611SOL     OW23731   4.850   3.491   6.782
 7611SOL    HW123732   4.925   3.469   6.719
 7611SOL    HW223733   4.880   3.559   6.848
 7612SOL     OW23734   3.526   1.619   2.961
 7612SOL    HW123735   3.507   1.638   3.058
 7612SOL    HW223736   3.546   1.522   2.950
 7613SOL     OW23737   0.689   1.292   1.204
 7613SOL    HW123738   0.703   1.381   1.248
 7613SOL    HW223739   0.715   1.220   1.268
 7614SOL     OW23740   4.928   3.900   0.164
 7614SOL    HW123741   4.862   3.909   0.239
 7614SOL    HW223742   4.999   3.835   0.191
 7615SOL     OW23743   5.522   3.023   5.085
 7615SOL    HW123744   5.551   3.105   5.135
 7615SOL    HW223745   5.425   3.006   5.101
 7616SOL     OW23746   6.137   0.188   3.130
 7616SOL    HW123747   6.200   0.234   3.193
 7616SOL    HW223748   6.120   0.095   3.162
 7617SOL     OW23749   6.078   4.345   3.739
 7617SOL    HW123750   6.150   4.409   3.767
 7617SOL    HW223751   6.059   4.356   3.641
 7618SOL     OW23752   2.649   2.445   0.336
 7618SOL    HW123753   2.622   2.447   0.240
 7618SOL    HW223754   2.592   2.381   0.386
 7619SOL     OW23755   1.157   1.737   4.540
 7619SOL    HW123756   1.202   1.785   4.615
 7619SOL    HW223757   1.204   1.651   4.522
 7620SOL     OW23758   3.817   4.369   0.981
 7620SOL    HW123759   3.773   4.294   1.031
 7620SOL    HW223760   3.847   4.439   1.046
 7621SOL     OW23761   6.402   4.637   6.944
 7621SOL    HW123762   6.480   4.604   6.998
 7621SOL    HW223763   6.355   4.560   6.902
 7622SOL     OW23764   3.357   3.711   1.282
 7622SOL    HW123765   3.448   3.751   1.282
 7622SOL    HW223766   3.306   3.745   1.361
 7623SOL     OW23767   4.840   4.365   1.124
 7623SOL    HW123768   4.844   4.427   1.202
 7623SOL    HW223769   4.835   4.270   1.157
 7624SOL     OW23770   0.820   3.342   2.618
 7624SOL    HW123771   0.726   3.332   2.587
 7624SOL    HW223772   0.877   3.272   2.575
 7625SOL     OW23773   5.493   1.034   1.336
 7625SOL    HW123774   5.425   1.053   1.265
 7625SOL    HW223775   5.490   1.105   1.405
 7626SOL     OW23776   4.287   0.613   5.927
 7626SOL    HW123777   4.341   0.695   5.945
 7626SOL    HW223778   4.324   0.565   5.848
 7627SOL     OW23779   4.357   2.317   6.738
 7627SOL    HW123780   4.323   2.262   6.662
 7627SOL    HW223781   4.415   2.391   6.702
 7628SOL     OW23782   3.515   2.807   0.420
 7628SOL    HW123783   3.582   2.793   0.347
 7628SOL    HW223784   3.514   2.727   0.480
 7629SOL     OW23785   6.088   2.661   3.543
 7629SOL    HW123786   6.079   2.585   3.479
 7629SOL    HW223787   6.128   2.740   3.496
 7630SOL     OW23788   0.959   6.461   4.881
 7630SOL    HW123789   0.995   6.405   4.805
 7630SOL    HW223790   0.985   6.556   4.867
 7631SOL     OW23791   0.927   0.657   5.579
 7631SOL    HW123792   0.992   0.597   5.533
 7631SOL    HW223793   0.894   0.727   5.514
 7632SOL     OW23794   4.559   5.551   0.485
 7632SOL    HW123795   4.563   5.565   0.584
 7632SOL    HW223796   4.515   5.629   0.442
 7633SOL     OW23797   6.534   0.987   1.313
 7633SOL    HW123798   6.632   0.985   1.295
 7633SOL    HW223799   6.499   0.893   1.316
 7634SOL     OW23800   0.190   2.610   0.321
 7634SOL    HW123801   0.173   2.595   0.419
 7634SOL    HW223802   0.103   2.607   0.271
 7635SOL     OW23803   2.590   3.767   5.639
 7635SOL    HW123804   2.652   3.835   5.678
 7635SOL    HW223805   2.575   3.694   5.706
 7636SOL     OW23806   6.983   4.212   4.274
 7636SOL    HW123807   6.924   4.154   4.218
 7636SOL    HW223808   0.022   4.272   4.215
 7637SOL     OW23809   1.093   5.993   4.749
 7637SOL    HW123810   1.135   5.933   4.681
 7637SOL    HW223811   1.103   6.089   4.721
 7638SOL     OW23812   0.266   6.294   1.299
 7638SOL    HW123813   0.259   6.336   1.390
 7638SOL    HW223814   0.362   6.276   1.278
 7639SOL     OW23815   1.503   0.882   6.782
 7639SOL    HW123816   1.481   0.933   6.865
 7639SOL    HW223817   1.488   0.784   6.799
 7640SOL     OW23818   3.344   1.329   0.826
 7640SOL    HW123819   3.327   1.389   0.747
 7640SOL    HW223820   3.334   1.234   0.797
 7641SOL     OW23821   0.746   4.079   3.666
 7641SOL    HW123822   0.720   4.126   3.750
 7641SOL    HW223823   0.747   4.143   3.590
 7642SOL     OW23824   5.479   1.214   3.223
 7642SOL    HW123825   5.569   1.169   3.217
 7642SOL    HW223826   5.479   1.279   3.298
 7643SOL     OW23827   5.089   3.678   3.435
 7643SOL    HW123828   5.142   3.628   3.502
 7643SOL    HW223829   5.134   3.765   3.414
 7644SOL     OW23830   5.489   4.008   0.965
 7644SOL    HW123831   5.488   3.954   1.049
 7644SOL    HW223832   5.574   4.059   0.959
 7645SOL     OW23833   3.401   4.516   6.456
 7645SOL    HW123834   3.301   4.516   6.463
 7645SOL    HW223835   3.432   4.427   6.424
 7646SOL     OW23836   6.235   2.042   0.846
 7646SOL    HW123837   6.240   2.142   0.854
 7646SOL    HW223838   6.324   2.003   0.870
 7647SOL     OW23839   6.714   2.253   4.770
 7647SOL    HW123840   6.618   2.275   4.788
 7647SOL    HW223841   6.772   2.327   4.803
 7648SOL     OW23842   3.012   1.832   2.034
 7648SOL    HW123843   3.015   1.821   1.934
 7648SOL    HW223844   3.026   1.928   2.057
 7649SOL     OW23845   4.052   1.076   6.054
 7649SOL    HW123846   4.105   0.996   6.084
 7649SOL    HW223847   3.982   1.097   6.122
 7650SOL     OW23848   3.849   2.626   0.501
 7650SOL    HW123849   3.793   2.688   0.556
 7650SOL    HW223850   3.882   2.673   0.420
 7651SOL     OW23851   3.118   4.722   6.119
 7651SOL    HW123852   3.172   4.643   6.147
 7651SOL    HW223853   3.123   4.793   6.190
 7652SOL     OW23854   1.181   0.995   4.289
 7652SOL    HW123855   1.140   1.060   4.226
 7652SOL    HW223856   1.160   0.902   4.259
 7653SOL     OW23857   1.355   1.407   6.411
 7653SOL    HW123858   1.409   1.342   6.357
 7653SOL    HW223859   1.272   1.362   6.443
 7654SOL     OW23860   5.598   2.093   6.029
 7654SOL    HW123861   5.538   2.170   6.051
 7654SOL    HW223862   5.684   2.127   5.992
 7655SOL     OW23863   3.406   1.567   3.255
 7655SOL    HW123864   3.464   1.496   3.292
 7655SOL    HW223865   3.318   1.567   3.303
 7656SOL     OW23866   6.739   3.248   6.591
 7656SOL    HW123867   6.784   3.189   6.523
 7656SOL    HW223868   6.742   3.343   6.560
 7657SOL     OW23869   0.918   4.298   4.632
 7657SOL    HW123870   0.938   4.392   4.658
 7657SOL    HW223871   0.987   4.237   4.673
 7658SOL     OW23872   2.393   0.949   1.022
 7658SOL    HW123873   2.453   0.977   1.097
 7658SOL    HW223874   2.396   0.850   1.012
 7659SOL     OW23875   5.160   3.908   5.852
 7659SOL    HW123876   5.133   3.920   5.756
 7659SOL    HW223877   5.211   3.988   5.883
 7660SOL     OW23878   6.924   5.157   5.208
 7660SOL    HW123879   6.833   5.191   5.231
 7660SOL    HW223880   6.915   5.079   5.146
 7661SOL     OW23881   4.226   1.646   5.558
 7661SOL    HW123882   4.278   1.730   5.569
 7661SOL    HW223883   4.163   1.656   5.481
 7662SOL     OW23884   6.439   0.110   1.500
 7662SOL    HW123885   6.435   0.161   1.414
 7662SOL    HW223886   6.393   0.164   1.572
 7663SOL     OW23887   0.262   5.497   5.394
 7663SOL    HW123888   0.300   5.430   5.331
 7663SOL    HW223889   0.180   5.538   5.353
 7664SOL     OW23890   3.988   2.231   1.908
 7664SOL    HW123891   3.894   2.224   1.942
 7664SOL    HW223892   4.048   2.261   1.982
 7665SOL     OW23893   4.128   0.087   5.683
 7665SOL    HW123894   4.101   0.146   5.607
 7665SOL    HW223895   4.049   0.071   5.742
 7666SOL     OW23896   5.254   4.701   3.511
 7666SOL    HW123897   5.188   4.662   3.576
 7666SOL    HW223898   5.232   4.797   3.495
 7667SOL     OW23899   3.890   5.887   1.922
 7667SOL    HW123900   3.933   5.929   1.843
 7667SOL    HW223901   3.952   5.819   1.962
 7668SOL     OW23902   2.240   5.908   0.879
 7668SOL    HW123903   2.220   5.977   0.810
 7668SOL    HW223904   2.335   5.916   0.909
 7669SOL     OW23905   2.206   1.086   5.926
 7669SOL    HW123906   2.108   1.089   5.946
 7669SOL    HW223907   2.257   1.106   6.010
 7670SOL     OW23908   0.672   6.958   0.753
 7670SOL    HW123909   0.580   6.988   0.730
 7670SOL    HW223910   0.685   6.863   0.724
 7671SOL     OW23911   3.362   0.236   0.973
 7671SOL    HW123912   3.287   0.294   0.941
 7671SOL    HW223913   3.447   0.287   0.971
 7672SOL     OW23914   4.847   4.956   2.747
 7672SOL    HW123915   4.931   4.904   2.765
 7672SOL    HW223916   4.778   4.931   2.814
 7673SOL     OW23917   1.516   6.069   4.063
 7673SOL    HW123918   1.544   6.165   4.054
 7673SOL    HW223919   1.580   6.021   4.123
 7674SOL     OW23920   4.637   6.158   4.271
 7674SOL    HW123921   4.550   6.162   4.221
 7674SOL    HW223922   4.643   6.071   4.320
 7675SOL     OW23923   5.176   6.185   3.393
 7675SOL    HW123924   5.218   6.218   3.478
 7675SOL    HW223925   5.082   6.219   3.389
 7676SOL     OW23926   3.413   2.854   5.682
 7676SOL    HW123927   3.404   2.873   5.780
 7676SOL    HW223928   3.333   2.890   5.634
 7677SOL     OW23929   6.346   4.706   0.325
 7677SOL    HW123930   6.416   4.719   0.396
 7677SOL    HW223931   6.381   4.738   0.237
 7678SOL     OW23932   1.743   0.989   5.123
 7678SOL    HW123933   1.762   0.979   5.026
 7678SOL    HW223934   1.774   1.079   5.155
 7679SOL     OW23935   3.281   5.469   5.441
 7679SOL    HW123936   3.255   5.546   5.500
 7679SOL    HW223937   3.379   5.472   5.425
 7680SOL     OW23938   2.097   0.189   4.752
 7680SOL    HW123939   1.998   0.188   4.739
 7680SOL    HW223940   2.121   0.134   4.832
 7681SOL     OW23941   2.733   3.573   6.251
 7681SOL    HW123942   2.778   3.484   6.264
 7681SOL    HW223943   2.635   3.559   6.240
 7682SOL     OW23944   3.305   1.046   2.853
 7682SOL    HW123945   3.339   1.099   2.931
 7682SOL    HW223946   3.212   1.016   2.871
 7683SOL     OW23947   0.512   5.323   4.315
 7683SOL    HW123948   0.425   5.292   4.355
 7683SOL    HW223949   0.575   5.347   4.388
 7684SOL     OW23950   4.850   3.350   1.101
 7684SOL    HW123951   4.853   3.270   1.162
 7684SOL    HW223952   4.756   3.365   1.071
 7685SOL     OW23953   2.722   0.374   0.344
 7685SOL    HW123954   2.644   0.351   0.286
 7685SOL    HW223955   2.715   0.324   0.431
 7686SOL     OW23956   6.129   0.033   4.843
 7686SOL    HW123957   6.145   6.992   4.925
 7686SOL    HW223958   6.040   0.009   4.804
 7687SOL     OW23959   5.801   4.417   6.210
 7687SOL    HW123960   5.777   4.348   6.279
 7687SOL    HW223961   5.852   4.373   6.136
 7688SOL     OW23962   0.262   3.975   6.433
 7688SOL    HW123963   0.265   3.885   6.475
 7688SOL    HW223964   0.178   4.022   6.460
 7689SOL     OW23965   4.507   0.783   1.399
 7689SOL    HW123966   4.589   0.727   1.383
 7689SOL    HW223967   4.524   0.845   1.476
 7690SOL     OW23968   5.663   5.633   1.342
 7690SOL    HW123969   5.757   5.644   1.373
 7690SOL    HW223970   5.608   5.711   1.373
 7691SOL     OW23971   4.914   3.948   3.270
 7691SOL    HW123972   4.864   3.864   3.247
 7691SOL    HW223973   5.012   3.931   3.263
 7692SOL     OW23974   2.827   0.379   2.817
 7692SOL    HW123975   2.908   0.338   2.858
 7692SOL    HW223976   2.777   0.309   2.766
 7693SOL     OW23977   2.082   0.904   1.349
 7693SOL    HW123978   2.145   0.942   1.417
 7693SOL    HW223979   2.089   0.957   1.264
 7694SOL     OW23980   5.034   1.395   5.317
 7694SOL    HW123981   5.061   1.486   5.348
 7694SOL    HW223982   4.934   1.390   5.311
 7695SOL     OW23983   4.572   0.420   3.897
 7695SOL    HW123984   4.528   0.505   3.925
 7695SOL    HW223985   4.502   0.352   3.875
 7696SOL     OW23986   1.586   2.733   5.515
 7696SOL    HW123987   1.511   2.797   5.495
 7696SOL    HW223988   1.656   2.780   5.568
 7697SOL     OW23989   5.131   6.776   3.001
 7697SOL    HW123990   5.032   6.773   2.995
 7697SOL    HW223991   5.164   6.862   2.962
 7698SOL     OW23992   6.185   3.149   0.837
 7698SOL    HW123993   6.267   3.101   0.806
 7698SOL    HW223994   6.201   3.248   0.833
 7699SOL     OW23995   4.792   5.639   5.940
 7699SOL    HW123996   4.861   5.678   6.001
 7699SOL    HW223997   4.751   5.713   5.886
 7700SOL     OW23998   4.936   6.268   2.687
 7700SOL    HW123999   4.988   6.187   2.714
 7700SOL    HW224000   4.903   6.255   2.593
 7701SOL     OW24001   1.354   2.144   6.298
 7701SOL    HW124002   1.432   2.207   6.303
 7701SOL    HW224003   1.328   2.116   6.391
 7702SOL     OW24004   4.276   6.840   4.395
 7702SOL    HW124005   4.250   6.891   4.312
 7702SOL    HW224006   4.376   6.837   4.402
 7703SOL     OW24007   6.239   6.949   5.376
 7703SOL    HW124008   6.187   0.015   5.346
 7703SOL    HW224009   6.327   6.948   5.329
 7704SOL     OW24010   0.517   1.479   5.021
 7704SOL    HW124011   0.559   1.554   4.971
 7704SOL    HW224012   0.420   1.496   5.033
 7705SOL     OW24013   1.107   5.061   6.531
 7705SOL    HW124014   1.062   4.982   6.490
 7705SOL    HW224015   1.039   5.133   6.548
 7706SOL     OW24016   3.134   2.887   1.984
 7706SOL    HW124017   3.154   2.984   1.973
 7706SOL    HW224018   3.101   2.849   1.897
 7707SOL     OW24019   6.951   4.052   6.488
 7707SOL    HW124020   6.957   4.077   6.391
 7707SOL    HW224021   6.879   3.984   6.501
 7708SOL     OW24022   2.180   0.350   4.348
 7708SOL    HW124023   2.177   0.440   4.393
 7708SOL    HW224024   2.270   0.337   4.307
 7709SOL     OW24025   0.015   4.761   1.733
 7709SOL    HW124026   0.018   4.756   1.633
 7709SOL    HW224027   0.101   4.725   1.770
 7710SOL     OW24028   0.083   3.150   1.406
 7710SOL    HW124029   0.139   3.068   1.420
 7710SOL    HW224030   7.008   3.124   1.370
 7711SOL     OW24031   6.784   4.762   4.738
 7711SOL    HW124032   6.765   4.814   4.821
 7711SOL    HW224033   6.811   4.825   4.665
 7712SOL     OW24034   0.430   5.127   5.552
 7712SOL    HW124035   0.351   5.100   5.496
 7712SOL    HW224036   0.513   5.092   5.510
 7713SOL     OW24037   1.205   4.367   0.112
 7713SOL    HW124038   1.277   4.417   0.160
 7713SOL    HW224039   1.197   4.402   0.018
 7714SOL     OW24040   6.746   1.548   4.643
 7714SOL    HW124041   6.669   1.490   4.669
 7714SOL    HW224042   6.819   1.492   4.604
 7715SOL     OW24043   3.775   3.218   5.427
 7715SOL    HW124044   3.784   3.313   5.397
 7715SOL    HW224045   3.694   3.177   5.384
 7716SOL     OW24046   1.142   6.300   6.349
 7716SOL    HW124047   1.158   6.398   6.332
 7716SOL    HW224048   1.201   6.246   6.289
 7717SOL     OW24049   0.409   2.123   6.256
 7717SOL    HW124050   0.329   2.137   6.315
 7717SOL    HW224051   0.444   2.030   6.268
 7718SOL     OW24052   1.028   3.566   3.105
 7718SOL    HW124053   0.975   3.612   3.176
 7718SOL    HW224054   1.023   3.467   3.118
 7719SOL     OW24055   2.104   5.148   4.726
 7719SOL    HW124056   2.131   5.116   4.816
 7719SOL    HW224057   2.085   5.070   4.667
 7720SOL     OW24058   4.580   1.167   6.663
 7720SOL    HW124059   4.631   1.185   6.748
 7720SOL    HW224060   4.538   1.252   6.631
 7721SOL     OW24061   0.429   0.087   2.378
 7721SOL    HW124062   0.441   7.004   2.397
 7721SOL    HW224063   0.339   0.116   2.409
 7722SOL     OW24064   0.823   5.862   3.842
 7722SOL    HW124065   0.817   5.765   3.865
 7722SOL    HW224066   0.872   5.873   3.755
 7723SOL     OW24067   4.906   4.063   6.928
 7723SOL    HW124068   4.918   4.158   6.958
 7723SOL    HW224069   4.918   4.002   7.006
 7724SOL     OW24070   1.946   3.497   1.641
 7724SOL    HW124071   1.942   3.552   1.558
 7724SOL    HW224072   2.022   3.433   1.636
 7725SOL     OW24073   5.056   3.150   3.506
 7725SOL    HW124074   5.127   3.179   3.571
 7725SOL    HW224075   5.007   3.231   3.473
 7726SOL     OW24076   1.074   3.596   5.427
 7726SOL    HW124077   1.070   3.648   5.512
 7726SOL    HW224078   1.107   3.655   5.354
 7727SOL     OW24079   4.243   1.069   2.233
 7727SOL    HW124080   4.248   0.999   2.305
 7727SOL    HW224081   4.293   1.038   2.152
 7728SOL     OW24082   1.828   3.810   4.797
 7728SOL    HW124083   1.806   3.890   4.741
 7728SOL    HW224084   1.900   3.834   4.862
 7729SOL     OW24085   6.979   1.603   3.550
 7729SOL    HW124086   0.049   1.618   3.601
 7729SOL    HW224087   6.979   1.659   3.467
 7730SOL     OW24088   6.350   4.335   5.041
 7730SOL    HW124089   6.294   4.359   5.120
 7730SOL    HW224090   6.442   4.370   5.054
 7731SOL     OW24091   6.850   6.643   6.327
 7731SOL    HW124092   6.946   6.656   6.354
 7731SOL    HW224093   6.813   6.562   6.374
 7732SOL     OW24094   3.363   6.761   6.558
 7732SOL    HW124095   3.428   6.722   6.623
 7732SOL    HW224096   3.413   6.801   6.480
 7733SOL     OW24097   6.163   5.713   1.708
 7733SOL    HW124098   6.238   5.710   1.775
 7733SOL    HW224099   6.172   5.797   1.653
 7734SOL     OW24100   3.499   3.443   4.726
 7734SOL    HW124101   3.411   3.396   4.721
 7734SOL    HW224102   3.531   3.444   4.821
 7735SOL     OW24103   0.036   6.215   0.697
 7735SOL    HW124104   0.032   6.315   0.706
 7735SOL    HW224105   0.024   6.174   0.788
 7736SOL     OW24106   1.750   2.766   6.785
 7736SOL    HW124107   1.685   2.738   6.715
 7736SOL    HW224108   1.822   2.696   6.793
 7737SOL     OW24109   4.193   4.871   0.810
 7737SOL    HW124110   4.289   4.871   0.841
 7737SOL    HW224111   4.152   4.783   0.831
 7738SOL     OW24112   2.771   0.400   5.638
 7738SOL    HW124113   2.685   0.421   5.684
 7738SOL    HW224114   2.773   0.444   5.548
 7739SOL     OW24115   1.919   1.816   0.805
 7739SOL    HW124116   1.929   1.912   0.830
 7739SOL    HW224117   1.857   1.771   0.868
 7740SOL     OW24118   1.938   0.164   5.031
 7740SOL    HW124119   1.992   0.193   5.110
 7740SOL    HW224120   1.894   0.243   4.989
 7741SOL     OW24121   1.208   4.330   6.222
 7741SOL    HW124122   1.286   4.292   6.173
 7741SOL    HW224123   1.136   4.261   6.229
 7742SOL     OW24124   4.765   1.880   4.222
 7742SOL    HW124125   4.668   1.856   4.216
 7742SOL    HW224126   4.775   1.962   4.278
 7743SOL     OW24127   4.688   1.945   5.672
 7743SOL    HW124128   4.650   1.918   5.584
 7743SOL    HW224129   4.785   1.923   5.676
 7744SOL     OW24130   1.146   6.624   4.586
 7744SOL    HW124131   1.172   6.648   4.680
 7744SOL    HW224132   1.170   6.698   4.524
 7745SOL     OW24133   2.864   6.887   0.738
 7745SOL    HW124134   2.870   6.954   0.663
 7745SOL    HW224135   2.787   6.825   0.720
 7746SOL     OW24136   1.001   5.856   0.454
 7746SOL    HW124137   1.046   5.944   0.441
 7746SOL    HW224138   0.949   5.858   0.539
 7747SOL     OW24139   1.249   5.993   0.697
 7747SOL    HW124140   1.180   6.016   0.629
 7747SOL    HW224141   1.274   6.074   0.749
 7748SOL     OW24142   4.719   2.179   6.020
 7748SOL    HW124143   4.741   2.082   6.008
 7748SOL    HW224144   4.797   2.234   5.992
 7749SOL     OW24145   3.728   3.838   4.175
 7749SOL    HW124146   3.667   3.780   4.230
 7749SOL    HW224147   3.687   3.928   4.164
 7750SOL     OW24148   5.316   3.958   5.606
 7750SOL    HW124149   5.391   3.945   5.672
 7750SOL    HW224150   5.336   4.037   5.549
 7751SOL     OW24151   6.836   1.123   4.783
 7751SOL    HW124152   6.931   1.093   4.775
 7751SOL    HW224153   6.806   1.160   4.695
 7752SOL     OW24154   6.391   5.755   5.382
 7752SOL    HW124155   6.463   5.701   5.426
 7752SOL    HW224156   6.374   5.720   5.290
 7753SOL     OW24157   3.127   1.330   4.878
 7753SOL    HW124158   3.033   1.364   4.886
 7753SOL    HW224159   3.176   1.386   4.811
 7754SOL     OW24160   6.304   0.895   1.631
 7754SOL    HW124161   6.214   0.909   1.672
 7754SOL    HW224162   6.312   0.800   1.601
 7755SOL     OW24163   1.163   5.844   5.229
 7755SOL    HW124164   1.118   5.869   5.315
 7755SOL    HW224165   1.159   5.921   5.165
 7756SOL     OW24166   3.645   5.764   2.557
 7756SOL    HW124167   3.735   5.731   2.531
 7756SOL    HW224168   3.622   5.729   2.648
 7757SOL     OW24169   4.767   6.391   6.178
 7757SOL    HW124170   4.783   6.317   6.112
 7757SOL    HW224171   4.723   6.353   6.260
 7758SOL     OW24172   2.717   2.012   5.593
 7758SOL    HW124173   2.719   1.957   5.509
 7758SOL    HW224174   2.646   2.081   5.586
 7759SOL     OW24175   2.112   0.707   5.377
 7759SOL    HW124176   2.093   0.764   5.457
 7759SOL    HW224177   2.038   0.715   5.311
 7760SOL     OW24178   4.492   2.512   2.426
 7760SOL    HW124179   4.514   2.560   2.341
 7760SOL    HW224180   4.481   2.414   2.406
 7761SOL     OW24181   3.988   0.098   6.790
 7761SOL    HW124182   3.983   0.048   6.704
 7761SOL    HW224183   4.023   0.037   6.862
 7762SOL     OW24184   2.680   2.145   0.949
 7762SOL    HW124185   2.740   2.111   0.877
 7762SOL    HW224186   2.586   2.113   0.931
 7763SOL     OW24187   2.233   1.558   0.932
 7763SOL    HW124188   2.201   1.645   0.970
 7763SOL    HW224189   2.184   1.540   0.846
 7764SOL     OW24190   3.271   2.900   3.223
 7764SOL    HW124191   3.244   2.812   3.182
 7764SOL    HW224192   3.194   2.963   3.220
 7765SOL     OW24193   0.111   2.206   2.504
 7765SOL    HW124194   0.047   2.130   2.492
 7765SOL    HW224195   0.066   2.279   2.556
 7766SOL     OW24196   6.891   2.929   6.969
 7766SOL    HW124197   6.799   2.941   7.007
 7766SOL    HW224198   6.941   2.862   0.010
 7767SOL     OW24199   5.294   4.168   5.408
 7767SOL    HW124200   5.216   4.194   5.350
 7767SOL    HW224201   5.379   4.175   5.354
 7768SOL     OW24202   3.474   5.116   2.252
 7768SOL    HW124203   3.391   5.164   2.281
 7768SOL    HW224204   3.516   5.071   2.332
 7769SOL     OW24205   6.130   2.006   1.908
 7769SOL    HW124206   6.042   1.958   1.908
 7769SOL    HW224207   6.121   2.091   1.857
 7770SOL     OW24208   3.876   5.501   1.282
 7770SOL    HW124209   3.939   5.515   1.206
 7770SOL    HW224210   3.790   5.549   1.263
 7771SOL     OW24211   2.269   1.265   5.268
 7771SOL    HW124212   2.334   1.209   5.217
 7771SOL    HW224213   2.290   1.261   5.366
 7772SOL     OW24214   5.438   1.634   4.720
 7772SOL    HW124215   5.516   1.676   4.673
 7772SOL    HW224216   5.364   1.618   4.655
 7773SOL     OW24217   3.692   4.606   5.357
 7773SOL    HW124218   3.658   4.555   5.278
 7773SOL    HW224219   3.670   4.556   5.441
 7774SOL     OW24220   4.328   1.368   6.062
 7774SOL    HW124221   4.366   1.346   6.151
 7774SOL    HW224222   4.335   1.467   6.047
 7775SOL     OW24223   3.268   0.128   2.466
 7775SOL    HW124224   3.245   0.102   2.372
 7775SOL    HW224225   3.290   0.225   2.469
 7776SOL     OW24226   3.846   3.627   0.086
 7776SOL    HW124227   3.838   3.705   0.147
 7776SOL    HW224228   3.755   3.593   0.062
 7777SOL     OW24229   1.829   0.980   0.079
 7777SOL    HW124230   1.807   0.884   0.092
 7777SOL    HW224231   1.879   0.992   7.007
 7778SOL     OW24232   5.772   0.773   0.683
 7778SOL    HW124233   5.676   0.796   0.669
 7778SOL    HW224234   5.828   0.825   0.617
 7779SOL     OW24235   3.865   3.480   6.431
 7779SOL    HW124236   3.878   3.546   6.505
 7779SOL    HW224237   3.771   3.443   6.435
 7780SOL     OW24238   1.447   0.163   4.627
 7780SOL    HW124239   1.524   0.204   4.577
 7780SOL    HW224240   1.392   0.110   4.563
 7781SOL     OW24241   1.332   4.913   4.915
 7781SOL    HW124242   1.279   4.870   4.842
 7781SOL    HW224243   1.421   4.942   4.880
 7782SOL     OW24244   3.135   4.380   6.702
 7782SOL    HW124245   3.171   4.301   6.653
 7782SOL    HW224246   3.145   4.367   6.800
 7783SOL     OW24247   2.800   5.295   6.189
 7783SOL    HW124248   2.749   5.302   6.103
 7783SOL    HW224249   2.833   5.385   6.216
 7784SOL     OW24250   0.483   2.452   6.981
 7784SOL    HW124251   0.524   2.407   6.902
 7784SOL    HW224252   0.458   2.546   6.956
 7785SOL     OW24253   2.660   5.827   4.287
 7785SOL    HW124254   2.658   5.903   4.222
 7785SOL    HW224255   2.724   5.847   4.361
 7786SOL     OW24256   3.297   4.026   4.726
 7786SOL    HW124257   3.217   3.966   4.722
 7786SOL    HW224258   3.358   4.006   4.649
 7787SOL     OW24259   2.685   2.391   5.395
 7787SOL    HW124260   2.588   2.416   5.394
 7787SOL    HW224261   2.734   2.444   5.327
 7788SOL     OW24262   0.710   1.490   0.183
 7788SOL    HW124263   0.788   1.447   0.229
 7788SOL    HW224264   0.676   1.564   0.240
 7789SOL     OW24265   2.462   0.125   0.878
 7789SOL    HW124266   2.528   0.049   0.880
 7789SOL    HW224267   2.500   0.204   0.926
 7790SOL     OW24268   6.036   3.752   2.749
 7790SOL    HW124269   6.073   3.662   2.773
 7790SOL    HW224270   6.105   3.822   2.766
 7791SOL     OW24271   1.689   5.370   4.818
 7791SOL    HW124272   1.761   5.365   4.749
 7791SOL    HW224273   1.682   5.282   4.865
 7792SOL     OW24274   2.712   5.456   5.945
 7792SOL    HW124275   2.734   5.537   5.890
 7792SOL    HW224276   2.616   5.431   5.930
 7793SOL     OW24277   0.783   1.109   6.433
 7793SOL    HW124278   0.857   1.080   6.495
 7793SOL    HW224279   0.719   1.033   6.421
 7794SOL     OW24280   5.514   5.552   3.725
 7794SOL    HW124281   5.514   5.588   3.632
 7794SOL    HW224282   5.560   5.463   3.726
 7795SOL     OW24283   2.235   5.009   5.404
 7795SOL    HW124284   2.225   4.943   5.478
 7795SOL    HW224285   2.278   5.092   5.439
 7796SOL     OW24286   4.010   3.094   3.814
 7796SOL    HW124287   3.935   3.059   3.871
 7796SOL    HW224288   4.080   3.135   3.873
 7797SOL     OW24289   0.767   0.032   2.588
 7797SOL    HW124290   0.848   0.031   2.646
 7797SOL    HW224291   0.698   6.985   2.626
 7798SOL     OW24292   4.126   5.113   0.078
 7798SOL    HW124293   4.151   5.065   7.008
 7798SOL    HW224294   4.103   5.046   0.149
 7799SOL     OW24295   6.892   4.927   1.100
 7799SOL    HW124296   6.845   4.997   1.152
 7799SOL    HW224297   6.840   4.841   1.104
 7800SOL     OW24298   0.799   5.778   2.118
 7800SOL    HW124299   0.709   5.787   2.162
 7800SOL    HW224300   0.798   5.698   2.058
 7801SOL     OW24301   4.025   1.786   6.468
 7801SOL    HW124302   3.965   1.758   6.393
 7801SOL    HW224303   4.117   1.803   6.433
 7802SOL     OW24304   5.999   2.251   1.551
 7802SOL    HW124305   5.984   2.159   1.512
 7802SOL    HW224306   5.930   2.314   1.515
 7803SOL     OW24307   3.973   4.123   5.649
 7803SOL    HW124308   3.891   4.079   5.687
 7803SOL    HW224309   3.985   4.093   5.554
 7804SOL     OW24310   4.815   1.514   6.233
 7804SOL    HW124311   4.844   1.486   6.142
 7804SOL    HW224312   4.768   1.602   6.228
 7805SOL     OW24313   5.050   3.596   1.856
 7805SOL    HW124314   5.092   3.619   1.943
 7805SOL    HW224315   5.008   3.505   1.862
 7806SOL     OW24316   5.157   2.783   6.917
 7806SOL    HW124317   5.105   2.829   6.989
 7806SOL    HW224318   5.152   2.837   6.833
 7807SOL     OW24319   0.242   3.670   6.635
 7807SOL    HW124320   0.236   3.571   6.651
 7807SOL    HW224321   0.181   3.717   6.699
 7808SOL     OW24322   0.636   1.404   5.265
 7808SOL    HW124323   0.729   1.372   5.253
 7808SOL    HW224324   0.601   1.439   5.178
 7809SOL     OW24325   1.831   5.343   5.150
 7809SOL    HW124326   1.887   5.365   5.230
 7809SOL    HW224327   1.860   5.398   5.073
 7810SOL     OW24328   2.832   1.407   6.808
 7810SOL    HW124329   2.821   1.338   6.736
 7810SOL    HW224330   2.834   1.362   6.897
 7811SOL     OW24331   6.966   4.293   3.947
 7811SOL    HW124332   0.013   4.266   3.872
 7811SOL    HW224333   6.872   4.270   3.923
 7812SOL     OW24334   1.514   1.621   3.500
 7812SOL    HW124335   1.421   1.584   3.501
 7812SOL    HW224336   1.510   1.720   3.515
 7813SOL     OW24337   6.358   2.908   0.801
 7813SOL    HW124338   6.428   2.872   0.862
 7813SOL    HW224339   6.291   2.837   0.781
 7814SOL     OW24340   0.566   3.903   3.387
 7814SOL    HW124341   0.502   3.862   3.452
 7814SOL    HW224342   0.656   3.912   3.431
 7815SOL     OW24343   6.818   1.961   6.451
 7815SOL    HW124344   6.742   2.026   6.463
 7815SOL    HW224345   6.784   1.877   6.409
 7816SOL     OW24346   1.287   4.262   4.914
 7816SOL    HW124347   1.347   4.214   4.978
 7816SOL    HW224348   1.221   4.317   4.964
 7817SOL     OW24349   5.469   3.780   4.525
 7817SOL    HW124350   5.538   3.853   4.523
 7817SOL    HW224351   5.438   3.766   4.619
 7818SOL     OW24352   5.143   5.340   2.481
 7818SOL    HW124353   5.217   5.276   2.503
 7818SOL    HW224354   5.068   5.291   2.437
 7819SOL     OW24355   6.662   1.341   1.523
 7819SOL    HW124356   6.661   1.281   1.604
 7819SOL    HW224357   6.652   1.436   1.552
 7820SOL     OW24358   1.939   0.535   6.269
 7820SOL    HW124359   1.880   0.593   6.324
 7820SOL    HW224360   1.884   0.475   6.212
 7821SOL     OW24361   3.164   5.202   1.490
 7821SOL    HW124362   3.173   5.115   1.539
 7821SOL    HW224363   3.131   5.186   1.397
 7822SOL     OW24364   1.651   5.883   4.828
 7822SOL    HW124365   1.741   5.918   4.801
 7822SOL    HW224366   1.642   5.787   4.801
 7823SOL     OW24367   1.608   4.463   4.920
 7823SOL    HW124368   1.596   4.443   5.017
 7823SOL    HW224369   1.634   4.558   4.908
 7824SOL     OW24370   0.550   3.024   5.628
 7824SOL    HW124371   0.547   3.115   5.669
 7824SOL    HW224372   0.535   3.032   5.529
 7825SOL     OW24373   2.812   1.444   6.395
 7825SOL    HW124374   2.852   1.452   6.486
 7825SOL    HW224375   2.828   1.529   6.344
 7826SOL     OW24376   1.108   3.210   6.367
 7826SOL    HW124377   1.076   3.134   6.310
 7826SOL    HW224378   1.196   3.242   6.333
 7827SOL     OW24379   6.522   5.460   5.002
 7827SOL    HW124380   6.618   5.461   5.031
 7827SOL    HW224381   6.516   5.436   4.906
 7828SOL     OW24382   0.804   5.110   0.363
 7828SOL    HW124383   0.810   5.086   0.266
 7828SOL    HW224384   0.889   5.154   0.391
 7829SOL     OW24385   3.673   3.157   0.783
 7829SOL    HW124386   3.600   3.123   0.723
 7829SOL    HW224387   3.755   3.175   0.730
 7830SOL     OW24388   2.789   5.400   3.938
 7830SOL    HW124389   2.746   5.478   3.892
 7830SOL    HW224390   2.826   5.337   3.870
 7831SOL     OW24391   1.757   0.698   0.064
 7831SOL    HW124392   1.696   0.665   7.007
 7831SOL    HW224393   1.819   0.625   0.093
 7832SOL     OW24394   6.482   0.653   4.746
 7832SOL    HW124395   6.445   0.635   4.837
 7832SOL    HW224396   6.427   0.723   4.700
 7833SOL     OW24397   1.689   0.419   3.417
 7833SOL    HW124398   1.725   0.328   3.437
 7833SOL    HW224399   1.734   0.486   3.477
 7834SOL     OW24400   6.573   3.674   4.889
 7834SOL    HW124401   6.596   3.723   4.805
 7834SOL    HW224402   6.629   3.708   4.965
 7835SOL     OW24403   4.030   2.518   5.430
 7835SOL    HW124404   4.072   2.534   5.340
 7835SOL    HW224405   4.099   2.531   5.501
 7836SOL     OW24406   3.237   3.543   4.154
 7836SOL    HW124407   3.257   3.527   4.057
 7836SOL    HW224408   3.150   3.592   4.162
 7837SOL     OW24409   0.076   6.016   0.513
 7837SOL    HW124410   0.173   6.033   0.498
 7837SOL    HW224411   0.040   6.084   0.578
 7838SOL     OW24412   4.744   5.804   2.027
 7838SOL    HW124413   4.715   5.863   1.952
 7838SOL    HW224414   4.710   5.711   2.012
 7839SOL     OW24415   5.850   3.015   4.463
 7839SOL    HW124416   5.930   2.956   4.455
 7839SOL    HW224417   5.832   3.035   4.560
 7840SOL     OW24418   1.823   3.106   4.476
 7840SOL    HW124419   1.777   3.018   4.490
 7840SOL    HW224420   1.921   3.092   4.470
 7841SOL     OW24421   4.215   1.888   6.153
 7841SOL    HW124422   4.277   1.954   6.112
 7841SOL    HW224423   4.144   1.863   6.087
 7842SOL     OW24424   1.505   0.433   2.046
 7842SOL    HW124425   1.554   0.383   1.975
 7842SOL    HW224426   1.569   0.491   2.096
 7843SOL     OW24427   0.033   6.132   3.444
 7843SOL    HW124428   6.968   6.194   3.441
 7843SOL    HW224429   0.040   6.091   3.535
 7844SOL     OW24430   4.219   1.287   2.523
 7844SOL    HW124431   4.139   1.322   2.572
 7844SOL    HW224432   4.226   1.331   2.434
 7845SOL     OW24433   0.000   2.955   1.113
 7845SOL    HW124434   6.944   3.014   1.153
 7845SOL    HW224435   6.996   2.860   1.136
 7846SOL     OW24436   0.948   1.639   0.646
 7846SOL    HW124437   0.896   1.577   0.705
 7846SOL    HW224438   1.044   1.611   0.644
 7847SOL     OW24439   5.534   3.907   5.754
 7847SOL    HW124440   5.604   3.854   5.706
 7847SOL    HW224441   5.502   3.856   5.834
 7848SOL     OW24442   3.281   4.108   1.218
 7848SOL    HW124443   3.229   4.191   1.198
 7848SOL    HW224444   3.273   4.044   1.141
 7849SOL     OW24445   4.890   4.375   0.186
 7849SOL    HW124446   4.826   4.301   0.203
 7849SOL    HW224447   4.849   4.441   0.122
 7850SOL     OW24448   0.211   1.206   3.806
 7850SOL    HW124449   0.166   1.184   3.719
 7850SOL    HW224450   0.310   1.207   3.793
 7851SOL     OW24451   0.150   4.902   1.484
 7851SOL    HW124452   0.245   4.912   1.513
 7851SOL    HW224453   0.138   4.812   1.441
 7852SOL     OW24454   1.154   2.959   6.623
 7852SOL    HW124455   1.248   2.986   6.645
 7852SOL    HW224456   1.125   3.006   6.539
 7853SOL     OW24457   3.876   2.940   1.990
 7853SOL    HW124458   3.947   2.870   1.997
 7853SOL    HW224459   3.918   3.029   1.977
 7854SOL     OW24460   4.933   1.837   6.584
 7854SOL    HW124461   4.854   1.876   6.537
 7854SOL    HW224462   4.938   1.739   6.565
 7855SOL     OW24463   5.137   0.360   4.517
 7855SOL    HW124464   5.135   0.449   4.563
 7855SOL    HW224465   5.164   0.290   4.583
 7856SOL     OW24466   2.311   6.388   4.521
 7856SOL    HW124467   2.348   6.397   4.614
 7856SOL    HW224468   2.214   6.412   4.522
 7857SOL     OW24469   6.211   4.981   1.385
 7857SOL    HW124470   6.273   5.004   1.310
 7857SOL    HW224471   6.190   4.883   1.383
 7858SOL     OW24472   0.430   4.289   6.608
 7858SOL    HW124473   0.359   4.287   6.537
 7858SOL    HW224474   0.390   4.323   6.693
 7859SOL     OW24475   5.482   2.880   0.433
 7859SOL    HW124476   5.466   2.961   0.375
 7859SOL    HW224477   5.407   2.816   0.420
 7860SOL     OW24478   2.880   1.025   4.670
 7860SOL    HW124479   2.886   1.037   4.571
 7860SOL    HW224480   2.795   1.066   4.703
 7861SOL     OW24481   2.223   6.046   0.423
 7861SOL    HW124482   2.166   6.105   0.366
 7861SOL    HW224483   2.312   6.034   0.379
 7862SOL     OW24484   2.300   5.794   0.094
 7862SOL    HW124485   2.256   5.880   0.071
 7862SOL    HW224486   2.368   5.810   0.166
 7863SOL     OW24487   0.295   3.934   3.612
 7863SOL    HW124488   0.338   3.845   3.596
 7863SOL    HW224489   0.211   3.922   3.665
 7864SOL     OW24490   2.070   5.883   5.254
 7864SOL    HW124491   2.106   5.871   5.162
 7864SOL    HW224492   2.135   5.936   5.309
 7865SOL     OW24493   5.558   4.754   3.493
 7865SOL    HW124494   5.610   4.745   3.578
 7865SOL    HW224495   5.462   4.773   3.514
 7866SOL     OW24496   6.808   0.150   6.149
 7866SOL    HW124497   6.727   0.193   6.109
 7866SOL    HW224498   6.782   0.098   6.230
 7867SOL     OW24499   4.779   5.123   3.750
 7867SOL    HW124500   4.837   5.131   3.832
 7867SOL    HW224501   4.733   5.210   3.734
 7868SOL     OW24502   3.050   6.142   1.533
 7868SOL    HW124503   3.062   6.043   1.537
 7868SOL    HW224504   2.970   6.165   1.477
 7869SOL     OW24505   5.869   4.749   6.354
 7869SOL    HW124506   5.798   4.756   6.283
 7869SOL    HW224507   5.914   4.660   6.346
 7870SOL     OW24508   5.644   5.718   4.512
 7870SOL    HW124509   5.731   5.767   4.509
 7870SOL    HW224510   5.569   5.783   4.507
 7871SOL     OW24511   5.678   1.807   1.299
 7871SOL    HW124512   5.721   1.787   1.211
 7871SOL    HW224513   5.602   1.743   1.314
 7872SOL     OW24514   1.289   5.721   2.843
 7872SOL    HW124515   1.259   5.787   2.912
 7872SOL    HW224516   1.259   5.752   2.753
 7873SOL     OW24517   5.344   2.023   0.081
 7873SOL    HW124518   5.436   2.058   0.103
 7873SOL    HW224519   5.351   1.929   0.048
 7874SOL     OW24520   5.692   2.980   0.550
 7874SOL    HW124521   5.612   2.944   0.501
 7874SOL    HW224522   5.749   3.032   0.487
 7875SOL     OW24523   6.245   4.797   6.517
 7875SOL    HW124524   6.147   4.816   6.524
 7875SOL    HW224525   6.290   4.871   6.467
 7876SOL     OW24526   1.336   0.029   3.656
 7876SOL    HW124527   1.249   6.996   3.642
 7876SOL    HW224528   1.390   6.994   3.724
 7877SOL     OW24529   0.126   2.436   3.043
 7877SOL    HW124530   0.106   2.512   2.981
 7877SOL    HW224531   0.064   2.360   3.024
 7878SOL     OW24532   4.525   4.716   3.034
 7878SOL    HW124533   4.552   4.656   3.109
 7878SOL    HW224534   4.467   4.665   2.970
 7879SOL     OW24535   3.168   4.937   2.681
 7879SOL    HW124536   3.166   5.007   2.753
 7879SOL    HW224537   3.226   4.861   2.710
 7880SOL     OW24538   1.373   4.338   2.262
 7880SOL    HW124539   1.385   4.415   2.199
 7880SOL    HW224540   1.367   4.253   2.210
 7881SOL     OW24541   4.905   4.333   3.863
 7881SOL    HW124542   4.927   4.260   3.928
 7881SOL    HW224543   4.806   4.333   3.846
 7882SOL     OW24544   1.189   3.511   6.957
 7882SOL    HW124545   1.205   3.417   6.929
 7882SOL    HW224546   1.101   3.518   7.005
 7883SOL     OW24547   1.125   0.125   5.230
 7883SOL    HW124548   1.114   0.130   5.131
 7883SOL    HW224549   1.082   0.205   5.272
 7884SOL     OW24550   0.740   2.974   4.554
 7884SOL    HW124551   0.660   3.011   4.507
 7884SOL    HW224552   0.789   2.912   4.493
 7885SOL     OW24553   6.716   6.134   6.426
 7885SOL    HW124554   6.780   6.137   6.502
 7885SOL    HW224555   6.623   6.148   6.460
 7886SOL     OW24556   5.106   4.775   0.407
 7886SOL    HW124557   5.051   4.833   0.467
 7886SOL    HW224558   5.057   4.760   0.321
 7887SOL     OW24559   4.156   2.732   6.012
 7887SOL    HW124560   4.172   2.808   5.948
 7887SOL    HW224561   4.219   2.741   6.090
 7888SOL     OW24562   4.795   0.307   4.688
 7888SOL    HW124563   4.885   0.345   4.667
 7888SOL    HW224564   4.741   0.375   4.737
 7889SOL     OW24565   0.739   5.441   2.407
 7889SOL    HW124566   0.828   5.457   2.449
 7889SOL    HW224567   0.752   5.412   2.312
 7890SOL     OW24568   1.839   2.904   2.520
 7890SOL    HW124569   1.880   2.995   2.520
 7890SOL    HW224570   1.897   2.841   2.570
 7891SOL     OW24571   1.334   4.941   3.051
 7891SOL    HW124572   1.242   4.966   3.022
 7891SOL    HW224573   1.333   4.918   3.149
 7892SOL     OW24574   2.345   2.937   5.643
 7892SOL    HW124575   2.276   2.915   5.712
 7892SOL    HW224576   2.391   2.852   5.615
 7893SOL     OW24577   6.099   6.680   1.854
 7893SOL    HW124578   6.019   6.711   1.802
 7893SOL    HW224579   6.181   6.691   1.799
 7894SOL     OW24580   3.149   0.686   1.849
 7894SOL    HW124581   3.163   0.780   1.819
 7894SOL    HW224582   3.160   0.624   1.771
 7895SOL     OW24583   6.743   1.625   3.277
 7895SOL    HW124584   6.827   1.679   3.272
 7895SOL    HW224585   6.667   1.685   3.303
 7896SOL     OW24586   4.022   1.866   5.954
 7896SOL    HW124587   3.935   1.880   6.002
 7896SOL    HW224588   4.018   1.780   5.903
 7897SOL     OW24589   2.714   3.010   6.532
 7897SOL    HW124590   2.681   3.104   6.541
 7897SOL    HW224591   2.813   3.009   6.542
 7898SOL     OW24592   4.487   2.524   3.787
 7898SOL    HW124593   4.466   2.480   3.874
 7898SOL    HW224594   4.513   2.619   3.802
 7899SOL     OW24595   5.090   0.855   2.871
 7899SOL    HW124596   5.111   0.924   2.801
 7899SOL    HW224597   5.021   0.792   2.835
 7900SOL     OW24598   1.920   5.371   0.838
 7900SOL    HW124599   1.938   5.434   0.914
 7900SOL    HW224600   1.977   5.289   0.848
 7901SOL     OW24601   6.039   5.855   0.315
 7901SOL    HW124602   6.086   5.787   0.258
 7901SOL    HW224603   5.941   5.838   0.313
 7902SOL     OW24604   5.526   4.705   6.411
 7902SOL    HW124605   5.576   4.791   6.406
 7902SOL    HW224606   5.590   4.630   6.431
 7903SOL     OW24607   0.169   2.275   6.977
 7903SOL    HW124608   0.204   2.243   6.889
 7903SOL    HW224609   0.139   2.369   6.968
 7904SOL     OW24610   6.390   0.860   2.872
 7904SOL    HW124611   6.291   0.874   2.864
 7904SOL    HW224612   6.430   0.856   2.780
 7905SOL     OW24613   3.107   1.917   1.002
 7905SOL    HW124614   3.176   1.848   0.980
 7905SOL    HW224615   3.049   1.883   1.077
 7906SOL     OW24616   0.061   5.426   0.163
 7906SOL    HW124617   0.139   5.476   0.125
 7906SOL    HW224618   0.050   5.339   0.114
 7907SOL     OW24619   6.115   2.624   2.430
 7907SOL    HW124620   6.171   2.705   2.448
 7907SOL    HW224621   6.080   2.629   2.336
 7908SOL     OW24622   6.164   1.830   3.282
 7908SOL    HW124623   6.064   1.827   3.275
 7908SOL    HW224624   6.198   1.912   3.235
 7909SOL     OW24625   4.501   5.311   5.566
 7909SOL    HW124626   4.472   5.404   5.589
 7909SOL    HW224627   4.582   5.287   5.619
 7910SOL     OW24628   6.060   3.986   5.968
 7910SOL    HW124629   6.148   3.962   6.008
 7910SOL    HW224630   5.987   3.957   6.031
 7911SOL     OW24631   6.559   4.970   6.914
 7911SOL    HW124632   6.558   4.958   7.014
 7911SOL    HW224633   6.535   4.884   6.870
 7912SOL     OW24634   6.968   5.121   5.469
 7912SOL    HW124635   7.005   5.134   5.377
 7912SOL    HW224636   0.029   5.123   5.536
 7913SOL     OW24637   0.866   5.957   6.443
 7913SOL    HW124638   0.961   5.989   6.448
 7913SOL    HW224639   0.829   5.948   6.535
 7914SOL     OW24640   0.323   3.418   2.322
 7914SOL    HW124641   0.310   3.444   2.418
 7914SOL    HW224642   0.344   3.320   2.316
 7915SOL     OW24643   4.670   1.404   2.247
 7915SOL    HW124644   4.614   1.404   2.330
 7915SOL    HW224645   4.652   1.321   2.195
 7916SOL     OW24646   4.640   3.307   5.290
 7916SOL    HW124647   4.607   3.398   5.265
 7916SOL    HW224648   4.561   3.248   5.310
 7917SOL     OW24649   3.895   4.034   3.592
 7917SOL    HW124650   3.803   4.015   3.628
 7917SOL    HW224651   3.963   3.986   3.648
 7918SOL     OW24652   6.148   2.234   2.406
 7918SOL    HW124653   6.069   2.180   2.379
 7918SOL    HW224654   6.164   2.306   2.338
 7919SOL     OW24655   5.938   4.846   1.767
 7919SOL    HW124656   5.954   4.893   1.679
 7919SOL    HW224657   5.977   4.755   1.764
 7920SOL     OW24658   0.676   5.936   1.549
 7920SOL    HW124659   0.587   5.895   1.568
 7920SOL    HW224660   0.731   5.873   1.495
 7921SOL     OW24661   3.568   6.059   1.443
 7921SOL    HW124662   3.529   6.149   1.424
 7921SOL    HW224663   3.649   6.045   1.386
 7922SOL     OW24664   0.508   4.970   6.638
 7922SOL    HW124665   0.579   4.902   6.620
 7922SOL    HW224666   0.551   5.059   6.654
 7923SOL     OW24667   0.980   1.452   3.113
 7923SOL    HW124668   1.025   1.383   3.056
 7923SOL    HW224669   0.980   1.540   3.065
 7924SOL     OW24670   2.221   0.610   3.711
 7924SOL    HW124671   2.129   0.572   3.708
 7924SOL    HW224672   2.258   0.601   3.804
 7925SOL     OW24673   6.983   0.572   6.615
 7925SOL    HW124674   6.943   0.481   6.606
 7925SOL    HW224675   6.923   0.639   6.569
 7926SOL     OW24676   3.415   0.414   2.264
 7926SOL    HW124677   3.434   0.433   2.360
 7926SOL    HW224678   3.409   0.499   2.213
 7927SOL     OW24679   4.449   5.121   4.175
 7927SOL    HW124680   4.548   5.122   4.160
 7927SOL    HW224681   4.408   5.049   4.118
 7928SOL     OW24682   1.141   4.891   0.405
 7928SOL    HW124683   1.046   4.881   0.436
 7928SOL    HW224684   1.184   4.967   0.454
 7929SOL     OW24685   4.120   3.698   4.420
 7929SOL    HW124686   4.101   3.741   4.332
 7929SOL    HW224687   4.036   3.657   4.456
 7930SOL     OW24688   5.559   6.026   4.536
 7930SOL    HW124689   5.604   6.060   4.454
 7930SOL    HW224690   5.628   5.999   4.604
 7931SOL     OW24691   1.212   3.394   0.545
 7931SOL    HW124692   1.209   3.298   0.516
 7931SOL    HW224693   1.128   3.416   0.594
 7932SOL     OW24694   3.153   6.890   1.119
 7932SOL    HW124695   3.151   6.840   1.033
 7932SOL    HW224696   3.248   6.908   1.145
 7933SOL     OW24697   1.152   0.419   6.401
 7933SOL    HW124698   1.073   0.409   6.461
 7933SOL    HW224699   1.192   0.510   6.412
 7934SOL     OW24700   4.050   3.292   5.639
 7934SOL    HW124701   4.084   3.242   5.560
 7934SOL    HW224702   4.085   3.386   5.636
 7935SOL     OW24703   4.348   6.162   1.575
 7935SOL    HW124704   4.307   6.248   1.605
 7935SOL    HW224705   4.426   6.182   1.515
 7936SOL     OW24706   4.569   5.504   3.107
 7936SOL    HW124707   4.516   5.564   3.167
 7936SOL    HW224708   4.531   5.411   3.110
 7937SOL     OW24709   6.340   6.846   5.843
 7937SOL    HW124710   6.406   6.861   5.917
 7937SOL    HW224711   6.367   6.900   5.763
 7938SOL     OW24712   5.724   4.429   4.690
 7938SOL    HW124713   5.814   4.384   4.693
 7938SOL    HW224714   5.731   4.517   4.736
 7939SOL     OW24715   0.696   6.907   4.650
 7939SOL    HW124716   0.740   6.950   4.572
 7939SOL    HW224717   0.616   6.855   4.618
 7940SOL     OW24718   1.650   5.805   1.124
 7940SOL    HW124719   1.637   5.871   1.199
 7940SOL    HW224720   1.705   5.728   1.157
 7941SOL     OW24721   0.431   0.435   0.037
 7941SOL    HW124722   0.518   0.457   0.080
 7941SOL    HW224723   0.391   0.519   7.013
 7942SOL     OW24724   1.484   1.468   1.158
 7942SOL    HW124725   1.462   1.516   1.073
 7942SOL    HW224726   1.556   1.401   1.141
 7943SOL     OW24727   5.607   2.377   0.606
 7943SOL    HW124728   5.545   2.323   0.664
 7943SOL    HW224729   5.597   2.474   0.628
 7944SOL     OW24730   0.449   4.350   2.233
 7944SOL    HW124731   0.457   4.303   2.145
 7944SOL    HW224732   0.537   4.347   2.280
 7945SOL     OW24733   5.219   6.517   2.026
 7945SOL    HW124734   5.157   6.463   2.084
 7945SOL    HW224735   5.292   6.457   1.992
 7946SOL     OW24736   1.631   1.925   5.716
 7946SOL    HW124737   1.658   1.887   5.628
 7946SOL    HW224738   1.590   1.853   5.772
 7947SOL     OW24739   3.891   4.643   6.254
 7947SOL    HW124740   3.953   4.689   6.191
 7947SOL    HW224741   3.943   4.580   6.312
 7948SOL     OW24742   1.021   5.207   7.006
 7948SOL    HW124743   1.009   5.238   0.086
 7948SOL    HW224744   1.040   5.286   6.947
 7949SOL     OW24745   6.665   4.624   4.230
 7949SOL    HW124746   6.727   4.636   4.307
 7949SOL    HW224747   6.708   4.658   4.147
 7950SOL     OW24748   3.288   4.919   4.292
 7950SOL    HW124749   3.232   4.994   4.326
 7950SOL    HW224750   3.340   4.879   4.368
 7951SOL     OW24751   2.801   3.262   0.877
 7951SOL    HW124752   2.786   3.214   0.790
 7951SOL    HW224753   2.896   3.294   0.881
 7952SOL     OW24754   5.276   4.278   0.098
 7952SOL    HW124755   5.183   4.312   0.085
 7952SOL    HW224756   5.336   4.355   0.123
 7953SOL     OW24757   2.174   2.966   3.165
 7953SOL    HW124758   2.196   2.917   3.249
 7953SOL    HW224759   2.112   3.042   3.185
 7954SOL     OW24760   4.829   5.373   5.431
 7954SOL    HW124761   4.927   5.384   5.444
 7954SOL    HW224762   4.807   5.276   5.424
 7955SOL     OW24763   1.517   0.057   6.192
 7955SOL    HW124764   1.527   6.991   6.133
 7955SOL    HW224765   1.423   0.089   6.191
 7956SOL     OW24766   6.052   0.048   4.017
 7956SOL    HW124767   6.082   0.143   4.014
 7956SOL    HW224768   6.132   7.002   4.006
 7957SOL     OW24769   1.415   2.481   1.380
 7957SOL    HW124770   1.342   2.523   1.434
 7957SOL    HW224771   1.433   2.389   1.414
 7958SOL     OW24772   2.250   5.692   2.897
 7958SOL    HW124773   2.272   5.660   2.989
 7958SOL    HW224774   2.292   5.631   2.829
 7959SOL     OW24775   5.196   5.547   0.863
 7959SOL    HW124776   5.165   5.635   0.899
 7959SOL    HW224777   5.286   5.526   0.899
 7960SOL     OW24778   2.315   2.511   0.897
 7960SOL    HW124779   2.218   2.517   0.920
 7960SOL    HW224780   2.364   2.588   0.938
 7961SOL     OW24781   2.040   5.413   6.690
 7961SOL    HW124782   2.028   5.322   6.729
 7961SOL    HW224783   2.133   5.445   6.708
 7962SOL     OW24784   1.196   0.160   2.239
 7962SOL    HW124785   1.130   0.103   2.190
 7962SOL    HW224786   1.150   0.207   2.314
 7963SOL     OW24787   1.488   6.871   4.318
 7963SOL    HW124788   1.495   6.784   4.268
 7963SOL    HW224789   1.576   6.892   4.361
 7964SOL     OW24790   6.148   5.850   3.322
 7964SOL    HW124791   6.064   5.820   3.276
 7964SOL    HW224792   6.223   5.853   3.256
 7965SOL     OW24793   5.866   1.784   0.864
 7965SOL    HW124794   5.777   1.740   0.878
 7965SOL    HW224795   5.884   1.848   0.939
 7966SOL     OW24796   6.812   6.140   3.795
 7966SOL    HW124797   6.862   6.060   3.760
 7966SOL    HW224798   6.752   6.175   3.723
 7967SOL     OW24799   3.089   6.230   2.148
 7967SOL    HW124800   3.178   6.200   2.113
 7967SOL    HW224801   3.023   6.156   2.138
 7968SOL     OW24802   1.590   0.853   1.509
 7968SOL    HW124803   1.501   0.871   1.466
 7968SOL    HW224804   1.577   0.791   1.586
 7969SOL     OW24805   3.308   2.028   3.355
 7969SOL    HW124806   3.343   2.069   3.271
 7969SOL    HW224807   3.223   1.979   3.336
 7970SOL     OW24808   0.106   5.080   3.236
 7970SOL    HW124809   0.110   5.179   3.249
 7970SOL    HW224810   0.118   5.059   3.139
 7971SOL     OW24811   2.422   1.507   2.448
 7971SOL    HW124812   2.373   1.594   2.436
 7971SOL    HW224813   2.475   1.487   2.365
 7972SOL     OW24814   0.765   4.968   2.130
 7972SOL    HW124815   0.849   5.019   2.110
 7972SOL    HW224816   0.685   5.025   2.109
 7973SOL     OW24817   4.622   2.305   2.183
 7973SOL    HW124818   4.580   2.274   2.268
 7973SOL    HW224819   4.693   2.240   2.155
 7974SOL     OW24820   5.408   6.841   4.096
 7974SOL    HW124821   5.350   6.761   4.085
 7974SOL    HW224822   5.500   6.821   4.063
 7975SOL     OW24823   2.360   1.110   3.399
 7975SOL    HW124824   2.271   1.128   3.441
 7975SOL    HW224825   2.384   1.014   3.411
 7976SOL     OW24826   0.467   6.404   6.355
 7976SOL    HW124827   0.485   6.379   6.450
 7976SOL    HW224828   0.487   6.327   6.295
 7977SOL     OW24829   5.093   6.694   1.877
 7977SOL    HW124830   5.176   6.642   1.893
 7977SOL    HW224831   5.017   6.654   1.929
 7978SOL     OW24832   3.893   2.757   6.131
 7978SOL    HW124833   3.985   2.760   6.091
 7978SOL    HW224834   3.880   2.669   6.178
 7979SOL     OW24835   4.405   0.164   3.960
 7979SOL    HW124836   4.360   0.205   4.039
 7979SOL    HW224837   4.343   0.098   3.917
 7980SOL     OW24838   2.650   0.387   2.046
 7980SOL    HW124839   2.589   0.346   2.114
 7980SOL    HW224840   2.600   0.401   1.961
 7981SOL     OW24841   1.069   5.924   2.805
 7981SOL    HW124842   1.019   6.011   2.805
 7981SOL    HW224843   1.043   5.871   2.725
 7982SOL     OW24844   0.241   2.960   0.951
 7982SOL    HW124845   0.207   2.999   0.866
 7982SOL    HW224846   0.175   2.978   1.024
 7983SOL     OW24847   4.791   2.314   1.928
 7983SOL    HW124848   4.748   2.241   1.981
 7983SOL    HW224849   4.730   2.342   1.854
 7984SOL     OW24850   0.514   0.617   0.692
 7984SOL    HW124851   0.425   0.607   0.647
 7984SOL    HW224852   0.515   0.703   0.744
 7985SOL     OW24853   0.696   1.232   0.932
 7985SOL    HW124854   0.711   1.323   0.895
 7985SOL    HW224855   0.725   1.229   1.028
 7986SOL     OW24856   4.129   2.679   0.589
 7986SOL    HW124857   4.130   2.730   0.675
 7986SOL    HW224858   4.034   2.655   0.565
 7987SOL     OW24859   0.256   2.906   4.932
 7987SOL    HW124860   0.158   2.915   4.953
 7987SOL    HW224861   0.298   2.843   4.996
 7988SOL     OW24862   2.624   1.341   5.386
 7988SOL    HW124863   2.525   1.349   5.397
 7988SOL    HW224864   2.669   1.382   5.466
 7989SOL     OW24865   3.593   3.364   5.240
 7989SOL    HW124866   3.574   3.451   5.284
 7989SOL    HW224867   3.512   3.306   5.242
 7990SOL     OW24868   2.231   2.552   4.774
 7990SOL    HW124869   2.272   2.611   4.843
 7990SOL    HW224870   2.134   2.536   4.797
 7991SOL     OW24871   0.245   3.234   5.212
 7991SOL    HW124872   0.188   3.226   5.294
 7991SOL    HW224873   0.203   3.299   5.148
 7992SOL     OW24874   2.733   0.643   0.405
 7992SOL    HW124875   2.747   0.661   0.307
 7992SOL    HW224876   2.745   0.546   0.423
 7993SOL     OW24877   2.158   6.656   6.746
 7993SOL    HW124878   2.126   6.577   6.695
 7993SOL    HW224879   2.177   6.731   6.683
 7994SOL     OW24880   5.989   0.411   3.787
 7994SOL    HW124881   5.974   0.331   3.729
 7994SOL    HW224882   5.964   0.494   3.737
 7995SOL     OW24883   4.051   4.753   2.961
 7995SOL    HW124884   3.992   4.766   3.041
 7995SOL    HW224885   4.135   4.806   2.973
 7996SOL     OW24886   3.771   0.733   5.119
 7996SOL    HW124887   3.830   0.655   5.137
 7996SOL    HW224888   3.817   0.817   5.146
 7997SOL     OW24889   5.890   2.687   2.519
 7997SOL    HW124890   5.984   2.666   2.494
 7997SOL    HW224891   5.827   2.632   2.463
 7998SOL     OW24892   6.480   5.185   6.793
 7998SOL    HW124893   6.481   5.096   6.839
 7998SOL    HW224894   6.393   5.231   6.812
 7999SOL     OW24895   1.637   0.561   5.686
 7999SOL    HW124896   1.737   0.561   5.682
 7999SOL    HW224897   1.605   0.472   5.717
 8000SOL     OW24898   5.934   0.057   5.959
 8000SOL    HW124899   5.944   6.992   6.020
 8000SOL    HW224900   5.837   0.074   5.942
 8001SOL     OW24901   2.185   6.933   1.321
 8001SOL    HW124902   2.207   6.897   1.412
 8001SOL    HW224903   2.149   0.012   1.330
 8002SOL     OW24904   5.585   3.075   5.702
 8002SOL    HW124905   5.490   3.057   5.726
 8002SOL    HW224906   5.634   3.111   5.782
 8003SOL     OW24907   3.912   4.848   3.190
 8003SOL    HW124908   3.831   4.890   3.148
 8003SOL    HW224909   3.915   4.870   3.287
 8004SOL     OW24910   1.750   3.810   2.400
 8004SOL    HW124911   1.813   3.762   2.462
 8004SOL    HW224912   1.662   3.824   2.445
 8005SOL     OW24913   3.004   1.014   1.717
 8005SOL    HW124914   3.011   0.982   1.622
 8005SOL    HW224915   2.980   1.111   1.719
 8006SOL     OW24916   3.292   6.432   0.697
 8006SOL    HW124917   3.352   6.359   0.666
 8006SOL    HW224918   3.343   6.495   0.756
 8007SOL     OW24919   0.781   0.895   4.313
 8007SOL    HW124920   0.756   0.900   4.216
 8007SOL    HW224921   0.715   0.837   4.361
 8008SOL     OW24922   6.344   5.870   0.345
 8008SOL    HW124923   6.261   5.905   0.300
 8008SOL    HW224924   6.410   5.841   0.275
 8009SOL     OW24925   6.965   6.985   3.687
 8009SOL    HW124926   0.015   6.927   3.738
 8009SOL    HW224927   6.921   6.930   3.615
 8010SOL     OW24928   2.819   2.412   6.669
 8010SOL    HW124929   2.829   2.498   6.620
 8010SOL    HW224930   2.750   2.423   6.741
 8011SOL     OW24931   2.487   1.923   1.082
 8011SOL    HW124932   2.466   2.015   1.117
 8011SOL    HW224933   2.429   1.903   1.003
 8012SOL     OW24934   3.317   6.615   3.011
 8012SOL    HW124935   3.259   6.589   2.935
 8012SOL    HW224936   3.318   6.543   3.080
 8013SOL     OW24937   6.342   4.808   5.102
 8013SOL    HW124938   6.441   4.792   5.098
 8013SOL    HW224939   6.313   4.817   5.197
 8014SOL     OW24940   1.937   0.356   6.754
 8014SOL    HW124941   1.936   0.273   6.810
 8014SOL    HW224942   1.890   0.338   6.668
 8015SOL     OW24943   1.899   1.873   6.629
 8015SOL    HW124944   1.900   1.814   6.709
 8015SOL    HW224945   1.804   1.899   6.608
 8016SOL     OW24946   3.685   6.497   1.115
 8016SOL    HW124947   3.591   6.532   1.110
 8016SOL    HW224948   3.690   6.408   1.070
 8017SOL     OW24949   5.950   4.300   4.693
 8017SOL    HW124950   5.917   4.217   4.738
 8017SOL    HW224951   6.049   4.308   4.707
 8018SOL     OW24952   5.463   2.647   4.794
 8018SOL    HW124953   5.400   2.703   4.848
 8018SOL    HW224954   5.509   2.582   4.854
 8019SOL     OW24955   2.540   4.921   1.521
 8019SOL    HW124956   2.534   4.918   1.421
 8019SOL    HW224957   2.635   4.905   1.549
 8020SOL     OW24958   5.946   6.434   6.435
 8020SOL    HW124959   5.936   6.366   6.363
 8020SOL    HW224960   5.922   6.393   6.523
 8021SOL     OW24961   0.937   1.061   0.993
 8021SOL    HW124962   0.999   0.983   0.998
 8021SOL    HW224963   0.935   1.095   0.899
 8022SOL     OW24964   4.061   5.643   3.144
 8022SOL    HW124965   3.982   5.698   3.119
 8022SOL    HW224966   4.111   5.687   3.219
 8023SOL     OW24967   5.947   6.478   3.491
 8023SOL    HW124968   5.885   6.418   3.540
 8023SOL    HW224969   6.022   6.425   3.451
 8024SOL     OW24970   4.734   5.479   4.602
 8024SOL    HW124971   4.803   5.545   4.634
 8024SOL    HW224972   4.654   5.483   4.662
 8025SOL     OW24973   3.413   5.999   0.199
 8025SOL    HW124974   3.489   5.968   0.142
 8025SOL    HW224975   3.446   6.065   0.266
 8026SOL     OW24976   1.609   2.762   0.829
 8026SOL    HW124977   1.528   2.763   0.771
 8026SOL    HW224978   1.583   2.782   0.924
 8027SOL     OW24979   5.323   2.941   5.710
 8027SOL    HW124980   5.336   2.919   5.614
 8027SOL    HW224981   5.255   3.014   5.719
 8028SOL     OW24982   5.566   4.729   0.092
 8028SOL    HW124983   5.573   4.748   7.008
 8028SOL    HW224984   5.651   4.755   0.137
 8029SOL     OW24985   3.131   4.794   0.698
 8029SOL    HW124986   3.035   4.772   0.716
 8029SOL    HW224987   3.137   4.877   0.643
 8030SOL     OW24988   6.098   4.194   6.953
 8030SOL    HW124989   6.116   4.160   6.861
 8030SOL    HW224990   6.085   4.116   0.001
 8031SOL     OW24991   3.947   5.854   1.633
 8031SOL    HW124992   3.872   5.887   1.577
 8031SOL    HW224993   4.012   5.804   1.576
 8032SOL     OW24994   5.426   4.745   6.149
 8032SOL    HW124995   5.508   4.701   6.111
 8032SOL    HW224996   5.438   4.760   6.247
 8033SOL     OW24997   5.867   2.736   0.143
 8033SOL    HW124998   5.794   2.718   0.208
 8033SOL    HW224999   5.839   2.703   0.052
 8034SOL     OW25000   6.036   1.325   5.244
 8034SOL    HW125001   6.021   1.398   5.177
 8034SOL    HW225002   6.133   1.320   5.267
 8035SOL     OW25003   5.403   6.488   0.083
 8035SOL    HW125004   5.440   6.570   0.126
 8035SOL    HW225005   5.442   6.478   7.005
 8036SOL     OW25006   1.716   3.807   1.558
 8036SOL    HW125007   1.616   3.800   1.565
 8036SOL    HW225008   1.756   3.809   1.650
 8037SOL     OW25009   1.823   3.202   1.155
 8037SOL    HW125010   1.877   3.166   1.080
 8037SOL    HW225011   1.874   3.192   1.241
 8038SOL     OW25012   6.650   1.560   4.263
 8038SOL    HW125013   6.704   1.564   4.179
 8038SOL    HW225014   6.665   1.643   4.316
 8039SOL     OW25015   2.367   6.572   4.314
 8039SOL    HW125016   2.379   6.488   4.366
 8039SOL    HW225017   2.288   6.622   4.351
 8040SOL     OW25018   6.710   5.485   0.997
 8040SOL    HW125019   6.712   5.393   1.037
 8040SOL    HW225020   6.618   5.523   1.008
 8041SOL     OW25021   4.304   2.122   0.304
 8041SOL    HW125022   4.296   2.207   0.355
 8041SOL    HW225023   4.242   2.053   0.343
 8042SOL     OW25024   2.493   3.454   1.309
 8042SOL    HW125025   2.548   3.490   1.234
 8042SOL    HW225026   2.466   3.529   1.370
 8043SOL     OW25027   2.507   0.394   1.815
 8043SOL    HW125028   2.429   0.444   1.852
 8043SOL    HW225029   2.477   0.338   1.737
 8044SOL     OW25030   3.335   4.164   1.763
 8044SOL    HW125031   3.315   4.066   1.756
 8044SOL    HW225032   3.381   4.183   1.850
 8045SOL     OW25033   6.354   2.702   3.278
 8045SOL    HW125034   6.437   2.730   3.229
 8045SOL    HW225035   6.373   2.618   3.329
 8046SOL     OW25036   0.294   5.295   6.148
 8046SOL    HW125037   0.383   5.264   6.181
 8046SOL    HW225038   0.293   5.295   6.048
 8047SOL     OW25039   3.637   5.914   3.823
 8047SOL    HW125040   3.600   5.960   3.741
 8047SOL    HW225041   3.562   5.871   3.873
 8048SOL     OW25042   6.497   0.590   5.762
 8048SOL    HW125043   6.592   0.623   5.764
 8048SOL    HW225044   6.497   0.490   5.762
 8049SOL     OW25045   1.686   5.247   0.544
 8049SOL    HW125046   1.684   5.296   0.457
 8049SOL    HW225047   1.672   5.313   0.619
 8050SOL     OW25048   1.242   2.945   1.407
 8050SOL    HW125049   1.211   2.963   1.501
 8050SOL    HW225050   1.337   2.913   1.410
 8051SOL     OW25051   3.670   1.509   3.372
 8051SOL    HW125052   3.658   1.412   3.391
 8051SOL    HW225053   3.654   1.562   3.455
 8052SOL     OW25054   3.320   2.112   2.881
 8052SOL    HW125055   3.239   2.069   2.921
 8052SOL    HW225056   3.388   2.126   2.953
 8053SOL     OW25057   3.870   3.352   2.178
 8053SOL    HW125058   3.895   3.445   2.205
 8053SOL    HW225059   3.808   3.314   2.247
 8054SOL     OW25060   4.047   6.202   4.704
 8054SOL    HW125061   4.132   6.249   4.681
 8054SOL    HW225062   4.046   6.183   4.802
 8055SOL     OW25063   1.440   6.835   5.334
 8055SOL    HW125064   1.496   6.798   5.260
 8055SOL    HW225065   1.450   6.934   5.337
 8056SOL     OW25066   4.258   1.936   3.096
 8056SOL    HW125067   4.187   1.871   3.124
 8056SOL    HW225068   4.295   1.982   3.177
 8057SOL     OW25069   3.954   6.516   3.883
 8057SOL    HW125070   3.854   6.521   3.885
 8057SOL    HW225071   3.989   6.523   3.977
 8058SOL     OW25072   1.867   0.748   3.195
 8058SOL    HW125073   1.893   0.762   3.099
 8058SOL    HW225074   1.768   0.732   3.200
 8059SOL     OW25075   2.641   1.521   3.966
 8059SOL    HW125076   2.564   1.456   3.963
 8059SOL    HW225077   2.714   1.488   3.906
 8060SOL     OW25078   0.745   1.325   4.878
 8060SOL    HW125079   0.687   1.374   4.814
 8060SOL    HW225080   0.777   1.388   4.949
 8061SOL     OW25081   0.120   5.680   1.482
 8061SOL    HW125082   0.118   5.620   1.561
 8061SOL    HW225083   0.206   5.732   1.481
 8062SOL     OW25084   2.130   3.789   2.476
 8062SOL    HW125085   2.140   3.708   2.534
 8062SOL    HW225086   2.065   3.769   2.403
 8063SOL     OW25087   3.117   2.863   6.958
 8063SOL    HW125088   3.170   2.869   0.029
 8063SOL    HW225089   3.020   2.875   6.979
 8064SOL     OW25090   6.478   3.196   0.000
 8064SOL    HW125091   6.544   3.213   6.941
 8064SOL    HW225092   6.434   3.282   0.027
 8065SOL     OW25093   4.491   0.235   6.277
 8065SOL    HW125094   4.571   0.177   6.261
 8065SOL    HW225095   4.422   0.216   6.208
 8066SOL     OW25096   2.138   0.311   1.602
 8066SOL    HW125097   2.048   0.271   1.590
 8066SOL    HW225098   2.136   0.408   1.576
 8067SOL     OW25099   5.122   2.591   1.760
 8067SOL    HW125100   5.189   2.645   1.709
 8067SOL    HW225101   5.103   2.506   1.711
 8068SOL     OW25102   0.699   4.284   4.155
 8068SOL    HW125103   0.705   4.189   4.127
 8068SOL    HW225104   0.762   4.300   4.232
 8069SOL     OW25105   2.016   6.475   2.096
 8069SOL    HW125106   2.114   6.492   2.105
 8069SOL    HW225107   1.969   6.560   2.073
 8070SOL     OW25108   4.145   0.052   2.149
 8070SOL    HW125109   4.159   6.979   2.102
 8070SOL    HW225110   4.051   0.058   2.182
 8071SOL     OW25111   3.918   6.414   0.022
 8071SOL    HW125112   3.974   6.496   0.028
 8071SOL    HW225113   3.842   6.430   6.972
 8072SOL     OW25114   5.200   0.552   1.878
 8072SOL    HW125115   5.175   0.646   1.901
 8072SOL    HW225116   5.124   0.491   1.899
 8073SOL     OW25117   4.054   6.337   5.689
 8073SOL    HW125118   4.005   6.268   5.635
 8073SOL    HW225119   4.044   6.426   5.645
 8074SOL     OW25120   3.282   3.802   6.946
 8074SOL    HW125121   3.218   3.817   0.007
 8074SOL    HW225122   3.242   3.738   6.881
 8075SOL     OW25123   6.096   1.193   2.850
 8075SOL    HW125124   6.101   1.094   2.868
 8075SOL    HW225125   6.178   1.221   2.800
 8076SOL     OW25126   5.494   2.846   6.607
 8076SOL    HW125127   5.449   2.926   6.570
 8076SOL    HW225128   5.443   2.813   6.687
 8077SOL     OW25129   1.185   1.062   0.530
 8077SOL    HW125130   1.110   1.003   0.497
 8077SOL    HW225131   1.272   1.016   0.515
 8078SOL     OW25132   6.203   3.542   0.276
 8078SOL    HW125133   6.260   3.610   0.322
 8078SOL    HW225134   6.254   3.457   0.267
 8079SOL     OW25135   6.788   1.519   2.005
 8079SOL    HW125136   6.877   1.559   2.026
 8079SOL    HW225137   6.715   1.581   2.033
 8080SOL     OW25138   3.795   5.122   0.414
 8080SOL    HW125139   3.796   5.035   0.464
 8080SOL    HW225140   3.724   5.118   0.343
 8081SOL     OW25141   5.634   0.631   5.492
 8081SOL    HW125142   5.651   0.726   5.466
 8081SOL    HW225143   5.599   0.627   5.586
 8082SOL     OW25144   6.360   3.250   4.222
 8082SOL    HW125145   6.293   3.264   4.295
 8082SOL    HW225146   6.313   3.250   4.133
 8083SOL     OW25147   5.057   2.523   4.254
 8083SOL    HW125148   5.086   2.545   4.161
 8083SOL    HW225149   5.129   2.470   4.299
 8084SOL     OW25150   6.729   0.268   1.380
 8084SOL    HW125151   6.767   0.217   1.458
 8084SOL    HW225152   6.802   0.289   1.315
 8085SOL     OW25153   6.393   1.945   1.486
 8085SOL    HW125154   6.387   1.945   1.586
 8085SOL    HW225155   6.310   1.906   1.447
 8086SOL     OW25156   3.355   6.574   5.770
 8086SOL    HW125157   3.386   6.519   5.848
 8086SOL    HW225158   3.387   6.532   5.685
 8087SOL     OW25159   2.911   3.191   1.423
 8087SOL    HW125160   2.926   3.272   1.481
 8087SOL    HW225161   2.899   3.220   1.328
 8088SOL     OW25162   4.424   0.407   2.811
 8088SOL    HW125163   4.327   0.399   2.834
 8088SOL    HW225164   4.477   0.418   2.895
 8089SOL     OW25165   5.920   3.036   0.934
 8089SOL    HW125166   6.003   3.086   0.909
 8089SOL    HW225167   5.892   3.061   1.026
 8090SOL     OW25168   4.658   2.217   4.915
 8090SOL    HW125169   4.628   2.312   4.923
 8090SOL    HW225170   4.733   2.201   4.980
 8091SOL     OW25171   2.940   4.995   5.897
 8091SOL    HW125172   3.007   5.021   5.827
 8091SOL    HW225173   2.884   5.075   5.921
 8092SOL     OW25174   0.694   1.811   4.172
 8092SOL    HW125175   0.644   1.889   4.135
 8092SOL    HW225176   0.699   1.739   4.103
 8093SOL     OW25177   5.718   6.149   1.175
 8093SOL    HW125178   5.639   6.161   1.115
 8093SOL    HW225179   5.688   6.108   1.261
 8094SOL     OW25180   0.962   3.899   4.565
 8094SOL    HW125181   1.020   3.965   4.516
 8094SOL    HW225182   1.018   3.846   4.628
 8095SOL     OW25183   6.017   3.792   4.536
 8095SOL    HW125184   5.938   3.753   4.489
 8095SOL    HW225185   5.988   3.873   4.588
 8096SOL     OW25186   3.837   6.728   1.206
 8096SOL    HW125187   3.897   6.651   1.182
 8096SOL    HW225188   3.743   6.708   1.178
 8097SOL     OW25189   4.543   0.966   4.620
 8097SOL    HW125190   4.629   0.916   4.622
 8097SOL    HW225191   4.556   1.053   4.574
 8098SOL     OW25192   2.794   0.053   3.988
 8098SOL    HW125193   2.831   0.029   3.898
 8098SOL    HW225194   2.843   0.132   4.024
 8099SOL     OW25195   5.404   6.468   5.207
 8099SOL    HW125196   5.392   6.483   5.306
 8099SOL    HW225197   5.405   6.556   5.160
 8100SOL     OW25198   0.975   6.661   1.258
 8100SOL    HW125199   0.881   6.679   1.228
 8100SOL    HW225200   1.039   6.710   1.199
 8101SOL     OW25201   0.863   5.618   2.808
 8101SOL    HW125202   0.807   5.590   2.886
 8101SOL    HW225203   0.958   5.628   2.839
 8102SOL     OW25204   0.063   6.804   6.372
 8102SOL    HW125205   0.076   6.768   6.465
 8102SOL    HW225206   0.145   6.788   6.319
 8103SOL     OW25207   2.671   1.816   2.549
 8103SOL    HW125208   2.692   1.815   2.451
 8103SOL    HW225209   2.575   1.841   2.562
 8104SOL     OW25210   2.044   6.407   6.042
 8104SOL    HW125211   2.028   6.319   5.998
 8104SOL    HW225212   2.138   6.411   6.077
 8105SOL     OW25213   1.678   2.631   2.276
 8105SOL    HW125214   1.663   2.702   2.345
 8105SOL    HW225215   1.591   2.607   2.233
 8106SOL     OW25216   0.634   3.832   4.255
 8106SOL    HW125217   0.608   3.740   4.224
 8106SOL    HW225218   0.725   3.829   4.296
 8107SOL     OW25219   1.819   5.952   6.021
 8107SOL    HW125220   1.815   5.939   5.922
 8107SOL    HW225221   1.750   5.895   6.065
 8108SOL     OW25222   2.031   3.513   4.336
 8108SOL    HW125223   2.021   3.538   4.433
 8108SOL    HW225224   2.060   3.593   4.284
 8109SOL     OW25225   0.919   5.085   5.669
 8109SOL    HW125226   0.979   5.161   5.644
 8109SOL    HW225227   0.974   5.004   5.689
 8110SOL     OW25228   1.792   4.419   0.994
 8110SOL    HW125229   1.748   4.508   0.985
 8110SOL    HW225230   1.723   4.347   0.991
 8111SOL     OW25231   2.576   5.572   4.216
 8111SOL    HW125232   2.617   5.520   4.141
 8111SOL    HW225233   2.633   5.652   4.236
 8112SOL     OW25234   4.099   0.888   4.912
 8112SOL    HW125235   4.080   0.899   4.814
 8112SOL    HW225236   4.079   0.794   4.940
 8113SOL     OW25237   3.323   3.175   5.919
 8113SOL    HW125238   3.402   3.202   5.975
 8113SOL    HW225239   3.329   3.077   5.900
 8114SOL     OW25240   2.861   4.127   1.571
 8114SOL    HW125241   2.859   4.039   1.618
 8114SOL    HW225242   2.849   4.112   1.473
 8115SOL     OW25243   3.696   2.153   1.083
 8115SOL    HW125244   3.698   2.065   1.035
 8115SOL    HW225245   3.770   2.156   1.150
 8116SOL     OW25246   5.504   0.945   5.699
 8116SOL    HW125247   5.437   0.872   5.717
 8116SOL    HW225248   5.565   0.916   5.625
 8117SOL     OW25249   2.468   1.615   5.469
 8117SOL    HW125250   2.444   1.705   5.506
 8117SOL    HW225251   2.565   1.612   5.448
 8118SOL     OW25252   1.267   3.017   4.526
 8118SOL    HW125253   1.269   3.084   4.600
 8118SOL    HW225254   1.307   2.931   4.558
 8119SOL     OW25255   1.088   5.845   1.988
 8119SOL    HW125256   1.044   5.922   2.032
 8119SOL    HW225257   1.168   5.817   2.041
 8120SOL     OW25258   4.142   4.411   1.243
 8120SOL    HW125259   4.149   4.404   1.144
 8120SOL    HW225260   4.095   4.330   1.279
 8121SOL     OW25261   6.519   6.677   3.160
 8121SOL    HW125262   6.460   6.721   3.227
 8121SOL    HW225263   6.469   6.604   3.114
 8122SOL     OW25264   0.608   6.206   1.497
 8122SOL    HW125265   0.589   6.108   1.507
 8122SOL    HW225266   0.602   6.250   1.587
 8123SOL     OW25267   0.731   5.703   0.144
 8123SOL    HW125268   0.698   5.644   0.218
 8123SOL    HW225269   0.706   5.797   0.164
 8124SOL     OW25270   0.393   5.920   2.594
 8124SOL    HW125271   0.325   5.989   2.617
 8124SOL    HW225272   0.483   5.963   2.586
 8125SOL     OW25273   5.645   5.338   2.902
 8125SOL    HW125274   5.546   5.349   2.893
 8125SOL    HW225275   5.691   5.404   2.842
 8126SOL     OW25276   6.037   4.921   2.134
 8126SOL    HW125277   5.940   4.915   2.110
 8126SOL    HW225278   6.082   4.986   2.072
 8127SOL     OW25279   3.303   4.539   1.122
 8127SOL    HW125280   3.258   4.481   1.189
 8127SOL    HW225281   3.385   4.579   1.162
 8128SOL     OW25282   3.893   2.717   5.597
 8128SOL    HW125283   3.941   2.658   5.533
 8128SOL    HW225284   3.883   2.670   5.685
 8129SOL     OW25285   4.918   6.424   0.000
 8129SOL    HW125286   4.935   6.518   0.031
 8129SOL    HW225287   5.001   6.387   6.974
 8130SOL     OW25288   0.998   0.274   0.784
 8130SOL    HW125289   0.925   0.288   0.851
 8130SOL    HW225290   0.960   0.284   0.692
 8131SOL     OW25291   0.956   1.338   0.118
 8131SOL    HW125292   1.038   1.374   0.162
 8131SOL    HW225293   0.965   1.239   0.105
 8132SOL     OW25294   6.138   4.816   3.160
 8132SOL    HW125295   6.072   4.870   3.109
 8132SOL    HW225296   6.199   4.768   3.097
 8133SOL     OW25297   0.768   5.570   1.940
 8133SOL    HW125298   0.699   5.520   1.886
 8133SOL    HW225299   0.834   5.613   1.878
 8134SOL     OW25300   2.284   2.472   1.662
 8134SOL    HW125301   2.215   2.410   1.625
 8134SOL    HW225302   2.241   2.533   1.728
 8135SOL     OW25303   3.721   6.018   2.529
 8135SOL    HW125304   3.698   5.921   2.523
 8135SOL    HW225305   3.704   6.062   2.442
 8136SOL     OW25306   3.476   5.990   0.850
 8136SOL    HW125307   3.392   6.031   0.885
 8136SOL    HW225308   3.453   5.908   0.797
 8137SOL     OW25309   2.768   3.950   5.242
 8137SOL    HW125310   2.674   3.924   5.219
 8137SOL    HW225311   2.811   3.876   5.294
 8138SOL     OW25312   4.986   1.007   3.997
 8138SOL    HW125313   5.065   1.050   4.040
 8138SOL    HW225314   4.983   1.032   3.900
 8139SOL     OW25315   1.701   2.851   4.509
 8139SOL    HW125316   1.779   2.818   4.456
 8139SOL    HW225317   1.624   2.787   4.498
 8140SOL     OW25318   4.696   0.587   1.390
 8140SOL    HW125319   4.744   0.529   1.456
 8140SOL    HW225320   4.739   0.578   1.300
 8141SOL     OW25321   5.882   0.951   5.308
 8141SOL    HW125322   5.907   0.856   5.288
 8141SOL    HW225323   5.956   1.012   5.278
 8142SOL     OW25324   2.330   5.288   1.645
 8142SOL    HW125325   2.253   5.313   1.586
 8142SOL    HW225326   2.347   5.190   1.639
 8143SOL     OW25327   6.216   5.187   0.917
 8143SOL    HW125328   6.140   5.248   0.895
 8143SOL    HW225329   6.181   5.094   0.929
 8144SOL     OW25330   0.087   5.225   0.459
 8144SOL    HW125331   0.125   5.217   0.367
 8144SOL    HW225332   0.076   5.321   0.482
 8145SOL     OW25333   5.209   5.617   6.972
 8145SOL    HW125334   5.136   5.683   6.954
 8145SOL    HW225335   5.289   5.640   6.917
 8146SOL     OW25336   6.075   0.523   4.602
 8146SOL    HW125337   6.166   0.510   4.562
 8146SOL    HW225338   6.008   0.472   4.549
 8147SOL     OW25339   1.834   0.705   6.457
 8147SOL    HW125340   1.780   0.652   6.522
 8147SOL    HW225341   1.930   0.705   6.485
 8148SOL     OW25342   4.706   4.557   0.455
 8148SOL    HW125343   4.637   4.624   0.427
 8148SOL    HW225344   4.723   4.494   0.378
 8149SOL     OW25345   0.662   0.181   5.056
 8149SOL    HW125346   0.733   0.118   5.088
 8149SOL    HW225347   0.636   0.157   4.962
 8150SOL     OW25348   0.405   3.903   0.777
 8150SOL    HW125349   0.381   3.939   0.687
 8150SOL    HW225350   0.394   3.974   0.846
 8151SOL     OW25351   6.295   6.496   3.359
 8151SOL    HW125352   6.283   6.554   3.278
 8151SOL    HW225353   6.213   6.441   3.373
 8152SOL     OW25354   4.948   1.329   2.916
 8152SOL    HW125355   4.866   1.276   2.894
 8152SOL    HW225356   4.921   1.415   2.959
 8153SOL     OW25357   0.539   1.772   1.939
 8153SOL    HW125358   0.481   1.747   2.016
 8153SOL    HW225359   0.625   1.722   1.944
 8154SOL     OW25360   2.104   0.663   2.727
 8154SOL    HW125361   2.095   0.564   2.716
 8154SOL    HW225362   2.177   0.683   2.793
 8155SOL     OW25363   1.549   5.206   3.507
 8155SOL    HW125364   1.476   5.228   3.442
 8155SOL    HW225365   1.548   5.272   3.582
 8156SOL     OW25366   0.732   4.684   1.093
 8156SOL    HW125367   0.796   4.634   1.151
 8156SOL    HW225368   0.649   4.705   1.146
 8157SOL     OW25369   6.886   4.107   4.967
 8157SOL    HW125370   6.972   4.059   4.949
 8157SOL    HW225371   6.901   4.179   5.034
 8158SOL     OW25372   6.057   5.713   6.689
 8158SOL    HW125373   5.965   5.695   6.724
 8158SOL    HW225374   6.109   5.627   6.685
 8159SOL     OW25375   2.887   6.815   5.022
 8159SOL    HW125376   2.912   6.837   4.928
 8159SOL    HW225377   2.968   6.821   5.080
 8160SOL     OW25378   5.665   1.400   1.979
 8160SOL    HW125379   5.751   1.395   2.030
 8160SOL    HW225380   5.659   1.323   1.916
 8161SOL     OW25381   5.826   3.447   1.708
 8161SOL    HW125382   5.891   3.414   1.777
 8161SOL    HW225383   5.734   3.416   1.731
 8162SOL     OW25384   0.387   5.306   5.234
 8162SOL    HW125385   0.365   5.341   5.143
 8162SOL    HW225386   0.439   5.221   5.225
 8163SOL     OW25387   4.210   4.510   5.471
 8163SOL    HW125388   4.160   4.427   5.498
 8163SOL    HW225389   4.292   4.520   5.527
 8164SOL     OW25390   5.467   1.848   1.053
 8164SOL    HW125391   5.413   1.863   1.136
 8164SOL    HW225392   5.413   1.875   0.973
 8165SOL     OW25393   0.227   1.227   0.297
 8165SOL    HW125394   0.253   1.314   0.340
 8165SOL    HW225395   0.137   1.199   0.331
 8166SOL     OW25396   1.569   1.621   5.727
 8166SOL    HW125397   1.518   1.569   5.796
 8166SOL    HW225398   1.505   1.654   5.657
 8167SOL     OW25399   1.734   3.211   3.947
 8167SOL    HW125400   1.650   3.190   3.896
 8167SOL    HW225401   1.744   3.147   4.023
 8168SOL     OW25402   1.404   0.732   2.211
 8168SOL    HW125403   1.434   0.824   2.190
 8168SOL    HW225404   1.314   0.715   2.170
 8169SOL     OW25405   5.007   3.002   0.373
 8169SOL    HW125406   4.964   3.092   0.371
 8169SOL    HW225407   4.941   2.934   0.404
 8170SOL     OW25408   6.767   4.893   2.327
 8170SOL    HW125409   6.766   4.992   2.317
 8170SOL    HW225410   6.682   4.863   2.371
 8171SOL     OW25411   2.410   1.363   0.209
 8171SOL    HW125412   2.367   1.320   0.289
 8171SOL    HW225413   2.368   1.452   0.193
 8172SOL     OW25414   1.150   2.753   0.543
 8172SOL    HW125415   1.185   2.746   0.636
 8172SOL    HW225416   1.218   2.795   0.484
 8173SOL     OW25417   5.794   1.187   1.551
 8173SOL    HW125418   5.804   1.273   1.503
 8173SOL    HW225419   5.795   1.111   1.486
 8174SOL     OW25420   2.966   5.876   3.109
 8174SOL    HW125421   3.017   5.850   3.027
 8174SOL    HW225422   2.925   5.966   3.096
 8175SOL     OW25423   0.214   1.570   5.479
 8175SOL    HW125424   0.164   1.497   5.431
 8175SOL    HW225425   0.175   1.582   5.571
 8176SOL     OW25426   2.249   4.564   0.522
 8176SOL    HW125427   2.303   4.485   0.549
 8176SOL    HW225428   2.207   4.547   0.433
 8177SOL     OW25429   3.192   1.224   4.257
 8177SOL    HW125430   3.176   1.134   4.298
 8177SOL    HW225431   3.106   1.274   4.251
 8178SOL     OW25432   3.059   6.509   1.488
 8178SOL    HW125433   3.021   6.601   1.488
 8178SOL    HW225434   2.992   6.444   1.523
 8179SOL     OW25435   5.618   0.792   3.364
 8179SOL    HW125436   5.577   0.706   3.392
 8179SOL    HW225437   5.620   0.856   3.441
 8180SOL     OW25438   4.538   6.595   0.140
 8180SOL    HW125439   4.577   6.545   0.063
 8180SOL    HW225440   4.589   6.572   0.223
 8181SOL     OW25441   0.029   0.376   0.436
 8181SOL    HW125442   0.088   0.457   0.439
 8181SOL    HW225443   6.947   0.404   0.437
 8182SOL     OW25444   3.092   3.515   4.480
 8182SOL    HW125445   3.080   3.603   4.435
 8182SOL    HW225446   3.019   3.453   4.451
 8183SOL     OW25447   6.785   0.511   5.494
 8183SOL    HW125448   6.869   0.460   5.510
 8183SOL    HW225449   6.709   0.466   5.541
 8184SOL     OW25450   0.432   5.653   6.849
 8184SOL    HW125451   0.475   5.743   6.849
 8184SOL    HW225452   0.339   5.660   6.811
 8185SOL     OW25453   0.722   6.445   5.949
 8185SOL    HW125454   0.771   6.406   6.027
 8185SOL    HW225455   0.660   6.376   5.911
 8186SOL     OW25456   1.921   5.367   6.391
 8186SOL    HW125457   1.888   5.273   6.386
 8186SOL    HW225458   2.021   5.367   6.391
 8187SOL     OW25459   0.644   0.778   5.774
 8187SOL    HW125460   0.561   0.816   5.813
 8187SOL    HW225461   0.724   0.821   5.816
 8188SOL     OW25462   1.839   2.939   3.046
 8188SOL    HW125463   1.800   3.003   2.981
 8188SOL    HW225464   1.807   2.962   3.138
 8189SOL     OW25465   5.696   5.047   3.883
 8189SOL    HW125466   5.728   4.959   3.920
 8189SOL    HW225467   5.633   5.030   3.807
 8190SOL     OW25468   0.018   4.192   2.798
 8190SOL    HW125469   6.947   4.167   2.753
 8190SOL    HW225470   0.083   4.116   2.790
 8191SOL     OW25471   4.162   5.402   0.680
 8191SOL    HW125472   4.159   5.374   0.776
 8191SOL    HW225473   4.167   5.321   0.622
 8192SOL     OW25474   0.315   6.273   3.716
 8192SOL    HW125475   0.312   6.231   3.807
 8192SOL    HW225476   0.381   6.224   3.659
 8193SOL     OW25477   0.710   4.956   4.418
 8193SOL    HW125478   0.794   4.920   4.376
 8193SOL    HW225479   0.630   4.917   4.372
 8194SOL     OW25480   4.497   6.573   2.134
 8194SOL    HW125481   4.538   6.636   2.067
 8194SOL    HW225482   4.429   6.515   2.088
 8195SOL     OW25483   6.101   6.314   3.360
 8195SOL    HW125484   6.137   6.220   3.357
 8195SOL    HW225485   6.040   6.329   3.283
 8196SOL     OW25486   5.174   1.349   1.577
 8196SOL    HW125487   5.122   1.337   1.493
 8196SOL    HW225488   5.248   1.414   1.562
 8197SOL     OW25489   3.724   1.897   2.623
 8197SOL    HW125490   3.710   1.801   2.645
 8197SOL    HW225491   3.651   1.952   2.666
 8198SOL     OW25492   1.328   6.442   1.706
 8198SOL    HW125493   1.402   6.411   1.764
 8198SOL    HW225494   1.314   6.541   1.719
 8199SOL     OW25495   5.762   2.665   6.917
 8199SOL    HW125496   5.739   2.736   6.851
 8199SOL    HW225497   5.814   2.593   6.872
 8200SOL     OW25498   4.260   3.112   0.738
 8200SOL    HW125499   4.169   3.097   0.699
 8200SOL    HW225500   4.253   3.174   0.816
 8201SOL     OW25501   5.938   6.959   5.229
 8201SOL    HW125502   5.981   6.871   5.207
 8201SOL    HW225503   5.928   7.013   5.145
 8202SOL     OW25504   0.668   6.747   2.049
 8202SOL    HW125505   0.722   6.713   2.126
 8202SOL    HW225506   0.590   6.800   2.083
 8203SOL     OW25507   1.409   3.266   1.406
 8203SOL    HW125508   1.503   3.300   1.399
 8203SOL    HW225509   1.411   3.173   1.445
 8204SOL     OW25510   3.172   3.039   1.120
 8204SOL    HW125511   3.101   3.016   1.053
 8204SOL    HW225512   3.261   3.007   1.086
 8205SOL     OW25513   1.182   3.818   6.913
 8205SOL    HW125514   1.106   3.755   6.925
 8205SOL    HW225515   1.154   3.910   6.939
 8206SOL     OW25516   3.187   0.421   0.523
 8206SOL    HW125517   3.281   0.392   0.540
 8206SOL    HW225518   3.159   0.485   0.594
 8207SOL     OW25519   3.998   3.858   4.996
 8207SOL    HW125520   4.053   3.777   4.976
 8207SOL    HW225521   3.935   3.875   4.920
 8208SOL     OW25522   2.273   0.862   0.274
 8208SOL    HW125523   2.310   0.923   0.345
 8208SOL    HW225524   2.212   0.913   0.214
 8209SOL     OW25525   6.386   1.625   4.745
 8209SOL    HW125526   6.313   1.670   4.798
 8209SOL    HW225527   6.367   1.637   4.648
 8210SOL     OW25528   2.160   2.311   6.679
 8210SOL    HW125529   2.125   2.305   6.585
 8210SOL    HW225530   2.226   2.387   6.685
 8211SOL     OW25531   3.621   4.502   1.500
 8211SOL    HW125532   3.706   4.552   1.487
 8211SOL    HW225533   3.587   4.518   1.592
 8212SOL     OW25534   1.704   2.920   3.525
 8212SOL    HW125535   1.783   2.894   3.470
 8212SOL    HW225536   1.670   2.839   3.574
 8213SOL     OW25537   6.642   5.062   1.304
 8213SOL    HW125538   6.604   4.969   1.300
 8213SOL    HW225539   6.702   5.070   1.384
 8214SOL     OW25540   5.858   4.034   3.728
 8214SOL    HW125541   5.855   3.960   3.795
 8214SOL    HW225542   5.876   4.121   3.776
 8215SOL     OW25543   3.490   5.351   3.338
 8215SOL    HW125544   3.513   5.430   3.394
 8215SOL    HW225545   3.412   5.303   3.380
 8216SOL     OW25546   5.480   3.713   3.798
 8216SOL    HW125547   5.422   3.771   3.743
 8216SOL    HW225548   5.502   3.759   3.884
 8217SOL     OW25549   2.133   6.000   7.007
 8217SOL    HW125550   2.185   6.085   7.008
 8217SOL    HW225551   2.046   6.013   0.041
 8218SOL     OW25552   6.625   2.606   0.036
 8218SOL    HW125553   6.655   2.631   0.128
 8218SOL    HW225554   6.573   2.681   7.010
 8219SOL     OW25555   5.780   1.666   0.160
 8219SOL    HW125556   5.743   1.736   0.100
 8219SOL    HW225557   5.809   1.587   0.105
 8220SOL     OW25558   3.865   3.628   2.182
 8220SOL    HW125559   3.924   3.706   2.202
 8220SOL    HW225560   3.895   3.585   2.097
 8221SOL     OW25561   5.235   6.166   3.728
 8221SOL    HW125562   5.147   6.124   3.748
 8221SOL    HW225563   5.297   6.097   3.690
 8222SOL     OW25564   6.197   2.136   1.227
 8222SOL    HW125565   6.282   2.102   1.185
 8222SOL    HW225566   6.134   2.167   1.156
 8223SOL     OW25567   0.500   5.090   5.827
 8223SOL    HW125568   0.505   5.103   5.728
 8223SOL    HW225569   0.555   5.011   5.853
 8224SOL     OW25570   1.441   3.341   3.866
 8224SOL    HW125571   1.474   3.247   3.857
 8224SOL    HW225572   1.475   3.381   3.951
 8225SOL     OW25573   4.769   1.769   0.377
 8225SOL    HW125574   4.752   1.849   0.320
 8225SOL    HW225575   4.807   1.798   0.464
 8226SOL     OW25576   5.153   0.744   0.660
 8226SOL    HW125577   5.157   0.647   0.636
 8226SOL    HW225578   5.155   0.753   0.760
 8227SOL     OW25579   6.497   3.463   3.135
 8227SOL    HW125580   6.547   3.378   3.149
 8227SOL    HW225581   6.414   3.463   3.191
 8228SOL     OW25582   6.484   2.698   5.065
 8228SOL    HW125583   6.444   2.768   5.005
 8228SOL    HW225584   6.529   2.629   5.009
 8229SOL     OW25585   3.608   4.863   0.651
 8229SOL    HW125586   3.571   4.869   0.744
 8229SOL    HW225587   3.558   4.926   0.591
 8230SOL     OW25588   4.948   6.945   4.002
 8230SOL    HW125589   4.980   6.975   4.092
 8230SOL    HW225590   4.927   0.011   3.946
 8231SOL     OW25591   4.604   6.145   0.825
 8231SOL    HW125592   4.597   6.051   0.791
 8231SOL    HW225593   4.566   6.208   0.758
 8232SOL     OW25594   2.924   2.761   6.377
 8232SOL    HW125595   2.878   2.675   6.356
 8232SOL    HW225596   2.965   2.798   6.294
 8233SOL     OW25597   0.221   5.185   0.233
 8233SOL    HW125598   0.286   5.110   0.222
 8233SOL    HW225599   0.180   5.206   0.145
 8234SOL     OW25600   3.413   1.841   6.928
 8234SOL    HW125601   3.339   1.908   6.924
 8234SOL    HW225602   3.501   1.888   6.926
 8235SOL     OW25603   4.841   2.805   1.004
 8235SOL    HW125604   4.794   2.883   1.045
 8235SOL    HW225605   4.811   2.721   1.047
 8236SOL     OW25606   5.600   3.399   0.403
 8236SOL    HW125607   5.651   3.387   0.488
 8236SOL    HW225608   5.639   3.474   0.350
 8237SOL     OW25609   4.299   6.360   5.781
 8237SOL    HW125610   4.207   6.365   5.741
 8237SOL    HW225611   4.342   6.450   5.774
 8238SOL     OW25612   1.933   1.732   6.403
 8238SOL    HW125613   1.933   1.641   6.444
 8238SOL    HW225614   1.911   1.800   6.473
 8239SOL     OW25615   0.157   1.831   6.319
 8239SOL    HW125616   0.174   1.929   6.323
 8239SOL    HW225617   0.120   1.807   6.229
 8240SOL     OW25618   4.019   3.801   3.704
 8240SOL    HW125619   4.024   3.761   3.612
 8240SOL    HW225620   4.037   3.731   3.772
 8241SOL     OW25621   4.193   6.568   0.577
 8241SOL    HW125622   4.252   6.597   0.502
 8241SOL    HW225623   4.102   6.545   0.542
 8242SOL     OW25624   0.864   4.209   5.585
 8242SOL    HW125625   0.788   4.273   5.590
 8242SOL    HW225626   0.949   4.259   5.569
 8243SOL     OW25627   0.694   3.562   4.854
 8243SOL    HW125628   0.683   3.595   4.760
 8243SOL    HW225629   0.732   3.469   4.852
 8244SOL     OW25630   0.530   6.556   4.395
 8244SOL    HW125631   0.486   6.489   4.455
 8244SOL    HW225632   0.591   6.509   4.332
 8245SOL     OW25633   3.729   2.863   0.641
 8245SOL    HW125634   3.665   2.938   0.625
 8245SOL    HW225635   3.716   2.827   0.734
 8246SOL     OW25636   5.308   3.674   5.776
 8246SOL    HW125637   5.352   3.708   5.693
 8246SOL    HW225638   5.238   3.739   5.805
 8247SOL     OW25639   0.847   0.210   1.321
 8247SOL    HW125640   0.888   0.280   1.380
 8247SOL    HW225641   0.916   0.142   1.297
 8248SOL     OW25642   6.382   4.004   3.469
 8248SOL    HW125643   6.359   3.951   3.388
 8248SOL    HW225644   6.360   4.100   3.455
 8249SOL     OW25645   2.246   4.992   3.493
 8249SOL    HW125646   2.180   4.996   3.568
 8249SOL    HW225647   2.257   5.084   3.453
 8250SOL     OW25648   4.010   3.696   2.555
 8250SOL    HW125649   3.963   3.608   2.544
 8250SOL    HW225650   4.092   3.683   2.611
 8251SOL     OW25651   5.732   1.919   4.671
 8251SOL    HW125652   5.770   1.971   4.595
 8251SOL    HW225653   5.787   1.934   4.753
 8252SOL     OW25654   1.575   2.989   4.783
 8252SOL    HW125655   1.635   2.915   4.754
 8252SOL    HW225656   1.587   3.067   4.722
 8253SOL     OW25657   3.175   3.350   5.463
 8253SOL    HW125658   3.251   3.402   5.502
 8253SOL    HW225659   3.187   3.340   5.365
 8254SOL     OW25660   3.696   5.480   3.777
 8254SOL    HW125661   3.674   5.385   3.751
 8254SOL    HW225662   3.615   5.537   3.761
 8255SOL     OW25663   4.315   5.066   3.793
 8255SOL    HW125664   4.269   5.152   3.813
 8255SOL    HW225665   4.298   5.000   3.866
 8256SOL     OW25666   6.974   1.592   4.328
 8256SOL    HW125667   7.000   1.683   4.359
 8256SOL    HW225668   6.946   1.596   4.232
 8257SOL     OW25669   6.691   4.290   3.942
 8257SOL    HW125670   6.637   4.218   3.897
 8257SOL    HW225671   6.659   4.302   4.036
 8258SOL     OW25672   4.489   1.447   6.746
 8258SOL    HW125673   4.453   1.422   6.836
 8258SOL    HW225674   4.545   1.529   6.753
 8259SOL     OW25675   3.687   1.792   1.906
 8259SOL    HW125676   3.646   1.849   1.977
 8259SOL    HW225677   3.668   1.831   1.816
 8260SOL     OW25678   2.332   5.608   0.546
 8260SOL    HW125679   2.251   5.656   0.579
 8260SOL    HW225680   2.392   5.586   0.622
 8261SOL     OW25681   5.789   1.614   1.594
 8261SOL    HW125682   5.823   1.708   1.592
 8261SOL    HW225683   5.728   1.602   1.672
 8262SOL     OW25684   0.991   2.138   1.195
 8262SOL    HW125685   1.052   2.122   1.272
 8262SOL    HW225686   0.932   2.217   1.215
 8263SOL     OW25687   6.329   1.696   0.567
 8263SOL    HW125688   6.379   1.725   0.648
 8263SOL    HW225689   6.231   1.712   0.580
 8264SOL     OW25690   2.102   5.149   2.901
 8264SOL    HW125691   2.065   5.086   2.834
 8264SOL    HW225692   2.067   5.126   2.992
 8265SOL     OW25693   1.728   0.785   1.886
 8265SOL    HW125694   1.797   0.713   1.896
 8265SOL    HW225695   1.658   0.755   1.821
 8266SOL     OW25696   3.384   0.171   3.059
 8266SOL    HW125697   3.337   0.129   3.136
 8266SOL    HW225698   3.399   0.103   2.987
 8267SOL     OW25699   0.594   3.427   1.256
 8267SOL    HW125700   0.558   3.338   1.226
 8267SOL    HW225701   0.662   3.413   1.328
 8268SOL     OW25702   2.682   6.653   5.369
 8268SOL    HW125703   2.711   6.739   5.410
 8268SOL    HW225704   2.762   6.597   5.347
 8269SOL     OW25705   5.883   2.016   1.025
 8269SOL    HW125706   5.786   2.041   1.035
 8269SOL    HW225707   5.939   2.099   1.034
 8270SOL     OW25708   3.958   5.999   3.562
 8270SOL    HW125709   3.860   5.992   3.544
 8270SOL    HW225710   4.005   6.031   3.480
 8271SOL     OW25711   6.981   1.549   2.621
 8271SOL    HW125712   0.009   1.619   2.562
 8271SOL    HW225713   6.914   1.593   2.681
 8272SOL     OW25714   3.575   1.338   3.703
 8272SOL    HW125715   3.563   1.290   3.790
 8272SOL    HW225716   3.517   1.419   3.702
 8273SOL     OW25717   2.459   6.324   1.067
 8273SOL    HW125718   2.479   6.418   1.042
 8273SOL    HW225719   2.379   6.321   1.126
 8274SOL     OW25720   4.979   5.430   3.258
 8274SOL    HW125721   4.915   5.506   3.275
 8274SOL    HW225722   5.073   5.464   3.264
 8275SOL     OW25723   5.128   2.463   5.820
 8275SOL    HW125724   5.039   2.455   5.774
 8275SOL    HW225725   5.199   2.484   5.752
 8276SOL     OW25726   1.099   1.783   3.560
 8276SOL    HW125727   1.161   1.835   3.619
 8276SOL    HW225728   1.127   1.795   3.464
 8277SOL     OW25729   6.495   0.408   6.688
 8277SOL    HW125730   6.462   0.371   6.775
 8277SOL    HW225731   6.548   0.338   6.640
 8278SOL     OW25732   2.122   2.423   0.319
 8278SOL    HW125733   2.217   2.455   0.316
 8278SOL    HW225734   2.100   2.376   0.234
 8279SOL     OW25735   6.959   6.323   3.944
 8279SOL    HW125736   6.922   6.241   3.900
 8279SOL    HW225737   6.893   6.397   3.936
 8280SOL     OW25738   3.035   2.959   5.930
 8280SOL    HW125739   2.975   2.902   5.987
 8280SOL    HW225740   3.001   2.959   5.836
 8281SOL     OW25741   6.561   5.552   1.607
 8281SOL    HW125742   6.627   5.607   1.658
 8281SOL    HW225743   6.470   5.564   1.648
 8282SOL     OW25744   5.326   2.126   5.218
 8282SOL    HW125745   5.363   2.042   5.177
 8282SOL    HW225746   5.232   2.109   5.247
 8283SOL     OW25747   1.895   3.850   5.874
 8283SOL    HW125748   1.925   3.900   5.792
 8283SOL    HW225749   1.975   3.815   5.922
 8284SOL     OW25750   6.909   4.621   2.254
 8284SOL    HW125751   6.960   4.570   2.324
 8284SOL    HW225752   6.941   4.715   2.252
 8285SOL     OW25753   3.561   3.513   4.971
 8285SOL    HW125754   3.628   3.566   4.920
 8285SOL    HW225755   3.606   3.437   5.018
 8286SOL     OW25756   6.582   2.150   5.853
 8286SOL    HW125757   6.565   2.063   5.808
 8286SOL    HW225758   6.563   2.142   5.951
 8287SOL     OW25759   1.651   5.327   4.419
 8287SOL    HW125760   1.552   5.341   4.417
 8287SOL    HW225761   1.695   5.407   4.460
 8288SOL     OW25762   2.506   2.619   3.233
 8288SOL    HW125763   2.475   2.711   3.256
 8288SOL    HW225764   2.466   2.553   3.297
 8289SOL     OW25765   0.225   6.418   6.887
 8289SOL    HW125766   0.301   6.484   6.887
 8289SOL    HW225767   0.177   6.422   6.975
 8290SOL     OW25768   6.672   2.601   1.126
 8290SOL    HW125769   6.771   2.620   1.125
 8290SOL    HW225770   6.656   2.513   1.170
 8291SOL     OW25771   4.704   0.529   0.237
 8291SOL    HW125772   4.792   0.489   0.211
 8291SOL    HW225773   4.719   0.621   0.273
 8292SOL     OW25774   2.939   6.798   6.626
 8292SOL    HW125775   2.958   6.745   6.544
 8292SOL    HW225776   2.980   6.754   6.705
 8293SOL     OW25777   5.411   6.051   5.954
 8293SOL    HW125778   5.462   6.135   5.976
 8293SOL    HW225779   5.341   6.036   6.024
 8294SOL     OW25780   5.560   2.472   0.321
 8294SOL    HW125781   5.473   2.461   0.273
 8294SOL    HW225782   5.546   2.459   0.419
 8295SOL     OW25783   4.919   4.024   1.075
 8295SOL    HW125784   4.839   4.041   1.133
 8295SOL    HW225785   4.998   4.002   1.133
 8296SOL     OW25786   1.807   5.384   6.893
 8296SOL    HW125787   1.794   5.289   6.919
 8296SOL    HW225788   1.861   5.390   6.809
 8297SOL     OW25789   0.142   2.917   2.958
 8297SOL    HW125790   0.085   2.934   2.877
 8297SOL    HW225791   0.107   2.968   3.036
 8298SOL     OW25792   4.580   0.885   1.657
 8298SOL    HW125793   4.536   0.854   1.741
 8298SOL    HW225794   4.664   0.935   1.680
 8299SOL     OW25795   6.197   2.418   1.631
 8299SOL    HW125796   6.121   2.357   1.607
 8299SOL    HW225797   6.278   2.392   1.580
 8300SOL     OW25798   0.680   4.712   3.526
 8300SOL    HW125799   0.774   4.740   3.506
 8300SOL    HW225800   0.673   4.682   3.621
 8301SOL     OW25801   3.822   2.913   6.951
 8301SOL    HW125802   3.831   2.819   6.917
 8301SOL    HW225803   3.736   2.952   6.919
 8302SOL     OW25804   5.886   6.285   6.647
 8302SOL    HW125805   5.828   6.210   6.616
 8302SOL    HW225806   5.857   6.313   6.739
 8303SOL     OW25807   0.512   0.406   4.996
 8303SOL    HW125808   0.583   0.341   5.023
 8303SOL    HW225809   0.537   0.447   4.908
 8304SOL     OW25810   1.269   3.685   6.473
 8304SOL    HW125811   1.340   3.719   6.411
 8304SOL    HW225812   1.186   3.740   6.463
 8305SOL     OW25813   3.574   5.871   3.151
 8305SOL    HW125814   3.474   5.867   3.148
 8305SOL    HW225815   3.608   5.802   3.216
 8306SOL     OW25816   0.767   3.192   4.210
 8306SOL    HW125817   0.836   3.243   4.159
 8306SOL    HW225818   0.783   3.203   4.308
 8307SOL     OW25819   4.039   5.513   1.084
 8307SOL    HW125820   4.138   5.513   1.068
 8307SOL    HW225821   3.994   5.465   1.009
 8308SOL     OW25822   3.686   6.476   2.476
 8308SOL    HW125823   3.671   6.558   2.531
 8308SOL    HW225824   3.702   6.503   2.381
 8309SOL     OW25825   5.285   5.758   2.100
 8309SOL    HW125826   5.198   5.805   2.091
 8309SOL    HW225827   5.270   5.659   2.103
 8310SOL     OW25828   0.104   4.386   0.469
 8310SOL    HW125829   0.051   4.457   0.424
 8310SOL    HW225830   0.102   4.401   0.568
 8311SOL     OW25831   6.407   0.838   0.145
 8311SOL    HW125832   6.436   0.850   0.240
 8311SOL    HW225833   6.319   0.884   0.131
 8312SOL     OW25834   5.696   6.618   1.721
 8312SOL    HW125835   5.712   6.566   1.804
 8312SOL    HW225836   5.774   6.677   1.703
 8313SOL     OW25837   3.840   1.557   2.507
 8313SOL    HW125838   3.925   1.597   2.541
 8313SOL    HW225839   3.767   1.573   2.573
 8314SOL     OW25840   6.596   0.428   2.647
 8314SOL    HW125841   6.575   0.422   2.745
 8314SOL    HW225842   6.646   0.513   2.630
 8315SOL     OW25843   5.048   3.978   6.686
 8315SOL    HW125844   4.981   3.910   6.657
 8315SOL    HW225845   5.036   3.998   6.783
 8316SOL     OW25846   1.842   3.763   6.735
 8316SOL    HW125847   1.745   3.741   6.723
 8316SOL    HW225848   1.857   3.797   6.827
 8317SOL     OW25849   2.471   4.437   2.167
 8317SOL    HW125850   2.562   4.457   2.203
 8317SOL    HW225851   2.437   4.517   2.117
 8318SOL     OW25852   4.055   1.952   5.125
 8318SOL    HW125853   4.015   2.041   5.148
 8318SOL    HW225854   4.001   1.910   5.051
 8319SOL     OW25855   3.688   1.103   5.055
 8319SOL    HW125856   3.664   1.144   4.967
 8319SOL    HW225857   3.606   1.067   5.099
 8320SOL     OW25858   3.357   4.356   1.458
 8320SOL    HW125859   3.390   4.443   1.493
 8320SOL    HW225860   3.391   4.282   1.516
 8321SOL     OW25861   0.696   0.524   1.428
 8321SOL    HW125862   0.662   0.593   1.493
 8321SOL    HW225863   0.740   0.450   1.479
 8322SOL     OW25864   6.387   6.422   0.041
 8322SOL    HW125865   6.291   6.451   0.037
 8322SOL    HW225866   6.444   6.485   7.002
 8323SOL     OW25867   1.076   1.948   2.068
 8323SOL    HW125868   1.078   1.872   2.003
 8323SOL    HW225869   1.034   2.028   2.025
 8324SOL     OW25870   6.261   0.983   2.322
 8324SOL    HW125871   6.189   0.916   2.339
 8324SOL    HW225872   6.239   1.069   2.368
 8325SOL     OW25873   3.353   2.978   4.019
 8325SOL    HW125874   3.361   3.065   4.068
 8325SOL    HW225875   3.329   2.996   3.924
 8326SOL     OW25876   3.791   3.494   5.959
 8326SOL    HW125877   3.811   3.426   5.889
 8326SOL    HW225878   3.871   3.505   6.019
 8327SOL     OW25879   5.453   2.241   5.804
 8327SOL    HW125880   5.457   2.311   5.875
 8327SOL    HW225881   5.529   2.253   5.740
 8328SOL     OW25882   2.179   2.091   5.476
 8328SOL    HW125883   2.110   2.142   5.425
 8328SOL    HW225884   2.241   2.156   5.522
 8329SOL     OW25885   6.911   3.259   5.375
 8329SOL    HW125886   6.910   3.348   5.420
 8329SOL    HW225887   6.984   3.203   5.413
 8330SOL     OW25888   2.360   6.347   0.289
 8330SOL    HW125889   2.395   6.318   0.378
 8330SOL    HW225890   2.391   6.440   0.269
 8331SOL     OW25891   2.672   6.548   0.707
 8331SOL    HW125892   2.652   6.643   0.686
 8331SOL    HW225893   2.671   6.494   0.622
 8332SOL     OW25894   4.914   5.188   2.352
 8332SOL    HW125895   4.931   5.095   2.318
 8332SOL    HW225896   4.817   5.198   2.374
 8333SOL     OW25897   0.512   5.413   0.061
 8333SOL    HW125898   0.448   5.409   6.998
 8333SOL    HW225899   0.462   5.437   0.145
 8334SOL     OW25900   6.277   1.926   3.798
 8334SOL    HW125901   6.186   1.907   3.834
 8334SOL    HW225902   6.296   2.024   3.804
 8335SOL     OW25903   5.665   6.604   6.123
 8335SOL    HW125904   5.655   6.566   6.215
 8335SOL    HW225905   5.752   6.574   6.084
 8336SOL     OW25906   0.032   1.640   2.053
 8336SOL    HW125907   0.039   1.733   2.091
 8336SOL    HW225908   0.123   1.600   2.044
 8337SOL     OW25909   0.624   6.305   2.771
 8337SOL    HW125910   0.524   6.301   2.765
 8337SOL    HW225911   0.652   6.312   2.867
 8338SOL     OW25912   1.556   4.651   1.513
 8338SOL    HW125913   1.629   4.671   1.448
 8338SOL    HW225914   1.533   4.554   1.509
 8339SOL     OW25915   5.292   1.433   2.616
 8339SOL    HW125916   5.374   1.381   2.596
 8339SOL    HW225917   5.280   1.505   2.548
 8340SOL     OW25918   4.975   3.762   0.971
 8340SOL    HW125919   5.070   3.788   0.957
 8340SOL    HW225920   4.923   3.843   0.999
 8341SOL     OW25921   2.725   6.098   1.005
 8341SOL    HW125922   2.673   6.085   1.089
 8341SOL    HW225923   2.664   6.090   0.926
 8342SOL     OW25924   4.149   0.678   0.664
 8342SOL    HW125925   4.116   0.655   0.573
 8342SOL    HW225926   4.241   0.640   0.677
 8343SOL     OW25927   1.454   5.410   6.014
 8343SOL    HW125928   1.500   5.322   6.019
 8343SOL    HW225929   1.417   5.424   5.922
 8344SOL     OW25930   4.496   6.355   5.965
 8344SOL    HW125931   4.411   6.333   5.918
 8344SOL    HW225932   4.547   6.270   5.982
 8345SOL     OW25933   6.116   0.898   2.902
 8345SOL    HW125934   6.153   0.904   2.995
 8345SOL    HW225935   6.030   0.848   2.904
 8346SOL     OW25936   3.416   5.531   1.266
 8346SOL    HW125937   3.460   5.485   1.188
 8346SOL    HW225938   3.341   5.588   1.232
 8347SOL     OW25939   3.442   6.453   5.509
 8347SOL    HW125940   3.497   6.473   5.428
 8347SOL    HW225941   3.500   6.458   5.591
 8348SOL     OW25942   1.207   0.874   0.206
 8348SOL    HW125943   1.159   0.851   0.291
 8348SOL    HW225944   1.291   0.821   0.200
 8349SOL     OW25945   5.278   4.933   1.441
 8349SOL    HW125946   5.256   4.955   1.536
 8349SOL    HW225947   5.249   4.839   1.421
 8350SOL     OW25948   6.010   1.053   4.894
 8350SOL    HW125949   6.038   1.035   4.988
 8350SOL    HW225950   6.092   1.065   4.837
 8351SOL     OW25951   3.704   6.055   3.508
 8351SOL    HW125952   3.707   6.094   3.416
 8351SOL    HW225953   3.613   6.071   3.548
 8352SOL     OW25954   6.798   6.416   2.184
 8352SOL    HW125955   6.709   6.420   2.228
 8352SOL    HW225956   6.788   6.382   2.090
 8353SOL     OW25957   0.551   3.566   2.295
 8353SOL    HW125958   0.464   3.516   2.294
 8353SOL    HW225959   0.545   3.643   2.231
 8354SOL     OW25960   2.405   1.320   6.750
 8354SOL    HW125961   2.420   1.373   6.667
 8354SOL    HW225962   2.468   1.350   6.822
 8355SOL     OW25963   3.096   0.822   0.155
 8355SOL    HW125964   3.142   0.756   0.096
 8355SOL    HW225965   3.007   0.845   0.117
 8356SOL     OW25966   2.308   5.625   6.861
 8356SOL    HW125967   2.326   5.700   6.926
 8356SOL    HW225968   2.308   5.538   6.910
 8357SOL     OW25969   4.786   5.757   4.973
 8357SOL    HW125970   4.851   5.829   4.997
 8357SOL    HW225971   4.822   5.704   4.896
 8358SOL     OW25972   2.007   2.734   5.349
 8358SOL    HW125973   2.069   2.692   5.283
 8358SOL    HW225974   2.004   2.678   5.432
 8359SOL     OW25975   4.316   5.527   4.457
 8359SOL    HW125976   4.324   5.483   4.367
 8359SOL    HW225977   4.234   5.585   4.458
 8360SOL     OW25978   5.034   0.059   3.323
 8360SOL    HW125979   5.106   0.115   3.283
 8360SOL    HW225980   4.945   0.091   3.290
 8361SOL     OW25981   1.923   0.496   2.524
 8361SOL    HW125982   1.840   0.546   2.549
 8361SOL    HW225983   1.954   0.526   2.434
 8362SOL     OW25984   2.885   2.058   0.504
 8362SOL    HW125985   2.800   2.055   0.556
 8362SOL    HW225986   2.955   2.105   0.557
 8363SOL     OW25987   0.045   3.297   0.647
 8363SOL    HW125988   0.076   3.384   0.611
 8363SOL    HW225989   6.979   3.266   0.595
 8364SOL     OW25990   6.417   3.687   4.035
 8364SOL    HW125991   6.374   3.601   4.006
 8364SOL    HW225992   6.446   3.739   3.955
 8365SOL     OW25993   2.139   3.347   5.672
 8365SOL    HW125994   2.054   3.315   5.713
 8365SOL    HW225995   2.217   3.305   5.719
 8366SOL     OW25996   2.860   6.231   2.742
 8366SOL    HW125997   2.763   6.229   2.718
 8366SOL    HW225998   2.901   6.315   2.706
 8367SOL     OW25999   5.591   6.140   3.749
 8367SOL    HW126000   5.525   6.086   3.696
 8367SOL    HW226001   5.542   6.193   3.819
 8368SOL     OW26002   3.174   5.064   6.078
 8368SOL    HW126003   3.198   5.152   6.037
 8368SOL    HW226004   3.090   5.029   6.036
 8369SOL     OW26005   1.863   1.420   0.567
 8369SOL    HW126006   1.906   1.335   0.534
 8369SOL    HW226007   1.855   1.485   0.491
 8370SOL     OW26008   0.996   1.759   6.212
 8370SOL    HW126009   1.069   1.755   6.144
 8370SOL    HW226010   0.913   1.719   6.175
 8371SOL     OW26011   1.454   3.464   0.632
 8371SOL    HW126012   1.408   3.444   0.718
 8371SOL    HW226013   1.387   3.458   0.557
 8372SOL     OW26014   0.002   0.958   2.844
 8372SOL    HW126015   0.058   1.020   2.899
 8372SOL    HW226016   7.003   0.997   2.753
 8373SOL     OW26017   1.849   6.074   5.161
 8373SOL    HW126018   1.934   6.021   5.160
 8373SOL    HW226019   1.774   6.018   5.127
 8374SOL     OW26020   6.492   6.874   6.924
 8374SOL    HW126021   6.544   6.886   6.839
 8374SOL    HW226022   6.418   6.941   6.928
 8375SOL     OW26023   3.269   0.055   6.504
 8375SOL    HW126024   3.340   7.003   6.529
 8375SOL    HW226025   3.311   0.134   6.461
 8376SOL     OW26026   3.089   0.630   4.672
 8376SOL    HW126027   3.124   0.580   4.751
 8376SOL    HW226028   3.001   0.592   4.645
 8377SOL     OW26029   5.870   4.456   1.510
 8377SOL    HW126030   5.913   4.368   1.490
 8377SOL    HW226031   5.896   4.486   1.602
 8378SOL     OW26032   4.899   2.942   3.104
 8378SOL    HW126033   4.955   2.867   3.067
 8378SOL    HW226034   4.852   2.911   3.186
 8379SOL     OW26035   6.269   2.413   2.617
 8379SOL    HW126036   6.232   2.434   2.527
 8379SOL    HW226037   6.202   2.439   2.687
 8380SOL     OW26038   4.339   1.777   3.342
 8380SOL    HW126039   4.286   1.738   3.418
 8380SOL    HW226040   4.420   1.823   3.378
 8381SOL     OW26041   1.918   5.811   4.605
 8381SOL    HW126042   1.910   5.906   4.634
 8381SOL    HW226043   1.996   5.768   4.652
 8382SOL     OW26044   1.171   2.898   2.204
 8382SOL    HW126045   1.172   2.997   2.190
 8382SOL    HW226046   1.180   2.852   2.116
 8383SOL     OW26047   2.876   2.478   6.342
 8383SOL    HW126048   2.791   2.425   6.340
 8383SOL    HW226049   2.947   2.424   6.387
 8384SOL     OW26050   0.399   6.992   1.959
 8384SOL    HW126051   0.469   0.020   1.901
 8384SOL    HW226052   0.342   6.931   1.903
 8385SOL     OW26053   5.002   2.208   1.307
 8385SOL    HW126054   5.086   2.251   1.341
 8385SOL    HW226055   4.936   2.201   1.381
 8386SOL     OW26056   1.063   4.286   2.456
 8386SOL    HW126057   1.058   4.379   2.494
 8386SOL    HW226058   1.151   4.246   2.481
 8387SOL     OW26059   0.488   2.539   1.342
 8387SOL    HW126060   0.528   2.455   1.379
 8387SOL    HW226061   0.542   2.618   1.374
 8388SOL     OW26062   1.687   0.583   2.182
 8388SOL    HW126063   1.760   0.636   2.141
 8388SOL    HW226064   1.608   0.643   2.200
 8389SOL     OW26065   5.488   2.694   2.441
 8389SOL    HW126066   5.392   2.679   2.416
 8389SOL    HW226067   5.531   2.753   2.373
 8390SOL     OW26068   5.376   1.636   5.481
 8390SOL    HW126069   5.429   1.678   5.407
 8390SOL    HW226070   5.438   1.594   5.547
 8391SOL     OW26071   6.266   0.141   1.139
 8391SOL    HW126072   6.227   0.233   1.129
 8391SOL    HW226073   6.351   0.147   1.191
 8392SOL     OW26074   5.106   3.129   4.557
 8392SOL    HW126075   5.147   3.106   4.646
 8392SOL    HW226076   5.009   3.104   4.558
 8393SOL     OW26077   5.255   6.964   1.546
 8393SOL    HW126078   5.197   6.990   1.469
 8393SOL    HW226079   5.237   6.868   1.569
 8394SOL     OW26080   6.144   3.453   1.699
 8394SOL    HW126081   6.195   3.448   1.613
 8394SOL    HW226082   6.160   3.542   1.742
 8395SOL     OW26083   1.604   1.198   4.612
 8395SOL    HW126084   1.633   1.275   4.554
 8395SOL    HW226085   1.640   1.210   4.704
 8396SOL     OW26086   4.401   5.853   4.363
 8396SOL    HW126087   4.440   5.786   4.425
 8396SOL    HW226088   4.435   5.837   4.270
 8397SOL     OW26089   6.265   0.636   3.180
 8397SOL    HW126090   6.353   0.683   3.175
 8397SOL    HW226091   6.257   0.592   3.270
 8398SOL     OW26092   4.506   2.287   5.828
 8398SOL    HW126093   4.498   2.383   5.855
 8398SOL    HW226094   4.561   2.238   5.895
 8399SOL     OW26095   6.833   5.152   0.744
 8399SOL    HW126096   6.897   5.127   0.817
 8399SOL    HW226097   6.827   5.251   0.738
 8400SOL     OW26098   1.536   2.222   4.713
 8400SOL    HW126099   1.603   2.291   4.685
 8400SOL    HW226100   1.584   2.140   4.745
 8401SOL     OW26101   2.989   0.313   6.007
 8401SOL    HW126102   2.949   0.226   5.979
 8401SOL    HW226103   3.011   0.367   5.926
 8402SOL     OW26104   3.727   0.270   5.931
 8402SOL    HW126105   3.793   0.195   5.933
 8402SOL    HW226106   3.751   0.337   6.002
 8403SOL     OW26107   5.847   5.061   4.442
 8403SOL    HW126108   5.754   5.058   4.405
 8403SOL    HW226109   5.858   4.989   4.511
 8404SOL     OW26110   1.660   1.903   6.461
 8404SOL    HW126111   1.626   1.986   6.505
 8404SOL    HW226112   1.601   1.826   6.484
 8405SOL     OW26113   3.958   0.653   5.741
 8405SOL    HW126114   3.912   0.741   5.748
 8405SOL    HW226115   3.998   0.628   5.829
 8406SOL     OW26116   5.112   0.475   5.983
 8406SOL    HW126117   5.116   0.575   5.979
 8406SOL    HW226118   5.019   0.446   6.007
 8407SOL     OW26119   3.596   6.885   4.092
 8407SOL    HW126120   3.644   6.869   4.179
 8407SOL    HW226121   3.508   6.838   4.093
 8408SOL     OW26122   3.991   1.556   1.780
 8408SOL    HW126123   3.901   1.549   1.737
 8408SOL    HW226124   4.063   1.548   1.711
 8409SOL     OW26125   4.313   2.295   1.876
 8409SOL    HW126126   4.263   2.344   1.805
 8409SOL    HW226127   4.255   2.284   1.957
 8410SOL     OW26128   6.953   1.839   1.443
 8410SOL    HW126129   7.010   1.833   1.361
 8410SOL    HW226130   6.872   1.780   1.432
 8411SOL     OW26131   1.884   5.483   0.582
 8411SOL    HW126132   1.893   5.436   0.669
 8411SOL    HW226133   1.796   5.529   0.577
 8412SOL     OW26134   2.470   2.575   6.151
 8412SOL    HW126135   2.487   2.632   6.070
 8412SOL    HW226136   2.490   2.628   6.234
 8413SOL     OW26137   4.154   5.735   4.845
 8413SOL    HW126138   4.210   5.699   4.920
 8413SOL    HW226139   4.078   5.671   4.827
 8414SOL     OW26140   0.852   0.950   1.629
 8414SOL    HW126141   0.883   1.039   1.663
 8414SOL    HW226142   0.876   0.878   1.695
 8415SOL     OW26143   2.400   0.890   5.324
 8415SOL    HW126144   2.413   0.791   5.331
 8415SOL    HW226145   2.324   0.917   5.384
 8416SOL     OW26146   6.596   1.372   5.091
 8416SOL    HW126147   6.571   1.467   5.070
 8416SOL    HW226148   6.611   1.363   5.189
 8417SOL     OW26149   1.184   3.992   5.129
 8417SOL    HW126150   1.201   3.965   5.224
 8417SOL    HW226151   1.086   3.999   5.113
 8418SOL     OW26152   0.683   6.121   2.222
 8418SOL    HW126153   0.719   6.077   2.304
 8418SOL    HW226154   0.723   6.079   2.140
 8419SOL     OW26155   4.459   1.954   3.986
 8419SOL    HW126156   4.476   1.869   4.037
 8419SOL    HW226157   4.367   1.987   4.006
 8420SOL     OW26158   3.164   0.405   2.652
 8420SOL    HW126159   3.189   0.482   2.711
 8420SOL    HW226160   3.234   0.395   2.581
 8421SOL     OW26161   4.856   6.019   6.216
 8421SOL    HW126162   4.867   5.919   6.208
 8421SOL    HW226163   4.836   6.057   6.126
 8422SOL     OW26164   4.376   2.454   3.156
 8422SOL    HW126165   4.305   2.397   3.115
 8422SOL    HW226166   4.457   2.455   3.097
 8423SOL     OW26167   6.887   5.227   6.640
 8423SOL    HW126168   6.940   5.159   6.588
 8423SOL    HW226169   6.892   5.315   6.593
 8424SOL     OW26170   2.289   6.881   3.757
 8424SOL    HW126171   2.376   6.930   3.760
 8424SOL    HW226172   2.251   6.884   3.665
 8425SOL     OW26173   3.929   3.929   2.859
 8425SOL    HW126174   3.903   3.993   2.786
 8425SOL    HW226175   3.890   3.839   2.839
 8426SOL     OW26176   3.674   2.907   1.828
 8426SOL    HW126177   3.754   2.897   1.887
 8426SOL    HW226178   3.618   2.983   1.860
 8427SOL     OW26179   3.596   3.743   3.815
 8427SOL    HW126180   3.620   3.840   3.814
 8427SOL    HW226181   3.669   3.690   3.859
 8428SOL     OW26182   6.421   0.036   0.553
 8428SOL    HW126183   6.395   0.091   0.634
 8428SOL    HW226184   6.471   0.094   0.489
 8429SOL     OW26185   2.478   5.600   5.663
 8429SOL    HW126186   2.446   5.557   5.747
 8429SOL    HW226187   2.573   5.572   5.645
 8430SOL     OW26188   4.387   6.457   5.464
 8430SOL    HW126189   4.452   6.383   5.449
 8430SOL    HW226190   4.313   6.451   5.396
 8431SOL     OW26191   2.888   3.753   6.389
 8431SOL    HW126192   2.973   3.744   6.337
 8431SOL    HW226193   2.823   3.684   6.358
 8432SOL     OW26194   6.443   5.194   6.251
 8432SOL    HW126195   6.406   5.126   6.314
 8432SOL    HW226196   6.368   5.252   6.217
 8433SOL     OW26197   5.386   2.900   0.936
 8433SOL    HW126198   5.395   2.969   0.865
 8433SOL    HW226199   5.475   2.883   0.978
 8434SOL     OW26200   2.115   6.451   5.504
 8434SOL    HW126201   2.191   6.394   5.533
 8434SOL    HW226202   2.057   6.472   5.583
 8435SOL     OW26203   4.565   1.183   3.145
 8435SOL    HW126204   4.533   1.238   3.067
 8435SOL    HW226205   4.656   1.147   3.125
 8436SOL     OW26206   2.729   5.917   2.395
 8436SOL    HW126207   2.817   5.873   2.411
 8436SOL    HW226208   2.672   5.909   2.476
 8437SOL     OW26209   1.823   3.917   1.955
 8437SOL    HW126210   1.850   3.942   1.862
 8437SOL    HW226211   1.904   3.896   2.009
 8438SOL     OW26212   1.023   4.385   2.217
 8438SOL    HW126213   1.060   4.331   2.141
 8438SOL    HW226214   1.055   4.346   2.303
 8439SOL     OW26215   5.744   5.053   3.479
 8439SOL    HW126216   5.771   4.988   3.409
 8439SOL    HW226217   5.773   5.145   3.452
 8440SOL     OW26218   2.168   1.642   3.078
 8440SOL    HW126219   2.265   1.657   3.062
 8440SOL    HW226220   2.119   1.644   2.991
 8441SOL     OW26221   6.242   1.001   4.418
 8441SOL    HW126222   6.142   1.004   4.416
 8441SOL    HW226223   6.278   1.094   4.410
 8442SOL     OW26224   3.370   1.320   6.000
 8442SOL    HW126225   3.379   1.417   5.980
 8442SOL    HW226226   3.276   1.291   5.983
 8443SOL     OW26227   0.957   4.014   3.037
 8443SOL    HW126228   0.922   3.979   2.950
 8443SOL    HW226229   0.881   4.022   3.102
 8444SOL     OW26230   5.118   5.349   4.635
 8444SOL    HW126231   5.132   5.445   4.611
 8444SOL    HW226232   5.056   5.343   4.712
 8445SOL     OW26233   4.399   5.684   6.766
 8445SOL    HW126234   4.431   5.636   6.847
 8445SOL    HW226235   4.385   5.618   6.692
 8446SOL     OW26236   6.774   5.505   5.003
 8446SOL    HW126237   6.738   5.528   4.913
 8446SOL    HW226238   6.859   5.556   5.019
 8447SOL     OW26239   4.032   2.251   3.240
 8447SOL    HW126240   4.082   2.216   3.319
 8447SOL    HW226241   3.938   2.215   3.241
 8448SOL     OW26242   3.916   6.367   3.013
 8448SOL    HW126243   4.010   6.345   3.037
 8448SOL    HW226244   3.872   6.288   2.970
 8449SOL     OW26245   2.088   2.556   3.230
 8449SOL    HW126246   2.131   2.491   3.167
 8449SOL    HW226247   1.997   2.580   3.196
 8450SOL     OW26248   6.671   0.906   6.983
 8450SOL    HW126249   6.621   0.840   6.927
 8450SOL    HW226250   6.616   0.931   0.048
 8451SOL     OW26251   4.499   2.599   1.060
 8451SOL    HW126252   4.489   2.693   1.094
 8451SOL    HW226253   4.420   2.576   1.004
 8452SOL     OW26254   5.049   2.185   5.620
 8452SOL    HW126255   4.987   2.263   5.621
 8452SOL    HW226256   5.061   2.153   5.526
 8453SOL     OW26257   0.871   5.943   1.143
 8453SOL    HW126258   0.865   5.878   1.219
 8453SOL    HW226259   0.830   6.030   1.170
 8454SOL     OW26260   6.539   4.273   0.186
 8454SOL    HW126261   6.449   4.312   0.207
 8454SOL    HW226262   6.565   4.299   0.093
 8455SOL     OW26263   0.027   0.824   3.322
 8455SOL    HW126264   0.056   0.891   3.390
 8455SOL    HW226265   6.960   0.776   3.356
 8456SOL     OW26266   5.980   0.635   3.633
 8456SOL    HW126267   5.939   0.705   3.693
 8456SOL    HW226268   6.079   0.643   3.636
 8457SOL     OW26269   6.477   6.823   4.980
 8457SOL    HW126270   6.568   6.781   4.977
 8457SOL    HW226271   6.455   6.860   4.889
 8458SOL     OW26272   6.918   6.210   7.014
 8458SOL    HW126273   6.845   6.174   0.057
 8458SOL    HW226274   6.991   6.142   7.006
 8459SOL     OW26275   1.826   5.759   2.980
 8459SOL    HW126276   1.819   5.721   3.072
 8459SOL    HW226277   1.843   5.858   2.987
 8460SOL     OW26278   3.703   3.978   3.818
 8460SOL    HW126279   3.797   3.981   3.851
 8460SOL    HW226280   3.650   4.051   3.860
 8461SOL     OW26281   6.284   3.456   3.974
 8461SOL    HW126282   6.228   3.455   4.057
 8461SOL    HW226283   6.276   3.368   3.927
 8462SOL     OW26284   2.187   2.973   2.106
 8462SOL    HW126285   2.250   2.908   2.148
 8462SOL    HW226286   2.138   2.929   2.031
 8463SOL     OW26287   5.146   1.454   2.043
 8463SOL    HW126288   5.231   1.438   1.994
 8463SOL    HW226289   5.164   1.464   2.140
 8464SOL     OW26290   6.396   2.232   4.433
 8464SOL    HW126291   6.374   2.141   4.467
 8464SOL    HW226292   6.495   2.248   4.442
 8465SOL     OW26293   1.609   2.306   0.123
 8465SOL    HW126294   1.663   2.388   0.104
 8465SOL    HW226295   1.542   2.325   0.194
 8466SOL     OW26296   0.996   6.605   3.768
 8466SOL    HW126297   0.937   6.678   3.733
 8466SOL    HW226298   1.092   6.634   3.763
 8467SOL     OW26299   2.583   5.450   0.622
 8467SOL    HW126300   2.562   5.453   0.524
 8467SOL    HW226301   2.642   5.527   0.646
 8468SOL     OW26302   4.543   1.764   0.041
 8468SOL    HW126303   4.509   1.858   0.035
 8468SOL    HW226304   4.636   1.759   0.006
 8469SOL     OW26305   3.751   2.229   6.820
 8469SOL    HW126306   3.683   2.167   6.858
 8469SOL    HW226307   3.843   2.193   6.837
 8470SOL     OW26308   2.662   2.284   6.323
 8470SOL    HW126309   2.672   2.250   6.416
 8470SOL    HW226310   2.677   2.210   6.258
 8471SOL     OW26311   3.862   0.954   3.777
 8471SOL    HW126312   3.829   1.048   3.767
 8471SOL    HW226313   3.950   0.945   3.729
 8472SOL     OW26314   1.806   6.131   3.043
 8472SOL    HW126315   1.836   6.155   2.951
 8472SOL    HW226316   1.711   6.158   3.055
 8473SOL     OW26317   6.895   5.660   0.002
 8473SOL    HW126318   6.804   5.656   0.044
 8473SOL    HW226319   6.909   5.578   6.961
 8474SOL     OW26320   4.152   4.381   0.950
 8474SOL    HW126321   4.229   4.336   0.994
 8474SOL    HW226322   4.078   4.314   0.937
 8475SOL     OW26323   4.482   1.191   3.403
 8475SOL    HW126324   4.502   1.200   3.305
 8475SOL    HW226325   4.505   1.099   3.434
 8476SOL     OW26326   4.755   0.045   2.490
 8476SOL    HW126327   4.791   0.118   2.547
 8476SOL    HW226328   4.829   0.005   2.436
 8477SOL     OW26329   2.638   1.082   1.690
 8477SOL    HW126330   2.572   1.144   1.732
 8477SOL    HW226331   2.679   1.023   1.761
 8478SOL     OW26332   1.835   0.252   5.845
 8478SOL    HW126333   1.921   0.299   5.865
 8478SOL    HW226334   1.855   0.164   5.801
 8479SOL     OW26335   4.808   1.076   1.772
 8479SOL    HW126336   4.878   1.118   1.830
 8479SOL    HW226337   4.777   1.142   1.704
 8480SOL     OW26338   1.867   1.243   1.303
 8480SOL    HW126339   1.788   1.200   1.260
 8480SOL    HW226340   1.844   1.268   1.397
 8481SOL     OW26341   4.047   0.167   4.255
 8481SOL    HW126342   3.978   0.179   4.183
 8481SOL    HW226343   4.135   0.202   4.222
 8482SOL     OW26344   0.897   0.331   2.218
 8482SOL    HW126345   0.865   0.277   2.140
 8482SOL    HW226346   0.840   0.412   2.229
 8483SOL     OW26347   4.150   5.973   1.843
 8483SOL    HW126348   4.125   5.906   1.912
 8483SOL    HW226349   4.192   5.927   1.765
 8484SOL     OW26350   0.512   5.096   4.568
 8484SOL    HW126351   0.463   5.038   4.633
 8484SOL    HW226352   0.594   5.050   4.536
 8485SOL     OW26353   3.120   3.300   5.998
 8485SOL    HW126354   3.065   3.331   5.921
 8485SOL    HW226355   3.193   3.241   5.965
 8486SOL     OW26356   4.543   0.804   2.522
 8486SOL    HW126357   4.478   0.781   2.450
 8486SOL    HW226358   4.616   0.861   2.484
 8487SOL     OW26359   4.415   6.895   0.957
 8487SOL    HW126360   4.325   6.903   0.999
 8487SOL    HW226361   4.415   6.818   0.893
 8488SOL     OW26362   4.877   3.004   4.584
 8488SOL    HW126363   4.786   3.028   4.617
 8488SOL    HW226364   4.931   2.967   4.659
 8489SOL     OW26365   4.228   4.907   2.745
 8489SOL    HW126366   4.146   4.851   2.733
 8489SOL    HW226367   4.219   4.961   2.829
 8490SOL     OW26368   3.636   5.651   2.808
 8490SOL    HW126369   3.685   5.696   2.882
 8490SOL    HW226370   3.652   5.552   2.813
 8491SOL     OW26371   2.273   0.891   2.333
 8491SOL    HW126372   2.180   0.890   2.370
 8491SOL    HW226373   2.293   0.982   2.296
 8492SOL     OW26374   5.439   3.674   4.814
 8492SOL    HW126375   5.348   3.634   4.814
 8492SOL    HW226376   5.507   3.603   4.828
 8493SOL     OW26377   3.653   2.336   0.880
 8493SOL    HW126378   3.666   2.295   0.790
 8493SOL    HW226379   3.669   2.267   0.951
 8494SOL     OW26380   3.177   5.172   6.799
 8494SOL    HW126381   3.265   5.145   6.761
 8494SOL    HW226382   3.160   5.268   6.778
 8495SOL     OW26383   0.189   2.521   0.585
 8495SOL    HW126384   0.216   2.426   0.570
 8495SOL    HW226385   0.267   2.573   0.620
 8496SOL     OW26386   6.968   2.974   3.273
 8496SOL    HW126387   0.018   3.036   3.318
 8496SOL    HW226388   6.906   2.935   3.341
 8497SOL     OW26389   6.155   5.428   3.171
 8497SOL    HW126390   6.181   5.357   3.236
 8497SOL    HW226391   6.128   5.510   3.220
 8498SOL     OW26392   0.040   0.989   0.881
 8498SOL    HW126393   6.958   1.019   0.877
 8498SOL    HW226394   0.095   1.047   0.821
 8499SOL     OW26395   3.392   3.905   6.689
 8499SOL    HW126396   3.299   3.932   6.713
 8499SOL    HW226397   3.394   3.870   6.595
 8500SOL     OW26398   3.080   1.087   6.289
 8500SOL    HW126399   3.108   1.111   6.382
 8500SOL    HW226400   3.157   1.047   6.240
 8501SOL     OW26401   1.902   4.273   6.085
 8501SOL    HW126402   1.805   4.259   6.065
 8501SOL    HW226403   1.954   4.273   6.000
 8502SOL     OW26404   0.138   0.542   2.274
 8502SOL    HW126405   0.112   0.465   2.216
 8502SOL    HW226406   0.236   0.538   2.292
 8503SOL     OW26407   2.594   5.612   2.807
 8503SOL    HW126408   2.665   5.550   2.839
 8503SOL    HW226409   2.614   5.705   2.838
 8504SOL     OW26410   0.733   5.666   3.451
 8504SOL    HW126411   0.738   5.659   3.352
 8504SOL    HW226412   0.640   5.645   3.482
 8505SOL     OW26413   4.812   2.992   3.600
 8505SOL    HW126414   4.771   3.049   3.671
 8505SOL    HW226415   4.907   3.018   3.586
 8506SOL     OW26416   0.720   6.518   0.405
 8506SOL    HW126417   0.770   6.514   0.491
 8506SOL    HW226418   0.714   6.612   0.373
 8507SOL     OW26419   1.838   0.693   4.976
 8507SOL    HW126420   1.804   0.776   4.932
 8507SOL    HW226421   1.827   0.702   5.076
 8508SOL     OW26422   1.310   2.202   6.053
 8508SOL    HW126423   1.384   2.171   5.994
 8508SOL    HW226424   1.333   2.183   6.149
 8509SOL     OW26425   6.369   2.003   4.530
 8509SOL    HW126426   6.391   1.911   4.500
 8509SOL    HW226427   6.274   2.008   4.559
 8510SOL     OW26428   5.401   7.009   2.813
 8510SOL    HW126429   5.378   0.085   2.776
 8510SOL    HW226430   5.450   0.006   2.900
 8511SOL     OW26431   6.821   4.847   1.883
 8511SOL    HW126432   6.773   4.772   1.927
 8511SOL    HW226433   6.904   4.813   1.839
 8512SOL     OW26434   4.537   1.988   0.445
 8512SOL    HW126435   4.581   1.969   0.357
 8512SOL    HW226436   4.531   2.087   0.457
 8513SOL     OW26437   6.917   4.167   1.040
 8513SOL    HW126438   6.878   4.157   1.132
 8513SOL    HW226439   0.003   4.157   1.045
 8514SOL     OW26440   2.738   2.545   5.817
 8514SOL    HW126441   2.808   2.484   5.781
 8514SOL    HW226442   2.696   2.597   5.743
 8515SOL     OW26443   1.048   0.523   1.123
 8515SOL    HW126444   0.968   0.525   1.063
 8515SOL    HW226445   1.026   0.567   1.209
 8516SOL     OW26446   5.813   2.036   3.358
 8516SOL    HW126447   5.764   1.981   3.426
 8516SOL    HW226448   5.831   1.981   3.277
 8517SOL     OW26449   1.986   1.964   5.278
 8517SOL    HW126450   1.974   2.007   5.367
 8517SOL    HW226451   2.077   1.922   5.273
 8518SOL     OW26452   5.376   4.854   0.273
 8518SOL    HW126453   5.288   4.809   0.289
 8518SOL    HW226454   5.424   4.809   0.198
 8519SOL     OW26455   0.981   3.419   0.729
 8519SOL    HW126456   1.014   3.509   0.758
 8519SOL    HW226457   1.025   3.348   0.785
 8520SOL     OW26458   4.191   4.110   6.098
 8520SOL    HW126459   4.096   4.121   6.125
 8520SOL    HW226460   4.225   4.196   6.061
 8521SOL     OW26461   1.919   6.406   5.705
 8521SOL    HW126462   1.858   6.389   5.627
 8521SOL    HW226463   1.886   6.355   5.784
 8522SOL     OW26464   0.934   6.874   0.476
 8522SOL    HW126465   0.945   6.945   0.546
 8522SOL    HW226466   0.837   6.863   0.455
 8523SOL     OW26467   2.799   1.292   0.032
 8523SOL    HW126468   2.892   1.293   0.069
 8523SOL    HW226469   2.736   1.255   0.100
 8524SOL     OW26470   2.154   5.698   4.714
 8524SOL    HW126471   2.102   5.643   4.778
 8524SOL    HW226472   2.244   5.718   4.752
 8525SOL     OW26473   6.564   4.798   1.325
 8525SOL    HW126474   6.593   4.759   1.412
 8525SOL    HW226475   6.474   4.762   1.301
 8526SOL     OW26476   1.421   6.149   0.352
 8526SOL    HW126477   1.472   6.144   0.437
 8526SOL    HW226478   1.483   6.174   0.277
 8527SOL     OW26479   3.101   0.750   5.573
 8527SOL    HW126480   3.176   0.684   5.573
 8527SOL    HW226481   3.061   0.755   5.482
 8528SOL     OW26482   5.262   1.896   0.585
 8528SOL    HW126483   5.195   1.941   0.526
 8528SOL    HW226484   5.350   1.890   0.538
 8529SOL     OW26485   1.108   6.054   6.453
 8529SOL    HW126486   1.148   6.045   6.545
 8529SOL    HW226487   1.107   6.151   6.427
 8530SOL     OW26488   3.331   4.016   4.272
 8530SOL    HW126489   3.258   4.050   4.331
 8530SOL    HW226490   3.330   3.916   4.271
 8531SOL     OW26491   6.581   5.325   4.020
 8531SOL    HW126492   6.511   5.383   4.063
 8531SOL    HW226493   6.580   5.235   4.063
 8532SOL     OW26494   2.432   5.162   4.837
 8532SOL    HW126495   2.346   5.196   4.874
 8532SOL    HW226496   2.507   5.224   4.863
 8533SOL     OW26497   2.214   5.774   5.031
 8533SOL    HW126498   2.240   5.716   5.108
 8533SOL    HW226499   2.285   5.771   4.961
 8534SOL     OW26500   3.158   2.147   4.262
 8534SOL    HW126501   3.180   2.118   4.355
 8534SOL    HW226502   3.239   2.142   4.205
 8535SOL     OW26503   6.165   0.368   2.877
 8535SOL    HW126504   6.176   0.292   2.941
 8535SOL    HW226505   6.114   0.442   2.921
 8536SOL     OW26506   0.558   1.073   4.556
 8536SOL    HW126507   0.653   1.047   4.537
 8536SOL    HW226508   0.546   1.171   4.540
 8537SOL     OW26509   6.527   1.129   2.846
 8537SOL    HW126510   6.542   1.032   2.824
 8537SOL    HW226511   6.600   1.161   2.905
 8538SOL     OW26512   1.427   2.339   0.335
 8538SOL    HW126513   1.393   2.278   0.407
 8538SOL    HW226514   1.350   2.371   0.279
 8539SOL     OW26515   5.904   2.521   3.173
 8539SOL    HW126516   5.852   2.592   3.126
 8539SOL    HW226517   5.990   2.560   3.205
 8540SOL     OW26518   3.933   0.019   0.725
 8540SOL    HW126519   3.960   0.068   0.642
 8540SOL    HW226520   3.864   0.072   0.774
 8541SOL     OW26521   1.994   2.787   4.613
 8541SOL    HW126522   1.960   2.859   4.673
 8541SOL    HW226523   2.094   2.790   4.611
 8542SOL     OW26524   3.505   4.598   0.355
 8542SOL    HW126525   3.556   4.589   0.441
 8542SOL    HW226526   3.436   4.670   0.365
 8543SOL     OW26527   2.432   2.231   6.140
 8543SOL    HW126528   2.411   2.146   6.190
 8543SOL    HW226529   2.454   2.303   6.205
 8544SOL     OW26530   6.582   3.188   3.129
 8544SOL    HW126531   6.607   3.142   3.044
 8544SOL    HW226532   6.538   3.123   3.191
 8545SOL     OW26533   5.027   6.714   4.850
 8545SOL    HW126534   5.097   6.644   4.836
 8545SOL    HW226535   5.063   6.803   4.822
 8546SOL     OW26536   4.367   1.944   5.570
 8546SOL    HW126537   4.275   1.964   5.602
 8546SOL    HW226538   4.362   1.898   5.481
 8547SOL     OW26539   0.759   4.273   3.144
 8547SOL    HW126540   0.775   4.334   3.067
 8547SOL    HW226541   0.713   4.190   3.112
 8548SOL     OW26542   6.092   1.520   5.823
 8548SOL    HW126543   6.043   1.591   5.873
 8548SOL    HW226544   6.030   1.476   5.758
 8549SOL     OW26545   5.607   3.336   5.012
 8549SOL    HW126546   5.589   3.386   5.096
 8549SOL    HW226547   5.690   3.282   5.022
 8550SOL     OW26548   0.976   4.008   6.537
 8550SOL    HW126549   0.954   4.041   6.629
 8550SOL    HW226550   1.001   3.911   6.541
 8551SOL     OW26551   3.535   3.829   0.338
 8551SOL    HW126552   3.470   3.752   0.333
 8551SOL    HW226553   3.550   3.853   0.434
 8552SOL     OW26554   2.864   6.419   3.864
 8552SOL    HW126555   2.930   6.369   3.807
 8552SOL    HW226556   2.774   6.377   3.854
 8553SOL     OW26557   5.597   6.240   0.457
 8553SOL    HW126558   5.509   6.251   0.411
 8553SOL    HW226559   5.669   6.225   0.388
 8554SOL     OW26560   6.307   4.437   0.260
 8554SOL    HW126561   6.329   4.524   0.304
 8554SOL    HW226562   6.240   4.452   0.188
 8555SOL     OW26563   1.088   7.009   4.162
 8555SOL    HW126564   1.028   0.063   4.205
 8555SOL    HW226565   1.057   6.917   4.186
 8556SOL     OW26566   6.523   0.143   3.558
 8556SOL    HW126567   6.433   0.146   3.601
 8556SOL    HW226568   6.592   0.117   3.626
 8557SOL     OW26569   0.118   0.923   1.350
 8557SOL    HW126570   0.117   1.020   1.328
 8557SOL    HW226571   0.108   0.869   1.267
 8558SOL     OW26572   1.326   5.164   1.876
 8558SOL    HW126573   1.358   5.254   1.905
 8558SOL    HW226574   1.246   5.175   1.817
 8559SOL     OW26575   0.514   1.126   6.228
 8559SOL    HW126576   0.585   1.091   6.289
 8559SOL    HW226577   0.554   1.191   6.163
 8560SOL     OW26578   6.157   2.838   6.694
 8560SOL    HW126579   6.119   2.914   6.746
 8560SOL    HW226580   6.130   2.847   6.598
 8561SOL     OW26581   4.664   6.404   4.368
 8561SOL    HW126582   4.620   6.470   4.308
 8561SOL    HW226583   4.655   6.312   4.329
 8562SOL     OW26584   3.698   6.691   4.661
 8562SOL    HW126585   3.765   6.637   4.610
 8562SOL    HW226586   3.640   6.630   4.715
 8563SOL     OW26587   2.660   2.846   5.811
 8563SOL    HW126588   2.714   2.910   5.757
 8563SOL    HW226589   2.650   2.881   5.905
 8564SOL     OW26590   0.558   0.028   3.794
 8564SOL    HW126591   0.578   6.963   3.853
 8564SOL    HW226592   0.630   0.039   3.726
 8565SOL     OW26593   4.255   0.179   1.584
 8565SOL    HW126594   4.304   0.181   1.671
 8565SOL    HW226595   4.213   0.088   1.572
 8566SOL     OW26596   2.096   3.302   3.660
 8566SOL    HW126597   2.134   3.261   3.743
 8566SOL    HW226598   2.068   3.230   3.597
 8567SOL     OW26599   5.503   6.815   0.997
 8567SOL    HW126600   5.420   6.762   0.977
 8567SOL    HW226601   5.551   6.773   1.074
 8568SOL     OW26602   5.378   1.110   0.212
 8568SOL    HW126603   5.309   1.155   0.156
 8568SOL    HW226604   5.412   1.175   0.281
 8569SOL     OW26605   4.099   1.225   4.708
 8569SOL    HW126606   4.189   1.262   4.686
 8569SOL    HW226607   4.096   1.204   4.806
 8570SOL     OW26608   0.750   4.579   0.034
 8570SOL    HW126609   0.723   4.613   0.124
 8570SOL    HW226610   0.761   4.656   6.985
 8571SOL     OW26611   0.025   4.304   5.092
 8571SOL    HW126612   0.117   4.287   5.055
 8571SOL    HW226613   0.000   4.399   5.076
 8572SOL     OW26614   2.686   5.168   5.594
 8572SOL    HW126615   2.750   5.094   5.570
 8572SOL    HW226616   2.710   5.251   5.543
 8573SOL     OW26617   3.775   5.847   4.844
 8573SOL    HW126618   3.812   5.755   4.852
 8573SOL    HW226619   3.831   5.901   4.781
 8574SOL     OW26620   0.235   3.676   4.719
 8574SOL    HW126621   0.160   3.708   4.661
 8574SOL    HW226622   0.222   3.579   4.741
 8575SOL     OW26623   3.219   3.304   6.847
 8575SOL    HW126624   3.216   3.319   6.749
 8575SOL    HW226625   3.177   3.382   6.894
 8576SOL     OW26626   1.502   0.021   1.730
 8576SOL    HW126627   1.464   6.989   1.649
 8576SOL    HW226628   1.440   0.008   1.807
 8577SOL     OW26629   6.491   5.644   3.073
 8577SOL    HW126630   6.585   5.614   3.061
 8577SOL    HW226631   6.459   5.617   3.164
 8578SOL     OW26632   4.335   6.849   3.523
 8578SOL    HW126633   4.332   6.750   3.540
 8578SOL    HW226634   4.414   6.888   3.571
 8579SOL     OW26635   0.769   5.973   3.173
 8579SOL    HW126636   0.772   6.073   3.178
 8579SOL    HW226637   0.728   5.937   3.257
 8580SOL     OW26638   2.615   4.388   6.717
 8580SOL    HW126639   2.667   4.353   6.639
 8580SOL    HW226640   2.520   4.359   6.710
 8581SOL     OW26641   3.048   2.659   1.439
 8581SOL    HW126642   3.098   2.641   1.354
 8581SOL    HW226643   3.053   2.757   1.460
 8582SOL     OW26644   4.402   4.280   1.035
 8582SOL    HW126645   4.491   4.236   1.027
 8582SOL    HW226646   4.409   4.358   1.097
 8583SOL     OW26647   5.915   6.904   6.216
 8583SOL    HW126648   5.985   6.836   6.239
 8583SOL    HW226649   5.841   6.860   6.166
 8584SOL     OW26650   0.230   5.310   6.652
 8584SOL    HW126651   0.221   5.212   6.668
 8584SOL    HW226652   0.230   5.328   6.554
 8585SOL     OW26653   0.616   1.663   0.785
 8585SOL    HW126654   0.595   1.619   0.698
 8585SOL    HW226655   0.691   1.615   0.830
 8586SOL     OW26656   4.186   5.326   3.885
 8586SOL    HW126657   4.273   5.375   3.872
 8586SOL    HW226658   4.111   5.382   3.851
 8587SOL     OW26659   6.786   1.580   1.120
 8587SOL    HW126660   6.712   1.644   1.141
 8587SOL    HW226661   6.797   1.516   1.196
 8588SOL     OW26662   4.508   2.113   6.852
 8588SOL    HW126663   4.446   2.185   6.822
 8588SOL    HW226664   4.498   2.098   6.950
 8589SOL     OW26665   2.744   1.877   4.633
 8589SOL    HW126666   2.679   1.925   4.692
 8589SOL    HW226667   2.822   1.937   4.614
 8590SOL     OW26668   6.276   4.760   5.837
 8590SOL    HW126669   6.242   4.712   5.917
 8590SOL    HW226670   6.236   4.851   5.833
 8591SOL     OW26671   1.241   3.243   6.929
 8591SOL    HW126672   1.254   3.170   6.996
 8591SOL    HW226673   1.240   3.205   6.837
 8592SOL     OW26674   6.247   5.452   6.402
 8592SOL    HW126675   6.243   5.400   6.317
 8592SOL    HW226676   6.281   5.544   6.383
 8593SOL     OW26677   0.963   0.495   2.681
 8593SOL    HW126678   0.877   0.465   2.641
 8593SOL    HW226679   0.946   0.532   2.773
 8594SOL     OW26680   3.461   3.374   3.941
 8594SOL    HW126681   3.523   3.385   3.864
 8594SOL    HW226682   3.397   3.451   3.944
 8595SOL     OW26683   1.706   2.524   1.733
 8595SOL    HW126684   1.672   2.599   1.676
 8595SOL    HW226685   1.788   2.554   1.782
 8596SOL     OW26686   6.311   4.829   2.242
 8596SOL    HW126687   6.221   4.867   2.217
 8596SOL    HW226688   6.373   4.836   2.164
 8597SOL     OW26689   1.586   1.427   0.649
 8597SOL    HW126690   1.680   1.407   0.620
 8597SOL    HW226691   1.533   1.343   0.652
 8598SOL     OW26692   5.403   4.546   0.454
 8598SOL    HW126693   5.433   4.451   0.469
 8598SOL    HW226694   5.394   4.562   0.356
 8599SOL     OW26695   1.180   3.342   2.562
 8599SOL    HW126696   1.179   3.440   2.581
 8599SOL    HW226697   1.257   3.321   2.501
 8600SOL     OW26698   6.226   4.079   6.745
 8600SOL    HW126699   6.252   3.989   6.780
 8600SOL    HW226700   6.308   4.134   6.732
 8601SOL     OW26701   6.851   0.118   4.115
 8601SOL    HW126702   6.930   0.114   4.054
 8601SOL    HW226703   6.799   0.033   4.109
 8602SOL     OW26704   3.207   6.537   1.971
 8602SOL    HW126705   3.296   6.546   2.016
 8602SOL    HW226706   3.216   6.561   1.874
 8603SOL     OW26707   4.258   3.274   0.955
 8603SOL    HW126708   4.286   3.258   1.049
 8603SOL    HW226709   4.159   3.281   0.949
 8604SOL     OW26710   5.592   2.495   2.803
 8604SOL    HW126711   5.684   2.508   2.765
 8604SOL    HW226712   5.597   2.492   2.902
 8605SOL     OW26713   2.741   6.683   1.896
 8605SOL    HW126714   2.718   6.621   1.971
 8605SOL    HW226715   2.666   6.685   1.830
 8606SOL     OW26716   4.192   4.798   5.844
 8606SOL    HW126717   4.274   4.853   5.826
 8606SOL    HW226718   4.149   4.773   5.757
 8607SOL     OW26719   3.736   6.092   1.697
 8607SOL    HW126720   3.681   6.094   1.614
 8607SOL    HW226721   3.808   6.161   1.691
 8608SOL     OW26722   4.621   6.014   2.557
 8608SOL    HW126723   4.546   6.026   2.492
 8608SOL    HW226724   4.673   5.931   2.533
 8609SOL     OW26725   3.962   0.375   5.700
 8609SOL    HW126726   3.911   0.329   5.772
 8609SOL    HW226727   3.989   0.466   5.730
 8610SOL     OW26728   6.773   6.638   4.267
 8610SOL    HW126729   6.791   6.544   4.237
 8610SOL    HW226730   6.708   6.681   4.205
 8611SOL     OW26731   1.582   1.893   3.565
 8611SOL    HW126732   1.524   1.905   3.645
 8611SOL    HW226733   1.678   1.904   3.591
 8612SOL     OW26734   4.614   2.986   5.253
 8612SOL    HW126735   4.652   2.924   5.322
 8612SOL    HW226736   4.633   2.950   5.162
 8613SOL     OW26737   1.274   1.502   0.463
 8613SOL    HW126738   1.319   1.441   0.398
 8613SOL    HW226739   1.337   1.575   0.490
 8614SOL     OW26740   1.167   1.512   3.334
 8614SOL    HW126741   1.080   1.496   3.287
 8614SOL    HW226742   1.199   1.605   3.313
 8615SOL     OW26743   4.583   2.561   5.129
 8615SOL    HW126744   4.504   2.589   5.184
 8615SOL    HW226745   4.552   2.521   5.043
 8616SOL     OW26746   1.753   3.245   6.683
 8616SOL    HW126747   1.816   3.168   6.686
 8616SOL    HW226748   1.805   3.330   6.674
 8617SOL     OW26749   5.861   3.138   1.184
 8617SOL    HW126750   5.766   3.167   1.185
 8617SOL    HW226751   5.906   3.168   1.269
 8618SOL     OW26752   4.721   0.463   4.154
 8618SOL    HW126753   4.645   0.513   4.114
 8618SOL    HW226754   4.796   0.526   4.174
 8619SOL     OW26755   4.820   5.802   0.777
 8619SOL    HW126756   4.852   5.717   0.734
 8619SOL    HW226757   4.725   5.818   0.751
 8620SOL     OW26758   5.985   6.660   3.304
 8620SOL    HW126759   5.966   6.590   3.372
 8620SOL    HW226760   6.020   6.742   3.349
 8621SOL     OW26761   5.900   0.770   3.227
 8621SOL    HW126762   5.815   0.812   3.259
 8621SOL    HW226763   5.956   0.839   3.181
 8622SOL     OW26764   5.531   5.198   6.866
 8622SOL    HW126765   5.573   5.208   6.956
 8622SOL    HW226766   5.436   5.169   6.876
 8623SOL     OW26767   6.587   2.802   2.700
 8623SOL    HW126768   6.526   2.793   2.779
 8623SOL    HW226769   6.579   2.894   2.662
 8624SOL     OW26770   0.544   4.977   3.877
 8624SOL    HW126771   0.627   5.032   3.877
 8624SOL    HW226772   0.541   4.921   3.794
 8625SOL     OW26773   4.097   0.613   5.504
 8625SOL    HW126774   4.026   0.611   5.574
 8625SOL    HW226775   4.162   0.687   5.524
 8626SOL     OW26776   2.968   3.752   2.889
 8626SOL    HW126777   3.039   3.681   2.888
 8626SOL    HW226778   2.913   3.744   2.972
 8627SOL     OW26779   2.227   0.241   6.499
 8627SOL    HW126780   2.171   0.318   6.530
 8627SOL    HW226781   2.293   0.273   6.432
 8628SOL     OW26782   6.086   1.220   0.272
 8628SOL    HW126783   6.134   1.283   0.211
 8628SOL    HW226784   6.125   1.226   0.364
 8629SOL     OW26785   1.109   4.849   4.112
 8629SOL    HW126786   1.124   4.758   4.073
 8629SOL    HW226787   1.070   4.909   4.043
 8630SOL     OW26788   5.473   4.222   4.352
 8630SOL    HW126789   5.415   4.143   4.375
 8630SOL    HW226790   5.454   4.251   4.258
 8631SOL     OW26791   3.782   5.930   4.305
 8631SOL    HW126792   3.815   6.023   4.322
 8631SOL    HW226793   3.806   5.903   4.211
 8632SOL     OW26794   4.732   0.324   3.526
 8632SOL    HW126795   4.642   0.288   3.502
 8632SOL    HW226796   4.800   0.289   3.462
 8633SOL     OW26797   6.412   0.681   3.975
 8633SOL    HW126798   6.474   0.635   4.039
 8633SOL    HW226799   6.465   0.723   3.902
 8634SOL     OW26800   6.498   5.117   1.679
 8634SOL    HW126801   6.583   5.064   1.675
 8634SOL    HW226802   6.490   5.174   1.596
 8635SOL     OW26803   6.391   4.184   5.268
 8635SOL    HW126804   6.427   4.267   5.312
 8635SOL    HW226805   6.399   4.193   5.169
 8636SOL     OW26806   5.402   5.917   0.427
 8636SOL    HW126807   5.501   5.916   0.441
 8636SOL    HW226808   5.358   5.856   0.492
 8637SOL     OW26809   1.688   0.480   1.329
 8637SOL    HW126810   1.702   0.556   1.265
 8637SOL    HW226811   1.731   0.398   1.293
 8638SOL     OW26812   3.931   5.340   0.344
 8638SOL    HW126813   3.896   5.248   0.366
 8638SOL    HW226814   3.966   5.340   0.251
 8639SOL     OW26815   0.092   2.816   2.539
 8639SOL    HW126816   0.143   2.743   2.494
 8639SOL    HW226817   0.007   2.779   2.577
 8640SOL     OW26818   5.245   6.370   1.190
 8640SOL    HW126819   5.333   6.387   1.146
 8640SOL    HW226820   5.172   6.380   1.123
 8641SOL     OW26821   5.438   4.461   3.196
 8641SOL    HW126822   5.360   4.421   3.245
 8641SOL    HW226823   5.517   4.400   3.203
 8642SOL     OW26824   4.914   1.685   1.399
 8642SOL    HW126825   4.934   1.627   1.478
 8642SOL    HW226826   4.989   1.681   1.334
 8643SOL     OW26827   4.759   1.182   5.999
 8643SOL    HW126828   4.804   1.269   6.019
 8643SOL    HW226829   4.673   1.200   5.952
 8644SOL     OW26830   6.142   3.116   5.256
 8644SOL    HW126831   6.048   3.133   5.284
 8644SOL    HW226832   6.149   3.026   5.213
 8645SOL     OW26833   6.101   4.608   1.754
 8645SOL    HW126834   6.193   4.631   1.785
 8645SOL    HW226835   6.077   4.517   1.789
 8646SOL     OW26836   5.440   1.214   0.478
 8646SOL    HW126837   5.502   1.245   0.550
 8646SOL    HW226838   5.373   1.151   0.517
 8647SOL     OW26839   4.395   5.227   1.745
 8647SOL    HW126840   4.411   5.311   1.692
 8647SOL    HW226841   4.311   5.184   1.714
 8648SOL     OW26842   5.320   2.095   4.503
 8648SOL    HW126843   5.366   2.039   4.435
 8648SOL    HW226844   5.386   2.124   4.573
 8649SOL     OW26845   6.810   4.583   5.687
 8649SOL    HW126846   6.886   4.617   5.742
 8649SOL    HW226847   6.836   4.582   5.590
 8650SOL     OW26848   1.545   4.674   2.437
 8650SOL    HW126849   1.581   4.600   2.380
 8650SOL    HW226850   1.524   4.753   2.380
 8651SOL     OW26851   3.126   1.678   1.404
 8651SOL    HW126852   3.088   1.668   1.496
 8651SOL    HW226853   3.158   1.590   1.371
 8652SOL     OW26854   1.782   3.639   3.872
 8652SOL    HW126855   1.839   3.697   3.814
 8652SOL    HW226856   1.802   3.543   3.852
 8653SOL     OW26857   6.584   3.604   6.595
 8653SOL    HW126858   6.595   3.686   6.539
 8653SOL    HW226859   6.672   3.557   6.602
 8654SOL     OW26860   0.396   0.200   3.048
 8654SOL    HW126861   0.468   0.144   3.008
 8654SOL    HW226862   0.342   0.242   2.975
 8655SOL     OW26863   6.027   5.996   4.320
 8655SOL    HW126864   5.978   5.986   4.234
 8655SOL    HW226865   6.106   5.935   4.322
 8656SOL     OW26866   5.795   2.413   1.548
 8656SOL    HW126867   5.764   2.447   1.637
 8656SOL    HW226868   5.776   2.481   1.478
 8657SOL     OW26869   3.347   4.247   0.179
 8657SOL    HW126870   3.385   4.221   0.268
 8657SOL    HW226871   3.371   4.178   0.111
 8658SOL     OW26872   6.845   5.340   0.444
 8658SOL    HW126873   6.906   5.261   0.443
 8658SOL    HW226874   6.872   5.402   0.518
 8659SOL     OW26875   5.390   0.651   4.504
 8659SOL    HW126876   5.469   0.590   4.494
 8659SOL    HW226877   5.400   0.707   4.586
 8660SOL     OW26878   5.872   4.686   1.365
 8660SOL    HW126879   5.826   4.747   1.429
 8660SOL    HW226880   5.880   4.595   1.405
 8661SOL     OW26881   6.531   3.710   1.675
 8661SOL    HW126882   6.579   3.688   1.760
 8661SOL    HW226883   6.583   3.778   1.624
 8662SOL     OW26884   0.235   0.262   0.636
 8662SOL    HW126885   0.313   0.322   0.617
 8662SOL    HW226886   0.165   0.275   0.566
 8663SOL     OW26887   2.400   5.400   0.374
 8663SOL    HW126888   2.357   5.338   0.309
 8663SOL    HW226889   2.330   5.443   0.431
 8664SOL     OW26890   4.269   5.325   0.971
 8664SOL    HW126891   4.358   5.297   0.937
 8664SOL    HW226892   4.272   5.335   1.070
 8665SOL     OW26893   5.253   5.613   5.789
 8665SOL    HW126894   5.273   5.536   5.849
 8665SOL    HW226895   5.258   5.584   5.694
 8666SOL     OW26896   5.201   3.514   4.752
 8666SOL    HW126897   5.102   3.524   4.757
 8666SOL    HW226898   5.230   3.514   4.656
 8667SOL     OW26899   4.900   1.681   3.728
 8667SOL    HW126900   4.964   1.662   3.654
 8667SOL    HW226901   4.809   1.702   3.690
 8668SOL     OW26902   3.489   1.828   4.378
 8668SOL    HW126903   3.529   1.912   4.341
 8668SOL    HW226904   3.561   1.770   4.415
 8669SOL     OW26905   4.141   0.825   6.095
 8669SOL    HW126906   4.211   0.775   6.045
 8669SOL    HW226907   4.166   0.829   6.192
 8670SOL     OW26908   3.700   5.082   4.392
 8670SOL    HW126909   3.614   5.090   4.442
 8670SOL    HW226910   3.764   5.152   4.425
 8671SOL     OW26911   5.716   6.282   2.869
 8671SOL    HW126912   5.677   6.329   2.948
 8671SOL    HW226913   5.752   6.350   2.805
 8672SOL     OW26914   3.077   4.852   5.017
 8672SOL    HW126915   3.001   4.841   4.954
 8672SOL    HW226916   3.066   4.789   5.095
 8673SOL     OW26917   5.625   2.090   0.996
 8673SOL    HW126918   5.566   2.170   0.986
 8673SOL    HW226919   5.570   2.007   0.985
 8674SOL     OW26920   0.735   0.363   2.589
 8674SOL    HW126921   0.728   0.337   2.685
 8674SOL    HW226922   0.755   0.282   2.533
 8675SOL     OW26923   2.060   1.618   2.813
 8675SOL    HW126924   2.110   1.540   2.775
 8675SOL    HW226925   1.991   1.585   2.877
 8676SOL     OW26926   4.460   0.287   3.477
 8676SOL    HW126927   4.441   0.364   3.539
 8676SOL    HW226928   4.375   0.238   3.457
 8677SOL     OW26929   2.773   4.385   5.600
 8677SOL    HW126930   2.849   4.448   5.619
 8677SOL    HW226931   2.790   4.337   5.514
 8678SOL     OW26932   0.971   0.121   6.523
 8678SOL    HW126933   0.956   0.193   6.455
 8678SOL    HW226934   0.960   0.159   6.615
 8679SOL     OW26935   0.014   2.472   4.400
 8679SOL    HW126936   0.081   2.532   4.444
 8679SOL    HW226937   7.013   2.391   4.456
 8680SOL     OW26938   1.630   3.489   0.329
 8680SOL    HW126939   1.658   3.485   0.233
 8680SOL    HW226940   1.677   3.565   0.374
 8681SOL     OW26941   3.830   3.698   1.103
 8681SOL    HW126942   3.894   3.724   1.030
 8681SOL    HW226943   3.739   3.735   1.083
 8682SOL     OW26944   2.197   6.215   2.671
 8682SOL    HW126945   2.135   6.286   2.638
 8682SOL    HW226946   2.148   6.155   2.735
 8683SOL     OW26947   6.684   3.263   6.852
 8683SOL    HW126948   6.764   3.231   6.903
 8683SOL    HW226949   6.703   3.259   6.754
 8684SOL     OW26950   6.603   2.763   3.923
 8684SOL    HW126951   6.609   2.678   3.977
 8684SOL    HW226952   6.519   2.811   3.946
 8685SOL     OW26953   1.043   2.172   5.405
 8685SOL    HW126954   1.044   2.235   5.483
 8685SOL    HW226955   1.003   2.085   5.434
 8686SOL     OW26956   6.213   2.320   3.230
 8686SOL    HW126957   6.143   2.317   3.302
 8686SOL    HW226958   6.291   2.374   3.262
 8687SOL     OW26959   3.942   0.174   3.169
 8687SOL    HW126960   3.968   0.083   3.137
 8687SOL    HW226961   3.859   0.204   3.122
 8688SOL     OW26962   1.999   0.696   2.049
 8688SOL    HW126963   2.039   0.788   2.050
 8688SOL    HW226964   1.986   0.667   1.954
 8689SOL     OW26965   4.558   5.852   0.728
 8689SOL    HW126966   4.495   5.859   0.651
 8689SOL    HW226967   4.528   5.779   0.789
 8690SOL     OW26968   0.517   1.519   2.837
 8690SOL    HW126969   0.466   1.453   2.781
 8690SOL    HW226970   0.613   1.493   2.839
 8691SOL     OW26971   5.309   2.279   0.740
 8691SOL    HW126972   5.298   2.242   0.648
 8691SOL    HW226973   5.269   2.371   0.743
 8692SOL     OW26974   2.075   1.413   4.179
 8692SOL    HW126975   1.983   1.376   4.162
 8692SOL    HW226976   2.077   1.458   4.268
 8693SOL     OW26977   5.399   2.269   0.981
 8693SOL    HW126978   5.405   2.273   0.882
 8693SOL    HW226979   5.318   2.320   1.012
 8694SOL     OW26980   4.678   6.985   5.972
 8694SOL    HW126981   4.647   6.940   5.888
 8694SOL    HW226982   4.754   6.934   6.011
 8695SOL     OW26983   3.961   4.489   5.834
 8695SOL    HW126984   3.902   4.459   5.909
 8695SOL    HW226985   4.039   4.427   5.826
 8696SOL     OW26986   2.127   5.329   1.468
 8696SOL    HW126987   2.095   5.235   1.457
 8696SOL    HW226988   2.118   5.377   1.380
 8697SOL     OW26989   6.141   4.730   1.311
 8697SOL    HW126990   6.043   4.724   1.326
 8697SOL    HW226991   6.160   4.724   1.213
 8698SOL     OW26992   5.477   5.499   4.658
 8698SOL    HW126993   5.464   5.443   4.576
 8698SOL    HW226994   5.517   5.587   4.632
 8699SOL     OW26995   1.081   1.523   5.196
 8699SOL    HW126996   1.003   1.529   5.134
 8699SOL    HW226997   1.155   1.471   5.152
 8700SOL     OW26998   2.656   1.041   5.358
 8700SOL    HW126999   2.589   1.010   5.425
 8700SOL    HW227000   2.645   1.139   5.342
 8701SOL     OW27001   0.848   1.574   5.027
 8701SOL    HW127002   0.913   1.542   4.958
 8701SOL    HW227003   0.773   1.622   4.982
 8702SOL     OW27004   4.468   5.953   6.872
 8702SOL    HW127005   4.475   6.032   6.810
 8702SOL    HW227006   4.451   5.870   6.819
 8703SOL     OW27007   2.810   5.606   0.685
 8703SOL    HW127008   2.787   5.670   0.759
 8703SOL    HW227009   2.883   5.545   0.716
 8704SOL     OW27010   0.415   4.203   1.651
 8704SOL    HW127011   0.342   4.165   1.708
 8704SOL    HW227012   0.411   4.303   1.655
 8705SOL     OW27013   4.902   0.188   5.824
 8705SOL    HW127014   4.840   0.127   5.875
 8705SOL    HW227015   4.914   0.273   5.876
 8706SOL     OW27016   5.320   1.908   0.848
 8706SOL    HW127017   5.271   1.965   0.914
 8706SOL    HW227018   5.279   1.918   0.758
 8707SOL     OW27019   5.051   3.147   5.692
 8707SOL    HW127020   5.052   3.121   5.789
 8707SOL    HW227021   4.988   3.224   5.680
 8708SOL     OW27022   4.019   1.529   1.400
 8708SOL    HW127023   4.093   1.511   1.465
 8708SOL    HW227024   4.056   1.575   1.320
 8709SOL     OW27025   6.855   3.884   0.915
 8709SOL    HW127026   6.941   3.875   0.865
 8709SOL    HW227027   6.871   3.938   0.998
 8710SOL     OW27028   1.514   3.559   3.109
 8710SOL    HW127029   1.486   3.608   3.192
 8710SOL    HW227030   1.434   3.544   3.051
 8711SOL     OW27031   0.661   1.269   4.145
 8711SOL    HW127032   0.697   1.243   4.235
 8711SOL    HW227033   0.568   1.234   4.136
 8712SOL     OW27034   3.530   1.521   5.663
 8712SOL    HW127035   3.514   1.506   5.565
 8712SOL    HW227036   3.624   1.499   5.686
 8713SOL     OW27037   6.976   4.579   3.297
 8713SOL    HW127038   6.964   4.569   3.198
 8713SOL    HW227039   6.887   4.584   3.342
 8714SOL     OW27040   1.365   1.452   4.813
 8714SOL    HW127041   1.440   1.505   4.772
 8714SOL    HW227042   1.345   1.373   4.755
 8715SOL     OW27043   6.155   1.893   1.352
 8715SOL    HW127044   6.056   1.898   1.361
 8715SOL    HW227045   6.188   1.976   1.305
 8716SOL     OW27046   1.597   2.143   1.262
 8716SOL    HW127047   1.646   2.204   1.200
 8716SOL    HW227048   1.602   2.049   1.227
 8717SOL     OW27049   2.786   3.469   1.067
 8717SOL    HW127050   2.876   3.505   1.090
 8717SOL    HW227051   2.795   3.382   1.018
 8718SOL     OW27052   6.027   2.882   5.497
 8718SOL    HW127053   6.110   2.929   5.529
 8718SOL    HW227054   5.959   2.950   5.469
 8719SOL     OW27055   6.721   0.496   6.225
 8719SOL    HW127056   6.702   0.571   6.161
 8719SOL    HW227057   6.815   0.504   6.258
 8720SOL     OW27058   5.005   3.764   6.318
 8720SOL    HW127059   4.951   3.728   6.242
 8720SOL    HW227060   4.958   3.844   6.357
 8721SOL     OW27061   0.074   2.479   4.107
 8721SOL    HW127062   0.040   2.495   4.199
 8721SOL    HW227063   0.095   2.566   4.063
 8722SOL     OW27064   3.662   2.444   0.447
 8722SOL    HW127065   3.737   2.509   0.459
 8722SOL    HW227066   3.651   2.423   0.350
 8723SOL     OW27067   6.904   4.197   1.350
 8723SOL    HW127068   6.884   4.260   1.426
 8723SOL    HW227069   7.003   4.180   1.347
 8724SOL     OW27070   4.864   6.758   6.511
 8724SOL    HW127071   4.837   6.698   6.587
 8724SOL    HW227072   4.945   6.810   6.538
 8725SOL     OW27073   2.950   5.746   0.485
 8725SOL    HW127074   2.887   5.809   0.439
 8725SOL    HW227075   2.902   5.698   0.558
 8726SOL     OW27076   5.456   0.479   1.295
 8726SOL    HW127077   5.388   0.552   1.306
 8726SOL    HW227078   5.532   0.495   1.358
 8727SOL     OW27079   6.366   6.066   1.246
 8727SOL    HW127080   6.325   6.028   1.163
 8727SOL    HW227081   6.308   6.140   1.280
 8728SOL     OW27082   2.457   6.983   4.885
 8728SOL    HW127083   2.388   0.002   4.949
 8728SOL    HW227084   2.417   6.980   4.793
 8729SOL     OW27085   5.637   6.325   4.754
 8729SOL    HW127086   5.585   6.322   4.669
 8729SOL    HW227087   5.670   6.418   4.770
 8730SOL     OW27088   0.159   5.942   1.772
 8730SOL    HW127089   0.087   5.989   1.721
 8730SOL    HW227090   0.229   6.007   1.800
 8731SOL     OW27091   0.702   1.444   2.634
 8731SOL    HW127092   0.788   1.395   2.649
 8731SOL    HW227093   0.654   1.405   2.556
 8732SOL     OW27094   5.184   4.664   1.394
 8732SOL    HW127095   5.111   4.656   1.462
 8732SOL    HW227096   5.147   4.701   1.309
 8733SOL     OW27097   0.816   6.327   1.676
 8733SOL    HW127098   0.732   6.383   1.677
 8733SOL    HW227099   0.882   6.368   1.614
 8734SOL     OW27100   6.433   5.573   0.841
 8734SOL    HW127101   6.459   5.541   0.750
 8734SOL    HW227102   6.396   5.497   0.894
 8735SOL     OW27103   6.835   2.420   6.534
 8735SOL    HW127104   6.789   2.332   6.519
 8735SOL    HW227105   6.772   2.483   6.578
 8736SOL     OW27106   0.625   4.464   6.710
 8736SOL    HW127107   0.716   4.429   6.734
 8736SOL    HW227108   0.558   4.431   6.776
 8737SOL     OW27109   3.600   5.748   6.340
 8737SOL    HW127110   3.691   5.789   6.337
 8737SOL    HW227111   3.535   5.807   6.292
 8738SOL     OW27112   0.903   3.780   4.314
 8738SOL    HW127113   0.972   3.804   4.245
 8738SOL    HW227114   0.946   3.777   4.404
 8739SOL     OW27115   1.011   3.020   5.010
 8739SOL    HW127116   0.937   3.028   4.944
 8739SOL    HW227117   0.977   3.042   5.102
 8740SOL     OW27118   2.258   6.312   1.320
 8740SOL    HW127119   2.285   6.217   1.336
 8740SOL    HW227120   2.164   6.325   1.351
 8741SOL     OW27121   1.723   3.248   2.346
 8741SOL    HW127122   1.809   3.236   2.395
 8741SOL    HW227123   1.689   3.159   2.316
 8742SOL     OW27124   4.796   6.909   1.873
 8742SOL    HW127125   4.796   6.928   1.971
 8742SOL    HW227126   4.855   6.975   1.826
 8743SOL     OW27127   2.522   4.910   2.962
 8743SOL    HW127128   2.442   4.936   2.909
 8743SOL    HW227129   2.543   4.813   2.945
 8744SOL     OW27130   3.250   2.643   5.818
 8744SOL    HW127131   3.218   2.549   5.828
 8744SOL    HW227132   3.219   2.680   5.730
 8745SOL     OW27133   6.447   2.359   6.097
 8745SOL    HW127134   6.440   2.264   6.130
 8745SOL    HW227135   6.496   2.414   6.164
 8746SOL     OW27136   5.318   4.460   5.225
 8746SOL    HW127137   5.370   4.396   5.168
 8746SOL    HW227138   5.220   4.443   5.214
 8747SOL     OW27139   1.995   2.528   4.213
 8747SOL    HW127140   1.960   2.436   4.194
 8747SOL    HW227141   2.062   2.553   4.144
 8748SOL     OW27142   2.292   0.478   0.131
 8748SOL    HW127143   2.237   0.480   0.215
 8748SOL    HW227144   2.273   0.561   0.078
 8749SOL     OW27145   4.084   0.790   3.601
 8749SOL    HW127146   4.125   0.818   3.687
 8749SOL    HW227147   4.134   0.831   3.525
 8750SOL     OW27148   2.143   1.042   5.040
 8750SOL    HW127149   2.112   0.963   4.987
 8750SOL    HW227150   2.135   1.023   5.138
 8751SOL     OW27151   2.283   6.947   2.700
 8751SOL    HW127152   2.357   6.918   2.640
 8751SOL    HW227153   2.196   6.943   2.649
 8752SOL     OW27154   1.658   2.202   6.130
 8752SOL    HW127155   1.656   2.105   6.150
 8752SOL    HW227156   1.718   2.219   6.052
 8753SOL     OW27157   5.377   1.226   4.986
 8753SOL    HW127158   5.446   1.188   5.047
 8753SOL    HW227159   5.418   1.301   4.933
 8754SOL     OW27160   1.417   1.488   5.910
 8754SOL    HW127161   1.321   1.502   5.888
 8754SOL    HW227162   1.430   1.397   5.950
 8755SOL     OW27163   2.197   1.802   1.120
 8755SOL    HW127164   2.101   1.809   1.147
 8755SOL    HW227165   2.241   1.892   1.129
 8756SOL     OW27166   2.200   3.124   4.398
 8756SOL    HW127167   2.279   3.066   4.379
 8756SOL    HW227168   2.211   3.168   4.486
 8757SOL     OW27169   4.866   5.972   5.140
 8757SOL    HW127170   4.942   5.980   5.204
 8757SOL    HW227171   4.897   5.997   5.048
 8758SOL     OW27172   6.144   6.261   1.801
 8758SOL    HW127173   6.165   6.213   1.886
 8758SOL    HW227174   6.045   6.273   1.793
 8759SOL     OW27175   5.168   0.982   5.900
 8759SOL    HW127176   5.250   1.036   5.879
 8759SOL    HW227177   5.087   1.029   5.865
 8760SOL     OW27178   1.957   2.603   3.932
 8760SOL    HW127179   1.857   2.595   3.936
 8760SOL    HW227180   1.988   2.590   3.838
 8761SOL     OW27181   4.307   6.526   0.322
 8761SOL    HW127182   4.326   6.442   0.373
 8761SOL    HW227183   4.392   6.561   0.284
 8762SOL     OW27184   0.651   4.080   1.078
 8762SOL    HW127185   0.555   4.055   1.066
 8762SOL    HW227186   0.658   4.158   1.140
 8763SOL     OW27187   0.351   6.468   6.088
 8763SOL    HW127188   0.399   6.405   6.148
 8763SOL    HW227189   0.260   6.486   6.125
 8764SOL     OW27190   3.876   1.859   4.957
 8764SOL    HW127191   3.822   1.864   4.873
 8764SOL    HW227192   3.826   1.808   5.027
 8765SOL     OW27193   0.124   0.365   4.379
 8765SOL    HW127194   0.037   0.350   4.332
 8765SOL    HW227195   0.107   0.412   4.465
 8766SOL     OW27196   2.078   4.441   2.289
 8766SOL    HW127197   2.162   4.400   2.326
 8766SOL    HW227198   2.102   4.521   2.233
 8767SOL     OW27199   4.898   1.715   4.394
 8767SOL    HW127200   4.921   1.770   4.474
 8767SOL    HW227201   4.871   1.776   4.319
 8768SOL     OW27202   1.492   3.326   0.038
 8768SOL    HW127203   1.546   3.244   0.060
 8768SOL    HW227204   1.413   3.301   6.996
 8769SOL     OW27205   1.947   0.030   5.701
 8769SOL    HW127206   1.923   6.947   5.698
 8769SOL    HW227207   2.044   0.040   5.723
 8770SOL     OW27208   5.625   2.216   2.164
 8770SOL    HW127209   5.677   2.159   2.100
 8770SOL    HW227210   5.582   2.159   2.234
 8771SOL     OW27211   1.158   1.860   6.396
 8771SOL    HW127212   1.085   1.840   6.331
 8771SOL    HW227213   1.240   1.807   6.372
 8772SOL     OW27214   5.534   0.459   0.072
 8772SOL    HW127215   5.593   0.524   0.120
 8772SOL    HW227216   5.454   0.439   0.128
 8773SOL     OW27217   2.798   2.356   2.983
 8773SOL    HW127218   2.786   2.358   3.082
 8773SOL    HW227219   2.876   2.297   2.961
 8774SOL     OW27220   0.994   1.051   0.064
 8774SOL    HW127221   1.025   1.071   6.985
 8774SOL    HW227222   1.067   1.003   0.114
 8775SOL     OW27223   6.386   0.389   3.900
 8775SOL    HW127224   6.484   0.382   3.918
 8775SOL    HW227225   6.360   0.486   3.895
 8776SOL     OW27226   3.232   3.262   4.947
 8776SOL    HW127227   3.142   3.220   4.958
 8776SOL    HW227228   3.226   3.333   4.876
 8777SOL     OW27229   6.613   5.723   1.330
 8777SOL    HW127230   6.546   5.732   1.404
 8777SOL    HW227231   6.705   5.719   1.370
 8778SOL     OW27232   0.738   2.478   2.965
 8778SOL    HW127233   0.743   2.423   2.881
 8778SOL    HW227234   0.668   2.549   2.954
 8779SOL     OW27235   1.481   4.345   0.766
 8779SOL    HW127236   1.546   4.315   0.836
 8779SOL    HW227237   1.456   4.268   0.708
 8780SOL     OW27238   1.642   5.690   3.852
 8780SOL    HW127239   1.643   5.674   3.951
 8780SOL    HW227240   1.730   5.727   3.824
 8781SOL     OW27241   0.289   1.988   1.942
 8781SOL    HW127242   0.272   1.905   1.994
 8781SOL    HW227243   0.211   2.005   1.880
 8782SOL     OW27244   4.677   1.750   2.441
 8782SOL    HW127245   4.656   1.808   2.519
 8782SOL    HW227246   4.607   1.760   2.371
 8783SOL     OW27247   5.487   3.514   5.186
 8783SOL    HW127248   5.474   3.490   5.282
 8783SOL    HW227249   5.401   3.502   5.137
 8784SOL     OW27250   5.388   4.231   5.045
 8784SOL    HW127251   5.437   4.291   4.982
 8784SOL    HW227252   5.337   4.163   4.993
 8785SOL     OW27253   6.069   4.721   6.844
 8785SOL    HW127254   5.986   4.712   6.899
 8785SOL    HW227255   6.047   4.709   6.747
 8786SOL     OW27256   1.863   6.086   0.099
 8786SOL    HW127257   1.774   6.088   0.144
 8786SOL    HW227258   1.877   6.171   0.049
 8787SOL     OW27259   0.785   3.149   0.281
 8787SOL    HW127260   0.826   3.178   0.194
 8787SOL    HW227261   0.685   3.153   0.273
 8788SOL     OW27262   0.943   1.947   5.533
 8788SOL    HW127263   0.982   1.898   5.454
 8788SOL    HW227264   0.872   1.891   5.575
 8789SOL     OW27265   6.967   0.047   6.402
 8789SOL    HW127266   7.002   6.969   6.382
 8789SOL    HW227267   6.867   0.047   6.393
 8790SOL     OW27268   5.499   1.715   0.264
 8790SOL    HW127269   5.586   1.700   0.218
 8790SOL    HW227270   5.515   1.733   0.361
 8791SOL     OW27271   4.782   6.342   5.532
 8791SOL    HW127272   4.734   6.396   5.601
 8791SOL    HW227273   4.857   6.396   5.494
 8792SOL     OW27274   5.238   6.911   2.524
 8792SOL    HW127275   5.309   6.882   2.461
 8792SOL    HW227276   5.236   6.850   2.603
 8793SOL     OW27277   0.940   5.525   4.619
 8793SOL    HW127278   0.885   5.447   4.649
 8793SOL    HW227279   1.013   5.541   4.685
 8794SOL     OW27280   2.922   6.803   2.534
 8794SOL    HW127281   2.952   6.897   2.552
 8794SOL    HW227282   2.831   6.805   2.492
 8795SOL     OW27283   1.674   6.131   5.555
 8795SOL    HW127284   1.744   6.061   5.544
 8795SOL    HW227285   1.590   6.102   5.510
 8796SOL     OW27286   5.528   2.406   4.939
 8796SOL    HW127287   5.442   2.422   4.987
 8796SOL    HW227288   5.577   2.330   4.983
 8797SOL     OW27289   0.446   6.717   6.816
 8797SOL    HW127290   0.440   6.736   6.718
 8797SOL    HW227291   0.533   6.674   6.837
 8798SOL     OW27292   4.850   3.946   5.975
 8798SOL    HW127293   4.850   4.043   5.995
 8798SOL    HW227294   4.940   3.918   5.942
 8799SOL     OW27295   3.836   6.133   2.866
 8799SOL    HW127296   3.881   6.049   2.836
 8799SOL    HW227297   3.792   6.177   2.787
 8800SOL     OW27298   4.112   4.786   6.817
 8800SOL    HW127299   4.183   4.759   6.882
 8800SOL    HW227300   4.051   4.709   6.800
 8801SOL     OW27301   2.734   0.164   5.007
 8801SOL    HW127302   2.811   0.122   4.960
 8801SOL    HW227303   2.658   0.099   5.012
 8802SOL     OW27304   2.843   0.404   2.279
 8802SOL    HW127305   2.761   0.440   2.323
 8802SOL    HW227306   2.859   0.454   2.194
 8803SOL     OW27307   3.839   6.109   0.456
 8803SOL    HW127308   3.787   6.025   0.446
 8803SOL    HW227309   3.798   6.165   0.528
 8804SOL     OW27310   4.276   0.293   0.780
 8804SOL    HW127311   4.315   0.305   0.689
 8804SOL    HW227312   4.272   0.381   0.827
 8805SOL     OW27313   0.298   0.251   2.796
 8805SOL    HW127314   0.228   0.321   2.783
 8805SOL    HW227315   0.367   0.259   2.723
 8806SOL     OW27316   2.125   4.943   6.636
 8806SOL    HW127317   2.043   4.950   6.579
 8806SOL    HW227318   2.184   5.022   6.619
 8807SOL     OW27319   1.686   5.979   6.407
 8807SOL    HW127320   1.612   5.992   6.472
 8807SOL    HW227321   1.649   5.943   6.321
 8808SOL     OW27322   6.139   1.090   1.138
 8808SOL    HW127323   6.050   1.116   1.175
 8808SOL    HW227324   6.200   1.064   1.214
 8809SOL     OW27325   5.729   3.986   1.202
 8809SOL    HW127326   5.812   3.940   1.171
 8809SOL    HW227327   5.659   3.919   1.224
 8810SOL     OW27328   4.913   1.554   4.074
 8810SOL    HW127329   4.973   1.565   4.152
 8810SOL    HW227330   4.946   1.610   3.998
 8811SOL     OW27331   1.294   1.433   3.547
 8811SOL    HW127332   1.303   1.334   3.560
 8811SOL    HW227333   1.217   1.451   3.485
 8812SOL     OW27334   1.731   0.550   0.853
 8812SOL    HW127335   1.719   0.646   0.828
 8812SOL    HW227336   1.808   0.541   0.916
 8813SOL     OW27337   1.604   4.919   1.179
 8813SOL    HW127338   1.566   5.009   1.156
 8813SOL    HW227339   1.532   4.850   1.174
 8814SOL     OW27340   5.233   0.388   6.940
 8814SOL    HW127341   5.252   0.427   0.017
 8814SOL    HW227342   5.184   0.454   6.884
 8815SOL     OW27343   0.275   6.144   2.732
 8815SOL    HW127344   0.329   6.103   2.806
 8815SOL    HW227345   0.277   6.243   2.741
 8816SOL     OW27346   0.832   5.765   1.370
 8816SOL    HW127347   0.774   5.684   1.377
 8816SOL    HW227348   0.926   5.738   1.347
 8817SOL     OW27349   2.387   5.335   5.376
 8817SOL    HW127350   2.462   5.388   5.337
 8817SOL    HW227351   2.423   5.274   5.447
 8818SOL     OW27352   6.802   5.486   3.957
 8818SOL    HW127353   6.709   5.450   3.963
 8818SOL    HW227354   6.804   5.579   3.993
 8819SOL     OW27355   5.414   7.000   4.609
 8819SOL    HW127356   5.418   6.949   4.524
 8819SOL    HW227357   5.398   0.083   4.590
 8820SOL     OW27358   1.440   2.709   4.214
 8820SOL    HW127359   1.483   2.706   4.305
 8820SOL    HW227360   1.358   2.766   4.218
 8821SOL     OW27361   1.955   1.167   6.041
 8821SOL    HW127362   1.987   1.254   6.078
 8821SOL    HW227363   1.864   1.147   6.077
 8822SOL     OW27364   0.362   2.557   3.418
 8822SOL    HW127365   0.368   2.512   3.329
 8822SOL    HW227366   0.450   2.600   3.440
 8823SOL     OW27367   2.302   5.815   2.131
 8823SOL    HW127368   2.351   5.775   2.209
 8823SOL    HW227369   2.215   5.768   2.118
 8824SOL     OW27370   4.159   3.667   1.016
 8824SOL    HW127371   4.093   3.729   0.975
 8824SOL    HW227372   4.252   3.697   0.994
 8825SOL     OW27373   1.192   1.674   1.418
 8825SOL    HW127374   1.112   1.615   1.413
 8825SOL    HW227375   1.274   1.619   1.432
 8826SOL     OW27376   5.890   1.475   7.000
 8826SOL    HW127377   5.843   1.387   6.989
 8826SOL    HW227378   5.980   1.470   6.958
 8827SOL     OW27379   1.184   1.230   3.288
 8827SOL    HW127380   1.263   1.193   3.239
 8827SOL    HW227381   1.194   1.329   3.299
 8828SOL     OW27382   2.008   6.483   2.429
 8828SOL    HW127383   2.011   6.404   2.369
 8828SOL    HW227384   2.064   6.557   2.391
 8829SOL     OW27385   0.369   1.625   0.144
 8829SOL    HW127386   0.419   1.687   0.204
 8829SOL    HW227387   0.359   1.666   0.053
 8830SOL     OW27388   0.649   2.258   0.526
 8830SOL    HW127389   0.696   2.174   0.556
 8830SOL    HW227390   0.714   2.334   0.526
 8831SOL     OW27391   6.701   0.914   2.825
 8831SOL    HW127392   6.686   0.857   2.906
 8831SOL    HW227393   6.770   0.984   2.845
 8832SOL     OW27394   0.289   1.231   2.475
 8832SOL    HW127395   0.242   1.308   2.433
 8832SOL    HW227396   0.341   1.262   2.554
 8833SOL     OW27397   2.353   4.723   3.679
 8833SOL    HW127398   2.408   4.681   3.752
 8833SOL    HW227399   2.414   4.759   3.609
 8834SOL     OW27400   5.922   3.991   4.707
 8834SOL    HW127401   5.918   3.950   4.798
 8834SOL    HW227402   6.012   4.035   4.694
 8835SOL     OW27403   0.171   6.997   6.651
 8835SOL    HW127404   0.259   7.003   6.697
 8835SOL    HW227405   0.170   0.047   6.573
 8836SOL     OW27406   4.881   2.044   0.576
 8836SOL    HW127407   4.933   2.078   0.655
 8836SOL    HW227408   4.864   2.120   0.512
 8837SOL     OW27409   0.474   1.210   1.759
 8837SOL    HW127410   0.508   1.213   1.853
 8837SOL    HW227411   0.469   1.303   1.722
 8838SOL     OW27412   2.241   5.473   3.941
 8838SOL    HW127413   2.302   5.549   3.920
 8838SOL    HW227414   2.150   5.492   3.904
 8839SOL     OW27415   6.350   6.670   3.977
 8839SOL    HW127416   6.305   6.581   3.975
 8839SOL    HW227417   6.377   6.692   4.071
 8840SOL     OW27418   5.621   1.832   1.845
 8840SOL    HW127419   5.620   1.918   1.895
 8840SOL    HW227420   5.629   1.755   1.909
 8841SOL     OW27421   1.733   0.565   4.546
 8841SOL    HW127422   1.683   0.631   4.489
 8841SOL    HW227423   1.830   0.589   4.546
 8842SOL     OW27424   2.189   3.158   2.353
 8842SOL    HW127425   2.198   3.240   2.296
 8842SOL    HW227426   2.203   3.077   2.296
 8843SOL     OW27427   0.557   3.264   4.638
 8843SOL    HW127428   0.531   3.344   4.583
 8843SOL    HW227429   0.633   3.289   4.699
 8844SOL     OW27430   6.099   1.560   6.551
 8844SOL    HW127431   6.057   1.645   6.583
 8844SOL    HW227432   6.187   1.547   6.597
 8845SOL     OW27433   5.740   4.412   0.101
 8845SOL    HW127434   5.815   4.446   0.157
 8845SOL    HW227435   5.673   4.365   0.159
 8846SOL     OW27436   2.252   4.946   3.145
 8846SOL    HW127437   2.333   5.004   3.138
 8846SOL    HW227438   2.170   5.004   3.149
 8847SOL     OW27439   2.667   0.823   2.635
 8847SOL    HW127440   2.685   0.748   2.571
 8847SOL    HW227441   2.569   0.828   2.653
 8848SOL     OW27442   1.466   0.362   2.546
 8848SOL    HW127443   1.402   0.318   2.609
 8848SOL    HW227444   1.440   0.458   2.535
 8849SOL     OW27445   2.934   6.772   1.512
 8849SOL    HW127446   2.954   6.822   1.428
 8849SOL    HW227447   2.921   6.837   1.587
 8850SOL     OW27448   3.346   2.617   0.023
 8850SOL    HW127449   3.346   2.704   0.074
 8850SOL    HW227450   3.262   2.567   0.043
 8851SOL     OW27451   1.451   3.438   2.775
 8851SOL    HW127452   1.490   3.372   2.711
 8851SOL    HW227453   1.363   3.471   2.740
 8852SOL     OW27454   0.846   2.020   6.031
 8852SOL    HW127455   0.927   2.046   6.084
 8852SOL    HW227456   0.802   1.941   6.074
 8853SOL     OW27457   5.300   1.249   1.292
 8853SOL    HW127458   5.211   1.295   1.291
 8853SOL    HW227459   5.336   1.248   1.385
 8854SOL     OW27460   0.833   2.144   4.878
 8854SOL    HW127461   0.900   2.108   4.943
 8854SOL    HW227462   0.752   2.084   4.877
 8855SOL     OW27463   5.483   5.395   0.908
 8855SOL    HW127464   5.511   5.443   0.991
 8855SOL    HW227465   5.464   5.299   0.930
 8856SOL     OW27466   6.617   0.329   5.587
 8856SOL    HW127467   6.623   0.322   5.487
 8856SOL    HW227468   6.641   0.241   5.628
 8857SOL     OW27469   6.458   1.926   6.363
 8857SOL    HW127470   6.379   1.867   6.348
 8857SOL    HW227471   6.435   1.998   6.428
 8858SOL     OW27472   6.154   6.309   4.471
 8858SOL    HW127473   6.218   6.233   4.479
 8858SOL    HW227474   6.127   6.339   4.563
 8859SOL     OW27475   0.640   6.341   3.750
 8859SOL    HW127476   0.618   6.414   3.815
 8859SOL    HW227477   0.734   6.353   3.717
 8860SOL     OW27478   0.345   4.433   2.986
 8860SOL    HW127479   0.271   4.380   3.027
 8860SOL    HW227480   0.340   4.426   2.887
 8861SOL     OW27481   4.392   2.905   0.841
 8861SOL    HW127482   4.354   2.986   0.795
 8861SOL    HW227483   4.470   2.870   0.788
 8862SOL     OW27484   4.735   4.653   4.934
 8862SOL    HW127485   4.674   4.643   4.855
 8862SOL    HW227486   4.830   4.645   4.902
 8863SOL     OW27487   2.194   4.004   3.289
 8863SOL    HW127488   2.255   4.020   3.367
 8863SOL    HW227489   2.099   4.012   3.318
 8864SOL     OW27490   6.286   1.773   5.293
 8864SOL    HW127491   6.256   1.742   5.384
 8864SOL    HW227492   6.306   1.693   5.236
 8865SOL     OW27493   2.766   1.249   0.515
 8865SOL    HW127494   2.811   1.338   0.529
 8865SOL    HW227495   2.733   1.242   0.421
 8866SOL     OW27496   6.089   6.974   2.379
 8866SOL    HW127497   6.159   6.911   2.345
 8866SOL    HW227498   6.118   7.013   2.466
 8867SOL     OW27499   6.406   3.562   2.889
 8867SOL    HW127500   6.467   3.575   2.967
 8867SOL    HW227501   6.456   3.579   2.804
 8868SOL     OW27502   6.537   3.000   3.363
 8868SOL    HW127503   6.559   2.997   3.460
 8868SOL    HW227504   6.572   2.917   3.319
 8869SOL     OW27505   3.909   6.947   3.429
 8869SOL    HW127506   3.834   6.905   3.480
 8869SOL    HW227507   3.889   0.030   3.413
 8870SOL     OW27508   1.711   0.723   2.810
 8870SOL    HW127509   1.631   0.782   2.801
 8870SOL    HW227510   1.731   0.682   2.721
 8871SOL     OW27511   6.761   0.239   2.483
 8871SOL    HW127512   6.682   0.282   2.526
 8871SOL    HW227513   6.753   0.139   2.490
 8872SOL     OW27514   6.553   4.107   3.703
 8872SOL    HW127515   6.509   4.097   3.793
 8872SOL    HW227516   6.495   4.066   3.633
 8873SOL     OW27517   2.139   2.199   2.681
 8873SOL    HW127518   2.114   2.295   2.690
 8873SOL    HW227519   2.139   2.174   2.584
 8874SOL     OW27520   3.044   6.256   1.213
 8874SOL    HW127521   3.033   6.219   1.121
 8874SOL    HW227522   3.139   6.245   1.242
 8875SOL     OW27523   6.599   3.344   4.386
 8875SOL    HW127524   6.652   3.428   4.369
 8875SOL    HW227525   6.506   3.369   4.411
 8876SOL     OW27526   4.364   0.493   6.565
 8876SOL    HW127527   4.388   0.568   6.503
 8876SOL    HW227528   4.402   0.511   6.655
 8877SOL     OW27529   0.719   4.249   1.274
 8877SOL    HW127530   0.703   4.292   1.363
 8877SOL    HW227531   0.816   4.224   1.266
 8878SOL     OW27532   4.626   4.081   0.982
 8878SOL    HW127533   4.590   4.034   1.062
 8878SOL    HW227534   4.721   4.055   0.967
 8879SOL     OW27535   6.603   4.747   2.734
 8879SOL    HW127536   6.621   4.666   2.678
 8879SOL    HW227537   6.687   4.800   2.744
 8880SOL     OW27538   4.282   1.410   3.375
 8880SOL    HW127539   4.214   1.419   3.448
 8880SOL    HW227540   4.358   1.354   3.407
 8881SOL     OW27541   4.022   4.965   4.210
 8881SOL    HW127542   3.927   4.938   4.197
 8881SOL    HW227543   4.056   4.926   4.296
 8882SOL     OW27544   4.162   0.916   0.855
 8882SOL    HW127545   4.123   0.830   0.822
 8882SOL    HW227546   4.124   0.992   0.803
 8883SOL     OW27547   6.835   6.550   4.666
 8883SOL    HW127548   6.882   6.541   4.754
 8883SOL    HW227549   6.902   6.563   4.594
 8884SOL     OW27550   4.846   3.480   5.352
 8884SOL    HW127551   4.807   3.518   5.268
 8884SOL    HW227552   4.813   3.387   5.365
 8885SOL     OW27553   6.029   5.926   0.868
 8885SOL    HW127554   6.028   5.911   0.769
 8885SOL    HW227555   6.109   5.881   0.907
 8886SOL     OW27556   4.073   5.781   6.494
 8886SOL    HW127557   4.100   5.803   6.401
 8886SOL    HW227558   4.124   5.839   6.558
 8887SOL     OW27559   4.559   0.016   1.731
 8887SOL    HW127560   4.607   0.076   1.667
 8887SOL    HW227561   4.621   7.007   1.806
 8888SOL     OW27562   3.215   2.139   2.619
 8888SOL    HW127563   3.278   2.139   2.542
 8888SOL    HW227564   3.266   2.134   2.705
 8889SOL     OW27565   1.486   5.288   6.297
 8889SOL    HW127566   1.457   5.372   6.344
 8889SOL    HW227567   1.419   5.216   6.313
 8890SOL     OW27568   0.730   6.302   0.208
 8890SOL    HW127569   0.739   6.365   0.285
 8890SOL    HW227570   0.801   6.232   0.214
 8891SOL     OW27571   6.750   3.780   5.928
 8891SOL    HW127572   6.765   3.879   5.936
 8891SOL    HW227573   6.652   3.761   5.924
 8892SOL     OW27574   3.245   5.221   4.756
 8892SOL    HW127575   3.220   5.187   4.666
 8892SOL    HW227576   3.268   5.144   4.816
 8893SOL     OW27577   0.990   5.217   5.186
 8893SOL    HW127578   1.022   5.268   5.266
 8893SOL    HW227579   1.066   5.202   5.123
 8894SOL     OW27580   4.555   1.804   1.017
 8894SOL    HW127581   4.620   1.729   1.011
 8894SOL    HW227582   4.542   1.844   0.927
 8895SOL     OW27583   6.796   3.505   0.476
 8895SOL    HW127584   6.826   3.555   0.557
 8895SOL    HW227585   6.703   3.533   0.453
 8896SOL     OW27586   0.557   2.039   4.113
 8896SOL    HW127587   0.538   2.123   4.163
 8896SOL    HW227588   0.503   2.037   4.029
 8897SOL     OW27589   1.738   4.815   4.161
 8897SOL    HW127590   1.763   4.782   4.253
 8897SOL    HW227591   1.790   4.898   4.141
 8898SOL     OW27592   4.737   4.162   2.469
 8898SOL    HW127593   4.739   4.094   2.395
 8898SOL    HW227594   4.642   4.189   2.486
 8899SOL     OW27595   1.515   3.498   3.529
 8899SOL    HW127596   1.455   3.560   3.581
 8899SOL    HW227597   1.487   3.404   3.545
 8900SOL     OW27598   4.873   2.243   4.219
 8900SOL    HW127599   4.851   2.259   4.123
 8900SOL    HW227600   4.885   2.330   4.266
 8901SOL     OW27601   1.368   4.137   4.512
 8901SOL    HW127602   1.271   4.116   4.500
 8901SOL    HW227603   1.379   4.209   4.580
 8902SOL     OW27604   0.502   4.250   0.646
 8902SOL    HW127605   0.492   4.182   0.573
 8902SOL    HW227606   0.578   4.224   0.705
 8903SOL     OW27607   0.867   0.006   5.119
 8903SOL    HW127608   0.934   6.975   5.178
 8903SOL    HW227609   0.878   6.987   5.025
 8904SOL     OW27610   0.213   1.246   3.487
 8904SOL    HW127611   0.137   1.298   3.449
 8904SOL    HW227612   0.290   1.306   3.504
 8905SOL     OW27613   1.236   3.590   2.676
 8905SOL    HW127614   1.253   3.675   2.627
 8905SOL    HW227615   1.240   3.607   2.775
 8906SOL     OW27616   5.846   0.054   6.889
 8906SOL    HW127617   5.945   0.042   6.887
 8906SOL    HW227618   5.820   0.108   6.969
 8907SOL     OW27619   2.791   3.608   5.250
 8907SOL    HW127620   2.712   3.651   5.294
 8907SOL    HW227621   2.788   3.509   5.266
 8908SOL     OW27622   1.414   4.515   6.901
 8908SOL    HW127623   1.410   4.474   6.810
 8908SOL    HW227624   1.404   4.614   6.893
 8909SOL     OW27625   1.734   6.653   1.668
 8909SOL    HW127626   1.698   6.709   1.743
 8909SOL    HW227627   1.664   6.645   1.597
 8910SOL     OW27628   1.699   0.260   3.690
 8910SOL    HW127629   1.733   0.228   3.779
 8910SOL    HW227630   1.715   0.189   3.622
 8911SOL     OW27631   4.186   2.303   4.792
 8911SOL    HW127632   4.169   2.377   4.857
 8911SOL    HW227633   4.109   2.240   4.791
 8912SOL     OW27634   3.791   3.612   3.994
 8912SOL    HW127635   3.781   3.524   4.040
 8912SOL    HW227636   3.771   3.686   4.057
 8913SOL     OW27637   5.164   6.351   6.932
 8913SOL    HW127638   5.201   6.307   0.000
 8913SOL    HW227639   5.161   6.283   6.858
 8914SOL     OW27640   4.945   5.136   6.814
 8914SOL    HW127641   4.996   5.096   6.738
 8914SOL    HW227642   4.996   5.214   6.850
 8915SOL     OW27643   1.597   1.025   3.330
 8915SOL    HW127644   1.600   1.037   3.429
 8915SOL    HW227645   1.522   1.079   3.292
 8916SOL     OW27646   4.970   1.262   0.910
 8916SOL    HW127647   5.018   1.222   0.988
 8916SOL    HW227648   5.024   1.250   0.827
 8917SOL     OW27649   5.520   2.019   0.423
 8917SOL    HW127650   5.549   1.925   0.441
 8917SOL    HW227651   5.594   2.082   0.447
 8918SOL     OW27652   0.550   3.854   2.847
 8918SOL    HW127653   0.497   3.836   2.930
 8918SOL    HW227654   0.577   3.767   2.806
 8919SOL     OW27655   6.414   3.504   1.546
 8919SOL    HW127656   6.453   3.581   1.597
 8919SOL    HW227657   6.448   3.506   1.452
 8920SOL     OW27658   6.511   1.139   0.028
 8920SOL    HW127659   6.570   1.097   6.974
 8920SOL    HW227660   6.559   1.146   0.115
 8921SOL     OW27661   2.031   3.303   2.743
 8921SOL    HW127662   2.081   3.226   2.705
 8921SOL    HW227663   2.050   3.309   2.842
 8922SOL     OW27664   4.241   5.624   4.070
 8922SOL    HW127665   4.266   5.539   4.118
 8922SOL    HW227666   4.312   5.692   4.084
 8923SOL     OW27667   2.089   1.604   4.373
 8923SOL    HW127668   2.183   1.611   4.339
 8923SOL    HW227669   2.087   1.626   4.470
 8924SOL     OW27670   6.229   5.161   5.267
 8924SOL    HW127671   6.174   5.083   5.295
 8924SOL    HW227672   6.178   5.246   5.281
 8925SOL     OW27673   0.884   6.242   2.580
 8925SOL    HW127674   0.859   6.301   2.503
 8925SOL    HW227675   0.868   6.147   2.555
 8926SOL     OW27676   5.688   1.746   6.164
 8926SOL    HW127677   5.750   1.821   6.187
 8926SOL    HW227678   5.669   1.748   6.066
 8927SOL     OW27679   1.388   1.168   5.717
 8927SOL    HW127680   1.419   1.099   5.651
 8927SOL    HW227681   1.288   1.172   5.717
 8928SOL     OW27682   0.949   6.524   5.163
 8928SOL    HW127683   0.886   6.569   5.227
 8928SOL    HW227684   0.897   6.461   5.105
 8929SOL     OW27685   0.447   1.941   3.822
 8929SOL    HW127686   0.365   1.884   3.816
 8929SOL    HW227687   0.526   1.890   3.790
 8930SOL     OW27688   2.322   4.752   3.332
 8930SOL    HW127689   2.302   4.797   3.245
 8930SOL    HW227690   2.271   4.797   3.405
 8931SOL     OW27691   4.338   3.051   0.226
 8931SOL    HW127692   4.337   3.014   0.319
 8931SOL    HW227693   4.344   2.975   0.160
 8932SOL     OW27694   0.532   3.405   3.383
 8932SOL    HW127695   0.521   3.420   3.481
 8932SOL    HW227696   0.443   3.402   3.339
 8933SOL     OW27697   3.716   2.225   5.220
 8933SOL    HW127698   3.677   2.227   5.128
 8933SOL    HW227699   3.812   2.198   5.214
 8934SOL     OW27700   3.038   5.776   2.854
 8934SOL    HW127701   3.040   5.676   2.856
 8934SOL    HW227702   2.951   5.807   2.815
 8935SOL     OW27703   0.144   4.389   1.137
 8935SOL    HW127704   0.193   4.444   1.069
 8935SOL    HW227705   0.158   4.292   1.115
 8936SOL     OW27706   3.034   2.610   0.940
 8936SOL    HW127707   3.130   2.623   0.966
 8936SOL    HW227708   3.000   2.523   0.976
 8937SOL     OW27709   0.524   6.204   6.163
 8937SOL    HW127710   0.601   6.145   6.190
 8937SOL    HW227711   0.525   6.216   6.064
 8938SOL     OW27712   5.203   5.966   1.770
 8938SOL    HW127713   5.201   5.926   1.861
 8938SOL    HW227714   5.298   5.970   1.737
 8939SOL     OW27715   4.400   2.140   4.898
 8939SOL    HW127716   4.494   2.170   4.911
 8939SOL    HW227717   4.351   2.207   4.842
 8940SOL     OW27718   5.868   0.736   2.635
 8940SOL    HW127719   5.778   0.692   2.641
 8940SOL    HW227720   5.878   0.779   2.545
 8941SOL     OW27721   4.919   1.869   5.967
 8941SOL    HW127722   4.974   1.880   5.884
 8941SOL    HW227723   4.978   1.882   6.047
 8942SOL     OW27724   0.812   3.079   5.355
 8942SOL    HW127725   0.779   2.985   5.340
 8942SOL    HW227726   0.875   3.080   5.432
 8943SOL     OW27727   5.199   3.984   0.958
 8943SOL    HW127728   5.298   3.997   0.956
 8943SOL    HW227729   5.172   3.943   1.045
 8944SOL     OW27730   4.642   5.493   0.737
 8944SOL    HW127731   4.646   5.397   0.765
 8944SOL    HW227732   4.611   5.549   0.814
 8945SOL     OW27733   2.153   0.755   4.087
 8945SOL    HW127734   2.103   0.692   4.146
 8945SOL    HW227735   2.088   0.811   4.035
 8946SOL     OW27736   3.669   1.547   4.235
 8946SOL    HW127737   3.716   1.461   4.253
 8946SOL    HW227738   3.631   1.546   4.142
 8947SOL     OW27739   3.944   3.802   5.283
 8947SOL    HW127740   3.980   3.841   5.198
 8947SOL    HW227741   4.012   3.808   5.355
 8948SOL     OW27742   6.290   5.301   2.985
 8948SOL    HW127743   6.252   5.367   3.049
 8948SOL    HW227744   6.373   5.261   3.022
 8949SOL     OW27745   2.146   5.800   0.486
 8949SOL    HW127746   2.172   5.896   0.471
 8949SOL    HW227747   2.057   5.797   0.531
 8950SOL     OW27748   4.513   2.521   4.669
 8950SOL    HW127749   4.452   2.462   4.616
 8950SOL    HW227750   4.607   2.488   4.659
 8951SOL     OW27751   2.432   2.454   5.594
 8951SOL    HW127752   2.472   2.543   5.576
 8951SOL    HW227753   2.367   2.461   5.670
 8952SOL     OW27754   6.806   0.660   2.969
 8952SOL    HW127755   6.807   0.724   3.045
 8952SOL    HW227756   6.747   0.582   2.992
 8953SOL     OW27757   1.873   3.808   6.473
 8953SOL    HW127758   1.932   3.889   6.474
 8953SOL    HW227759   1.837   3.792   6.564
 8954SOL     OW27760   1.796   5.957   5.748
 8954SOL    HW127761   1.717   6.013   5.723
 8954SOL    HW227762   1.871   5.973   5.684
 8955SOL     OW27763   6.037   3.598   3.088
 8955SOL    HW127764   6.025   3.668   3.159
 8955SOL    HW227765   6.027   3.508   3.129
 8956SOL     OW27766   1.048   1.246   5.756
 8956SOL    HW127767   0.974   1.233   5.690
 8956SOL    HW227768   1.053   1.167   5.817
 8957SOL     OW27769   2.811   4.877   1.927
 8957SOL    HW127770   2.841   4.786   1.956
 8957SOL    HW227771   2.768   4.924   2.005
 8958SOL     OW27772   2.156   0.162   4.126
 8958SOL    HW127773   2.168   0.225   4.203
 8958SOL    HW227774   2.200   0.199   4.045
 8959SOL     OW27775   2.259   4.120   1.260
 8959SOL    HW127776   2.230   4.215   1.269
 8959SOL    HW227777   2.273   4.098   1.164
 8960SOL     OW27778   3.820   5.890   1.355
 8960SOL    HW127779   3.893   5.845   1.303
 8960SOL    HW227780   3.758   5.821   1.392
 8961SOL     OW27781   1.693   2.103   3.859
 8961SOL    HW127782   1.614   2.101   3.798
 8961SOL    HW227783   1.769   2.054   3.816
 8962SOL     OW27784   5.163   6.874   3.876
 8962SOL    HW127785   5.178   6.957   3.822
 8962SOL    HW227786   5.088   6.889   3.940
 8963SOL     OW27787   0.153   0.961   4.130
 8963SOL    HW127788   0.228   0.979   4.194
 8963SOL    HW227789   0.085   1.033   4.139
 8964SOL     OW27790   5.880   4.969   2.743
 8964SOL    HW127791   5.885   5.063   2.709
 8964SOL    HW227792   5.950   4.913   2.699
 8965SOL     OW27793   0.967   5.315   1.288
 8965SOL    HW127794   0.969   5.392   1.353
 8965SOL    HW227795   1.015   5.237   1.328
 8966SOL     OW27796   2.695   2.752   5.400
 8966SOL    HW127797   2.700   2.852   5.406
 8966SOL    HW227798   2.782   2.716   5.369
 8967SOL     OW27799   4.161   0.661   0.355
 8967SOL    HW127800   4.160   0.755   0.319
 8967SOL    HW227801   4.253   0.623   0.347
 8968SOL     OW27802   5.271   5.277   2.211
 8968SOL    HW127803   5.263   5.372   2.242
 8968SOL    HW227804   5.367   5.249   2.209
 8969SOL     OW27805   6.006   0.825   4.401
 8969SOL    HW127806   6.044   0.739   4.367
 8969SOL    HW227807   5.912   0.810   4.431
 8970SOL     OW27808   3.596   2.362   1.461
 8970SOL    HW127809   3.516   2.354   1.521
 8970SOL    HW227810   3.675   2.394   1.514
 8971SOL     OW27811   3.928   5.734   2.476
 8971SOL    HW127812   4.010   5.767   2.428
 8971SOL    HW227813   3.946   5.731   2.574
 8972SOL     OW27814   5.751   0.473   4.768
 8972SOL    HW127815   5.687   0.547   4.788
 8972SOL    HW227816   5.845   0.508   4.771
 8973SOL     OW27817   1.316   5.284   0.026
 8973SOL    HW127818   1.269   5.279   0.114
 8973SOL    HW227819   1.391   5.217   0.024
 8974SOL     OW27820   0.416   3.162   4.179
 8974SOL    HW127821   0.467   3.246   4.159
 8974SOL    HW227822   0.458   3.085   4.131
 8975SOL     OW27823   2.601   6.796   0.619
 8975SOL    HW127824   2.520   6.739   0.609
 8975SOL    HW227825   2.590   6.880   0.566
 8976SOL     OW27826   0.172   5.492   4.475
 8976SOL    HW127827   0.080   5.483   4.512
 8976SOL    HW227828   0.183   5.431   4.396
 8977SOL     OW27829   5.942   1.621   6.069
 8977SOL    HW127830   6.003   1.576   6.135
 8977SOL    HW227831   5.855   1.643   6.113
 8978SOL     OW27832   5.718   6.307   0.928
 8978SOL    HW127833   5.671   6.267   0.849
 8978SOL    HW227834   5.809   6.266   0.937
 8979SOL     OW27835   1.996   4.989   4.528
 8979SOL    HW127836   2.014   5.045   4.448
 8979SOL    HW227837   1.973   4.896   4.499
 8980SOL     OW27838   3.625   2.931   4.328
 8980SOL    HW127839   3.589   2.879   4.405
 8980SOL    HW227840   3.576   2.906   4.245
 8981SOL     OW27841   3.774   1.404   5.399
 8981SOL    HW127842   3.818   1.381   5.313
 8981SOL    HW227843   3.703   1.337   5.420
 8982SOL     OW27844   3.316   4.801   1.071
 8982SOL    HW127845   3.394   4.810   1.009
 8982SOL    HW227846   3.297   4.704   1.086
 8983SOL     OW27847   4.878   4.989   0.475
 8983SOL    HW127848   4.851   4.974   0.380
 8983SOL    HW227849   4.900   5.086   0.489
 8984SOL     OW27850   2.110   5.599   3.235
 8984SOL    HW127851   2.076   5.529   3.298
 8984SOL    HW227852   2.077   5.579   3.143
 8985SOL     OW27853   3.353   3.176   6.316
 8985SOL    HW127854   3.417   3.136   6.250
 8985SOL    HW227855   3.261   3.140   6.300
 8986SOL     OW27856   3.456   6.162   2.610
 8986SOL    HW127857   3.500   6.241   2.653
 8986SOL    HW227858   3.386   6.194   2.546
 8987SOL     OW27859   5.068   6.396   2.217
 8987SOL    HW127860   5.052   6.487   2.255
 8987SOL    HW227861   5.146   6.354   2.263
 8988SOL     OW27862   0.348   5.601   4.671
 8988SOL    HW127863   0.279   5.632   4.736
 8988SOL    HW227864   0.306   5.537   4.607
 8989SOL     OW27865   3.611   2.816   6.605
 8989SOL    HW127866   3.538   2.788   6.542
 8989SOL    HW227867   3.635   2.911   6.587
 8990SOL     OW27868   0.602   6.002   4.351
 8990SOL    HW127869   0.551   5.919   4.370
 8990SOL    HW227870   0.648   5.994   4.262
 8991SOL     OW27871   0.830   2.259   5.246
 8991SOL    HW127872   0.756   2.268   5.313
 8991SOL    HW227873   0.918   2.274   5.290
 8992SOL     OW27874   5.849   2.280   6.966
 8992SOL    HW127875   5.815   2.244   0.040
 8992SOL    HW227876   5.780   2.341   6.927
 8993SOL     OW27877   4.719   2.463   0.136
 8993SOL    HW127878   4.708   2.552   0.179
 8993SOL    HW227879   4.637   2.408   0.153
 8994SOL     OW27880   1.698   5.322   4.074
 8994SOL    HW127881   1.753   5.243   4.099
 8994SOL    HW227882   1.735   5.404   4.119
 8995SOL     OW27883   6.742   1.545   0.638
 8995SOL    HW127884   6.786   1.479   0.578
 8995SOL    HW227885   6.753   1.517   0.733
 8996SOL     OW27886   4.844   4.955   5.920
 8996SOL    HW127887   4.822   4.863   5.953
 8996SOL    HW227888   4.759   5.006   5.904
 8997SOL     OW27889   5.523   0.606   4.900
 8997SOL    HW127890   5.482   0.526   4.943
 8997SOL    HW227891   5.602   0.636   4.953
 8998SOL     OW27892   6.156   3.295   4.401
 8998SOL    HW127893   6.228   3.330   4.462
 8998SOL    HW227894   6.068   3.301   4.447
 8999SOL     OW27895   4.212   6.859   6.302
 8999SOL    HW127896   4.195   6.814   6.214
 8999SOL    HW227897   4.157   6.816   6.373
 9000SOL     OW27898   1.424   3.781   1.536
 9000SOL    HW127899   1.378   3.832   1.463
 9000SOL    HW227900   1.363   3.710   1.571
 9001SOL     OW27901   0.988   5.476   2.516
 9001SOL    HW127902   1.047   5.448   2.591
 9001SOL    HW227903   1.043   5.515   2.442
 9002SOL     OW27904   0.801   4.311   0.377
 9002SOL    HW127905   0.855   4.249   0.434
 9002SOL    HW227906   0.857   4.390   0.352
 9003SOL     OW27907   5.406   0.777   1.454
 9003SOL    HW127908   5.356   0.796   1.538
 9003SOL    HW227909   5.415   0.860   1.400
 9004SOL     OW27910   4.114   4.943   0.562
 9004SOL    HW127911   4.152   4.920   0.651
 9004SOL    HW227912   4.032   4.889   0.545
 9005SOL     OW27913   5.375   1.603   5.107
 9005SOL    HW127914   5.429   1.576   5.028
 9005SOL    HW227915   5.288   1.555   5.107
 9006SOL     OW27916   3.599   5.920   0.418
 9006SOL    HW127917   3.560   5.838   0.375
 9006SOL    HW227918   3.526   5.982   0.446
 9007SOL     OW27919   2.775   1.060   2.712
 9007SOL    HW127920   2.736   1.137   2.661
 9007SOL    HW227921   2.724   0.977   2.693
 9008SOL     OW27922   0.187   5.566   2.891
 9008SOL    HW127923   0.278   5.529   2.908
 9008SOL    HW227924   0.166   5.637   2.958
 9009SOL     OW27925   4.155   5.842   0.807
 9009SOL    HW127926   4.158   5.929   0.758
 9009SOL    HW227927   4.074   5.791   0.779
 9010SOL     OW27928   1.608   6.302   4.001
 9010SOL    HW127929   1.627   6.350   4.087
 9010SOL    HW227930   1.689   6.307   3.942
 9011SOL     OW27931   2.943   1.617   2.185
 9011SOL    HW127932   2.984   1.705   2.162
 9011SOL    HW227933   2.843   1.625   2.181
 9012SOL     OW27934   1.405   6.477   6.501
 9012SOL    HW127935   1.482   6.529   6.539
 9012SOL    HW227936   1.342   6.453   6.575
 9013SOL     OW27937   1.321   6.359   3.803
 9013SOL    HW127938   1.380   6.403   3.735
 9013SOL    HW227939   1.369   6.352   3.890
 9014SOL     OW27940   5.484   2.858   3.093
 9014SOL    HW127941   5.388   2.882   3.077
 9014SOL    HW227942   5.492   2.811   3.181
 9015SOL     OW27943   5.299   1.557   6.832
 9015SOL    HW127944   5.366   1.538   6.904
 9015SOL    HW227945   5.309   1.489   6.759
 9016SOL     OW27946   5.790   5.349   6.291
 9016SOL    HW127947   5.801   5.374   6.194
 9016SOL    HW227948   5.773   5.432   6.345
 9017SOL     OW27949   3.982   0.703   4.405
 9017SOL    HW127950   3.907   0.745   4.354
 9017SOL    HW227951   3.970   0.720   4.503
 9018SOL     OW27952   4.234   3.989   6.332
 9018SOL    HW127953   4.206   4.006   6.238
 9018SOL    HW227954   4.218   4.071   6.387
 9019SOL     OW27955   0.526   3.463   3.644
 9019SOL    HW127956   0.452   3.462   3.711
 9019SOL    HW227957   0.611   3.435   3.688
 9020SOL     OW27958   6.045   6.491   2.435
 9020SOL    HW127959   5.984   6.544   2.376
 9020SOL    HW227960   6.133   6.478   2.389
 9021SOL     OW27961   0.273   0.467   4.177
 9021SOL    HW127962   0.213   0.421   4.111
 9021SOL    HW227963   0.241   0.448   4.269
 9022SOL     OW27964   4.321   2.747   6.256
 9022SOL    HW127965   4.347   2.669   6.312
 9022SOL    HW227966   4.251   2.801   6.303
 9023SOL     OW27967   5.356   4.053   0.716
 9023SOL    HW127968   5.428   4.031   0.782
 9023SOL    HW227969   5.267   4.043   0.759
 9024SOL     OW27970   1.585   5.161   6.055
 9024SOL    HW127971   1.614   5.066   6.050
 9024SOL    HW227972   1.552   5.181   6.148
 9025SOL     OW27973   0.901   5.520   0.951
 9025SOL    HW127974   0.933   5.444   0.895
 9025SOL    HW227975   0.807   5.502   0.982
 9026SOL     OW27976   4.259   1.477   0.107
 9026SOL    HW127977   4.294   1.540   0.037
 9026SOL    HW227978   4.301   1.387   0.094
 9027SOL     OW27979   0.401   4.196   3.371
 9027SOL    HW127980   0.382   4.109   3.417
 9027SOL    HW227981   0.495   4.196   3.337
 9028SOL     OW27982   3.738   4.410   5.584
 9028SOL    HW127983   3.787   4.406   5.671
 9028SOL    HW227984   3.780   4.346   5.519
 9029SOL     OW27985   4.045   6.477   4.823
 9029SOL    HW127986   4.121   6.446   4.879
 9029SOL    HW227987   3.962   6.427   4.849
 9030SOL     OW27988   2.424   1.944   3.115
 9030SOL    HW127989   2.470   2.029   3.139
 9030SOL    HW227990   2.361   1.959   3.039
 9031SOL     OW27991   4.305   6.905   4.917
 9031SOL    HW127992   4.370   6.880   4.845
 9031SOL    HW227993   4.346   6.976   4.975
 9032SOL     OW27994   4.787   3.969   1.770
 9032SOL    HW127995   4.775   3.870   1.763
 9032SOL    HW227996   4.774   3.997   1.865
 9033SOL     OW27997   0.749   6.228   3.256
 9033SOL    HW127998   0.845   6.251   3.272
 9033SOL    HW227999   0.694   6.256   3.335
 9034SOL     OW28000   3.945   6.224   4.110
 9034SOL    HW128001   3.913   6.194   4.020
 9034SOL    HW228002   4.013   6.159   4.144
 9035SOL     OW28003   1.348   4.773   6.918
 9035SOL    HW128004   1.291   4.838   6.867
 9035SOL    HW228005   1.325   4.779   0.002
 9036SOL     OW28006   1.535   3.824   5.282
 9036SOL    HW128007   1.529   3.780   5.371
 9036SOL    HW228008   1.525   3.756   5.209
 9037SOL     OW28009   0.802   1.789   2.840
 9037SOL    HW128010   0.724   1.763   2.896
 9037SOL    HW228011   0.821   1.887   2.853
 9038SOL     OW28012   4.191   3.801   5.439
 9038SOL    HW128013   4.199   3.724   5.376
 9038SOL    HW228014   4.219   3.885   5.392
 9039SOL     OW28015   3.977   5.501   6.786
 9039SOL    HW128016   4.024   5.580   6.825
 9039SOL    HW228017   3.903   5.473   6.846
 9040SOL     OW28018   2.632   1.650   1.086
 9040SOL    HW128019   2.576   1.601   1.152
 9040SOL    HW228020   2.611   1.748   1.092
 9041SOL     OW28021   6.878   2.036   1.603
 9041SOL    HW128022   6.812   2.093   1.554
 9041SOL    HW228023   6.914   1.966   1.541
 9042SOL     OW28024   3.463   5.863   6.810
 9042SOL    HW128025   3.407   5.887   6.889
 9042SOL    HW228026   3.456   5.934   6.741
 9043SOL     OW28027   3.130   1.886   0.175
 9043SOL    HW128028   3.118   1.827   0.095
 9043SOL    HW228029   3.042   1.903   0.218
 9044SOL     OW28030   0.557   0.913   6.977
 9044SOL    HW128031   0.497   0.992   6.969
 9044SOL    HW228032   0.597   0.911   0.055
 9045SOL     OW28033   3.876   1.703   3.737
 9045SOL    HW128034   3.789   1.738   3.703
 9045SOL    HW228035   3.947   1.716   3.668
 9046SOL     OW28036   3.291   3.736   2.458
 9046SOL    HW128037   3.317   3.732   2.554
 9046SOL    HW228038   3.286   3.643   2.421
 9047SOL     OW28039   1.497   3.494   5.924
 9047SOL    HW128040   1.444   3.511   5.841
 9047SOL    HW228041   1.592   3.523   5.909
 9048SOL     OW28042   6.492   2.079   6.134
 9048SOL    HW128043   6.494   2.052   6.230
 9048SOL    HW228044   6.399   2.070   6.098
 9049SOL     OW28045   3.155   6.605   6.524
 9049SOL    HW128046   3.145   6.664   6.444
 9049SOL    HW228047   3.232   6.637   6.580
 9050SOL     OW28048   0.426   5.006   0.199
 9050SOL    HW128049   0.469   5.026   0.287
 9050SOL    HW228050   0.493   4.965   0.138
 9051SOL     OW28051   2.596   1.078   1.204
 9051SOL    HW128052   2.528   1.151   1.214
 9051SOL    HW228053   2.624   1.047   1.295
 9052SOL     OW28054   1.618   2.467   5.377
 9052SOL    HW128055   1.561   2.465   5.295
 9052SOL    HW228056   1.601   2.552   5.427
 9053SOL     OW28057   2.107   1.009   0.138
 9053SOL    HW128058   2.157   1.042   0.058
 9053SOL    HW228059   2.015   1.047   0.137
 9054SOL     OW28060   2.368   5.593   3.147
 9054SOL    HW128061   2.287   5.561   3.197
 9054SOL    HW228062   2.380   5.691   3.162
 9055SOL     OW28063   0.257   4.072   4.629
 9055SOL    HW128064   0.328   4.062   4.560
 9055SOL    HW228065   0.168   4.084   4.584
 9056SOL     OW28066   6.287   2.539   3.002
 9056SOL    HW128067   6.220   2.517   2.931
 9056SOL    HW228068   6.244   2.596   3.072
 9057SOL     OW28069   3.885   1.982   4.244
 9057SOL    HW128070   3.882   1.884   4.264
 9057SOL    HW228071   3.899   2.033   4.329
 9058SOL     OW28072   2.052   0.817   5.653
 9058SOL    HW128073   1.983   0.877   5.691
 9058SOL    HW228074   2.129   0.872   5.619
 9059SOL     OW28075   1.024   1.931   3.151
 9059SOL    HW128076   1.075   1.996   3.096
 9059SOL    HW228077   0.984   1.977   3.230
 9060SOL     OW28078   5.299   2.508   5.538
 9060SOL    HW128079   5.357   2.431   5.510
 9060SOL    HW228080   5.212   2.502   5.489
 9061SOL     OW28081   3.655   6.109   3.211
 9061SOL    HW128082   3.645   6.157   3.124
 9061SOL    HW228083   3.633   6.013   3.199
 9062SOL     OW28084   1.956   5.550   1.055
 9062SOL    HW128085   2.037   5.516   1.103
 9062SOL    HW228086   1.879   5.554   1.119
 9063SOL     OW28087   3.141   1.414   2.200
 9063SOL    HW128088   3.068   1.480   2.215
 9063SOL    HW228089   3.102   1.328   2.167
 9064SOL     OW28090   5.780   3.605   0.284
 9064SOL    HW128091   5.821   3.541   0.220
 9064SOL    HW228092   5.739   3.681   0.233
 9065SOL     OW28093   2.550   1.417   6.985
 9065SOL    HW128094   2.635   1.364   6.984
 9065SOL    HW228095   2.487   1.378   0.038
 9066SOL     OW28096   4.843   6.882   0.237
 9066SOL    HW128097   4.905   6.874   0.315
 9066SOL    HW228098   4.807   6.975   0.231
 9067SOL     OW28099   1.328   6.447   2.597
 9067SOL    HW128100   1.250   6.390   2.623
 9067SOL    HW228101   1.357   6.501   2.677
 9068SOL     OW28102   1.552   6.055   6.979
 9068SOL    HW128103   1.609   6.078   6.900
 9068SOL    HW228104   1.541   6.136   0.023
 9069SOL     OW28105   1.549   2.115   6.603
 9069SOL    HW128106   1.459   2.071   6.593
 9069SOL    HW228107   1.554   2.194   6.543
 9070SOL     OW28108   1.301   4.064   3.497
 9070SOL    HW128109   1.221   4.032   3.446
 9070SOL    HW228110   1.282   4.057   3.595
 9071SOL     OW28111   4.632   6.540   0.397
 9071SOL    HW128112   4.657   6.604   0.469
 9071SOL    HW228113   4.635   6.446   0.432
 9072SOL     OW28114   5.148   5.342   6.916
 9072SOL    HW128115   5.177   5.431   6.951
 9072SOL    HW228116   5.228   5.283   6.903
 9073SOL     OW28117   1.986   0.618   1.755
 9073SOL    HW128118   2.021   0.686   1.691
 9073SOL    HW228119   1.923   0.557   1.706
 9074SOL     OW28120   1.111   0.066   3.317
 9074SOL    HW128121   1.045   0.125   3.364
 9074SOL    HW228122   1.171   0.121   3.261
 9075SOL     OW28123   0.934   0.824   2.555
 9075SOL    HW128124   0.996   0.829   2.477
 9075SOL    HW228125   0.851   0.774   2.528
 9076SOL     OW28126   6.632   1.476   5.338
 9076SOL    HW128127   6.652   1.567   5.300
 9076SOL    HW228128   6.600   1.486   5.432
 9077SOL     OW28129   5.981   6.641   2.086
 9077SOL    HW128130   5.929   6.556   2.078
 9077SOL    HW228131   6.021   6.664   1.997
 9078SOL     OW28132   3.270   2.904   4.952
 9078SOL    HW128133   3.370   2.905   4.962
 9078SOL    HW228134   3.234   2.817   4.984
 9079SOL     OW28135   3.826   0.679   6.039
 9079SOL    HW128136   3.835   0.760   5.981
 9079SOL    HW228137   3.910   0.624   6.033
 9080SOL     OW28138   5.060   1.545   0.827
 9080SOL    HW128139   4.969   1.512   0.802
 9080SOL    HW228140   5.115   1.557   0.744
 9081SOL     OW28141   5.467   0.169   2.124
 9081SOL    HW128142   5.566   0.177   2.116
 9081SOL    HW228143   5.424   0.197   2.038
 9082SOL     OW28144   3.148   0.930   3.396
 9082SOL    HW128145   3.214   0.933   3.471
 9082SOL    HW228146   3.196   0.909   3.311
 9083SOL     OW28147   4.386   4.791   4.585
 9083SOL    HW128148   4.362   4.761   4.677
 9083SOL    HW228149   4.439   4.721   4.539
 9084SOL     OW28150   3.556   3.522   2.995
 9084SOL    HW128151   3.474   3.492   2.947
 9084SOL    HW228152   3.540   3.521   3.093
 9085SOL     OW28153   1.571   1.875   0.807
 9085SOL    HW128154   1.493   1.930   0.837
 9085SOL    HW228155   1.649   1.935   0.791
 9086SOL     OW28156   0.384   4.018   0.547
 9086SOL    HW128157   0.297   4.055   0.516
 9086SOL    HW228158   0.422   3.959   0.476
 9087SOL     OW28159   4.808   3.652   1.771
 9087SOL    HW128160   4.901   3.652   1.806
 9087SOL    HW228161   4.783   3.561   1.739
 9088SOL     OW28162   5.313   6.629   0.945
 9088SOL    HW128163   5.227   6.680   0.940
 9088SOL    HW228164   5.331   6.585   0.857
 9089SOL     OW28165   4.275   0.073   6.144
 9089SOL    HW128166   4.320   0.038   6.062
 9089SOL    HW228167   4.272   0.002   6.214
 9090SOL     OW28168   5.730   1.326   3.680
 9090SOL    HW128169   5.818   1.301   3.640
 9090SOL    HW228170   5.729   1.301   3.776
 9091SOL     OW28171   3.075   2.664   6.767
 9091SOL    HW128172   2.997   2.687   6.709
 9091SOL    HW228173   3.093   2.739   6.830
 9092SOL     OW28174   6.956   2.738   6.226
 9092SOL    HW128175   0.009   2.760   6.155
 9092SOL    HW228176   7.002   2.698   6.305
 9093SOL     OW28177   1.916   6.322   5.255
 9093SOL    HW128178   1.857   6.325   5.335
 9093SOL    HW228179   1.905   6.234   5.209
 9094SOL     OW28180   0.841   3.679   1.694
 9094SOL    HW128181   0.850   3.660   1.596
 9094SOL    HW228182   0.867   3.774   1.712
 9095SOL     OW28183   6.756   6.248   5.415
 9095SOL    HW128184   6.733   6.151   5.410
 9095SOL    HW228185   6.687   6.301   5.367
 9096SOL     OW28186   6.635   5.297   3.743
 9096SOL    HW128187   6.602   5.389   3.722
 9096SOL    HW228188   6.659   5.291   3.840
 9097SOL     OW28189   1.299   2.047   6.542
 9097SOL    HW128190   1.248   2.066   6.625
 9097SOL    HW228191   1.252   1.975   6.490
 9098SOL     OW28192   2.122   4.437   4.014
 9098SOL    HW128193   2.183   4.373   4.061
 9098SOL    HW228194   2.063   4.387   3.951
 9099SOL     OW28195   2.382   2.227   0.195
 9099SOL    HW128196   2.430   2.305   0.156
 9099SOL    HW228197   2.372   2.239   0.293
 9100SOL     OW28198   1.136   4.531   3.178
 9100SOL    HW128199   1.183   4.494   3.258
 9100SOL    HW228200   1.037   4.535   3.196
 9101SOL     OW28201   1.042   2.515   0.419
 9101SOL    HW128202   1.080   2.590   0.473
 9101SOL    HW228203   1.101   2.497   0.341
 9102SOL     OW28204   4.040   6.937   3.081
 9102SOL    HW128205   4.070   6.866   3.018
 9102SOL    HW228206   4.071   6.915   3.173
 9103SOL     OW28207   6.459   0.859   0.975
 9103SOL    HW128208   6.555   0.860   0.946
 9103SOL    HW228209   6.453   0.871   1.074
 9104SOL     OW28210   5.900   1.907   6.224
 9104SOL    HW128211   5.980   1.921   6.282
 9104SOL    HW228212   5.923   1.929   6.130
 9105SOL     OW28213   2.012   1.165   5.514
 9105SOL    HW128214   1.930   1.135   5.563
 9105SOL    HW228215   2.012   1.264   5.507
 9106SOL     OW28216   1.421   3.859   0.007
 9106SOL    HW128217   1.331   3.847   6.980
 9106SOL    HW228218   1.474   3.774   7.012
 9107SOL     OW28219   2.860   1.762   0.495
 9107SOL    HW128220   2.956   1.790   0.506
 9107SOL    HW228221   2.802   1.844   0.498
 9108SOL     OW28222   5.924   5.612   5.987
 9108SOL    HW128223   5.856   5.541   6.005
 9108SOL    HW228224   5.947   5.659   6.073
 9109SOL     OW28225   5.881   3.751   2.516
 9109SOL    HW128226   5.888   3.790   2.608
 9109SOL    HW228227   5.791   3.708   2.505
 9110SOL     OW28228   2.213   6.081   3.324
 9110SOL    HW128229   2.221   5.981   3.330
 9110SOL    HW228230   2.242   6.111   3.234
 9111SOL     OW28231   4.412   2.493   6.353
 9111SOL    HW128232   4.332   2.434   6.343
 9111SOL    HW228233   4.478   2.473   6.280
 9112SOL     OW28234   0.810   4.965   1.213
 9112SOL    HW128235   0.841   5.025   1.286
 9112SOL    HW228236   0.883   4.954   1.145
 9113SOL     OW28237   5.919   0.841   4.032
 9113SOL    HW128238   5.843   0.830   4.095
 9113SOL    HW228239   5.980   0.762   4.039
 9114SOL     OW28240   1.357   6.104   5.745
 9114SOL    HW128241   1.387   6.187   5.792
 9114SOL    HW228242   1.341   6.124   5.649
 9115SOL     OW28243   4.751   4.358   4.670
 9115SOL    HW128244   4.732   4.352   4.572
 9115SOL    HW228245   4.673   4.401   4.716
 9116SOL     OW28246   1.803   0.470   2.926
 9116SOL    HW128247   1.751   0.551   2.899
 9116SOL    HW228248   1.744   0.389   2.923
 9117SOL     OW28249   2.451   6.015   0.315
 9117SOL    HW128250   2.473   5.924   0.350
 9117SOL    HW228251   2.523   6.045   0.252
 9118SOL     OW28252   6.644   3.976   2.381
 9118SOL    HW128253   6.595   3.978   2.468
 9118SOL    HW228254   6.631   4.064   2.334
 9119SOL     OW28255   3.281   0.265   0.218
 9119SOL    HW128256   3.307   0.186   0.273
 9119SOL    HW228257   3.235   0.333   0.276
 9120SOL     OW28258   6.719   3.855   4.661
 9120SOL    HW128259   6.641   3.864   4.599
 9120SOL    HW228260   6.769   3.941   4.664
 9121SOL     OW28261   3.901   0.611   4.652
 9121SOL    HW128262   3.876   0.654   4.739
 9121SOL    HW228263   3.916   0.513   4.665
 9122SOL     OW28264   1.186   3.656   1.616
 9122SOL    HW128265   1.164   3.680   1.711
 9122SOL    HW228266   1.212   3.560   1.612
 9123SOL     OW28267   6.466   6.731   4.224
 9123SOL    HW128268   6.464   6.815   4.279
 9123SOL    HW228269   6.483   6.653   4.284
 9124SOL     OW28270   2.837   4.957   0.546
 9124SOL    HW128271   2.821   4.896   0.623
 9124SOL    HW228272   2.844   5.051   0.579
 9125SOL     OW28273   5.379   6.317   1.902
 9125SOL    HW128274   5.440   6.256   1.953
 9125SOL    HW228275   5.365   6.280   1.810
 9126SOL     OW28276   4.473   4.577   0.951
 9126SOL    HW128277   4.529   4.515   0.897
 9126SOL    HW228278   4.515   4.591   1.041
 9127SOL     OW28279   6.628   4.985   5.225
 9127SOL    HW128280   6.600   4.893   5.250
 9127SOL    HW228281   6.644   5.039   5.308
 9128SOL     OW28282   5.857   4.315   5.757
 9128SOL    HW128283   5.816   4.224   5.761
 9128SOL    HW228284   5.880   4.337   5.663
 9129SOL     OW28285   1.213   2.541   0.924
 9129SOL    HW128286   1.264   2.550   1.009
 9129SOL    HW228287   1.167   2.628   0.904
 9130SOL     OW28288   2.913   3.331   5.093
 9130SOL    HW128289   2.929   3.324   4.995
 9130SOL    HW228290   2.815   3.320   5.112
 9131SOL     OW28291   4.647   2.665   0.324
 9131SOL    HW128292   4.686   2.756   0.337
 9131SOL    HW228293   4.665   2.609   0.404
 9132SOL     OW28294   0.849   3.766   3.872
 9132SOL    HW128295   0.753   3.783   3.849
 9132SOL    HW228296   0.854   3.724   3.963
 9133SOL     OW28297   5.619   0.617   1.022
 9133SOL    HW128298   5.526   0.643   1.048
 9133SOL    HW228299   5.623   0.600   0.923
 9134SOL     OW28300   4.920   5.005   0.865
 9134SOL    HW128301   4.891   5.037   0.956
 9134SOL    HW228302   5.005   4.954   0.873
 9135SOL     OW28303   6.253   6.614   3.110
 9135SOL    HW128304   6.157   6.619   3.139
 9135SOL    HW228305   6.258   6.601   3.011
 9136SOL     OW28306   6.638   4.496   0.292
 9136SOL    HW128307   6.601   4.545   0.370
 9136SOL    HW228308   6.592   4.407   0.284
 9137SOL     OW28309   5.120   6.684   5.287
 9137SOL    HW128310   5.054   6.624   5.332
 9137SOL    HW228311   5.190   6.711   5.353
 9138SOL     OW28312   2.112   3.552   6.841
 9138SOL    HW128313   2.132   3.634   6.893
 9138SOL    HW228314   2.045   3.572   6.769
 9139SOL     OW28315   6.510   0.224   1.210
 9139SOL    HW128316   6.511   0.269   1.120
 9139SOL    HW228317   6.592   0.251   1.261
 9140SOL     OW28318   2.101   3.569   2.654
 9140SOL    HW128319   2.088   3.471   2.638
 9140SOL    HW228320   2.079   3.590   2.750
 9141SOL     OW28321   6.987   5.533   4.707
 9141SOL    HW128322   6.888   5.525   4.717
 9141SOL    HW228323   7.013   5.630   4.707
 9142SOL     OW28324   0.968   4.847   4.343
 9142SOL    HW128325   0.994   4.932   4.388
 9142SOL    HW228326   1.017   4.838   4.256
 9143SOL     OW28327   6.653   4.400   2.768
 9143SOL    HW128328   6.680   4.441   2.855
 9143SOL    HW228329   6.561   4.431   2.744
 9144SOL     OW28330   3.102   4.375   5.329
 9144SOL    HW128331   3.025   4.415   5.280
 9144SOL    HW228332   3.111   4.279   5.304
 9145SOL     OW28333   1.386   5.790   5.715
 9145SOL    HW128334   1.427   5.862   5.771
 9145SOL    HW228335   1.453   5.756   5.650
 9146SOL     OW28336   5.602   2.953   3.450
 9146SOL    HW128337   5.611   2.910   3.540
 9146SOL    HW228338   5.552   2.891   3.388
 9147SOL     OW28339   4.036   0.246   5.474
 9147SOL    HW128340   3.991   0.300   5.545
 9147SOL    HW228341   3.999   0.269   5.385
 9148SOL     OW28342   5.422   5.707   1.524
 9148SOL    HW128343   5.445   5.665   1.612
 9148SOL    HW228344   5.330   5.678   1.497
 9149SOL     OW28345   0.408   3.666   0.969
 9149SOL    HW128346   0.420   3.719   0.885
 9149SOL    HW228347   0.416   3.568   0.947
 9150SOL     OW28348   2.528   3.559   0.109
 9150SOL    HW128349   2.497   3.650   0.082
 9150SOL    HW228350   2.482   3.490   0.053
 9151SOL     OW28351   1.613   2.860   4.044
 9151SOL    HW128352   1.553   2.800   4.097
 9151SOL    HW228353   1.701   2.869   4.092
 9152SOL     OW28354   2.223   4.050   2.567
 9152SOL    HW128355   2.205   3.954   2.545
 9152SOL    HW228356   2.259   4.097   2.487
 9153SOL     OW28357   0.408   2.682   6.171
 9153SOL    HW128358   0.328   2.633   6.207
 9153SOL    HW228359   0.399   2.780   6.191
 9154SOL     OW28360   5.555   4.730   3.214
 9154SOL    HW128361   5.534   4.635   3.192
 9154SOL    HW228362   5.550   4.744   3.313
 9155SOL     OW28363   1.062   6.016   2.305
 9155SOL    HW128364   1.049   6.048   2.211
 9155SOL    HW228365   1.143   6.061   2.344
 9156SOL     OW28366   0.097   3.445   6.023
 9156SOL    HW128367   0.064   3.540   6.017
 9156SOL    HW228368   0.114   3.410   5.931
 9157SOL     OW28369   1.573   4.778   5.661
 9157SOL    HW128370   1.504   4.706   5.674
 9157SOL    HW228371   1.658   4.737   5.626
 9158SOL     OW28372   6.926   4.003   4.480
 9158SOL    HW128373   6.949   4.045   4.392
 9158SOL    HW228374   6.888   4.071   4.542
 9159SOL     OW28375   2.395   1.238   3.682
 9159SOL    HW128376   2.442   1.156   3.649
 9159SOL    HW228377   2.433   1.265   3.770
 9160SOL     OW28378   1.371   3.569   0.220
 9160SOL    HW128379   1.423   3.546   0.302
 9160SOL    HW228380   1.357   3.487   0.165
 9161SOL     OW28381   6.352   3.812   2.592
 9161SOL    HW128382   6.314   3.877   2.659
 9161SOL    HW228383   6.294   3.811   2.511
 9162SOL     OW28384   3.893   2.395   1.655
 9162SOL    HW128385   3.913   2.302   1.626
 9162SOL    HW228386   3.833   2.393   1.735
 9163SOL     OW28387   2.647   2.047   3.990
 9163SOL    HW128388   2.644   1.978   4.062
 9163SOL    HW228389   2.735   2.094   3.993
 9164SOL     OW28390   2.187   6.593   6.334
 9164SOL    HW128391   2.231   6.539   6.261
 9164SOL    HW228392   2.141   6.531   6.397
 9165SOL     OW28393   5.427   1.931   5.885
 9165SOL    HW128394   5.363   2.000   5.850
 9165SOL    HW228395   5.504   1.977   5.930
 9166SOL     OW28396   4.492   6.288   1.820
 9166SOL    HW128397   4.469   6.191   1.810
 9166SOL    HW228398   4.423   6.333   1.877
 9167SOL     OW28399   1.542   1.221   4.264
 9167SOL    HW128400   1.486   1.271   4.331
 9167SOL    HW228401   1.490   1.211   4.179
 9168SOL     OW28402   6.879   6.094   5.216
 9168SOL    HW128403   6.893   6.163   5.145
 9168SOL    HW228404   6.781   6.075   5.226
 9169SOL     OW28405   6.779   5.968   0.884
 9169SOL    HW128406   6.839   5.895   0.915
 9169SOL    HW228407   6.710   5.987   0.955
 9170SOL     OW28408   1.455   1.013   5.510
 9170SOL    HW128409   1.504   0.985   5.427
 9170SOL    HW228410   1.363   0.973   5.508
 9171SOL     OW28411   3.457   5.109   6.674
 9171SOL    HW128412   3.473   5.188   6.616
 9171SOL    HW228413   3.523   5.037   6.651
 9172SOL     OW28414   4.548   1.548   5.136
 9172SOL    HW128415   4.500   1.513   5.216
 9172SOL    HW228416   4.500   1.628   5.100
 9173SOL     OW28417   5.617   3.822   4.954
 9173SOL    HW128418   5.709   3.821   4.914
 9173SOL    HW228419   5.565   3.744   4.920
 9174SOL     OW28420   6.934   4.530   1.242
 9174SOL    HW128421   7.005   4.466   1.211
 9174SOL    HW228422   6.844   4.487   1.231
 9175SOL     OW28423   2.245   6.891   1.054
 9175SOL    HW128424   2.307   6.952   1.004
 9175SOL    HW228425   2.240   6.920   1.150
 9176SOL     OW28426   1.665   1.030   1.969
 9176SOL    HW128427   1.682   0.939   1.931
 9176SOL    HW228428   1.605   1.022   2.048
 9177SOL     OW28429   0.598   6.788   3.892
 9177SOL    HW128430   0.605   6.702   3.942
 9177SOL    HW228431   0.539   6.774   3.812
 9178SOL     OW28432   1.098   4.605   1.120
 9178SOL    HW128433   1.166   4.533   1.112
 9178SOL    HW228434   1.012   4.566   1.152
 9179SOL     OW28435   3.887   5.041   3.931
 9179SOL    HW128436   3.812   4.995   3.977
 9179SOL    HW228437   3.954   5.072   3.999
 9180SOL     OW28438   6.983   1.334   5.272
 9180SOL    HW128439   6.911   1.335   5.203
 9180SOL    HW228440   6.943   1.352   5.362
 9181SOL     OW28441   2.605   2.436   3.652
 9181SOL    HW128442   2.519   2.420   3.603
 9181SOL    HW228443   2.681   2.402   3.597
 9182SOL     OW28444   0.609   1.924   2.253
 9182SOL    HW128445   0.617   2.013   2.209
 9182SOL    HW228446   0.602   1.935   2.352
 9183SOL     OW28447   1.754   1.300   6.328
 9183SOL    HW128448   1.722   1.359   6.402
 9183SOL    HW228449   1.834   1.341   6.285
 9184SOL     OW28450   3.266   3.593   1.035
 9184SOL    HW128451   3.318   3.610   1.119
 9184SOL    HW228452   3.285   3.501   1.002
 9185SOL     OW28453   1.398   0.458   5.981
 9185SOL    HW128454   1.322   0.445   6.045
 9185SOL    HW228455   1.451   0.538   6.007
 9186SOL     OW28456   4.751   0.126   6.484
 9186SOL    HW128457   4.759   0.191   6.409
 9186SOL    HW228458   4.746   0.176   6.571
 9187SOL     OW28459   5.641   2.624   0.697
 9187SOL    HW128460   5.721   2.649   0.752
 9187SOL    HW228461   5.587   2.706   0.677
 9188SOL     OW28462   1.836   0.413   1.575
 9188SOL    HW128463   1.776   0.432   1.498
 9188SOL    HW228464   1.862   0.317   1.575
 9189SOL     OW28465   3.656   0.297   5.679
 9189SOL    HW128466   3.577   0.242   5.651
 9189SOL    HW228467   3.674   0.282   5.776
 9190SOL     OW28468   4.605   0.996   4.980
 9190SOL    HW128469   4.537   1.052   4.933
 9190SOL    HW228470   4.691   1.046   4.986
 9191SOL     OW28471   5.637   6.899   1.891
 9191SOL    HW128472   5.645   6.994   1.862
 9191SOL    HW228473   5.724   6.869   1.932
 9192SOL     OW28474   4.902   3.526   4.206
 9192SOL    HW128475   4.925   3.531   4.303
 9192SOL    HW228476   4.898   3.431   4.177
 9193SOL     OW28477   3.980   3.163   3.241
 9193SOL    HW128478   3.946   3.121   3.157
 9193SOL    HW228479   3.922   3.241   3.265
 9194SOL     OW28480   3.689   4.868   2.803
 9194SOL    HW128481   3.610   4.851   2.744
 9194SOL    HW228482   3.658   4.897   2.893
 9195SOL     OW28483   0.487   2.660   2.821
 9195SOL    HW128484   0.576   2.649   2.776
 9195SOL    HW228485   0.439   2.572   2.822
 9196SOL     OW28486   5.022   6.719   4.259
 9196SOL    HW128487   4.934   6.679   4.235
 9196SOL    HW228488   5.086   6.707   4.184
 9197SOL     OW28489   4.319   1.646   6.037
 9197SOL    HW128490   4.265   1.651   5.953
 9197SOL    HW228491   4.319   1.736   6.082
 9198SOL     OW28492   6.202   2.199   5.100
 9198SOL    HW128493   6.276   2.266   5.105
 9198SOL    HW228494   6.197   2.149   5.187
 9199SOL     OW28495   1.276   3.017   6.030
 9199SOL    HW128496   1.261   3.108   5.991
 9199SOL    HW228497   1.252   2.948   5.962
 9200SOL     OW28498   5.184   6.048   0.827
 9200SOL    HW128499   5.229   6.136   0.838
 9200SOL    HW228500   5.130   6.048   0.743
 9201SOL     OW28501   0.608   4.249   2.559
 9201SOL    HW128502   0.637   4.266   2.464
 9201SOL    HW228503   0.617   4.151   2.579
 9202SOL     OW28504   2.409   5.964   3.963
 9202SOL    HW128505   2.461   6.046   3.987
 9202SOL    HW228506   2.321   5.990   3.923
 9203SOL     OW28507   5.171   0.924   0.297
 9203SOL    HW128508   5.107   0.916   0.373
 9203SOL    HW228509   5.217   1.013   0.302
 9204SOL     OW28510   5.199   4.198   2.521
 9204SOL    HW128511   5.174   4.292   2.545
 9204SOL    HW228512   5.123   4.137   2.544
 9205SOL     OW28513   4.616   2.642   1.638
 9205SOL    HW128514   4.642   2.678   1.728
 9205SOL    HW228515   4.592   2.545   1.648
 9206SOL     OW28516   6.487   6.180   4.216
 9206SOL    HW128517   6.538   6.140   4.141
 9206SOL    HW228518   6.551   6.222   4.281
 9207SOL     OW28519   3.805   5.906   6.627
 9207SOL    HW128520   3.838   5.839   6.561
 9207SOL    HW228521   3.775   5.860   6.710
 9208SOL     OW28522   4.255   4.069   1.687
 9208SOL    HW128523   4.312   4.134   1.738
 9208SOL    HW228524   4.170   4.114   1.659
 9209SOL     OW28525   3.973   0.421   2.785
 9209SOL    HW128526   3.999   0.338   2.736
 9209SOL    HW228527   4.048   0.449   2.845
 9210SOL     OW28528   1.187   6.806   0.476
 9210SOL    HW128529   1.088   6.811   0.484
 9210SOL    HW228530   1.227   6.894   0.502
 9211SOL     OW28531   4.893   1.420   5.986
 9211SOL    HW128532   4.860   1.486   5.918
 9211SOL    HW228533   4.982   1.384   5.956
 9212SOL     OW28534   5.587   4.356   5.546
 9212SOL    HW128535   5.548   4.313   5.464
 9212SOL    HW228536   5.648   4.291   5.592
 9213SOL     OW28537   6.281   6.420   2.276
 9213SOL    HW128538   6.291   6.447   2.180
 9213SOL    HW228539   6.299   6.322   2.285
 9214SOL     OW28540   2.131   1.952   5.730
 9214SOL    HW128541   2.087   1.867   5.702
 9214SOL    HW228542   2.129   2.017   5.654
 9215SOL     OW28543   0.262   3.685   3.330
 9215SOL    HW128544   0.200   3.763   3.333
 9215SOL    HW228545   0.212   3.604   3.300
 9216SOL     OW28546   2.574   6.020   3.277
 9216SOL    HW128547   2.555   6.102   3.331
 9216SOL    HW228548   2.626   5.955   3.332
 9217SOL     OW28549   4.005   1.299   6.820
 9217SOL    HW128550   4.060   1.382   6.815
 9217SOL    HW228551   3.909   1.324   6.836
 9218SOL     OW28552   5.517   5.401   6.685
 9218SOL    HW128553   5.418   5.402   6.675
 9218SOL    HW228554   5.542   5.352   6.768
 9219SOL     OW28555   3.079   2.644   5.571
 9219SOL    HW128556   3.131   2.611   5.492
 9219SOL    HW228557   3.009   2.576   5.595
 9220SOL     OW28558   0.423   6.416   3.348
 9220SOL    HW128559   0.514   6.447   3.373
 9220SOL    HW228560   0.409   6.323   3.382
 9221SOL     OW28561   2.871   1.561   1.056
 9221SOL    HW128562   2.779   1.601   1.059
 9221SOL    HW228563   2.927   1.602   1.128
 9222SOL     OW28564   1.623   4.716   4.484
 9222SOL    HW128565   1.584   4.625   4.475
 9222SOL    HW228566   1.721   4.713   4.462
 9223SOL     OW28567   6.948   3.297   4.628
 9223SOL    HW128568   6.947   3.390   4.591
 9223SOL    HW228569   6.875   3.243   4.586
 9224SOL     OW28570   2.015   4.889   2.797
 9224SOL    HW128571   2.090   4.836   2.836
 9224SOL    HW228572   2.046   4.937   2.715
 9225SOL     OW28573   6.228   5.338   6.155
 9225SOL    HW128574   6.142   5.287   6.148
 9225SOL    HW228575   6.239   5.395   6.074
 9226SOL     OW28576   1.167   0.324   6.161
 9226SOL    HW128577   1.076   0.355   6.134
 9226SOL    HW228578   1.180   0.341   6.259
 9227SOL     OW28579   2.975   4.124   0.402
 9227SOL    HW128580   2.953   4.054   0.471
 9227SOL    HW228581   3.072   4.118   0.379
 9228SOL     OW28582   3.752   2.841   4.973
 9228SOL    HW128583   3.655   2.861   4.984
 9228SOL    HW228584   3.764   2.744   4.951
 9229SOL     OW28585   6.922   5.478   0.669
 9229SOL    HW128586   6.848   5.500   0.733
 9229SOL    HW228587   6.978   5.559   0.654
 9230SOL     OW28588   4.439   0.948   5.181
 9230SOL    HW128589   4.466   0.962   5.085
 9230SOL    HW228590   4.381   0.867   5.187
 9231SOL     OW28591   6.161   5.954   1.597
 9231SOL    HW128592   6.092   6.011   1.552
 9231SOL    HW228593   6.170   5.982   1.693
 9232SOL     OW28594   1.211   5.256   1.624
 9232SOL    HW128595   1.203   5.229   1.528
 9232SOL    HW228596   1.139   5.321   1.647
 9233SOL     OW28597   1.266   6.356   5.962
 9233SOL    HW128598   1.223   6.446   5.958
 9233SOL    HW228599   1.340   6.351   5.895
 9234SOL     OW28600   2.854   3.940   6.108
 9234SOL    HW128601   2.951   3.966   6.114
 9234SOL    HW228602   2.800   3.997   6.171
 9235SOL     OW28603   2.124   2.030   3.205
 9235SOL    HW128604   2.117   2.001   3.110
 9235SOL    HW228605   2.173   1.961   3.258
 9236SOL     OW28606   1.416   3.228   5.955
 9236SOL    HW128607   1.430   3.318   5.915
 9236SOL    HW228608   1.504   3.189   5.981
 9237SOL     OW28609   6.281   5.660   2.881
 9237SOL    HW128610   6.293   5.583   2.820
 9237SOL    HW228611   6.353   5.660   2.950
 9238SOL     OW28612   1.733   2.671   4.767
 9238SOL    HW128613   1.791   2.693   4.688
 9238SOL    HW228614   1.698   2.578   4.757
 9239SOL     OW28615   0.828   4.711   6.026
 9239SOL    HW128616   0.925   4.705   6.004
 9239SOL    HW228617   0.784   4.623   6.006
 9240SOL     OW28618   4.054   1.780   3.505
 9240SOL    HW128619   4.039   1.877   3.486
 9240SOL    HW228620   3.984   1.726   3.458
 9241SOL     OW28621   5.531   6.679   0.221
 9241SOL    HW128622   5.578   6.739   0.156
 9241SOL    HW228623   5.534   6.719   0.312
 9242SOL     OW28624   1.749   2.521   0.838
 9242SOL    HW128625   1.723   2.618   0.836
 9242SOL    HW228626   1.688   2.471   0.900
 9243SOL     OW28627   1.811   0.171   0.099
 9243SOL    HW128628   1.828   0.130   0.009
 9243SOL    HW228629   1.749   0.248   0.090
 9244SOL     OW28630   2.749   6.234   6.182
 9244SOL    HW128631   2.848   6.243   6.189
 9244SOL    HW228632   2.705   6.296   6.246
 9245SOL     OW28633   1.533   5.091   2.903
 9245SOL    HW128634   1.474   5.147   2.845
 9245SOL    HW228635   1.553   5.140   2.988
 9246SOL     OW28636   4.666   6.117   6.368
 9246SOL    HW128637   4.680   6.080   6.460
 9246SOL    HW228638   4.729   6.073   6.304
 9247SOL     OW28639   3.811   6.509   2.791
 9247SOL    HW128640   3.845   6.479   2.880
 9247SOL    HW228641   3.774   6.430   2.741
 9248SOL     OW28642   2.832   0.523   6.737
 9248SOL    HW128643   2.847   0.474   6.651
 9248SOL    HW228644   2.770   0.600   6.721
 9249SOL     OW28645   2.261   6.940   6.930
 9249SOL    HW128646   2.341   6.881   6.947
 9249SOL    HW228647   2.278   6.994   6.848
 9250SOL     OW28648   0.113   2.909   3.599
 9250SOL    HW128649   0.180   2.839   3.572
 9250SOL    HW228650   0.085   2.894   3.693
 9251SOL     OW28651   3.351   1.825   1.311
 9251SOL    HW128652   3.259   1.808   1.347
 9251SOL    HW228653   3.375   1.921   1.323
 9252SOL     OW28654   5.930   1.419   4.677
 9252SOL    HW128655   5.906   1.405   4.773
 9252SOL    HW228656   5.908   1.337   4.625
 9253SOL     OW28657   1.747   5.575   4.484
 9253SOL    HW128658   1.781   5.621   4.402
 9253SOL    HW228659   1.768   5.631   4.564
 9254SOL     OW28660   0.276   5.382   2.353
 9254SOL    HW128661   0.211   5.320   2.310
 9254SOL    HW228662   0.248   5.400   2.447
 9255SOL     OW28663   6.682   4.392   0.739
 9255SOL    HW128664   6.769   4.405   0.786
 9255SOL    HW228665   6.616   4.350   0.802
 9256SOL     OW28666   2.841   6.532   1.207
 9256SOL    HW128667   2.885   6.472   1.274
 9256SOL    HW228668   2.834   6.483   1.119
 9257SOL     OW28669   6.103   5.940   4.723
 9257SOL    HW128670   6.085   5.848   4.687
 9257SOL    HW228671   6.151   5.933   4.810
 9258SOL     OW28672   4.075   5.503   1.462
 9258SOL    HW128673   3.994   5.505   1.403
 9258SOL    HW228674   4.047   5.484   1.556
 9259SOL     OW28675   0.776   2.053   6.505
 9259SOL    HW128676   0.777   2.153   6.512
 9259SOL    HW228677   0.748   2.014   6.593
 9260SOL     OW28678   4.944   3.872   4.546
 9260SOL    HW128679   5.020   3.807   4.535
 9260SOL    HW228680   4.958   3.924   4.630
 9261SOL     OW28681   2.063   1.850   1.464
 9261SOL    HW128682   1.999   1.895   1.527
 9261SOL    HW228683   2.040   1.876   1.370
 9262SOL     OW28684   6.477   6.544   5.977
 9262SOL    HW128685   6.542   6.509   6.044
 9262SOL    HW228686   6.384   6.539   6.014
 9263SOL     OW28687   2.069   4.515   3.077
 9263SOL    HW128688   2.100   4.469   3.161
 9263SOL    HW228689   2.132   4.590   3.056
 9264SOL     OW28690   5.984   3.763   6.379
 9264SOL    HW128691   6.071   3.731   6.340
 9264SOL    HW228692   5.919   3.687   6.384
 9265SOL     OW28693   5.155   0.760   1.612
 9265SOL    HW128694   5.082   0.797   1.554
 9265SOL    HW228695   5.115   0.708   1.687
 9266SOL     OW28696   1.862   4.391   0.507
 9266SOL    HW128697   1.901   4.417   0.596
 9266SOL    HW228698   1.816   4.303   0.515
 9267SOL     OW28699   0.846   1.222   4.352
 9267SOL    HW128700   0.828   1.161   4.430
 9267SOL    HW228701   0.914   1.179   4.292
 9268SOL     OW28702   0.258   0.642   1.505
 9268SOL    HW128703   0.237   0.658   1.601
 9268SOL    HW228704   0.309   0.720   1.469
 9269SOL     OW28705   3.921   0.850   0.241
 9269SOL    HW128706   3.898   0.847   0.143
 9269SOL    HW228707   3.895   0.940   0.278
 9270SOL     OW28708   2.855   0.723   6.335
 9270SOL    HW128709   2.853   0.800   6.398
 9270SOL    HW228710   2.924   0.739   6.264
 9271SOL     OW28711   1.322   4.589   5.655
 9271SOL    HW128712   1.254   4.661   5.640
 9271SOL    HW228713   1.366   4.568   5.568
 9272SOL     OW28714   6.184   6.221   6.102
 9272SOL    HW128715   6.200   6.211   6.004
 9272SOL    HW228716   6.252   6.168   6.152
 9273SOL     OW28717   5.737   3.659   3.463
 9273SOL    HW128718   5.811   3.704   3.513
 9273SOL    HW228719   5.691   3.594   3.523
 9274SOL     OW28720   0.502   3.411   0.899
 9274SOL    HW128721   0.561   3.448   0.828
 9274SOL    HW228722   0.556   3.353   0.961
 9275SOL     OW28723   5.617   0.917   0.970
 9275SOL    HW128724   5.620   0.834   1.026
 9275SOL    HW228725   5.678   0.906   0.891
 9276SOL     OW28726   2.412   5.106   6.952
 9276SOL    HW128727   2.372   5.195   6.977
 9276SOL    HW228728   2.485   5.120   6.885
 9277SOL     OW28729   4.710   4.915   2.270
 9277SOL    HW128730   4.682   4.823   2.244
 9277SOL    HW228731   4.808   4.927   2.252
 9278SOL     OW28732   0.488   6.954   5.752
 9278SOL    HW128733   0.402   6.935   5.704
 9278SOL    HW228734   0.507   0.039   5.746
 9279SOL     OW28735   3.227   6.212   1.725
 9279SOL    HW128736   3.297   6.282   1.712
 9279SOL    HW228737   3.172   6.204   1.642
 9280SOL     OW28738   1.391   5.497   2.987
 9280SOL    HW128739   1.350   5.586   2.967
 9280SOL    HW228740   1.491   5.504   2.982
 9281SOL     OW28741   1.652   5.406   0.808
 9281SOL    HW128742   1.750   5.385   0.815
 9281SOL    HW228743   1.605   5.373   0.890
 9282SOL     OW28744   2.932   6.865   4.772
 9282SOL    HW128745   3.002   6.895   4.707
 9282SOL    HW228746   2.841   6.882   4.732
 9283SOL     OW28747   4.421   6.419   1.162
 9283SOL    HW128748   4.495   6.486   1.162
 9283SOL    HW228749   4.443   6.346   1.097
 9284SOL     OW28750   3.803   4.571   6.513
 9284SOL    HW128751   3.715   4.571   6.561
 9284SOL    HW228752   3.789   4.602   6.419
 9285SOL     OW28753   0.319   6.186   3.077
 9285SOL    HW128754   0.322   6.157   3.173
 9285SOL    HW228755   0.380   6.128   3.023
 9286SOL     OW28756   4.375   6.863   1.942
 9286SOL    HW128757   4.443   6.795   1.914
 9286SOL    HW228758   4.374   6.938   1.875
 9287SOL     OW28759   4.682   3.794   6.105
 9287SOL    HW128760   4.736   3.851   6.043
 9287SOL    HW228761   4.639   3.720   6.054
 9288SOL     OW28762   3.292   1.816   2.155
 9288SOL    HW128763   3.336   1.828   2.066
 9288SOL    HW228764   3.289   1.904   2.202
 9289SOL     OW28765   5.080   6.769   0.988
 9289SOL    HW128766   5.118   6.860   1.003
 9289SOL    HW228767   4.987   6.765   1.024
 9290SOL     OW28768   6.167   1.032   3.663
 9290SOL    HW128769   6.229   0.957   3.639
 9290SOL    HW228770   6.219   1.116   3.676
 9291SOL     OW28771   0.532   3.953   5.596
 9291SOL    HW128772   0.482   4.006   5.664
 9291SOL    HW228773   0.626   3.987   5.590
 9292SOL     OW28774   0.351   1.262   6.410
 9292SOL    HW128775   0.287   1.187   6.427
 9292SOL    HW228776   0.420   1.234   6.344
 9293SOL     OW28777   4.684   1.926   4.678
 9293SOL    HW128778   4.702   1.834   4.712
 9293SOL    HW228779   4.591   1.930   4.640
 9294SOL     OW28780   4.644   6.890   6.362
 9294SOL    HW128781   4.666   6.981   6.398
 9294SOL    HW228782   4.715   6.825   6.391
 9295SOL     OW28783   6.050   1.236   4.211
 9295SOL    HW128784   6.045   1.336   4.209
 9295SOL    HW228785   6.102   1.203   4.133
 9296SOL     OW28786   2.200   5.031   5.783
 9296SOL    HW128787   2.210   4.989   5.873
 9296SOL    HW228788   2.152   4.969   5.722
 9297SOL     OW28789   6.652   5.177   2.360
 9297SOL    HW128790   6.556   5.181   2.335
 9297SOL    HW228791   6.703   5.247   2.309
 9298SOL     OW28792   1.581   3.710   6.403
 9298SOL    HW128793   1.634   3.773   6.347
 9298SOL    HW228794   1.560   3.627   6.351
 9299SOL     OW28795   2.557   2.513   4.758
 9299SOL    HW128796   2.572   2.488   4.854
 9299SOL    HW228797   2.472   2.565   4.750
 9300SOL     OW28798   2.096   6.085   4.304
 9300SOL    HW128799   2.096   6.006   4.366
 9300SOL    HW228800   2.188   6.095   4.264
 9301SOL     OW28801   0.455   4.501   4.343
 9301SOL    HW128802   0.468   4.421   4.402
 9301SOL    HW228803   0.517   4.495   4.265
 9302SOL     OW28804   1.879   4.577   4.621
 9302SOL    HW128805   1.968   4.531   4.613
 9302SOL    HW228806   1.815   4.518   4.671
 9303SOL     OW28807   2.020   4.352   0.020
 9303SOL    HW128808   2.018   4.318   6.940
 9303SOL    HW228809   2.039   4.450   0.019
 9304SOL     OW28810   5.254   5.381   6.628
 9304SOL    HW128811   5.227   5.412   6.536
 9304SOL    HW228812   5.184   5.407   6.694
 9305SOL     OW28813   1.909   1.898   1.233
 9305SOL    HW128814   1.810   1.896   1.218
 9305SOL    HW228815   1.944   1.990   1.214
 9306SOL     OW28816   0.025   6.561   4.868
 9306SOL    HW128817   7.012   6.575   4.963
 9306SOL    HW228818   0.119   6.594   4.855
 9307SOL     OW28819   1.597   3.823   1.158
 9307SOL    HW128820   1.609   3.920   1.178
 9307SOL    HW228821   1.563   3.776   1.240
 9308SOL     OW28822   2.142   3.196   1.921
 9308SOL    HW128823   2.173   3.282   1.961
 9308SOL    HW228824   2.165   3.121   1.983
 9309SOL     OW28825   4.956   5.478   6.656
 9309SOL    HW128826   4.925   5.462   6.562
 9309SOL    HW228827   4.893   5.433   6.719
 9310SOL     OW28828   5.951   5.845   5.831
 9310SOL    HW128829   5.936   5.748   5.852
 9310SOL    HW228830   6.049   5.865   5.831
 9311SOL     OW28831   4.531   4.348   0.596
 9311SOL    HW128832   4.573   4.340   0.686
 9311SOL    HW228833   4.598   4.384   0.531
 9312SOL     OW28834   0.340   2.753   3.062
 9312SOL    HW128835   0.270   2.815   3.028
 9312SOL    HW228836   0.370   2.693   2.988
 9313SOL     OW28837   0.700   0.639   2.491
 9313SOL    HW128838   0.717   0.543   2.511
 9313SOL    HW228839   0.620   0.670   2.542
 9314SOL     OW28840   5.330   5.112   1.019
 9314SOL    HW128841   5.375   5.063   1.093
 9314SOL    HW228842   5.323   5.209   1.042
 9315SOL     OW28843   5.571   6.002   6.455
 9315SOL    HW128844   5.607   5.948   6.379
 9315SOL    HW228845   5.584   6.100   6.437
 9316SOL     OW28846   4.817   0.153   0.385
 9316SOL    HW128847   4.754   0.209   0.438
 9316SOL    HW228848   4.837   0.197   0.298
 9317SOL     OW28849   2.785   5.841   3.350
 9317SOL    HW128850   2.837   5.842   3.436
 9317SOL    HW228851   2.841   5.804   3.277
 9318SOL     OW28852   3.735   6.834   1.763
 9318SOL    HW128853   3.702   6.913   1.815
 9318SOL    HW228854   3.675   6.820   1.684
 9319SOL     OW28855   4.324   1.652   6.912
 9319SOL    HW128856   4.256   1.714   6.949
 9319SOL    HW228857   4.411   1.700   6.902
 9320SOL     OW28858   6.635   6.698   0.074
 9320SOL    HW128859   6.581   6.757   0.015
 9320SOL    HW228860   6.684   6.630   0.018
 9321SOL     OW28861   0.416   3.503   4.553
 9321SOL    HW128862   0.491   3.568   4.548
 9321SOL    HW228863   0.367   3.515   4.640
 9322SOL     OW28864   5.321   3.524   6.857
 9322SOL    HW128865   5.250   3.592   6.876
 9322SOL    HW228866   5.350   3.532   6.762
 9323SOL     OW28867   0.838   2.307   5.845
 9323SOL    HW128868   0.836   2.325   5.943
 9323SOL    HW228869   0.770   2.237   5.823
 9324SOL     OW28870   0.361   4.464   1.726
 9324SOL    HW128871   0.363   4.553   1.681
 9324SOL    HW228872   0.423   4.465   1.805
 9325SOL     OW28873   0.619   4.533   3.325
 9325SOL    HW128874   0.528   4.493   3.332
 9325SOL    HW228875   0.631   4.602   3.397
 9326SOL     OW28876   4.811   4.001   0.688
 9326SOL    HW128877   4.868   4.058   0.748
 9326SOL    HW228878   4.868   3.932   0.644
 9327SOL     OW28879   3.065   1.253   3.341
 9327SOL    HW128880   3.124   1.333   3.355
 9327SOL    HW228881   3.122   1.172   3.325
 9328SOL     OW28882   1.980   0.903   3.512
 9328SOL    HW128883   2.005   0.901   3.609
 9328SOL    HW228884   2.058   0.873   3.457
 9329SOL     OW28885   0.414   5.401   6.816
 9329SOL    HW128886   0.432   5.497   6.795
 9329SOL    HW228887   0.325   5.375   6.778
 9330SOL     OW28888   0.203   6.685   0.388
 9330SOL    HW128889   0.258   6.638   0.319
 9330SOL    HW228890   0.126   6.627   0.414
 9331SOL     OW28891   1.982   3.944   4.193
 9331SOL    HW128892   1.883   3.934   4.192
 9331SOL    HW228893   2.010   3.998   4.272
 9332SOL     OW28894   6.246   5.006   0.568
 9332SOL    HW128895   6.305   5.066   0.622
 9332SOL    HW228896   6.281   5.002   0.474
 9333SOL     OW28897   3.250   3.854   1.498
 9333SOL    HW128898   3.296   3.845   1.586
 9333SOL    HW228899   3.212   3.947   1.490
 9334SOL     OW28900   6.479   5.728   6.195
 9334SOL    HW128901   6.506   5.639   6.158
 9334SOL    HW228902   6.451   5.717   6.290
 9335SOL     OW28903   0.623   3.744   1.384
 9335SOL    HW128904   0.685   3.791   1.446
 9335SOL    HW228905   0.674   3.713   1.303
 9336SOL     OW28906   5.348   0.199   6.209
 9336SOL    HW128907   5.312   0.292   6.215
 9336SOL    HW228908   5.316   0.156   6.125
 9337SOL     OW28909   2.519   1.127   5.591
 9337SOL    HW128910   2.493   1.218   5.624
 9337SOL    HW228911   2.463   1.058   5.637
 9338SOL     OW28912   5.407   6.288   0.265
 9338SOL    HW128913   5.318   6.246   0.247
 9338SOL    HW228914   5.420   6.365   0.202
 9339SOL     OW28915   0.213   4.010   5.330
 9339SOL    HW128916   0.306   4.024   5.297
 9339SOL    HW228917   0.148   4.054   5.268
 9340SOL     OW28918   2.443   4.692   1.938
 9340SOL    HW128919   2.401   4.655   1.856
 9340SOL    HW228920   2.395   4.775   1.967
 9341SOL     OW28921   5.385   5.101   6.435
 9341SOL    HW128922   5.398   5.186   6.383
 9341SOL    HW228923   5.318   5.044   6.390
 9342SOL     OW28924   2.965   0.205   4.647
 9342SOL    HW128925   2.876   0.242   4.620
 9342SOL    HW228926   3.034   0.230   4.579
 9343SOL     OW28927   4.826   3.655   0.311
 9343SOL    HW128928   4.782   3.729   0.260
 9343SOL    HW228929   4.757   3.591   0.344
 9344SOL     OW28930   5.428   0.558   5.356
 9344SOL    HW128931   5.442   0.482   5.293
 9344SOL    HW228932   5.515   0.586   5.395
 9345SOL     OW28933   0.414   4.465   0.497
 9345SOL    HW128934   0.438   4.413   0.579
 9345SOL    HW228935   0.314   4.474   0.491
 9346SOL     OW28936   5.480   6.899   2.186
 9346SOL    HW128937   5.458   6.995   2.208
 9346SOL    HW228938   5.550   6.896   2.115
 9347SOL     OW28939   4.105   6.218   1.089
 9347SOL    HW128940   4.041   6.150   1.054
 9347SOL    HW228941   4.187   6.219   1.030
 9348SOL     OW28942   2.101   5.573   1.608
 9348SOL    HW128943   2.114   5.492   1.551
 9348SOL    HW228944   2.174   5.639   1.589
 9349SOL     OW28945   6.932   6.072   1.684
 9349SOL    HW128946   6.927   6.161   1.640
 9349SOL    HW228947   6.861   6.012   1.647
 9350SOL     OW28948   6.548   0.613   0.103
 9350SOL    HW128949   6.499   0.700   0.109
 9350SOL    HW228950   6.489   0.544   0.061
 9351SOL     OW28951   4.264   3.039   5.517
 9351SOL    HW128952   4.222   3.068   5.602
 9351SOL    HW228953   4.310   2.951   5.530
 9352SOL     OW28954   3.197   2.523   6.556
 9352SOL    HW128955   3.155   2.595   6.611
 9352SOL    HW228956   3.146   2.438   6.568
 9353SOL     OW28957   0.304   3.250   1.559
 9353SOL    HW128958   0.239   3.232   1.485
 9353SOL    HW228959   0.317   3.349   1.568
 9354SOL     OW28960   5.346   1.557   1.525
 9354SOL    HW128961   5.333   1.649   1.563
 9354SOL    HW228962   5.417   1.559   1.456
 9355SOL     OW28963   6.340   1.249   2.719
 9355SOL    HW128964   6.406   1.195   2.771
 9355SOL    HW228965   6.346   1.345   2.747
 9356SOL     OW28966   5.026   3.612   2.651
 9356SOL    HW128967   5.062   3.519   2.650
 9356SOL    HW228968   4.966   3.626   2.572
 9357SOL     OW28969   3.522   3.493   0.636
 9357SOL    HW128970   3.582   3.469   0.712
 9357SOL    HW228971   3.571   3.481   0.550
 9358SOL     OW28972   4.942   4.259   1.823
 9358SOL    HW128973   4.876   4.184   1.831
 9358SOL    HW228974   5.012   4.249   1.894
 9359SOL     OW28975   5.700   4.642   6.108
 9359SOL    HW128976   5.722   4.565   6.168
 9359SOL    HW228977   5.774   4.657   6.043
 9360SOL     OW28978   1.358   0.689   5.554
 9360SOL    HW128979   1.411   0.736   5.483
 9360SOL    HW228980   1.406   0.605   5.580
 9361SOL     OW28981   2.334   1.171   2.314
 9361SOL    HW128982   2.318   1.248   2.376
 9361SOL    HW228983   2.290   1.189   2.226
 9362SOL     OW28984   1.492   1.725   3.160
 9362SOL    HW128985   1.538   1.685   3.082
 9362SOL    HW228986   1.555   1.725   3.239
 9363SOL     OW28987   2.424   6.587   1.707
 9363SOL    HW128988   2.395   6.606   1.801
 9363SOL    HW228989   2.512   6.631   1.690
 9364SOL     OW28990   5.631   5.137   1.025
 9364SOL    HW128991   5.603   5.047   1.058
 9364SOL    HW228992   5.687   5.182   1.095
 9365SOL     OW28993   1.842   1.230   5.221
 9365SOL    HW128994   1.894   1.263   5.299
 9365SOL    HW228995   1.875   1.273   5.137
 9366SOL     OW28996   3.000   1.199   2.089
 9366SOL    HW128997   2.981   1.124   2.153
 9366SOL    HW228998   2.955   1.180   2.001
 9367SOL     OW28999   6.701   6.106   4.051
 9367SOL    HW129000   6.721   6.136   3.958
 9367SOL    HW229001   6.786   6.098   4.103
 9368SOL     OW29002   4.650   2.968   1.264
 9368SOL    HW129003   4.688   2.908   1.334
 9368SOL    HW229004   4.598   3.041   1.308
 9369SOL     OW29005   6.864   2.145   5.465
 9369SOL    HW129006   6.910   2.173   5.381
 9369SOL    HW229007   6.852   2.046   5.465
 9370SOL     OW29008   6.046   6.913   3.421
 9370SOL    HW129009   6.000   6.993   3.458
 9370SOL    HW229010   6.080   6.934   3.329
 9371SOL     OW29011   0.973   6.842   0.143
 9371SOL    HW129012   1.002   6.776   0.073
 9371SOL    HW229013   1.022   6.825   0.228
 9372SOL     OW29014   6.179   6.307   6.630
 9372SOL    HW129015   6.209   6.212   6.620
 9372SOL    HW229016   6.079   6.310   6.630
 9373SOL     OW29017   4.421   2.395   4.027
 9373SOL    HW129018   4.473   2.382   4.112
 9373SOL    HW229019   4.326   2.370   4.042
 9374SOL     OW29020   5.230   4.117   0.351
 9374SOL    HW129021   5.329   4.129   0.361
 9374SOL    HW229022   5.211   4.065   0.268
 9375SOL     OW29023   0.973   1.359   3.849
 9375SOL    HW129024   0.956   1.386   3.943
 9375SOL    HW229025   1.064   1.390   3.820
 9376SOL     OW29026   2.084   2.798   2.384
 9376SOL    HW129027   2.149   2.736   2.340
 9376SOL    HW229028   2.076   2.775   2.481
 9377SOL     OW29029   5.979   5.243   2.635
 9377SOL    HW129030   5.931   5.292   2.562
 9377SOL    HW229031   5.965   5.290   2.722
 9378SOL     OW29032   3.701   5.990   0.988
 9378SOL    HW129033   3.631   6.001   0.918
 9378SOL    HW229034   3.715   5.893   1.006
 9379SOL     OW29035   5.418   4.551   5.453
 9379SOL    HW129036   5.460   4.488   5.518
 9379SOL    HW229037   5.375   4.499   5.378
 9380SOL     OW29038   6.215   6.047   6.366
 9380SOL    HW129039   6.161   5.967   6.389
 9380SOL    HW229040   6.180   6.126   6.417
 9381SOL     OW29041   2.548   0.920   0.155
 9381SOL    HW129042   2.559   0.871   0.069
 9381SOL    HW229043   2.455   0.908   0.189
 9382SOL     OW29044   5.621   2.229   2.465
 9382SOL    HW129045   5.577   2.270   2.544
 9382SOL    HW229046   5.652   2.137   2.488
 9383SOL     OW29047   5.780   5.824   5.382
 9383SOL    HW129048   5.746   5.911   5.347
 9383SOL    HW229049   5.793   5.831   5.481
 9384SOL     OW29050   4.533   6.047   1.953
 9384SOL    HW129051   4.489   6.102   2.024
 9384SOL    HW229052   4.479   5.965   1.934
 9385SOL     OW29053   3.975   1.457   3.860
 9385SOL    HW129054   4.067   1.475   3.897
 9385SOL    HW229055   3.938   1.541   3.822
 9386SOL     OW29056   4.045   0.327   4.525
 9386SOL    HW129057   4.034   0.276   4.439
 9386SOL    HW229058   4.138   0.363   4.530
 9387SOL     OW29059   4.100   6.867   0.431
 9387SOL    HW129060   4.148   6.781   0.449
 9387SOL    HW229061   4.161   6.944   0.450
 9388SOL     OW29062   6.946   6.862   2.366
 9388SOL    HW129063   6.871   6.832   2.307
 9388SOL    HW229064   6.994   6.938   2.323
 9389SOL     OW29065   3.059   1.319   0.102
 9389SOL    HW129066   3.096   1.335   0.010
 9389SOL    HW229067   3.100   1.236   0.139
 9390SOL     OW29068   3.001   6.780   1.941
 9390SOL    HW129069   3.077   6.730   1.899
 9390SOL    HW229070   2.914   6.745   1.906
 9391SOL     OW29071   0.514   0.868   5.507
 9391SOL    HW129072   0.577   0.836   5.577
 9391SOL    HW229073   0.478   0.790   5.456
 9392SOL     OW29074   1.311   6.094   3.727
 9392SOL    HW129075   1.326   6.186   3.762
 9392SOL    HW229076   1.321   6.028   3.801
 9393SOL     OW29077   3.779   2.397   5.442
 9393SOL    HW129078   3.751   2.313   5.396
 9393SOL    HW229079   3.857   2.436   5.394
 9394SOL     OW29080   5.542   1.844   2.271
 9394SOL    HW129081   5.555   1.798   2.359
 9394SOL    HW229082   5.463   1.905   2.276
 9395SOL     OW29083   1.745   2.227   6.782
 9395SOL    HW129084   1.682   2.175   6.724
 9395SOL    HW229085   1.814   2.271   6.725
 9396SOL     OW29086   6.308   0.334   6.867
 9396SOL    HW129087   6.233   0.347   6.802
 9396SOL    HW229088   6.313   0.413   6.928
 9397SOL     OW29089   3.049   1.186   0.845
 9397SOL    HW129090   3.030   1.284   0.854
 9397SOL    HW229091   2.967   1.134   0.866
 9398SOL     OW29092   2.365   1.888   6.804
 9398SOL    HW129093   2.304   1.961   6.773
 9398SOL    HW229094   2.459   1.909   6.778
 9399SOL     OW29095   6.639   1.000   5.243
 9399SOL    HW129096   6.680   0.989   5.152
 9399SOL    HW229097   6.711   0.999   5.312
 9400SOL     OW29098   4.775   2.195   3.504
 9400SOL    HW129099   4.742   2.140   3.581
 9400SOL    HW229100   4.870   2.172   3.485
 9401SOL     OW29101   3.654   0.288   3.121
 9401SOL    HW129102   3.611   0.236   3.047
 9401SOL    HW229103   3.676   0.380   3.089
 9402SOL     OW29104   1.979   5.177   6.789
 9402SOL    HW129105   1.941   5.123   6.714
 9402SOL    HW229106   1.968   5.127   6.875
 9403SOL     OW29107   5.556   1.446   4.429
 9403SOL    HW129108   5.473   1.502   4.429
 9403SOL    HW229109   5.629   1.495   4.477
 9404SOL     OW29110   0.481   4.217   5.802
 9404SOL    HW129111   0.576   4.245   5.818
 9404SOL    HW229112   0.450   4.254   5.714
 9405SOL     OW29113   6.287   0.153   0.758
 9405SOL    HW129114   6.291   0.238   0.810
 9405SOL    HW229115   6.252   0.080   0.816
 9406SOL     OW29116   7.003   1.224   5.779
 9406SOL    HW129117   0.035   1.138   5.761
 9406SOL    HW229118   6.969   1.263   5.693
 9407SOL     OW29119   3.121   6.227   2.916
 9407SOL    HW129120   3.180   6.149   2.896
 9407SOL    HW229121   3.038   6.220   2.861
 9408SOL     OW29122   3.707   1.863   6.525
 9408SOL    HW129123   3.644   1.792   6.492
 9408SOL    HW229124   3.800   1.840   6.497
 9409SOL     OW29125   5.487   3.816   3.096
 9409SOL    HW129126   5.398   3.778   3.122
 9409SOL    HW229127   5.540   3.836   3.178
 9410SOL     OW29128   4.995   6.693   2.717
 9410SOL    HW129129   4.988   6.612   2.775
 9410SOL    HW229130   5.045   6.765   2.766
 9411SOL     OW29131   5.002   5.812   1.270
 9411SOL    HW129132   4.965   5.796   1.179
 9411SOL    HW229133   4.975   5.903   1.302
 9412SOL     OW29134   6.425   2.865   1.311
 9412SOL    HW129135   6.347   2.926   1.293
 9412SOL    HW229136   6.408   2.815   1.396
 9413SOL     OW29137   3.534   5.749   5.027
 9413SOL    HW129138   3.542   5.804   5.110
 9413SOL    HW229139   3.592   5.788   4.956
 9414SOL     OW29140   2.546   1.457   2.182
 9414SOL    HW129141   2.565   1.367   2.144
 9414SOL    HW229142   2.611   1.523   2.144
 9415SOL     OW29143   3.177   0.776   2.287
 9415SOL    HW129144   3.169   0.677   2.281
 9415SOL    HW229145   3.228   0.811   2.208
 9416SOL     OW29146   0.809   2.376   1.253
 9416SOL    HW129147   0.823   2.427   1.169
 9416SOL    HW229148   0.841   2.431   1.331
 9417SOL     OW29149   2.032   6.432   4.472
 9417SOL    HW129150   1.949   6.485   4.480
 9417SOL    HW229151   2.010   6.339   4.440
 9418SOL     OW29152   3.674   4.182   1.180
 9418SOL    HW129153   3.760   4.141   1.208
 9418SOL    HW229154   3.600   4.148   1.238
 9419SOL     OW29155   3.729   6.099   5.300
 9419SOL    HW129156   3.706   6.174   5.238
 9419SOL    HW229157   3.806   6.126   5.357
 9420SOL     OW29158   0.946   1.420   4.118
 9420SOL    HW129159   0.874   1.397   4.183
 9420SOL    HW229160   1.005   1.490   4.157
 9421SOL     OW29161   1.575   4.997   4.818
 9421SOL    HW129162   1.601   5.052   4.897
 9421SOL    HW229163   1.632   5.023   4.740
 9422SOL     OW29164   4.158   1.986   1.820
 9422SOL    HW129165   4.109   1.903   1.848
 9422SOL    HW229166   4.097   2.065   1.828
 9423SOL     OW29167   4.594   0.711   5.013
 9423SOL    HW129168   4.499   0.682   5.003
 9423SOL    HW229169   4.599   0.810   5.008
 9424SOL     OW29170   3.015   6.286   4.221
 9424SOL    HW129171   2.921   6.320   4.226
 9424SOL    HW229172   3.024   6.202   4.275
 9425SOL     OW29173   1.287   4.041   3.784
 9425SOL    HW129174   1.203   4.076   3.824
 9425SOL    HW229175   1.342   3.995   3.854
 9426SOL     OW29176   3.416   6.528   0.369
 9426SOL    HW129177   3.395   6.614   0.323
 9426SOL    HW229178   3.355   6.456   0.334
 9427SOL     OW29179   3.099   4.867   4.100
 9427SOL    HW129180   3.030   4.806   4.140
 9427SOL    HW229181   3.180   4.867   4.159
 9428SOL     OW29182   4.644   6.242   2.698
 9428SOL    HW129183   4.642   6.169   2.629
 9428SOL    HW229184   4.739   6.269   2.714
 9429SOL     OW29185   0.262   3.838   2.511
 9429SOL    HW129186   0.336   3.840   2.444
 9429SOL    HW229187   0.178   3.808   2.466
 9430SOL     OW29188   6.393   0.024   2.249
 9430SOL    HW129189   6.350   6.955   2.214
 9430SOL    HW229190   6.373   0.101   2.189
 9431SOL     OW29191   6.728   4.648   2.039
 9431SOL    HW129192   6.675   4.563   2.037
 9431SOL    HW229193   6.795   4.644   2.113
 9432SOL     OW29194   6.419   6.931   4.412
 9432SOL    HW129195   6.320   6.940   4.408
 9432SOL    HW229196   6.447   6.909   4.505
 9433SOL     OW29197   2.556   4.638   4.970
 9433SOL    HW129198   2.529   4.733   4.983
 9433SOL    HW229199   2.653   4.628   4.991
 9434SOL     OW29200   5.349   5.137   3.152
 9434SOL    HW129201   5.331   5.236   3.149
 9434SOL    HW229202   5.274   5.089   3.106
 9435SOL     OW29203   1.561   0.778   4.433
 9435SOL    HW129204   1.576   0.808   4.339
 9435SOL    HW229205   1.488   0.710   4.436
 9436SOL     OW29206   1.905   2.582   6.595
 9436SOL    HW129207   1.877   2.486   6.601
 9436SOL    HW229208   1.991   2.588   6.543
 9437SOL     OW29209   0.715   5.328   4.128
 9437SOL    HW129210   0.646   5.310   4.198
 9437SOL    HW229211   0.800   5.357   4.172
 9438SOL     OW29212   1.407   6.307   2.197
 9438SOL    HW129213   1.484   6.273   2.142
 9438SOL    HW229214   1.372   6.233   2.255
 9439SOL     OW29215   0.689   2.755   1.390
 9439SOL    HW129216   0.673   2.845   1.430
 9439SOL    HW229217   0.764   2.761   1.324
 9440SOL     OW29218   4.757   5.829   5.736
 9440SOL    HW129219   4.759   5.756   5.667
 9440SOL    HW229220   4.849   5.865   5.750
 9441SOL     OW29221   1.124   4.786   4.782
 9441SOL    HW129222   1.095   4.772   4.877
 9441SOL    HW229223   1.053   4.835   4.732
 9442SOL     OW29224   0.808   3.366   1.432
 9442SOL    HW129225   0.871   3.403   1.500
 9442SOL    HW229226   0.847   3.283   1.392
 9443SOL     OW29227   1.585   3.246   1.695
 9443SOL    HW129228   1.564   3.150   1.715
 9443SOL    HW229229   1.643   3.283   1.768
 9444SOL     OW29230   6.972   3.540   6.803
 9444SOL    HW129231   6.947   3.449   6.837
 9444SOL    HW229232   0.049   3.564   6.837
 9445SOL     OW29233   5.987   3.876   1.438
 9445SOL    HW129234   6.053   3.802   1.425
 9445SOL    HW229235   5.895   3.842   1.420
 9446SOL     OW29236   6.006   5.417   1.317
 9446SOL    HW129237   6.067   5.351   1.361
 9446SOL    HW229238   6.058   5.475   1.255
 9447SOL     OW29239   6.081   2.648   1.688
 9447SOL    HW129240   6.125   2.561   1.663
 9447SOL    HW229241   6.052   2.644   1.784
 9448SOL     OW29242   6.425   6.404   0.370
 9448SOL    HW129243   6.428   6.304   0.366
 9448SOL    HW229244   6.459   6.435   0.458
 9449SOL     OW29245   0.024   5.373   5.055
 9449SOL    HW129246   6.979   5.345   4.979
 9449SOL    HW229247   0.017   5.307   5.129
 9450SOL     OW29248   3.027   4.874   4.504
 9450SOL    HW129249   2.963   4.804   4.535
 9450SOL    HW229250   2.986   4.927   4.430
 9451SOL     OW29251   4.282   4.570   5.950
 9451SOL    HW129252   4.218   4.523   6.010
 9451SOL    HW229253   4.243   4.657   5.921
 9452SOL     OW29254   2.941   4.355   1.457
 9452SOL    HW129255   2.876   4.431   1.451
 9452SOL    HW229256   2.901   4.281   1.510
 9453SOL     OW29257   3.380   4.939   1.850
 9453SOL    HW129258   3.292   4.898   1.874
 9453SOL    HW229259   3.418   4.891   1.771
 9454SOL     OW29260   2.512   2.485   5.050
 9454SOL    HW129261   2.527   2.516   5.144
 9454SOL    HW229262   2.422   2.440   5.044
 9455SOL     OW29263   3.385   1.759   2.541
 9455SOL    HW129264   3.286   1.764   2.529
 9455SOL    HW229265   3.427   1.722   2.458
 9456SOL     OW29266   1.712   2.929   1.254
 9456SOL    HW129267   1.727   3.018   1.212
 9456SOL    HW229268   1.657   2.872   1.193
 9457SOL     OW29269   0.199   3.500   0.548
 9457SOL    HW129270   0.209   3.599   0.538
 9457SOL    HW229271   0.277   3.453   0.508
 9458SOL     OW29272   0.016   5.791   4.720
 9458SOL    HW129273   0.004   5.808   4.818
 9458SOL    HW229274   0.060   5.869   4.677
 9459SOL     OW29275   4.952   5.946   1.673
 9459SOL    HW129276   5.042   5.974   1.707
 9459SOL    HW229277   4.881   5.983   1.733
 9460SOL     OW29278   0.657   2.332   5.442
 9460SOL    HW129279   0.599   2.413   5.432
 9460SOL    HW229280   0.626   2.278   5.520
 9461SOL     OW29281   1.470   0.391   3.283
 9461SOL    HW129282   1.544   0.430   3.338
 9461SOL    HW229283   1.408   0.340   3.343
 9462SOL     OW29284   0.672   3.315   2.850
 9462SOL    HW129285   0.671   3.334   2.948
 9462SOL    HW229286   0.767   3.310   2.818
 9463SOL     OW29287   5.079   1.424   0.429
 9463SOL    HW129288   4.993   1.375   0.412
 9463SOL    HW229289   5.089   1.497   0.361
 9464SOL     OW29290   5.031   0.037   6.189
 9464SOL    HW129291   5.036   0.068   6.284
 9464SOL    HW229292   5.121   0.007   6.159
 9465SOL     OW29293   5.849   0.404   4.164
 9465SOL    HW129294   5.924   0.408   4.098
 9465SOL    HW229295   5.843   0.312   4.201
 9466SOL     OW29296   3.009   2.426   6.873
 9466SOL    HW129297   2.950   2.399   6.796
 9466SOL    HW229298   3.037   2.522   6.861
 9467SOL     OW29299   2.018   3.349   2.176
 9467SOL    HW129300   2.093   3.388   2.122
 9467SOL    HW229301   1.946   3.418   2.187
 9468SOL     OW29302   0.080   2.804   5.528
 9468SOL    HW129303   0.106   2.798   5.624
 9468SOL    HW229304   6.995   2.787   5.520
 9469SOL     OW29305   6.343   4.367   2.173
 9469SOL    HW129306   6.244   4.374   2.169
 9469SOL    HW229307   6.380   4.443   2.228
 9470SOL     OW29308   4.940   4.193   0.828
 9470SOL    HW129309   5.014   4.192   0.760
 9470SOL    HW229310   4.977   4.169   0.917
 9471SOL     OW29311   6.653   2.210   6.496
 9471SOL    HW129312   6.591   2.166   6.561
 9471SOL    HW229313   6.600   2.268   6.434
 9472SOL     OW29314   6.625   3.792   4.198
 9472SOL    HW129315   6.557   3.756   4.134
 9472SOL    HW229316   6.578   3.845   4.269
 9473SOL     OW29317   3.622   5.325   4.905
 9473SOL    HW129318   3.547   5.371   4.952
 9473SOL    HW229319   3.616   5.342   4.807
 9474SOL     OW29320   4.197   5.074   2.489
 9474SOL    HW129321   4.115   5.076   2.431
 9474SOL    HW229322   4.184   5.134   2.567
 9475SOL     OW29323   1.562   3.603   1.354
 9475SOL    HW129324   1.545   3.665   1.430
 9475SOL    HW229325   1.610   3.522   1.387
 9476SOL     OW29326   3.773   3.750   5.555
 9476SOL    HW129327   3.786   3.675   5.490
 9476SOL    HW229328   3.675   3.767   5.567
 9477SOL     OW29329   1.233   2.941   0.892
 9477SOL    HW129330   1.266   2.949   0.986
 9477SOL    HW229331   1.145   2.892   0.891
 9478SOL     OW29332   5.492   5.040   5.234
 9478SOL    HW129333   5.427   5.074   5.166
 9478SOL    HW229334   5.482   4.941   5.243
 9479SOL     OW29335   6.757   5.847   5.917
 9479SOL    HW129336   6.789   5.753   5.921
 9479SOL    HW229337   6.821   5.906   5.967
 9480SOL     OW29338   6.127   5.134   0.244
 9480SOL    HW129339   6.113   5.083   0.159
 9480SOL    HW229340   6.223   5.127   0.272
 9481SOL     OW29341   6.916   3.472   2.084
 9481SOL    HW129342   6.826   3.428   2.086
 9481SOL    HW229343   6.949   3.486   2.178
 9482SOL     OW29344   3.874   0.603   2.556
 9482SOL    HW129345   3.933   0.576   2.632
 9482SOL    HW229346   3.897   0.696   2.526
 9483SOL     OW29347   1.430   1.560   6.980
 9483SOL    HW129348   1.350   1.552   6.921
 9483SOL    HW229349   1.450   1.657   6.997
 9484SOL     OW29350   6.460   1.372   3.305
 9484SOL    HW129351   6.520   1.397   3.229
 9484SOL    HW229352   6.490   1.418   3.388
 9485SOL     OW29353   1.111   0.530   3.167
 9485SOL    HW129354   1.203   0.567   3.178
 9485SOL    HW229355   1.052   0.565   3.240
 9486SOL     OW29356   3.348   6.086   1.925
 9486SOL    HW129357   3.284   6.122   1.856
 9486SOL    HW229358   3.308   6.005   1.968
 9487SOL     OW29359   2.994   3.230   3.688
 9487SOL    HW129360   2.959   3.239   3.595
 9487SOL    HW229361   3.031   3.137   3.701
 9488SOL     OW29362   1.480   0.207   1.166
 9488SOL    HW129363   1.393   0.255   1.176
 9488SOL    HW229364   1.538   0.255   1.100
 9489SOL     OW29365   3.567   3.899   0.616
 9489SOL    HW129366   3.472   3.918   0.639
 9489SOL    HW229367   3.596   3.814   0.660
 9490SOL     OW29368   5.260   0.987   0.578
 9490SOL    HW129369   5.224   0.894   0.577
 9490SOL    HW229370   5.199   1.047   0.630
 9491SOL     OW29371   6.136   5.235   6.559
 9491SOL    HW129372   6.046   5.210   6.523
 9491SOL    HW229373   6.176   5.306   6.501
 9492SOL     OW29374   3.047   4.029   1.918
 9492SOL    HW129375   3.043   4.119   1.874
 9492SOL    HW229376   3.050   4.041   2.017
 9493SOL     OW29377   5.214   5.781   3.195
 9493SOL    HW129378   5.182   5.716   3.126
 9493SOL    HW229379   5.257   5.859   3.149
 9494SOL     OW29380   4.447   3.358   5.571
 9494SOL    HW129381   4.458   3.450   5.535
 9494SOL    HW229382   4.436   3.293   5.495
 9495SOL     OW29383   5.733   2.669   5.522
 9495SOL    HW129384   5.766   2.596   5.463
 9495SOL    HW229385   5.642   2.645   5.557
 9496SOL     OW29386   5.652   4.089   0.002
 9496SOL    HW129387   5.687   4.113   0.093
 9496SOL    HW229388   5.678   4.159   6.950
 9497SOL     OW29389   7.013   6.201   6.082
 9497SOL    HW129390   6.958   6.272   6.037
 9497SOL    HW229391   6.954   6.127   6.112
 9498SOL     OW29392   4.609   0.255   5.937
 9498SOL    HW129393   4.604   0.155   5.926
 9498SOL    HW229394   4.542   0.298   5.878
 9499SOL     OW29395   4.442   4.349   5.664
 9499SOL    HW129396   4.485   4.359   5.574
 9499SOL    HW229397   4.501   4.294   5.723
 9500SOL     OW29398   5.477   5.902   1.948
 9500SOL    HW129399   5.476   5.992   1.993
 9500SOL    HW229400   5.399   5.849   1.980
 9501SOL     OW29401   3.229   1.810   4.699
 9501SOL    HW129402   3.222   1.902   4.736
 9501SOL    HW229403   3.187   1.808   4.608
 9502SOL     OW29404   5.737   3.492   5.344
 9502SOL    HW129405   5.666   3.497   5.274
 9502SOL    HW229406   5.724   3.409   5.398
 9503SOL     OW29407   1.753   6.514   1.319
 9503SOL    HW129408   1.681   6.558   1.373
 9503SOL    HW229409   1.762   6.562   1.232
 9504SOL     OW29410   1.045   2.717   6.702
 9504SOL    HW129411   1.121   2.662   6.737
 9504SOL    HW229412   1.079   2.808   6.676
 9505SOL     OW29413   5.797   3.345   2.679
 9505SOL    HW129414   5.820   3.260   2.632
 9505SOL    HW229415   5.867   3.414   2.659
 9506SOL     OW29416   6.307   3.738   0.464
 9506SOL    HW129417   6.289   3.824   0.416
 9506SOL    HW229418   6.333   3.758   0.559
 9507SOL     OW29419   1.219   1.947   3.732
 9507SOL    HW129420   1.310   1.909   3.749
 9507SOL    HW229421   1.198   2.016   3.801
 9508SOL     OW29422   5.065   1.947   0.392
 9508SOL    HW129423   5.047   2.004   0.312
 9508SOL    HW229424   5.013   1.981   0.470
 9509SOL     OW29425   2.425   6.789   5.213
 9509SOL    HW129426   2.514   6.829   5.192
 9509SOL    HW229427   2.365   6.860   5.251
 9510SOL     OW29428   5.990   4.406   3.124
 9510SOL    HW129429   5.920   4.459   3.076
 9510SOL    HW229430   6.070   4.395   3.066
 9511SOL     OW29431   0.928   1.151   0.712
 9511SOL    HW129432   0.860   1.219   0.740
 9511SOL    HW229433   0.990   1.192   0.645
 9512SOL     OW29434   1.303   2.384   3.965
 9512SOL    HW129435   1.344   2.347   4.048
 9512SOL    HW229436   1.226   2.443   3.989
 9513SOL     OW29437   2.431   4.365   3.637
 9513SOL    HW129438   2.440   4.266   3.642
 9513SOL    HW229439   2.416   4.393   3.542
 9514SOL     OW29440   2.579   2.853   6.353
 9514SOL    HW129441   2.509   2.812   6.410
 9514SOL    HW229442   2.632   2.919   6.406
 9515SOL     OW29443   2.134   5.707   6.486
 9515SOL    HW129444   2.044   5.728   6.447
 9515SOL    HW229445   2.139   5.743   6.579
 9516SOL     OW29446   5.213   3.451   4.227
 9516SOL    HW129447   5.139   3.501   4.182
 9516SOL    HW229448   5.300   3.474   4.182
 9517SOL     OW29449   0.302   5.667   2.107
 9517SOL    HW129450   0.259   5.586   2.147
 9517SOL    HW229451   0.398   5.671   2.136
 9518SOL     OW29452   0.728   2.595   5.848
 9518SOL    HW129453   0.793   2.671   5.844
 9518SOL    HW229454   0.771   2.512   5.813
 9519SOL     OW29455   3.541   3.440   2.684
 9519SOL    HW129456   3.596   3.420   2.602
 9519SOL    HW229457   3.470   3.370   2.694
 9520SOL     OW29458   5.655   0.456   5.934
 9520SOL    HW129459   5.638   0.506   6.019
 9520SOL    HW229460   5.659   0.358   5.952
 9521SOL     OW29461   3.630   0.339   0.980
 9521SOL    HW129462   3.625   0.438   0.993
 9521SOL    HW229463   3.715   0.305   1.022
 9522SOL     OW29464   3.635   6.942   2.296
 9522SOL    HW129465   3.699   6.871   2.325
 9522SOL    HW229466   3.544   6.921   2.333
 9523SOL     OW29467   3.008   4.885   3.814
 9523SOL    HW129468   3.040   4.841   3.898
 9523SOL    HW229469   2.908   4.878   3.809
 9524SOL     OW29470   2.709   4.253   1.203
 9524SOL    HW129471   2.716   4.180   1.135
 9524SOL    HW229472   2.645   4.226   1.274
 9525SOL     OW29473   2.229   3.239   5.147
 9525SOL    HW129474   2.291   3.161   5.136
 9525SOL    HW229475   2.197   3.243   5.242
 9526SOL     OW29476   5.299   5.100   6.922
 9526SOL    HW129477   5.222   5.105   6.987
 9526SOL    HW229478   5.286   5.021   6.862
 9527SOL     OW29479   4.252   0.207   3.177
 9527SOL    HW129480   4.165   0.160   3.163
 9527SOL    HW229481   4.279   0.199   3.273
 9528SOL     OW29482   5.647   2.449   1.073
 9528SOL    HW129483   5.607   2.358   1.058
 9528SOL    HW229484   5.703   2.473   0.994
 9529SOL     OW29485   6.107   1.268   1.499
 9529SOL    HW129486   6.199   1.231   1.511
 9529SOL    HW229487   6.048   1.199   1.458
 9530SOL     OW29488   1.278   5.404   3.849
 9530SOL    HW129489   1.231   5.485   3.884
 9530SOL    HW229490   1.345   5.372   3.916
 9531SOL     OW29491   3.645   5.096   2.489
 9531SOL    HW129492   3.612   5.120   2.581
 9531SOL    HW229493   3.618   5.002   2.468
 9532SOL     OW29494   6.540   5.261   3.167
 9532SOL    HW129495   6.467   5.207   3.210
 9532SOL    HW229496   6.562   5.339   3.225
 9533SOL     OW29497   1.872   4.022   3.216
 9533SOL    HW129498   1.826   3.970   3.144
 9533SOL    HW229499   1.849   4.119   3.207
 9534SOL     OW29500   5.532   4.793   4.668
 9534SOL    HW129501   5.437   4.816   4.690
 9534SOL    HW229502   5.540   4.773   4.570
 9535SOL     OW29503   0.839   1.153   5.507
 9535SOL    HW129504   0.833   1.190   5.414
 9535SOL    HW229505   0.779   1.205   5.568
 9536SOL     OW29506   3.609   4.168   5.070
 9536SOL    HW129507   3.702   4.139   5.046
 9536SOL    HW229508   3.550   4.088   5.075
 9537SOL     OW29509   0.787   1.394   3.296
 9537SOL    HW129510   0.844   1.441   3.229
 9537SOL    HW229511   0.825   1.304   3.316
 9538SOL     OW29512   4.377   0.986   5.761
 9538SOL    HW129513   4.284   1.022   5.767
 9538SOL    HW229514   4.411   0.995   5.668
 9539SOL     OW29515   3.512   3.449   2.401
 9539SOL    HW129516   3.416   3.468   2.420
 9539SOL    HW229517   3.555   3.532   2.364
 9540SOL     OW29518   4.636   4.605   3.668
 9540SOL    HW129519   4.692   4.685   3.647
 9540SOL    HW229520   4.569   4.591   3.595
 9541SOL     OW29521   1.754   5.403   5.676
 9541SOL    HW129522   1.710   5.401   5.586
 9541SOL    HW229523   1.713   5.333   5.734
 9542SOL     OW29524   6.358   3.967   4.267
 9542SOL    HW129525   6.270   3.963   4.220
 9542SOL    HW229526   6.388   4.062   4.274
 9543SOL     OW29527   3.038   6.854   5.576
 9543SOL    HW129528   3.033   6.768   5.626
 9543SOL    HW229529   3.108   6.913   5.616
 9544SOL     OW29530   5.637   3.536   4.020
 9544SOL    HW129531   5.611   3.471   4.092
 9544SOL    HW229532   5.735   3.527   4.002
 9545SOL     OW29533   0.950   4.236   1.641
 9545SOL    HW129534   0.964   4.148   1.687
 9545SOL    HW229535   0.968   4.310   1.705
 9546SOL     OW29536   2.554   2.754   0.047
 9546SOL    HW129537   2.524   2.659   0.049
 9546SOL    HW229538   2.481   2.813   0.081
 9547SOL     OW29539   4.005   6.635   4.120
 9547SOL    HW129540   4.002   6.562   4.188
 9547SOL    HW229541   4.100   6.662   4.103
 9548SOL     OW29542   1.084   4.738   0.152
 9548SOL    HW129543   1.027   4.820   0.146
 9548SOL    HW229544   1.178   4.764   0.175
 9549SOL     OW29545   5.192   3.166   0.885
 9549SOL    HW129546   5.251   3.120   0.819
 9549SOL    HW229547   5.096   3.140   0.867
 9550SOL     OW29548   5.642   3.247   1.575
 9550SOL    HW129549   5.636   3.315   1.648
 9550SOL    HW229550   5.736   3.212   1.570
 9551SOL     OW29551   6.464   3.121   6.581
 9551SOL    HW129552   6.404   3.155   6.508
 9551SOL    HW229553   6.554   3.163   6.572
 9552SOL     OW29554   3.303   2.082   6.956
 9552SOL    HW129555   3.246   2.061   0.022
 9552SOL    HW229556   3.327   2.179   6.958
 9553SOL     OW29557   5.539   1.415   6.552
 9553SOL    HW129558   5.578   1.507   6.548
 9553SOL    HW229559   5.440   1.420   6.546
 9554SOL     OW29560   2.399   6.639   3.888
 9554SOL    HW129561   2.360   6.730   3.874
 9554SOL    HW229562   2.435   6.605   3.801
 9555SOL     OW29563   6.558   0.682   3.733
 9555SOL    HW129564   6.610   0.761   3.701
 9555SOL    HW229565   6.581   0.603   3.678
 9556SOL     OW29566   1.751   4.416   0.106
 9556SOL    HW129567   1.844   4.388   0.080
 9556SOL    HW229568   1.685   4.381   0.040
 9557SOL     OW29569   4.885   0.797   1.522
 9557SOL    HW129570   4.863   0.850   1.604
 9557SOL    HW229571   4.871   0.699   1.542
 9558SOL     OW29572   4.765   6.372   6.462
 9558SOL    HW129573   4.864   6.382   6.474
 9558SOL    HW229574   4.743   6.275   6.448
 9559SOL     OW29575   1.407   4.142   0.388
 9559SOL    HW129576   1.387   4.105   0.298
 9559SOL    HW229577   1.395   4.241   0.387
 9560SOL     OW29578   3.626   6.909   2.026
 9560SOL    HW129579   3.644   6.990   1.971
 9560SOL    HW229580   3.652   6.926   2.121
 9561SOL     OW29581   0.787   0.640   0.575
 9561SOL    HW129582   0.822   0.725   0.612
 9561SOL    HW229583   0.700   0.617   0.618
 9562SOL     OW29584   3.077   5.885   3.386
 9562SOL    HW129585   3.141   5.810   3.402
 9562SOL    HW229586   3.060   5.893   3.288
 9563SOL     OW29587   0.521   6.286   1.238
 9563SOL    HW129588   0.572   6.269   1.322
 9563SOL    HW229589   0.576   6.256   1.159
 9564SOL     OW29590   0.958   0.622   0.086
 9564SOL    HW129591   0.983   0.526   0.077
 9564SOL    HW229592   1.038   0.679   0.068
 9565SOL     OW29593   3.035   1.472   3.581
 9565SOL    HW129594   3.027   1.529   3.663
 9565SOL    HW229595   3.110   1.407   3.593
 9566SOL     OW29596   2.828   0.858   0.028
 9566SOL    HW129597   2.782   0.770   0.036
 9566SOL    HW229598   2.804   0.900   6.953
 9567SOL     OW29599   6.546   4.023   1.083
 9567SOL    HW129600   6.543   4.107   1.029
 9567SOL    HW229601   6.524   3.945   1.024
 9568SOL     OW29602   4.892   1.401   6.790
 9568SOL    HW129603   4.922   1.470   6.855
 9568SOL    HW229604   4.831   1.336   6.836
 9569SOL     OW29605   5.515   0.905   2.165
 9569SOL    HW129606   5.599   0.919   2.113
 9569SOL    HW229607   5.508   0.974   2.236
 9570SOL     OW29608   0.454   3.161   1.225
 9570SOL    HW129609   0.356   3.173   1.207
 9570SOL    HW229610   0.469   3.160   1.324
 9571SOL     OW29611   2.645   1.871   6.773
 9571SOL    HW129612   2.646   1.875   6.873
 9571SOL    HW229613   2.726   1.917   6.737
 9572SOL     OW29614   2.303   4.162   3.864
 9572SOL    HW129615   2.218   4.119   3.895
 9572SOL    HW229616   2.347   4.208   3.941
 9573SOL     OW29617   6.302   0.795   4.618
 9573SOL    HW129618   6.226   0.737   4.587
 9573SOL    HW229619   6.290   0.888   4.584
 9574SOL     OW29620   3.108   3.430   1.296
 9574SOL    HW129621   3.183   3.390   1.350
 9574SOL    HW229622   3.088   3.370   1.219
 9575SOL     OW29623   6.336   6.651   1.558
 9575SOL    HW129624   6.300   6.578   1.500
 9575SOL    HW229625   6.317   6.739   1.516
 9576SOL     OW29626   0.718   6.643   0.074
 9576SOL    HW129627   0.782   6.673   0.003
 9576SOL    HW229628   0.677   6.556   0.048
 9577SOL     OW29629   6.286   5.213   2.088
 9577SOL    HW129630   6.253   5.307   2.093
 9577SOL    HW229631   6.337   5.190   2.171
 9578SOL     OW29632   1.860   2.659   3.149
 9578SOL    HW129633   1.863   2.715   3.232
 9578SOL    HW229634   1.905   2.708   3.075
 9579SOL     OW29635   5.767   6.180   2.171
 9579SOL    HW129636   5.757   6.222   2.261
 9579SOL    HW229637   5.833   6.105   2.176
 9580SOL     OW29638   5.265   4.710   2.792
 9580SOL    HW129639   5.176   4.678   2.759
 9580SOL    HW229640   5.322   4.736   2.714
 9581SOL     OW29641   6.465   1.474   0.035
 9581SOL    HW129642   6.519   1.391   0.041
 9581SOL    HW229643   6.525   1.554   0.044
 9582SOL     OW29644   4.932   6.034   4.284
 9582SOL    HW129645   4.857   5.999   4.228
 9582SOL    HW229646   4.904   6.121   4.326
 9583SOL     OW29647   3.649   4.341   1.744
 9583SOL    HW129648   3.631   4.438   1.761
 9583SOL    HW229649   3.614   4.287   1.820
 9584SOL     OW29650   2.140   5.436   4.930
 9584SOL    HW129651   2.118   5.339   4.931
 9584SOL    HW229652   2.058   5.489   4.950
 9585SOL     OW29653   4.469   5.676   1.467
 9585SOL    HW129654   4.562   5.664   1.433
 9585SOL    HW229655   4.462   5.763   1.516
 9586SOL     OW29656   4.650   5.081   2.058
 9586SOL    HW129657   4.555   5.069   2.030
 9586SOL    HW229658   4.665   5.033   2.145
 9587SOL     OW29659   2.603   5.929   1.691
 9587SOL    HW129660   2.649   5.927   1.603
 9587SOL    HW229661   2.671   5.927   1.765
 9588SOL     OW29662   6.527   5.438   0.342
 9588SOL    HW129663   6.606   5.392   0.300
 9588SOL    HW229664   6.558   5.521   0.388
 9589SOL     OW29665   1.922   3.617   6.104
 9589SOL    HW129666   1.969   3.658   6.026
 9589SOL    HW229667   1.849   3.677   6.135
 9590SOL     OW29668   5.627   1.669   2.067
 9590SOL    HW129669   5.596   1.738   2.133
 9590SOL    HW229670   5.650   1.585   2.116
 9591SOL     OW29671   3.585   0.645   6.513
 9591SOL    HW129672   3.652   0.571   6.522
 9591SOL    HW229673   3.524   0.624   6.436
 9592SOL     OW29674   2.436   5.420   5.906
 9592SOL    HW129675   2.337   5.432   5.905
 9592SOL    HW229676   2.458   5.334   5.951
 9593SOL     OW29677   1.749   1.676   4.567
 9593SOL    HW129678   1.844   1.707   4.564
 9593SOL    HW229679   1.709   1.679   4.475
 9594SOL     OW29680   0.356   6.173   3.962
 9594SOL    HW129681   0.416   6.099   3.934
 9594SOL    HW229682   0.403   6.231   4.028
 9595SOL     OW29683   6.950   3.340   3.741
 9595SOL    HW129684   6.985   3.260   3.790
 9595SOL    HW229685   6.859   3.364   3.775
 9596SOL     OW29686   0.324   6.739   0.856
 9596SOL    HW129687   0.332   6.827   0.809
 9596SOL    HW229688   0.258   6.682   0.808
 9597SOL     OW29689   0.660   3.998   2.642
 9597SOL    HW129690   0.672   3.919   2.581
 9597SOL    HW229691   0.599   3.973   2.717
 9598SOL     OW29692   1.064   3.974   3.313
 9598SOL    HW129693   0.979   3.940   3.353
 9598SOL    HW229694   1.056   3.973   3.213
 9599SOL     OW29695   3.641   0.138   4.163
 9599SOL    HW129696   3.694   0.194   4.099
 9599SOL    HW229697   3.594   0.066   4.112
 9600SOL     OW29698   3.074   0.801   1.131
 9600SOL    HW129699   3.130   0.881   1.107
 9600SOL    HW229700   3.120   0.749   1.202
 9601SOL     OW29701   6.915   4.317   1.607
 9601SOL    HW129702   7.012   4.317   1.630
 9601SOL    HW229703   6.861   4.330   1.690
 9602SOL     OW29704   4.754   4.291   5.817
 9602SOL    HW129705   4.835   4.289   5.877
 9602SOL    HW229706   4.676   4.325   5.868
 9603SOL     OW29707   5.733   6.177   5.385
 9603SOL    HW129708   5.825   6.177   5.425
 9603SOL    HW229709   5.666   6.157   5.456
 9604SOL     OW29710   5.219   6.713   0.451
 9604SOL    HW129711   5.219   6.799   0.399
 9604SOL    HW229712   5.179   6.640   0.395
 9605SOL     OW29713   6.417   6.309   3.527
 9605SOL    HW129714   6.510   6.339   3.549
 9605SOL    HW229715   6.373   6.377   3.468
 9606SOL     OW29716   1.603   1.725   6.717
 9606SOL    HW129717   1.668   1.774   6.775
 9606SOL    HW229718   1.515   1.720   6.763
 9607SOL     OW29719   3.194   2.855   6.203
 9607SOL    HW129720   3.183   2.954   6.192
 9607SOL    HW229721   3.254   2.820   6.132
 9608SOL     OW29722   6.648   3.783   3.505
 9608SOL    HW129723   6.556   3.745   3.518
 9608SOL    HW229724   6.710   3.710   3.477
 9609SOL     OW29725   3.935   2.536   5.801
 9609SOL    HW129726   3.868   2.478   5.847
 9609SOL    HW229727   4.018   2.541   5.857
 9610SOL     OW29728   1.309   4.179   2.510
 9610SOL    HW129729   1.336   4.233   2.431
 9610SOL    HW229730   1.389   4.136   2.551
 9611SOL     OW29731   1.249   0.551   0.457
 9611SOL    HW129732   1.244   0.510   0.366
 9611SOL    HW229733   1.174   0.516   0.513
 9612SOL     OW29734   0.496   2.999   2.914
 9612SOL    HW129735   0.424   2.932   2.895
 9612SOL    HW229736   0.566   2.957   2.971
 9613SOL     OW29737   5.783   5.482   3.283
 9613SOL    HW129738   5.842   5.425   3.341
 9613SOL    HW229739   5.735   5.424   3.218
 9614SOL     OW29740   5.290   2.092   2.960
 9614SOL    HW129741   5.246   2.021   3.015
 9614SOL    HW229742   5.302   2.175   3.015
 9615SOL     OW29743   2.450   3.009   1.388
 9615SOL    HW129744   2.540   3.014   1.431
 9615SOL    HW229745   2.400   3.095   1.406
 9616SOL     OW29746   3.503   2.612   6.768
 9616SOL    HW129747   3.535   2.694   6.720
 9616SOL    HW229748   3.422   2.634   6.823
 9617SOL     OW29749   2.583   2.474   3.964
 9617SOL    HW129750   2.550   2.403   4.027
 9617SOL    HW229751   2.573   2.443   3.870
 9618SOL     OW29752   3.126   0.994   0.661
 9618SOL    HW129753   3.118   1.040   0.750
 9618SOL    HW229754   3.034   0.980   0.623
 9619SOL     OW29755   2.637   0.844   4.637
 9619SOL    HW129756   2.678   0.797   4.716
 9619SOL    HW229757   2.684   0.931   4.622
 9620SOL     OW29758   5.628   0.093   5.446
 9620SOL    HW129759   5.615   0.191   5.453
 9620SOL    HW229760   5.565   0.055   5.378
 9621SOL     OW29761   1.659   2.749   2.911
 9621SOL    HW129762   1.672   2.659   2.951
 9621SOL    HW229763   1.744   2.802   2.921
 9622SOL     OW29764   5.630   0.471   1.515
 9622SOL    HW129765   5.690   0.544   1.548
 9622SOL    HW229766   5.665   0.382   1.546
 9623SOL     OW29767   3.330   3.592   6.527
 9623SOL    HW129768   3.360   3.567   6.435
 9623SOL    HW229769   3.401   3.568   6.593
 9624SOL     OW29770   6.011   3.100   2.963
 9624SOL    HW129771   5.925   3.149   2.975
 9624SOL    HW229772   5.995   3.018   2.908
 9625SOL     OW29773   6.001   6.116   0.137
 9625SOL    HW129774   6.027   6.033   0.186
 9625SOL    HW229775   6.078   6.148   0.082
 9626SOL     OW29776   3.574   6.617   6.716
 9626SOL    HW129777   3.579   6.564   6.631
 9626SOL    HW229778   3.627   6.572   6.787
 9627SOL     OW29779   1.171   6.583   6.716
 9627SOL    HW129780   1.084   6.597   6.668
 9627SOL    HW229781   1.241   6.643   6.677
 9628SOL     OW29782   4.288   5.868   1.632
 9628SOL    HW129783   4.317   5.964   1.632
 9628SOL    HW229784   4.253   5.844   1.541
 9629SOL     OW29785   2.647   6.350   1.331
 9629SOL    HW129786   2.693   6.433   1.298
 9629SOL    HW229787   2.567   6.376   1.384
 9630SOL     OW29788   6.176   1.044   5.776
 9630SOL    HW129789   6.219   1.061   5.687
 9630SOL    HW229790   6.206   0.955   5.811
 9631SOL     OW29791   6.064   5.980   6.799
 9631SOL    HW129792   5.970   5.991   6.830
 9631SOL    HW229793   6.075   5.889   6.759
 9632SOL     OW29794   1.761   6.176   1.756
 9632SOL    HW129795   1.678   6.193   1.702
 9632SOL    HW229796   1.740   6.112   1.829
 9633SOL     OW29797   6.904   5.474   6.533
 9633SOL    HW129798   6.980   5.502   6.474
 9633SOL    HW229799   6.875   5.553   6.588
 9634SOL     OW29800   1.101   6.335   4.671
 9634SOL    HW129801   1.160   6.272   4.621
 9634SOL    HW229802   1.126   6.429   4.650
 9635SOL     OW29803   1.963   5.388   5.383
 9635SOL    HW129804   1.984   5.391   5.481
 9635SOL    HW229805   2.046   5.365   5.332
 9636SOL     OW29806   4.016   1.369   5.954
 9636SOL    HW129807   3.933   1.324   5.922
 9636SOL    HW229808   4.086   1.301   5.971
 9637SOL     OW29809   1.956   1.522   6.535
 9637SOL    HW129810   1.959   1.423   6.545
 9637SOL    HW229811   1.928   1.564   6.621
 9638SOL     OW29812   6.524   1.962   5.308
 9638SOL    HW129813   6.437   1.916   5.323
 9638SOL    HW229814   6.542   1.970   5.210
 9639SOL     OW29815   4.452   1.278   2.668
 9639SOL    HW129816   4.365   1.302   2.625
 9639SOL    HW229817   4.521   1.346   2.645
 9640SOL     OW29818   2.016   1.943   2.357
 9640SOL    HW129819   1.928   1.990   2.372
 9640SOL    HW229820   2.089   2.011   2.354
 9641SOL     OW29821   6.311   5.917   0.062
 9641SOL    HW129822   6.306   6.008   0.020
 9641SOL    HW229823   6.405   5.900   0.092
 9642SOL     OW29824   3.223   0.451   4.304
 9642SOL    HW129825   3.316   0.462   4.338
 9642SOL    HW229826   3.223   0.456   4.204
 9643SOL     OW29827   4.620   4.283   3.789
 9643SOL    HW129828   4.609   4.185   3.770
 9643SOL    HW229829   4.539   4.332   3.757
 9644SOL     OW29830   2.195   2.156   5.869
 9644SOL    HW129831   2.183   2.063   5.834
 9644SOL    HW229832   2.292   2.175   5.883
 9645SOL     OW29833   3.065   5.375   5.197
 9645SOL    HW129834   3.119   5.294   5.176
 9645SOL    HW229835   3.126   5.453   5.212
 9646SOL     OW29836   4.322   4.610   2.861
 9646SOL    HW129837   4.306   4.639   2.766
 9646SOL    HW229838   4.234   4.586   2.904
 9647SOL     OW29839   6.615   2.951   0.376
 9647SOL    HW129840   6.518   2.973   0.369
 9647SOL    HW229841   6.644   2.958   0.471
 9648SOL     OW29842   4.448   2.867   1.122
 9648SOL    HW129843   4.533   2.913   1.149
 9648SOL    HW229844   4.433   2.878   1.024
 9649SOL     OW29845   2.195   6.110   0.698
 9649SOL    HW129846   2.213   6.104   0.600
 9649SOL    HW229847   2.122   6.177   0.714
 9650SOL     OW29848   6.813   6.464   1.863
 9650SOL    HW129849   6.857   6.407   1.794
 9650SOL    HW229850   6.883   6.509   1.919
 9651SOL     OW29851   0.110   1.614   5.748
 9651SOL    HW129852   0.124   1.597   5.846
 9651SOL    HW229853   0.077   1.708   5.735
 9652SOL     OW29854   0.645   5.807   2.983
 9652SOL    HW129855   0.702   5.848   3.054
 9652SOL    HW229856   0.681   5.717   2.959
 9653SOL     OW29857   5.969   5.274   4.551
 9653SOL    HW129858   5.924   5.197   4.506
 9653SOL    HW229859   5.919   5.358   4.530
 9654SOL     OW29860   2.331   2.762   2.171
 9654SOL    HW129861   2.369   2.691   2.230
 9654SOL    HW229862   2.356   2.744   2.076
 9655SOL     OW29863   6.448   2.913   6.778
 9655SOL    HW129864   6.473   2.994   6.723
 9655SOL    HW229865   6.354   2.888   6.758
 9656SOL     OW29866   3.795   0.994   2.748
 9656SOL    HW129867   3.759   1.082   2.716
 9656SOL    HW229868   3.719   0.930   2.759
 9657SOL     OW29869   0.025   0.046   4.765
 9657SOL    HW129870   0.100   7.002   4.797
 9657SOL    HW229871   0.014   0.124   4.827
 9658SOL     OW29872   6.746   2.381   2.652
 9658SOL    HW129873   6.719   2.304   2.594
 9658SOL    HW229874   6.670   2.444   2.662
 9659SOL     OW29875   0.411   4.805   6.925
 9659SOL    HW129876   0.361   4.747   6.990
 9659SOL    HW229877   0.383   4.783   6.832
 9660SOL     OW29878   0.789   5.456   0.034
 9660SOL    HW129879   0.699   5.414   0.021
 9660SOL    HW229880   0.780   5.555   0.039
 9661SOL     OW29881   4.294   6.526   1.428
 9661SOL    HW129882   4.365   6.489   1.368
 9661SOL    HW229883   4.248   6.602   1.383
 9662SOL     OW29884   5.680   0.805   4.555
 9662SOL    HW129885   5.717   0.803   4.648
 9662SOL    HW229886   5.605   0.871   4.550
 9663SOL     OW29887   2.468   5.429   2.219
 9663SOL    HW129888   2.411   5.423   2.137
 9663SOL    HW229889   2.480   5.338   2.258
 9664SOL     OW29890   2.815   6.384   1.600
 9664SOL    HW129891   2.759   6.412   1.677
 9664SOL    HW229892   2.886   6.321   1.631
 9665SOL     OW29893   5.266   3.964   4.394
 9665SOL    HW129894   5.207   3.910   4.334
 9665SOL    HW229895   5.271   3.921   4.484
 9666SOL     OW29896   5.762   4.786   4.361
 9666SOL    HW129897   5.720   4.695   4.358
 9666SOL    HW229898   5.805   4.800   4.450
 9667SOL     OW29899   4.106   3.473   3.730
 9667SOL    HW129900   4.161   3.477   3.646
 9667SOL    HW229901   4.115   3.559   3.780
 9668SOL     OW29902   0.595   0.970   5.236
 9668SOL    HW129903   0.583   0.883   5.187
 9668SOL    HW229904   0.566   0.959   5.331
 9669SOL     OW29905   1.887   5.782   0.696
 9669SOL    HW129906   1.904   5.813   0.789
 9669SOL    HW229907   1.811   5.717   0.696
 9670SOL     OW29908   5.627   5.231   0.119
 9670SOL    HW129909   5.557   5.190   0.177
 9670SOL    HW229910   5.715   5.231   0.168
 9671SOL     OW29911   6.745   6.802   6.131
 9671SOL    HW129912   6.777   6.752   6.051
 9671SOL    HW229913   6.797   6.774   6.212
 9672SOL     OW29914   0.713   6.753   5.027
 9672SOL    HW129915   0.798   6.729   4.980
 9672SOL    HW229916   0.708   6.702   5.113
 9673SOL     OW29917   2.721   3.313   6.383
 9673SOL    HW129918   2.748   3.268   6.299
 9673SOL    HW229919   2.796   3.309   6.449
 9674SOL     OW29920   3.050   6.626   2.248
 9674SOL    HW129921   2.995   6.709   2.257
 9674SOL    HW229922   3.044   6.591   2.154
 9675SOL     OW29923   6.922   2.408   2.098
 9675SOL    HW129924   6.897   2.334   2.161
 9675SOL    HW229925   6.867   2.401   2.015
 9676SOL     OW29926   0.492   3.468   4.249
 9676SOL    HW129927   0.413   3.468   4.309
 9676SOL    HW229928   0.574   3.494   4.301
 9677SOL     OW29929   2.076   3.639   5.087
 9677SOL    HW129930   2.050   3.562   5.030
 9677SOL    HW229931   2.155   3.613   5.144
 9678SOL     OW29932   2.930   3.418   3.160
 9678SOL    HW129933   3.022   3.455   3.152
 9678SOL    HW229934   2.920   3.340   3.098
 9679SOL     OW29935   0.952   3.378   1.864
 9679SOL    HW129936   1.046   3.343   1.855
 9679SOL    HW229937   0.945   3.464   1.813
 9680SOL     OW29938   5.921   5.285   3.430
 9680SOL    HW129939   5.905   5.325   3.520
 9680SOL    HW229940   6.018   5.267   3.418
 9681SOL     OW29941   1.602   1.097   2.803
 9681SOL    HW129942   1.509   1.088   2.839
 9681SOL    HW229943   1.667   1.052   2.865
 9682SOL     OW29944   5.858   3.944   3.155
 9682SOL    HW129945   5.782   3.916   3.213
 9682SOL    HW229946   5.828   3.948   3.060
 9683SOL     OW29947   4.475   6.017   6.560
 9683SOL    HW129948   4.430   6.049   6.476
 9683SOL    HW229949   4.506   6.096   6.613
 9684SOL     OW29950   1.574   3.716   4.032
 9684SOL    HW129951   1.528   3.628   4.040
 9684SOL    HW229952   1.659   3.705   3.979
 9685SOL     OW29953   1.781   2.106   7.008
 9685SOL    HW129954   1.708   2.131   0.058
 9685SOL    HW229955   1.766   2.152   6.921
 9686SOL     OW29956   5.851   1.084   1.783
 9686SOL    HW129957   5.834   1.132   1.698
 9686SOL    HW229958   5.765   1.053   1.823
 9687SOL     OW29959   3.325   0.208   4.095
 9687SOL    HW129960   3.381   0.204   4.012
 9687SOL    HW229961   3.374   0.165   4.170
 9688SOL     OW29962   0.411   1.755   3.197
 9688SOL    HW129963   0.392   1.848   3.164
 9688SOL    HW229964   0.392   1.749   3.295
 9689SOL     OW29965   2.043   5.777   6.102
 9689SOL    HW129966   1.966   5.833   6.071
 9689SOL    HW229967   2.010   5.684   6.122
 9690SOL     OW29968   6.419   4.309   1.308
 9690SOL    HW129969   6.479   4.282   1.383
 9690SOL    HW229970   6.387   4.227   1.260
 9691SOL     OW29971   1.414   4.105   1.698
 9691SOL    HW129972   1.507   4.142   1.701
 9691SOL    HW229973   1.392   4.078   1.605
 9692SOL     OW29974   2.629   5.652   1.322
 9692SOL    HW129975   2.543   5.660   1.272
 9692SOL    HW229976   2.666   5.560   1.311
 9693SOL     OW29977   5.748   5.882   1.520
 9693SOL    HW129978   5.813   5.805   1.514
 9693SOL    HW229979   5.728   5.900   1.616
 9694SOL     OW29980   2.047   2.116   7.007
 9694SOL    HW129981   2.044   2.077   6.915
 9694SOL    HW229982   1.963   2.094   0.042
 9695SOL     OW29983   6.286   4.089   1.490
 9695SOL    HW129984   6.288   4.099   1.391
 9695SOL    HW229985   6.292   3.992   1.514
 9696SOL     OW29986   4.352   3.208   1.207
 9696SOL    HW129987   4.426   3.218   1.273
 9696SOL    HW229988   4.264   3.206   1.255
 9697SOL     OW29989   0.926   6.103   0.137
 9697SOL    HW129990   0.993   6.172   0.109
 9697SOL    HW229991   0.968   6.012   0.130
 9698SOL     OW29992   5.899   2.019   4.864
 9698SOL    HW129993   5.912   2.116   4.885
 9698SOL    HW229994   5.909   1.965   4.947
 9699SOL     OW29995   1.649   3.190   0.293
 9699SOL    HW129996   1.735   3.170   0.245
 9699SOL    HW229997   1.664   3.266   0.357
 9700SOL     OW29998   3.714   4.094   4.539
 9700SOL    HW129999   3.691   4.133   4.628
 9700SOL    HW230000   3.795   4.036   4.547
 9701SOL     OW30001   5.771   4.802   5.175
 9701SOL    HW130002   5.827   4.783   5.256
 9701SOL    HW230003   5.784   4.897   5.148
 9702SOL     OW30004   4.349   0.787   1.001
 9702SOL    HW130005   4.443   0.822   1.010
 9702SOL    HW230006   4.296   0.848   0.944
 9703SOL     OW30007   2.776   6.523   3.502
 9703SOL    HW130008   2.872   6.552   3.504
 9703SOL    HW230009   2.772   6.423   3.499
 9704SOL     OW30010   3.045   0.638   3.294
 9704SOL    HW130011   2.954   0.656   3.256
 9704SOL    HW230012   3.092   0.725   3.309
 9705SOL     OW30013   3.790   4.029   0.753
 9705SOL    HW130014   3.704   3.980   0.766
 9705SOL    HW230015   3.792   4.069   0.661
 9706SOL     OW30016   5.592   3.021   2.888
 9706SOL    HW130017   5.585   2.965   2.805
 9706SOL    HW230018   5.573   2.965   2.968
 9707SOL     OW30019   2.248   5.328   2.558
 9707SOL    HW130020   2.315   5.284   2.498
 9707SOL    HW230021   2.279   5.323   2.653
 9708SOL     OW30022   2.717   1.807   3.019
 9708SOL    HW130023   2.725   1.881   3.085
 9708SOL    HW230024   2.677   1.842   2.934
 9709SOL     OW30025   1.946   5.268   2.578
 9709SOL    HW130026   2.045   5.278   2.589
 9709SOL    HW230027   1.927   5.198   2.509
 9710SOL     OW30028   0.103   0.499   3.283
 9710SOL    HW130029   0.192   0.485   3.240
 9710SOL    HW230030   0.079   0.596   3.279
 9711SOL     OW30031   0.912   4.044   5.184
 9711SOL    HW130032   0.831   4.098   5.161
 9711SOL    HW230033   0.889   3.978   5.255
 9712SOL     OW30034   4.593   2.177   3.904
 9712SOL    HW130035   4.518   2.242   3.908
 9712SOL    HW230036   4.577   2.103   3.970
 9713SOL     OW30037   6.684   5.159   2.647
 9713SOL    HW130038   6.746   5.088   2.682
 9713SOL    HW230039   6.677   5.151   2.548
 9714SOL     OW30040   1.897   2.030   1.613
 9714SOL    HW130041   1.837   2.092   1.563
 9714SOL    HW230042   1.842   1.970   1.671
 9715SOL     OW30043   5.070   5.626   5.070
 9715SOL    HW130044   5.156   5.581   5.095
 9715SOL    HW230045   5.012   5.634   5.151
 9716SOL     OW30046   4.278   1.891   6.416
 9716SOL    HW130047   4.275   1.886   6.316
 9716SOL    HW230048   4.359   1.842   6.449
 9717SOL     OW30049   5.767   4.767   3.923
 9717SOL    HW130050   5.745   4.695   3.988
 9717SOL    HW230051   5.794   4.727   3.835
 9718SOL     OW30052   4.770   3.194   1.502
 9718SOL    HW130053   4.762   3.112   1.559
 9718SOL    HW230054   4.858   3.194   1.455
 9719SOL     OW30055   0.308   1.487   0.364
 9719SOL    HW130056   0.378   1.514   0.430
 9719SOL    HW230057   0.334   1.519   0.273
 9720SOL     OW30058   7.007   0.099   1.916
 9720SOL    HW130059   6.989   0.012   1.963
 9720SOL    HW230060   0.058   0.082   1.841
 9721SOL     OW30061   6.887   3.971   2.571
 9721SOL    HW130062   6.808   3.938   2.623
 9721SOL    HW230063   6.868   4.063   2.537
 9722SOL     OW30064   0.547   0.177   4.038
 9722SOL    HW130065   0.536   0.170   3.939
 9722SOL    HW230066   0.605   0.103   4.071
 9723SOL     OW30067   0.362   0.937   3.923
 9723SOL    HW130068   0.358   0.990   4.007
 9723SOL    HW230069   0.297   0.860   3.928
 9724SOL     OW30070   3.748   2.843   1.314
 9724SOL    HW130071   3.715   2.881   1.400
 9724SOL    HW230072   3.845   2.866   1.302
 9725SOL     OW30073   4.412   3.162   5.330
 9725SOL    HW130074   4.335   3.118   5.376
 9725SOL    HW230075   4.476   3.093   5.299
 9726SOL     OW30076   5.733   6.803   4.908
 9726SOL    HW130077   5.649   6.829   4.956
 9726SOL    HW230078   5.772   6.721   4.949
 9727SOL     OW30079   1.784   2.412   5.636
 9727SOL    HW130080   1.686   2.428   5.630
 9727SOL    HW230081   1.833   2.495   5.609
 9728SOL     OW30082   3.042   4.963   6.960
 9728SOL    HW130083   2.946   4.991   6.965
 9728SOL    HW230084   3.089   5.022   6.894
 9729SOL     OW30085   3.213   5.156   2.319
 9729SOL    HW130086   3.172   5.182   2.232
 9729SOL    HW230087   3.163   5.078   2.357
 9730SOL     OW30088   6.678   3.678   3.162
 9730SOL    HW130089   6.598   3.623   3.141
 9730SOL    HW230090   6.727   3.638   3.239
 9731SOL     OW30091   4.545   5.247   0.906
 9731SOL    HW130092   4.595   5.297   0.977
 9731SOL    HW230093   4.580   5.154   0.900
 9732SOL     OW30094   6.395   6.100   2.945
 9732SOL    HW130095   6.383   6.067   2.851
 9732SOL    HW230096   6.346   6.187   2.956
 9733SOL     OW30097   5.760   4.278   6.458
 9733SOL    HW130098   5.844   4.226   6.443
 9733SOL    HW230099   5.695   4.223   6.510
 9734SOL     OW30100   5.296   2.404   4.658
 9734SOL    HW130101   5.373   2.340   4.659
 9734SOL    HW230102   5.328   2.496   4.683
 9735SOL     OW30103   1.324   4.478   0.992
 9735SOL    HW130104   1.395   4.516   1.051
 9735SOL    HW230105   1.364   4.450   0.905
 9736SOL     OW30106   3.464   1.629   0.687
 9736SOL    HW130107   3.511   1.571   0.754
 9736SOL    HW230108   3.365   1.614   0.694
 9737SOL     OW30109   3.992   2.203   5.184
 9737SOL    HW130110   3.994   2.171   5.278
 9737SOL    HW230111   4.070   2.262   5.166
 9738SOL     OW30112   1.906   0.208   2.303
 9738SOL    HW130113   1.959   0.138   2.256
 9738SOL    HW230114   1.808   0.194   2.285
 9739SOL     OW30115   5.149   4.976   1.716
 9739SOL    HW130116   5.097   5.059   1.736
 9739SOL    HW230117   5.174   4.930   1.801
 9740SOL     OW30118   6.633   4.275   3.227
 9740SOL    HW130119   6.639   4.188   3.275
 9740SOL    HW230120   6.666   4.348   3.287
 9741SOL     OW30121   4.536   2.247   1.622
 9741SOL    HW130122   4.515   2.314   1.693
 9741SOL    HW230123   4.456   2.189   1.606
 9742SOL     OW30124   4.698   2.107   4.406
 9742SOL    HW130125   4.779   2.146   4.362
 9742SOL    HW230126   4.720   2.084   4.500
 9743SOL     OW30127   1.888   2.664   5.611
 9743SOL    HW130128   1.839   2.748   5.633
 9743SOL    HW230129   1.982   2.671   5.645
 9744SOL     OW30130   1.568   0.670   1.715
 9744SOL    HW130131   1.468   0.669   1.715
 9744SOL    HW230132   1.602   0.576   1.713
 9745SOL     OW30133   0.031   2.293   4.635
 9745SOL    HW130134   0.052   2.223   4.703
 9745SOL    HW230135   6.996   2.368   4.678
 9746SOL     OW30136   6.049   1.710   4.564
 9746SOL    HW130137   6.001   1.730   4.478
 9746SOL    HW230138   6.015   1.625   4.602
 9747SOL     OW30139   0.298   0.188   6.946
 9747SOL    HW130140   0.324   0.271   6.996
 9747SOL    HW230141   0.381   0.137   6.921
 9748SOL     OW30142   6.915   6.057   4.200
 9748SOL    HW130143   6.992   6.096   4.150
 9748SOL    HW230144   6.923   6.079   4.297
 9749SOL     OW30145   0.632   4.313   4.592
 9749SOL    HW130146   0.645   4.412   4.586
 9749SOL    HW230147   0.712   4.272   4.636
 9750SOL     OW30148   4.154   4.748   3.655
 9750SOL    HW130149   4.193   4.804   3.582
 9750SOL    HW230150   4.174   4.652   3.639
 9751SOL     OW30151   1.884   2.588   0.431
 9751SOL    HW130152   1.974   2.554   0.403
 9751SOL    HW230153   1.830   2.512   0.467
 9752SOL     OW30154   3.236   0.975   5.380
 9752SOL    HW130155   3.157   0.914   5.368
 9752SOL    HW230156   3.210   1.068   5.353
 9753SOL     OW30157   6.595   5.985   5.253
 9753SOL    HW130158   6.499   5.993   5.280
 9753SOL    HW230159   6.604   5.919   5.178
 9754SOL     OW30160   0.442   1.835   6.207
 9754SOL    HW130161   0.531   1.814   6.169
 9754SOL    HW230162   0.423   1.773   6.284
 9755SOL     OW30163   3.960   5.007   5.272
 9755SOL    HW130164   4.003   5.023   5.361
 9755SOL    HW230165   3.966   5.090   5.216
 9756SOL     OW30166   5.998   2.675   5.986
 9756SOL    HW130167   6.003   2.575   5.987
 9756SOL    HW230168   5.953   2.707   6.069
 9757SOL     OW30169   6.105   2.320   3.814
 9757SOL    HW130170   6.138   2.414   3.806
 9757SOL    HW230171   6.184   2.259   3.828
 9758SOL     OW30172   3.014   0.299   0.344
 9758SOL    HW130173   2.936   0.336   0.292
 9758SOL    HW230174   3.049   0.370   0.405
 9759SOL     OW30175   3.761   6.139   1.248
 9759SOL    HW130176   3.810   6.058   1.281
 9759SOL    HW230177   3.743   6.130   1.150
 9760SOL     OW30178   5.940   4.063   6.453
 9760SOL    HW130179   6.027   4.111   6.454
 9760SOL    HW230180   5.955   3.967   6.432
 9761SOL     OW30181   5.536   5.702   2.591
 9761SOL    HW130182   5.527   5.689   2.492
 9761SOL    HW230183   5.590   5.784   2.609
 9762SOL     OW30184   2.317   1.728   4.003
 9762SOL    HW130185   2.287   1.812   4.047
 9762SOL    HW230186   2.304   1.735   3.904
 9763SOL     OW30187   2.248   1.536   1.580
 9763SOL    HW130188   2.271   1.576   1.491
 9763SOL    HW230189   2.151   1.514   1.582
 9764SOL     OW30190   1.407   2.492   2.082
 9764SOL    HW130191   1.489   2.439   2.104
 9764SOL    HW230192   1.433   2.582   2.049
 9765SOL     OW30193   6.886   1.342   5.540
 9765SOL    HW130194   6.808   1.302   5.588
 9765SOL    HW230195   6.869   1.439   5.524
 9766SOL     OW30196   2.893   0.704   2.196
 9766SOL    HW130197   2.968   0.721   2.259
 9766SOL    HW230198   2.808   0.690   2.247
 9767SOL     OW30199   4.758   0.436   5.383
 9767SOL    HW130200   4.854   0.413   5.367
 9767SOL    HW230201   4.752   0.528   5.422
 9768SOL     OW30202   4.327   2.396   2.634
 9768SOL    HW130203   4.388   2.471   2.609
 9768SOL    HW230204   4.378   2.311   2.639
 9769SOL     OW30205   0.242   2.054   1.566
 9769SOL    HW130206   0.236   2.023   1.471
 9769SOL    HW230207   0.338   2.056   1.595
 9770SOL     OW30208   6.216   4.378   6.155
 9770SOL    HW130209   6.201   4.312   6.081
 9770SOL    HW230210   6.248   4.331   6.236
 9771SOL     OW30211   3.920   5.876   5.236
 9771SOL    HW130212   4.000   5.925   5.270
 9771SOL    HW230213   3.849   5.941   5.209
 9772SOL     OW30214   6.528   0.267   1.806
 9772SOL    HW130215   6.557   0.311   1.721
 9772SOL    HW230216   6.599   0.202   1.835
 9773SOL     OW30217   5.536   5.583   3.233
 9773SOL    HW130218   5.632   5.556   3.239
 9773SOL    HW230219   5.531   5.680   3.206
 9774SOL     OW30220   6.822   5.229   3.325
 9774SOL    HW130221   6.736   5.278   3.331
 9774SOL    HW230222   6.836   5.176   3.409
 9775SOL     OW30223   2.905   2.169   4.762
 9775SOL    HW130224   2.899   2.226   4.845
 9775SOL    HW230225   2.813   2.160   4.723
 9776SOL     OW30226   0.384   4.951   4.741
 9776SOL    HW130227   0.384   5.037   4.791
 9776SOL    HW230228   0.302   4.898   4.765
 9777SOL     OW30229   5.566   4.784   6.829
 9777SOL    HW130230   5.617   4.849   6.773
 9777SOL    HW230231   5.521   4.717   6.769
 9778SOL     OW30232   3.799   0.774   3.549
 9778SOL    HW130233   3.897   0.790   3.562
 9778SOL    HW230234   3.758   0.744   3.636
 9779SOL     OW30235   2.816   2.064   6.162
 9779SOL    HW130236   2.755   1.993   6.129
 9779SOL    HW230237   2.885   2.084   6.093
 9780SOL     OW30238   3.505   4.133   0.414
 9780SOL    HW130239   3.514   4.216   0.470
 9780SOL    HW230240   3.567   4.063   0.448
 9781SOL     OW30241   1.894   5.087   4.079
 9781SOL    HW130242   1.944   5.117   3.998
 9781SOL    HW230243   1.957   5.075   4.155
 9782SOL     OW30244   6.485   0.727   1.307
 9782SOL    HW130245   6.560   0.723   1.373
 9782SOL    HW230246   6.407   0.675   1.341
 9783SOL     OW30247   5.028   1.281   2.628
 9783SOL    HW130248   5.113   1.333   2.627
 9783SOL    HW230249   4.965   1.321   2.695
 9784SOL     OW30250   5.306   0.973   4.293
 9784SOL    HW130251   5.317   0.989   4.392
 9784SOL    HW230252   5.396   0.967   4.251
 9785SOL     OW30253   0.862   2.767   1.172
 9785SOL    HW130254   0.953   2.760   1.213
 9785SOL    HW230255   0.848   2.690   1.109
 9786SOL     OW30256   2.668   6.898   4.722
 9786SOL    HW130257   2.641   6.918   4.628
 9786SOL    HW230258   2.592   6.919   4.784
 9787SOL     OW30259   5.374   4.605   2.008
 9787SOL    HW130260   5.398   4.614   1.911
 9787SOL    HW230261   5.458   4.606   2.063
 9788SOL     OW30262   0.242   1.018   5.435
 9788SOL    HW130263   0.262   1.104   5.388
 9788SOL    HW230264   0.323   0.987   5.484
 9789SOL     OW30265   1.654   5.962   4.315
 9789SOL    HW130266   1.731   6.017   4.345
 9789SOL    HW230267   1.590   5.949   4.390
 9790SOL     OW30268   6.305   1.717   4.465
 9790SOL    HW130269   6.341   1.633   4.424
 9790SOL    HW230270   6.212   1.702   4.498
 9791SOL     OW30271   1.083   2.757   1.308
 9791SOL    HW130272   1.046   2.678   1.358
 9791SOL    HW230273   1.138   2.812   1.370
 9792SOL     OW30274   4.299   5.860   2.162
 9792SOL    HW130275   4.284   5.834   2.257
 9792SOL    HW230276   4.323   5.957   2.156
 9793SOL     OW30277   4.549   5.860   2.763
 9793SOL    HW130278   4.529   5.783   2.704
 9793SOL    HW230279   4.584   5.936   2.708
 9794SOL     OW30280   3.718   3.089   6.591
 9794SOL    HW130281   3.741   3.148   6.515
 9794SOL    HW230282   3.801   3.048   6.629
 9795SOL     OW30283   2.386   4.362   4.385
 9795SOL    HW130284   2.337   4.348   4.471
 9795SOL    HW230285   2.476   4.400   4.404
 9796SOL     OW30286   3.290   4.757   0.382
 9796SOL    HW130287   3.256   4.762   0.476
 9796SOL    HW230288   3.213   4.753   0.318
 9797SOL     OW30289   4.636   2.742   4.771
 9797SOL    HW130290   4.553   2.690   4.752
 9797SOL    HW230291   4.693   2.745   4.689
 9798SOL     OW30292   2.103   2.143   1.742
 9798SOL    HW130293   2.131   2.219   1.683
 9798SOL    HW230294   2.029   2.092   1.699
 9799SOL     OW30295   3.056   4.021   2.192
 9799SOL    HW130296   3.076   4.098   2.253
 9799SOL    HW230297   3.011   3.949   2.244
 9800SOL     OW30298   3.455   4.989   0.119
 9800SOL    HW130299   3.408   4.901   0.113
 9800SOL    HW230300   3.387   5.063   0.121
 9801SOL     OW30301   4.560   5.268   7.006
 9801SOL    HW130302   4.592   5.181   6.970
 9801SOL    HW230303   4.517   5.254   0.082
 9802SOL     OW30304   0.450   4.461   1.382
 9802SOL    HW130305   0.512   4.412   1.444
 9802SOL    HW230306   0.356   4.453   1.415
 9803SOL     OW30307   5.332   0.777   6.561
 9803SOL    HW130308   5.353   0.808   6.653
 9803SOL    HW230309   5.257   0.832   6.524
 9804SOL     OW30310   5.827   5.497   4.514
 9804SOL    HW130311   5.780   5.423   4.466
 9804SOL    HW230312   5.760   5.562   4.550
 9805SOL     OW30313   3.232   4.016   0.945
 9805SOL    HW130314   3.173   4.073   0.887
 9805SOL    HW230315   3.323   4.057   0.950
 9806SOL     OW30316   6.629   2.093   2.640
 9806SOL    HW130317   6.547   2.094   2.583
 9806SOL    HW230318   6.603   2.096   2.736
 9807SOL     OW30319   3.672   2.809   0.901
 9807SOL    HW130320   3.677   2.716   0.938
 9807SOL    HW230321   3.592   2.856   0.939
 9808SOL     OW30322   0.995   1.750   5.352
 9808SOL    HW130323   1.024   1.675   5.294
 9808SOL    HW230324   0.896   1.758   5.349
 9809SOL     OW30325   1.208   0.528   4.876
 9809SOL    HW130326   1.230   0.449   4.819
 9809SOL    HW230327   1.243   0.513   4.968
 9810SOL     OW30328   3.821   1.215   3.778
 9810SOL    HW130329   3.779   1.274   3.710
 9810SOL    HW230330   3.871   1.270   3.845
 9811SOL     OW30331   1.253   6.873   2.687
 9811SOL    HW130332   1.350   6.866   2.708
 9811SOL    HW230333   1.240   6.931   2.607
 9812SOL     OW30334   4.988   2.905   5.146
 9812SOL    HW130335   4.915   2.885   5.211
 9812SOL    HW230336   4.950   2.908   5.053
 9813SOL     OW30337   6.942   4.743   0.654
 9813SOL    HW130338   6.999   4.804   0.598
 9813SOL    HW230339   6.851   4.784   0.664
 9814SOL     OW30340   6.700   0.744   5.609
 9814SOL    HW130341   6.719   0.664   5.552
 9814SOL    HW230342   6.748   0.735   5.696
 9815SOL     OW30343   6.803   3.865   2.997
 9815SOL    HW130344   6.798   3.953   3.045
 9815SOL    HW230345   6.743   3.799   3.042
 9816SOL     OW30346   6.414   0.622   6.075
 9816SOL    HW130347   6.429   0.537   6.125
 9816SOL    HW230348   6.497   0.678   6.078
 9817SOL     OW30349   2.523   0.281   0.181
 9817SOL    HW130350   2.491   0.189   0.201
 9817SOL    HW230351   2.445   0.340   0.159
 9818SOL     OW30352   1.026   6.811   3.237
 9818SOL    HW130353   1.049   6.791   3.142
 9818SOL    HW230354   1.046   6.908   3.256
 9819SOL     OW30355   6.895   2.739   4.519
 9819SOL    HW130356   6.906   2.739   4.420
 9819SOL    HW230357   6.863   2.828   4.549
 9820SOL     OW30358   3.481   2.585   5.935
 9820SOL    HW130359   3.388   2.588   5.897
 9820SOL    HW230360   3.531   2.508   5.896
 9821SOL     OW30361   3.682   2.950   1.569
 9821SOL    HW130362   3.781   2.967   1.569
 9821SOL    HW230363   3.654   2.920   1.660
 9822SOL     OW30364   3.342   6.345   4.871
 9822SOL    HW130365   3.270   6.415   4.875
 9822SOL    HW230366   3.375   6.326   4.963
 9823SOL     OW30367   3.300   6.968   3.246
 9823SOL    HW130368   3.229   6.907   3.211
 9823SOL    HW230369   3.378   6.914   3.277
 9824SOL     OW30370   1.215   5.946   5.925
 9824SOL    HW130371   1.270   5.986   5.852
 9824SOL    HW230372   1.160   5.872   5.887
 9825SOL     OW30373   6.712   6.705   5.010
 9825SOL    HW130374   6.795   6.754   4.983
 9825SOL    HW230375   6.721   6.675   5.104
 9826SOL     OW30376   2.485   5.806   5.212
 9826SOL    HW130377   2.415   5.741   5.242
 9826SOL    HW230378   2.447   5.863   5.138
 9827SOL     OW30379   1.714   4.824   1.699
 9827SOL    HW130380   1.662   4.881   1.763
 9827SOL    HW230381   1.657   4.747   1.670
 9828SOL     OW30382   4.666   1.682   4.775
 9828SOL    HW130383   4.720   1.622   4.715
 9828SOL    HW230384   4.569   1.660   4.767
 9829SOL     OW30385   4.716   5.155   5.715
 9829SOL    HW130386   4.815   5.169   5.718
 9829SOL    HW230387   4.695   5.080   5.653
 9830SOL     OW30388   5.542   1.471   3.880
 9830SOL    HW130389   5.551   1.374   3.902
 9830SOL    HW230390   5.493   1.518   3.954
 9831SOL     OW30391   0.595   4.575   2.475
 9831SOL    HW130392   0.692   4.576   2.451
 9831SOL    HW230393   0.561   4.481   2.475
 9832SOL     OW30394   4.283   5.978   4.754
 9832SOL    HW130395   4.217   5.905   4.770
 9832SOL    HW230396   4.376   5.942   4.759
 9833SOL     OW30397   4.014   3.677   3.460
 9833SOL    HW130398   4.007   3.609   3.387
 9833SOL    HW230399   4.008   3.769   3.421
 9834SOL     OW30400   2.585   6.290   5.408
 9834SOL    HW130401   2.675   6.255   5.381
 9834SOL    HW230402   2.596   6.369   5.468
 9835SOL     OW30403   4.097   3.483   4.175
 9835SOL    HW130404   4.141   3.534   4.248
 9835SOL    HW230405   4.014   3.438   4.210
 9836SOL     OW30406   6.934   3.568   5.757
 9836SOL    HW130407   6.838   3.544   5.769
 9836SOL    HW230408   6.974   3.591   5.846
 9837SOL     OW30409   5.716   1.863   3.534
 9837SOL    HW130410   5.748   1.770   3.555
 9837SOL    HW230411   5.617   1.863   3.523
 9838SOL     OW30412   1.524   6.528   1.471
 9838SOL    HW130413   1.444   6.544   1.528
 9838SOL    HW230414   1.496   6.495   1.381
 9839SOL     OW30415   4.768   6.428   3.846
 9839SOL    HW130416   4.745   6.435   3.749
 9839SOL    HW230417   4.799   6.517   3.880
 9840SOL     OW30418   6.328   1.878   6.778
 9840SOL    HW130419   6.427   1.863   6.780
 9840SOL    HW230420   6.295   1.899   6.870
 9841SOL     OW30421   6.750   5.913   3.406
 9841SOL    HW130422   6.718   5.967   3.328
 9841SOL    HW230423   6.742   5.967   3.490
 9842SOL     OW30424   3.531   0.335   6.837
 9842SOL    HW130425   3.610   0.280   6.864
 9842SOL    HW230426   3.562   0.428   6.815
 9843SOL     OW30427   6.977   0.568   1.794
 9843SOL    HW130428   0.061   0.578   1.810
 9843SOL    HW230429   6.953   0.471   1.796
 9844SOL     OW30430   4.418   0.199   4.435
 9844SOL    HW130431   4.346   0.157   4.490
 9844SOL    HW230432   4.506   0.158   4.459
 9845SOL     OW30433   1.412   3.622   2.164
 9845SOL    HW130434   1.454   3.628   2.255
 9845SOL    HW230435   1.482   3.630   2.094
 9846SOL     OW30436   6.309   2.634   1.088
 9846SOL    HW130437   6.377   2.698   1.122
 9846SOL    HW230438   6.309   2.551   1.145
 9847SOL     OW30439   4.291   3.668   6.807
 9847SOL    HW130440   4.273   3.690   6.711
 9847SOL    HW230441   4.363   3.598   6.812
 9848SOL     OW30442   3.501   3.753   5.628
 9848SOL    HW130443   3.423   3.804   5.591
 9848SOL    HW230444   3.498   3.756   5.728
 9849SOL     OW30445   1.044   2.130   4.512
 9849SOL    HW130446   1.110   2.154   4.583
 9849SOL    HW230447   0.956   2.108   4.554
 9850SOL     OW30448   1.724   6.913   3.946
 9850SOL    HW130449   1.802   6.968   3.975
 9850SOL    HW230450   1.727   6.824   3.991
 9851SOL     OW30451   3.457   5.314   3.854
 9851SOL    HW130452   3.389   5.377   3.892
 9851SOL    HW230453   3.544   5.328   3.901
 9852SOL     OW30454   1.905   6.774   0.391
 9852SOL    HW130455   1.873   6.802   0.482
 9852SOL    HW230456   1.857   6.828   0.321
 9853SOL     OW30457   0.194   4.721   3.433
 9853SOL    HW130458   0.156   4.735   3.524
 9853SOL    HW230459   0.141   4.651   3.385
 9854SOL     OW30460   0.365   3.719   6.401
 9854SOL    HW130461   0.315   3.694   6.484
 9854SOL    HW230462   0.460   3.737   6.423
 9855SOL     OW30463   0.957   5.375   0.225
 9855SOL    HW130464   0.905   5.420   0.152
 9855SOL    HW230465   0.982   5.442   0.295
 9856SOL     OW30466   5.767   3.254   3.203
 9856SOL    HW130467   5.670   3.262   3.227
 9856SOL    HW230468   5.777   3.261   3.104
 9857SOL     OW30469   4.507   0.270   5.491
 9857SOL    HW130470   4.578   0.328   5.450
 9857SOL    HW230471   4.418   0.314   5.479
 9858SOL     OW30472   6.340   5.924   1.899
 9858SOL    HW130473   6.346   5.824   1.903
 9858SOL    HW230474   6.433   5.963   1.895
 9859SOL     OW30475   0.105   5.605   3.388
 9859SOL    HW130476   0.099   5.691   3.337
 9859SOL    HW230477   0.181   5.611   3.453
 9860SOL     OW30478   1.705   3.206   4.232
 9860SOL    HW130479   1.746   3.140   4.295
 9860SOL    HW230480   1.768   3.282   4.219
 9861SOL     OW30481   3.676   2.035   2.939
 9861SOL    HW130482   3.743   2.097   2.899
 9861SOL    HW230483   3.622   1.993   2.866
 9862SOL     OW30484   1.624   4.184   6.677
 9862SOL    HW130485   1.551   4.234   6.630
 9862SOL    HW230486   1.706   4.182   6.620
 9863SOL     OW30487   3.978   6.722   1.761
 9863SOL    HW130488   3.953   6.672   1.678
 9863SOL    HW230489   3.897   6.767   1.799
 9864SOL     OW30490   2.166   5.889   5.700
 9864SOL    HW130491   2.251   5.891   5.647
 9864SOL    HW230492   2.124   5.980   5.700
 9865SOL     OW30493   1.628   5.075   5.474
 9865SOL    HW130494   1.571   5.048   5.552
 9865SOL    HW230495   1.706   5.013   5.467
 9866SOL     OW30496   6.984   5.412   5.499
 9866SOL    HW130497   6.928   5.333   5.473
 9866SOL    HW230498   0.022   5.390   5.582
 9867SOL     OW30499   4.161   1.632   2.099
 9867SOL    HW130500   4.184   1.707   2.161
 9867SOL    HW230501   4.133   1.670   2.010
 9868SOL     OW30502   2.470   4.533   3.337
 9868SOL    HW130503   2.451   4.491   3.249
 9868SOL    HW230504   2.418   4.617   3.347
 9869SOL     OW30505   0.142   2.526   1.124
 9869SOL    HW130506   0.176   2.503   1.216
 9869SOL    HW230507   0.219   2.529   1.060
 9870SOL     OW30508   2.535   2.496   2.603
 9870SOL    HW130509   2.617   2.459   2.645
 9870SOL    HW230510   2.490   2.559   2.667
 9871SOL     OW30511   5.517   5.310   3.415
 9871SOL    HW130512   5.450   5.375   3.380
 9871SOL    HW230513   5.589   5.297   3.347
 9872SOL     OW30514   0.690   4.921   5.886
 9872SOL    HW130515   0.719   4.826   5.898
 9872SOL    HW230516   0.770   4.979   5.873
 9873SOL     OW30517   1.026   1.005   5.209
 9873SOL    HW130518   1.014   0.982   5.113
 9873SOL    HW230519   1.103   1.068   5.220
 9874SOL     OW30520   0.072   2.094   4.432
 9874SOL    HW130521   0.151   2.109   4.373
 9874SOL    HW230522   0.064   2.168   4.498
 9875SOL     OW30523   6.587   6.171   0.773
 9875SOL    HW130524   6.600   6.151   0.870
 9875SOL    HW230525   6.521   6.106   0.734
 9876SOL     OW30526   0.595   6.635   3.636
 9876SOL    HW130527   0.678   6.679   3.670
 9876SOL    HW230528   0.541   6.702   3.584
 9877SOL     OW30529   1.147   5.952   5.556
 9877SOL    HW130530   1.055   5.915   5.545
 9877SOL    HW230531   1.201   5.892   5.615
 9878SOL     OW30532   3.457   2.484   6.523
 9878SOL    HW130533   3.358   2.470   6.518
 9878SOL    HW230534   3.480   2.526   6.611
 9879SOL     OW30535   0.165   5.600   6.104
 9879SOL    HW130536   0.155   5.644   6.015
 9879SOL    HW230537   0.215   5.514   6.093
 9880SOL     OW30538   2.822   1.215   1.095
 9880SOL    HW130539   2.819   1.311   1.066
 9880SOL    HW230540   2.732   1.186   1.126
 9881SOL     OW30541   5.979   1.287   3.563
 9881SOL    HW130542   5.969   1.378   3.524
 9881SOL    HW230543   6.077   1.267   3.576
 9882SOL     OW30544   3.896   3.277   4.876
 9882SOL    HW130545   3.912   3.179   4.868
 9882SOL    HW230546   3.861   3.298   4.968
 9883SOL     OW30547   2.029   6.900   2.601
 9883SOL    HW130548   1.944   6.847   2.604
 9883SOL    HW230549   2.010   6.991   2.562
 9884SOL     OW30550   2.956   2.878   5.688
 9884SOL    HW130551   2.983   2.795   5.638
 9884SOL    HW230552   3.002   2.957   5.649
 9885SOL     OW30553   4.710   2.707   5.353
 9885SOL    HW130554   4.778   2.636   5.366
 9885SOL    HW230555   4.642   2.677   5.286
 9886SOL     OW30556   3.774   5.721   1.031
 9886SOL    HW130557   3.812   5.701   0.942
 9886SOL    HW230558   3.698   5.658   1.050
 9887SOL     OW30559   3.377   1.906   0.285
 9887SOL    HW130560   3.429   1.984   0.252
 9887SOL    HW230561   3.288   1.904   0.240
 9888SOL     OW30562   6.356   6.754   3.388
 9888SOL    HW130563   6.328   6.782   3.479
 9888SOL    HW230564   6.351   6.655   3.380
 9889SOL     OW30565   6.683   5.753   2.865
 9889SOL    HW130566   6.722   5.777   2.954
 9889SOL    HW230567   6.584   5.749   2.873
 9890SOL     OW30568   0.606   3.599   2.760
 9890SOL    HW130569   0.701   3.573   2.776
 9890SOL    HW230570   0.546   3.548   2.821
 9891SOL     OW30571   4.921   6.356   1.875
 9891SOL    HW130572   4.945   6.274   1.928
 9891SOL    HW230573   4.887   6.427   1.937
 9892SOL     OW30574   1.543   5.483   3.707
 9892SOL    HW130575   1.448   5.458   3.729
 9892SOL    HW230576   1.574   5.553   3.771
 9893SOL     OW30577   5.820   5.162   4.992
 9893SOL    HW130578   5.912   5.124   5.004
 9893SOL    HW230579   5.795   5.214   5.074
 9894SOL     OW30580   4.458   3.582   5.394
 9894SOL    HW130581   4.371   3.610   5.355
 9894SOL    HW230582   4.531   3.599   5.327
 9895SOL     OW30583   5.363   1.849   6.705
 9895SOL    HW130584   5.337   1.760   6.742
 9895SOL    HW230585   5.300   1.919   6.736
 9896SOL     OW30586   3.945   3.344   0.303
 9896SOL    HW130587   3.886   3.399   0.244
 9896SOL    HW230588   3.922   3.247   0.294
 9897SOL     OW30589   6.753   1.440   3.480
 9897SOL    HW130590   6.728   1.497   3.402
 9897SOL    HW230591   6.838   1.475   3.520
 9898SOL     OW30592   1.760   4.550   6.299
 9898SOL    HW130593   1.749   4.453   6.318
 9898SOL    HW230594   1.691   4.602   6.350
 9899SOL     OW30595   5.050   5.180   2.763
 9899SOL    HW130596   5.020   5.105   2.703
 9899SOL    HW230597   5.123   5.231   2.718
 9900SOL     OW30598   1.606   4.143   3.726
 9900SOL    HW130599   1.657   4.062   3.757
 9900SOL    HW230600   1.556   4.182   3.804
 9901SOL     OW30601   2.403   1.710   6.111
 9901SOL    HW130602   2.399   1.765   6.027
 9901SOL    HW230603   2.360   1.760   6.186
 9902SOL     OW30604   4.884   3.793   6.624
 9902SOL    HW130605   4.919   3.707   6.588
 9902SOL    HW230606   4.788   3.783   6.647
 9903SOL     OW30607   3.466   1.227   1.622
 9903SOL    HW130608   3.556   1.215   1.664
 9903SOL    HW230609   3.444   1.324   1.618
 9904SOL     OW30610   0.287   0.293   1.840
 9904SOL    HW130611   0.362   0.326   1.782
 9904SOL    HW230612   0.252   0.207   1.803
 9905SOL     OW30613   1.539   6.597   6.031
 9905SOL    HW130614   1.607   6.666   6.008
 9905SOL    HW230615   1.580   6.506   6.023
 9906SOL     OW30616   3.920   3.819   5.925
 9906SOL    HW130617   3.973   3.778   5.999
 9906SOL    HW230618   3.956   3.786   5.837
 9907SOL     OW30619   1.075   6.670   2.660
 9907SOL    HW130620   1.145   6.730   2.698
 9907SOL    HW230621   1.098   6.648   2.565
 9908SOL     OW30622   0.440   3.103   5.082
 9908SOL    HW130623   0.388   3.047   5.017
 9908SOL    HW230624   0.376   3.151   5.142
 9909SOL     OW30625   3.320   6.940   2.637
 9909SOL    HW130626   3.330   0.020   2.603
 9909SOL    HW230627   3.368   6.878   2.575
 9910SOL     OW30628   0.757   4.570   0.815
 9910SOL    HW130629   0.815   4.488   0.808
 9910SOL    HW230630   0.770   4.613   0.905
 9911SOL     OW30631   3.810   5.146   2.884
 9911SOL    HW130632   3.877   5.143   2.958
 9911SOL    HW230633   3.770   5.055   2.871
 9912SOL     OW30634   4.163   6.864   1.053
 9912SOL    HW130635   4.142   6.767   1.040
 9912SOL    HW230636   4.103   6.920   0.995
 9913SOL     OW30637   4.133   2.263   2.447
 9913SOL    HW130638   4.039   2.234   2.468
 9913SOL    HW230639   4.172   2.310   2.525
 9914SOL     OW30640   2.301   5.611   5.255
 9914SOL    HW130641   2.284   5.523   5.212
 9914SOL    HW230642   2.265   5.611   5.348
 9915SOL     OW30643   5.921   3.456   3.973
 9915SOL    HW130644   5.986   3.447   4.048
 9915SOL    HW230645   5.956   3.410   3.892
 9916SOL     OW30646   2.733   3.094   0.670
 9916SOL    HW130647   2.796   3.089   0.593
 9916SOL    HW230648   2.713   3.002   0.704
 9917SOL     OW30649   2.371   2.717   4.951
 9917SOL    HW130650   2.377   2.813   4.979
 9917SOL    HW230651   2.444   2.666   4.995
 9918SOL     OW30652   2.357   0.658   4.912
 9918SOL    HW130653   2.359   0.590   4.839
 9918SOL    HW230654   2.265   0.696   4.920
 9919SOL     OW30655   0.309   5.733   2.436
 9919SOL    HW130656   0.378   5.709   2.368
 9919SOL    HW230657   0.352   5.787   2.509
 9920SOL     OW30658   3.960   6.731   2.714
 9920SOL    HW130659   4.030   6.737   2.784
 9920SOL    HW230660   3.907   6.647   2.727
 9921SOL     OW30661   4.867   6.736   3.614
 9921SOL    HW130662   4.945   6.795   3.593
 9921SOL    HW230663   4.783   6.779   3.582
 9922SOL     OW30664   5.177   3.164   1.910
 9922SOL    HW130665   5.084   3.128   1.916
 9922SOL    HW230666   5.186   3.220   1.827
 9923SOL     OW30667   6.142   1.021   6.178
 9923SOL    HW130668   6.044   1.034   6.191
 9923SOL    HW230669   6.160   0.925   6.153
 9924SOL     OW30670   4.883   0.962   3.026
 9924SOL    HW130671   4.840   1.023   2.959
 9924SOL    HW230672   4.972   0.931   2.992
 9925SOL     OW30673   3.305   2.045   5.095
 9925SOL    HW130674   3.217   2.089   5.079
 9925SOL    HW230675   3.303   1.951   5.060
 9926SOL     OW30676   1.604   0.677   6.080
 9926SOL    HW130677   1.641   0.718   6.163
 9926SOL    HW230678   1.658   0.707   6.001
 9927SOL     OW30679   1.042   2.542   2.002
 9927SOL    HW130680   1.124   2.570   1.952
 9927SOL    HW230681   1.068   2.508   2.092
 9928SOL     OW30682   0.051   3.281   2.826
 9928SOL    HW130683   0.032   3.218   2.902
 9928SOL    HW230684   6.988   3.281   2.763
 9929SOL     OW30685   1.448   4.181   5.649
 9929SOL    HW130686   1.457   4.140   5.558
 9929SOL    HW230687   1.532   4.166   5.701
 9930SOL     OW30688   0.370   5.453   0.316
 9930SOL    HW130689   0.316   5.528   0.353
 9930SOL    HW230690   0.312   5.372   0.306
 9931SOL     OW30691   2.878   4.731   6.670
 9931SOL    HW130692   2.888   4.646   6.723
 9931SOL    HW230693   2.790   4.774   6.693
 9932SOL     OW30694   2.064   2.493   0.908
 9932SOL    HW130695   2.042   2.489   1.006
 9932SOL    HW230696   1.981   2.485   0.855
 9933SOL     OW30697   0.574   1.521   2.097
 9933SOL    HW130698   0.660   1.555   2.060
 9933SOL    HW230699   0.569   1.542   2.195
 9934SOL     OW30700   5.128   0.962   6.529
 9934SOL    HW130701   5.044   0.919   6.496
 9934SOL    HW230702   5.106   1.047   6.577
 9935SOL     OW30703   2.519   2.379   0.739
 9935SOL    HW130704   2.467   2.429   0.808
 9935SOL    HW230705   2.616   2.402   0.748
 9936SOL     OW30706   5.327   6.316   6.127
 9936SOL    HW130707   5.292   6.403   6.162
 9936SOL    HW230708   5.251   6.251   6.119
 9937SOL     OW30709   1.985   6.534   3.184
 9937SOL    HW130710   1.888   6.536   3.206
 9937SOL    HW230711   2.003   6.459   3.120
 9938SOL     OW30712   6.775   1.063   3.383
 9938SOL    HW130713   6.822   1.103   3.462
 9938SOL    HW230714   6.681   1.097   3.379
 9939SOL     OW30715   2.664   4.272   1.698
 9939SOL    HW130716   2.721   4.209   1.644
 9939SOL    HW230717   2.691   4.366   1.678
 9940SOL     OW30718   6.916   1.060   3.655
 9940SOL    HW130719   6.988   1.033   3.591
 9940SOL    HW230720   6.904   0.989   3.724
 9941SOL     OW30721   5.683   4.480   0.956
 9941SOL    HW130722   5.745   4.410   0.990
 9941SOL    HW230723   5.718   4.570   0.981
 9942SOL     OW30724   5.640   5.810   2.908
 9942SOL    HW130725   5.668   5.902   2.881
 9942SOL    HW230726   5.710   5.745   2.880
 9943SOL     OW30727   1.447   3.338   5.318
 9943SOL    HW130728   1.511   3.319   5.392
 9943SOL    HW230729   1.385   3.260   5.307
 9944SOL     OW30730   1.648   5.595   6.041
 9944SOL    HW130731   1.582   5.521   6.028
 9944SOL    HW230732   1.681   5.627   5.952
 9945SOL     OW30733   6.795   3.731   0.024
 9945SOL    HW130734   6.711   3.771   0.061
 9945SOL    HW230735   6.773   3.653   6.981
 9946SOL     OW30736   5.029   2.312   1.655
 9946SOL    HW130737   4.953   2.281   1.712
 9946SOL    HW230738   5.033   2.256   1.572
 9947SOL     OW30739   0.593   1.259   2.980
 9947SOL    HW130740   0.669   1.210   3.022
 9947SOL    HW230741   0.530   1.291   3.051
 9948SOL     OW30742   5.765   0.641   5.041
 9948SOL    HW130743   5.779   0.659   5.138
 9948SOL    HW230744   5.853   0.628   4.996
 9949SOL     OW30745   6.690   4.030   3.370
 9949SOL    HW130746   6.666   3.942   3.410
 9949SOL    HW230747   6.748   4.081   3.434
 9950SOL     OW30748   4.586   4.070   5.270
 9950SOL    HW130749   4.650   3.995   5.284
 9950SOL    HW230750   4.625   4.135   5.204
 9951SOL     OW30751   0.192   2.178   3.221
 9951SOL    HW130752   0.178   2.255   3.283
 9951SOL    HW230753   0.150   2.096   3.259
 9952SOL     OW30754   1.369   4.766   1.676
 9952SOL    HW130755   1.437   4.752   1.604
 9952SOL    HW230756   1.403   4.832   1.742
 9953SOL     OW30757   5.956   3.720   3.784
 9953SOL    HW130758   5.952   3.631   3.829
 9953SOL    HW230759   5.940   3.793   3.851
 9954SOL     OW30760   3.335   0.918   1.364
 9954SOL    HW130761   3.418   0.911   1.420
 9954SOL    HW230762   3.346   0.992   1.298
 9955SOL     OW30763   5.326   5.377   1.839
 9955SOL    HW130764   5.356   5.441   1.768
 9955SOL    HW230765   5.402   5.317   1.864
 9956SOL     OW30766   1.975   2.637   3.668
 9956SOL    HW130767   1.905   2.618   3.600
 9956SOL    HW230768   1.997   2.735   3.668
 9957SOL     OW30769   5.549   0.716   0.373
 9957SOL    HW130770   5.633   0.694   0.321
 9957SOL    HW230771   5.569   0.790   0.437
 9958SOL     OW30772   6.069   5.432   0.096
 9958SOL    HW130773   6.123   5.413   0.178
 9958SOL    HW230774   6.052   5.530   0.089
 9959SOL     OW30775   5.821   5.153   0.713
 9959SOL    HW130776   5.834   5.177   0.617
 9959SOL    HW230777   5.755   5.078   0.720
 9960SOL     OW30778   6.191   6.975   0.169
 9960SOL    HW130779   6.274   6.928   0.198
 9960SOL    HW230780   6.195   6.995   0.072
 9961SOL     OW30781   3.519   5.629   0.670
 9961SOL    HW130782   3.441   5.676   0.630
 9961SOL    HW230783   3.603   5.677   0.645
 9962SOL     OW30784   3.209   0.278   1.568
 9962SOL    HW130785   3.268   0.291   1.487
 9962SOL    HW230786   3.151   0.198   1.554
 9963SOL     OW30787   0.995   0.404   5.801
 9963SOL    HW130788   1.082   0.417   5.753
 9963SOL    HW230789   0.985   0.307   5.825
 9964SOL     OW30790   4.545   4.417   5.953
 9964SOL    HW130791   4.567   4.364   6.035
 9964SOL    HW230792   4.451   4.448   5.958
 9965SOL     OW30793   3.008   5.189   3.990
 9965SOL    HW130794   2.994   5.206   3.892
 9965SOL    HW230795   3.016   5.091   4.006
 9966SOL     OW30796   3.633   5.167   3.196
 9966SOL    HW130797   3.721   5.214   3.192
 9966SOL    HW230798   3.561   5.231   3.221
 9967SOL     OW30799   0.150   0.554   2.898
 9967SOL    HW130800   0.204   0.556   2.814
 9967SOL    HW230801   0.150   0.645   2.940
 9968SOL     OW30802   4.393   6.783   0.546
 9968SOL    HW130803   4.477   6.748   0.505
 9968SOL    HW230804   4.369   6.870   0.503
 9969SOL     OW30805   0.123   5.985   3.782
 9969SOL    HW130806   0.101   5.926   3.860
 9969SOL    HW230807   0.210   6.031   3.799
 9970SOL     OW30808   6.911   3.314   2.428
 9970SOL    HW130809   6.976   3.378   2.388
 9970SOL    HW230810   6.934   3.221   2.399
 9971SOL     OW30811   6.941   5.341   4.489
 9971SOL    HW130812   6.992   5.303   4.565
 9971SOL    HW230813   6.949   5.282   4.409
 9972SOL     OW30814   3.424   4.237   5.995
 9972SOL    HW130815   3.345   4.289   6.027
 9972SOL    HW230816   3.398   4.182   5.916
 9973SOL     OW30817   2.464   1.870   3.493
 9973SOL    HW130818   2.411   1.839   3.414
 9973SOL    HW230819   2.560   1.880   3.466
 9974SOL     OW30820   1.497   2.595   3.314
 9974SOL    HW130821   1.557   2.602   3.394
 9974SOL    HW230822   1.507   2.504   3.273
 9975SOL     OW30823   2.476   4.656   6.737
 9975SOL    HW130824   2.535   4.737   6.737
 9975SOL    HW230825   2.526   4.578   6.774
 9976SOL     OW30826   4.142   5.492   5.945
 9976SOL    HW130827   4.176   5.420   5.884
 9976SOL    HW230828   4.055   5.463   5.986
 9977SOL     OW30829   4.276   6.932   5.460
 9977SOL    HW130830   4.221   7.010   5.490
 9977SOL    HW230831   4.373   6.953   5.477
 9978SOL     OW30832   0.963   2.896   0.065
 9978SOL    HW130833   0.886   2.839   0.038
 9978SOL    HW230834   0.936   2.992   0.063
 9979SOL     OW30835   3.485   3.919   5.021
 9979SOL    HW130836   3.388   3.941   5.011
 9979SOL    HW230837   3.509   3.845   4.958
 9980SOL     OW30838   1.426   1.489   1.422
 9980SOL    HW130839   1.433   1.477   1.323
 9980SOL    HW230840   1.514   1.522   1.457
 9981SOL     OW30841   5.824   1.325   0.399
 9981SOL    HW130842   5.906   1.270   0.384
 9981SOL    HW230843   5.760   1.312   0.323
 9982SOL     OW30844   1.885   2.306   4.689
 9982SOL    HW130845   1.916   2.230   4.747
 9982SOL    HW230846   1.942   2.310   4.607
 9983SOL     OW30847   0.996   3.482   2.306
 9983SOL    HW130848   1.001   3.518   2.399
 9983SOL    HW230849   0.975   3.385   2.309
 9984SOL     OW30850   0.406   5.250   0.744
 9984SOL    HW130851   0.351   5.171   0.720
 9984SOL    HW230852   0.422   5.306   0.663
 9985SOL     OW30853   5.090   4.414   6.956
 9985SOL    HW130854   5.104   4.489   0.006
 9985SOL    HW230855   5.008   4.432   6.901
 9986SOL     OW30856   5.844   5.682   0.125
 9986SOL    HW130857   5.799   5.601   0.087
 9986SOL    HW230858   5.775   5.747   0.156
 9987SOL     OW30859   5.751   2.629   1.348
 9987SOL    HW130860   5.827   2.666   1.295
 9987SOL    HW230861   5.674   2.609   1.288
 9988SOL     OW30862   5.806   0.068   3.443
 9988SOL    HW130863   5.836   0.157   3.411
 9988SOL    HW230864   5.783   0.074   3.540
 9989SOL     OW30865   6.800   6.014   2.766
 9989SOL    HW130866   6.728   5.988   2.701
 9989SOL    HW230867   6.863   5.938   2.779
 9990SOL     OW30868   0.011   0.007   3.254
 9990SOL    HW130869   0.042   0.096   3.222
 9990SOL    HW230870   6.994   6.966   3.176
 9991SOL     OW30871   1.586   4.102   2.605
 9991SOL    HW130872   1.656   4.076   2.539
 9991SOL    HW230873   1.593   4.199   2.626
 9992SOL     OW30874   2.287   5.000   0.422
 9992SOL    HW130875   2.277   5.081   0.480
 9992SOL    HW230876   2.245   4.921   0.467
 9993SOL     OW30877   3.985   0.348   4.952
 9993SOL    HW130878   3.906   0.325   4.895
 9993SOL    HW230879   4.069   0.316   4.907
 9994SOL     OW30880   5.861   5.555   4.961
 9994SOL    HW130881   5.925   5.482   4.982
 9994SOL    HW230882   5.890   5.639   5.007
 9995SOL     OW30883   3.557   1.661   6.411
 9995SOL    HW130884   3.514   1.673   6.321
 9995SOL    HW230885   3.594   1.568   6.417
 9996SOL     OW30886   2.906   3.964   0.624
 9996SOL    HW130887   2.957   3.888   0.583
 9996SOL    HW230888   2.814   3.934   0.646
 9997SOL     OW30889   6.580   1.838   3.850
 9997SOL    HW130890   6.603   1.931   3.822
 9997SOL    HW230891   6.487   1.816   3.820
 9998SOL     OW30892   4.856   4.005   2.233
 9998SOL    HW130893   4.923   4.078   2.251
 9998SOL    HW230894   4.900   3.933   2.179
 9999SOL     OW30895   0.607   6.526   3.972
 9999SOL    HW130896   0.538   6.480   4.028
 9999SOL    HW230897   0.697   6.486   3.991
10000SOL     OW30898   4.198   2.346   1.093
10000SOL    HW130899   4.185   2.247   1.086
10000SOL    HW230900   4.143   2.381   1.170
10001SOL     OW30901   3.764   6.388   1.365
10001SOL    HW130902   3.778   6.296   1.329
10001SOL    HW230903   3.746   6.450   1.289
10002SOL     OW30904   2.877   0.647   1.923
10002SOL    HW130905   2.965   0.663   1.879
10002SOL    HW230906   2.884   0.668   2.021
10003SOL     OW30907   1.343   1.020   2.922
10003SOL    HW130908   1.340   0.921   2.936
10003SOL    HW230909   1.256   1.051   2.883
10004SOL     OW30910   6.836   4.932   4.243
10004SOL    HW130911   6.753   4.918   4.188
10004SOL    HW230912   6.907   4.870   4.212
10005SOL     OW30913   2.935   5.151   3.348
10005SOL    HW130914   2.963   5.110   3.435
10005SOL    HW230915   2.982   5.239   3.337
10006SOL     OW30916   5.749   1.022   5.087
10006SOL    HW130917   5.743   1.120   5.106
10006SOL    HW230918   5.804   0.978   5.159
10007SOL     OW30919   1.257   5.031   4.251
10007SOL    HW130920   1.217   4.957   4.196
10007SOL    HW230921   1.356   5.020   4.255
10008SOL     OW30922   3.363   1.591   5.913
10008SOL    HW130923   3.439   1.566   5.853
10008SOL    HW230924   3.280   1.601   5.859
10009SOL     OW30925   0.823   3.760   2.101
10009SOL    HW130926   0.862   3.668   2.096
10009SOL    HW230927   0.887   3.821   2.149
10010SOL     OW30928   2.388   4.343   0.606
10010SOL    HW130929   2.330   4.272   0.646
10010SOL    HW230930   2.484   4.318   0.617
10011SOL     OW30931   2.089   3.021   6.994
10011SOL    HW130932   2.138   2.999   6.910
10011SOL    HW230933   2.077   2.938   0.034
10012SOL     OW30934   5.625   2.500   3.063
10012SOL    HW130935   5.653   2.595   3.072
10012SOL    HW230936   5.687   2.441   3.115
10013SOL     OW30937   0.408   6.298   4.754
10013SOL    HW130938   0.476   6.371   4.760
10013SOL    HW230939   0.397   6.256   4.844
10014SOL     OW30940   0.860   1.036   2.719
10014SOL    HW130941   0.767   1.019   2.752
10014SOL    HW230942   0.894   0.953   2.674
10015SOL     OW30943   4.014   6.112   6.218
10015SOL    HW130944   4.071   6.040   6.259
10015SOL    HW230945   4.067   6.197   6.213
10016SOL     OW30946   2.301   0.560   3.985
10016SOL    HW130947   2.386   0.555   4.036
10016SOL    HW230948   2.240   0.628   4.026
10017SOL     OW30949   2.749   2.372   2.718
10017SOL    HW130950   2.757   2.391   2.816
10017SOL    HW230951   2.804   2.292   2.694
10018SOL     OW30952   6.702   3.770   5.160
10018SOL    HW130953   6.682   3.707   5.234
10018SOL    HW230954   6.799   3.795   5.162
10019SOL     OW30955   0.347   2.559   1.752
10019SOL    HW130956   0.285   2.605   1.815
10019SOL    HW230957   0.324   2.462   1.747
10020SOL     OW30958   6.314   1.314   2.052
10020SOL    HW130959   6.285   1.273   1.965
10020SOL    HW230960   6.414   1.319   2.054
10021SOL     OW30961   0.877   3.172   2.355
10021SOL    HW130962   0.873   3.087   2.302
10021SOL    HW230963   0.800   3.231   2.328
10022SOL     OW30964   1.940   4.902   6.022
10022SOL    HW130965   1.928   4.973   6.093
10022SOL    HW230966   1.932   4.812   6.064
10023SOL     OW30967   1.022   1.106   6.106
10023SOL    HW130968   0.981   1.043   6.171
10023SOL    HW230969   1.061   1.055   6.029
10024SOL     OW30970   1.598   4.814   2.668
10024SOL    HW130971   1.688   4.785   2.700
10024SOL    HW230972   1.573   4.762   2.586
10025SOL     OW30973   1.170   3.825   0.621
10025SOL    HW130974   1.178   3.873   0.533
10025SOL    HW230975   1.245   3.854   0.681
10026SOL     OW30976   5.204   1.907   4.667
10026SOL    HW130977   5.108   1.917   4.693
10026SOL    HW230978   5.229   1.978   4.602
10027SOL     OW30979   2.948   1.930   5.217
10027SOL    HW130980   2.920   1.942   5.122
10027SOL    HW230981   2.965   1.833   5.234
10028SOL     OW30982   4.344   0.089   1.283
10028SOL    HW130983   4.352   0.188   1.298
10028SOL    HW230984   4.250   0.060   1.302
10029SOL     OW30985   0.170   4.495   4.433
10029SOL    HW130986   0.259   4.508   4.390
10029SOL    HW230987   0.108   4.447   4.371
10030SOL     OW30988   2.207   6.856   4.017
10030SOL    HW130989   2.209   6.947   4.058
10030SOL    HW230990   2.229   6.862   3.919
10031SOL     OW30991   2.741   5.399   2.868
10031SOL    HW130992   2.841   5.393   2.868
10031SOL    HW230993   2.705   5.365   2.781
10032SOL     OW30994   2.920   6.444   4.771
10032SOL    HW130995   2.930   6.352   4.733
10032SOL    HW230996   3.008   6.476   4.805
10033SOL     OW30997   3.172   0.968   4.333
10033SOL    HW130998   3.143   0.945   4.426
10033SOL    HW230999   3.230   0.894   4.298
10034SOL     OW31000   2.441   0.911   3.930
10034SOL    HW131001   2.447   0.914   3.830
10034SOL    HW231002   2.351   0.878   3.957
10035SOL     OW31003   6.543   2.553   2.550
10035SOL    HW131004   6.549   2.650   2.575
10035SOL    HW231005   6.469   2.510   2.601
10036SOL     OW31006   0.114   0.709   6.820
10036SOL    HW131007   0.054   0.644   6.771
10036SOL    HW231008   0.058   0.781   6.861
10037SOL     OW31009   6.050   6.675   6.893
10037SOL    HW131010   6.138   6.636   6.865
10037SOL    HW231011   5.977   6.609   6.876
10038SOL     OW31012   4.292   6.263   6.445
10038SOL    HW131013   4.216   6.325   6.425
10038SOL    HW231014   4.374   6.316   6.466
10039SOL     OW31015   6.975   5.619   2.464
10039SOL    HW131016   6.930   5.626   2.552
10039SOL    HW231017   0.052   5.578   2.476
10040SOL     OW31018   3.018   0.106   1.179
10040SOL    HW131019   3.070   0.024   1.156
10040SOL    HW231020   2.931   0.105   1.130
10041SOL     OW31021   6.723   5.307   5.251
10041SOL    HW131022   6.632   5.281   5.219
10041SOL    HW231023   6.762   5.375   5.189
10042SOL     OW31024   0.227   0.428   4.987
10042SOL    HW131025   0.237   0.515   4.939
10042SOL    HW231026   0.317   0.392   5.010
10043SOL     OW31027   0.476   0.660   3.927
10043SOL    HW131028   0.500   0.593   3.998
10043SOL    HW231029   0.377   0.663   3.915
10044SOL     OW31030   3.021   1.611   6.721
10044SOL    HW131031   2.967   1.532   6.751
10044SOL    HW231032   3.104   1.579   6.675
10045SOL     OW31033   3.942   6.405   5.152
10045SOL    HW131034   3.905   6.461   5.078
10045SOL    HW231035   3.884   6.413   5.232
10046SOL     OW31036   0.174   2.685   1.942
10046SOL    HW131037   0.100   2.733   1.894
10046SOL    HW231038   0.211   2.744   2.013
10047SOL     OW31039   0.430   1.722   3.460
10047SOL    HW131040   0.417   1.712   3.559
10047SOL    HW231041   0.522   1.692   3.436
10048SOL     OW31042   3.474   2.412   1.701
10048SOL    HW131043   3.508   2.503   1.680
10048SOL    HW231044   3.539   2.365   1.761
10049SOL     OW31045   1.645   6.487   4.756
10049SOL    HW131046   1.666   6.463   4.851
10049SOL    HW231047   1.546   6.498   4.745
10050SOL     OW31048   5.091   2.804   3.793
10050SOL    HW131049   5.047   2.879   3.842
10050SOL    HW231050   5.034   2.776   3.716
10051SOL     OW31051   6.075   2.750   5.740
10051SOL    HW131052   6.004   2.775   5.675
10051SOL    HW231053   6.032   2.728   5.828
10052SOL     OW31054   0.950   3.615   1.434
10052SOL    HW131055   0.974   3.582   1.343
10052SOL    HW231056   1.033   3.640   1.484
10053SOL     OW31057   3.019   6.131   3.490
10053SOL    HW131058   3.086   6.194   3.449
10053SOL    HW231059   3.041   6.038   3.462
10054SOL     OW31060   3.921   5.438   4.210
10054SOL    HW131061   3.863   5.456   4.130
10054SOL    HW231062   3.980   5.359   4.190
10055SOL     OW31063   6.646   3.192   6.142
10055SOL    HW131064   6.605   3.112   6.099
10055SOL    HW231065   6.735   3.211   6.101
10056SOL     OW31066   6.736   4.990   1.664
10056SOL    HW131067   6.810   5.013   1.600
10056SOL    HW231068   6.774   4.940   1.742
10057SOL     OW31069   2.855   2.249   3.841
10057SOL    HW131070   2.803   2.334   3.840
10057SOL    HW231071   2.897   2.236   3.931
10058SOL     OW31072   0.585   5.278   3.589
10058SOL    HW131073   0.626   5.285   3.498
10058SOL    HW231074   0.505   5.218   3.586
10059SOL     OW31075   5.499   0.072   0.903
10059SOL    HW131076   5.512   6.989   0.923
10059SOL    HW231077   5.586   0.121   0.913
10060SOL     OW31078   2.088   2.895   1.864
10060SOL    HW131079   2.146   2.955   1.809
10060SOL    HW231080   1.994   2.930   1.863
10061SOL     OW31081   6.081   2.081   4.627
10061SOL    HW131082   6.049   2.083   4.532
10061SOL    HW231083   6.003   2.076   4.689
10062SOL     OW31084   6.076   6.116   2.974
10062SOL    HW131085   6.142   6.162   2.915
10062SOL    HW231086   6.009   6.181   3.008
10063SOL     OW31087   0.962   3.009   2.839
10063SOL    HW131088   1.030   3.082   2.834
10063SOL    HW231089   1.008   2.920   2.831
10064SOL     OW31090   5.668   6.784   4.632
10064SOL    HW131091   5.731   6.857   4.655
10064SOL    HW231092   5.585   6.792   4.689
10065SOL     OW31093   1.004   6.296   3.247
10065SOL    HW131094   1.091   6.248   3.259
10065SOL    HW231095   0.990   6.318   3.151
10066SOL     OW31096   0.902   0.246   3.443
10066SOL    HW131097   0.840   0.308   3.394
10066SOL    HW231098   0.971   0.300   3.491
10067SOL     OW31099   3.914   5.275   3.497
10067SOL    HW131100   3.989   5.215   3.470
10067SOL    HW231101   3.865   5.236   3.574
10068SOL     OW31102   5.010   3.887   5.177
10068SOL    HW131103   5.084   3.886   5.244
10068SOL    HW231104   4.927   3.850   5.219
10069SOL     OW31105   3.590   0.990   3.498
10069SOL    HW131106   3.490   0.987   3.510
10069SOL    HW231107   3.627   0.897   3.505
10070SOL     OW31108   0.884   6.735   4.823
10070SOL    HW131109   0.950   6.808   4.841
10070SOL    HW231110   0.832   6.756   4.740
10071SOL     OW31111   5.118   5.883   5.000
10071SOL    HW131112   5.109   5.920   5.092
10071SOL    HW231113   5.120   5.783   5.004
10072SOL     OW31114   0.824   0.028   3.001
10072SOL    HW131115   0.841   0.111   3.055
10072SOL    HW231116   0.909   0.000   2.956
10073SOL     OW31117   0.353   4.670   6.256
10073SOL    HW131118   0.435   4.624   6.289
10073SOL    HW231119   0.364   4.769   6.266
10074SOL     OW31120   2.491   6.929   5.624
10074SOL    HW131121   2.517   0.009   5.647
10074SOL    HW231122   2.475   6.921   5.526
10075SOL     OW31123   1.031   2.767   4.172
10075SOL    HW131124   0.971   2.803   4.100
10075SOL    HW231125   1.126   2.789   4.150
10076SOL     OW31126   5.445   0.286   4.688
10076SOL    HW131127   5.388   0.363   4.657
10076SOL    HW231128   5.532   0.288   4.640
10077SOL     OW31129   3.659   1.405   6.429
10077SOL    HW131130   3.610   1.358   6.355
10077SOL    HW231131   3.740   1.352   6.454
10078SOL     OW31132   5.789   6.228   5.947
10078SOL    HW131133   5.848   6.292   5.898
10078SOL    HW231134   5.693   6.246   5.922
10079SOL     OW31135   0.194   4.345   0.158
10079SOL    HW131136   0.126   4.272   0.168
10079SOL    HW231137   0.241   4.359   0.245
10080SOL     OW31138   1.715   3.019   6.152
10080SOL    HW131139   1.691   3.087   6.084
10080SOL    HW231140   1.720   3.062   6.242
10081SOL     OW31141   6.896   0.743   6.297
10081SOL    HW131142   6.949   0.658   6.299
10081SOL    HW231143   6.830   0.740   6.222
10082SOL     OW31144   6.411   1.193   1.467
10082SOL    HW131145   6.426   1.103   1.427
10082SOL    HW231146   6.499   1.240   1.478
10083SOL     OW31147   4.919   0.683   4.243
10083SOL    HW131148   4.883   0.776   4.244
10083SOL    HW231149   5.016   0.684   4.263
10084SOL     OW31150   2.396   1.135   6.129
10084SOL    HW131151   2.434   1.045   6.107
10084SOL    HW231152   2.441   1.205   6.074
10085SOL     OW31153   0.460   5.383   2.878
10085SOL    HW131154   0.457   5.284   2.886
10085SOL    HW231155   0.470   5.409   2.782
10086SOL     OW31156   6.444   3.739   2.281
10086SOL    HW131157   6.512   3.778   2.343
10086SOL    HW231158   6.352   3.759   2.316
10087SOL     OW31159   1.342   0.022   4.114
10087SOL    HW131160   1.245   0.005   4.134
10087SOL    HW231161   1.398   6.969   4.163
10088SOL     OW31162   0.665   0.251   4.591
10088SOL    HW131163   0.631   0.343   4.609
10088SOL    HW231164   0.598   0.200   4.537
10089SOL     OW31165   1.401   3.316   2.047
10089SOL    HW131166   1.396   3.358   1.957
10089SOL    HW231167   1.361   3.378   2.115
10090SOL     OW31168   0.678   4.750   0.641
10090SOL    HW131169   0.582   4.766   0.617
10090SOL    HW231170   0.684   4.673   0.704
10091SOL     OW31171   0.934   2.562   4.569
10091SOL    HW131172   0.929   2.657   4.540
10091SOL    HW231173   0.859   2.541   4.631
10092SOL     OW31174   2.098   4.270   5.377
10092SOL    HW131175   2.174   4.297   5.318
10092SOL    HW231176   2.069   4.177   5.353
10093SOL     OW31177   6.534   4.427   6.348
10093SOL    HW131178   6.620   4.399   6.306
10093SOL    HW231179   6.499   4.507   6.300
10094SOL     OW31180   1.308   1.569   1.803
10094SOL    HW131181   1.272   1.520   1.724
10094SOL    HW231182   1.400   1.536   1.824
10095SOL     OW31183   6.779   1.141   5.965
10095SOL    HW131184   6.850   1.177   5.904
10095SOL    HW231185   6.689   1.155   5.923
10096SOL     OW31186   0.619   5.099   2.522
10096SOL    HW131187   0.556   5.119   2.597
10096SOL    HW231188   0.568   5.094   2.436
10097SOL     OW31189   1.154   1.160   6.826
10097SOL    HW131190   1.106   1.244   6.848
10097SOL    HW231191   1.134   1.134   6.732
10098SOL     OW31192   2.679   5.035   6.553
10098SOL    HW131193   2.758   5.061   6.497
10098SOL    HW231194   2.595   5.063   6.506
10099SOL     OW31195   6.861   4.603   4.499
10099SOL    HW131196   6.954   4.634   4.479
10099SOL    HW231197   6.833   4.639   4.588
10100SOL     OW31198   5.684   1.510   5.250
10100SOL    HW131199   5.611   1.451   5.284
10100SOL    HW231200   5.653   1.605   5.252
10101SOL     OW31201   0.249   4.709   2.330
10101SOL    HW131202   0.335   4.758   2.316
10101SOL    HW231203   0.177   4.752   2.277
10102SOL     OW31204   2.611   1.524   2.894
10102SOL    HW131205   2.618   1.425   2.900
10102SOL    HW231206   2.700   1.566   2.912
10103SOL     OW31207   3.030   2.247   0.040
10103SOL    HW131208   3.020   2.322   6.988
10103SOL    HW231209   2.988   2.164   0.003
10104SOL     OW31210   1.424   6.137   5.195
10104SOL    HW131211   1.339   6.151   5.144
10104SOL    HW231212   1.469   6.054   5.162
10105SOL     OW31213   2.459   0.506   6.662
10105SOL    HW131214   2.511   0.479   6.743
10105SOL    HW231215   2.366   0.470   6.668
10106SOL     OW31216   5.375   5.713   0.213
10106SOL    HW131217   5.355   5.708   0.115
10106SOL    HW231218   5.393   5.808   0.238
10107SOL     OW31219   5.525   1.540   5.667
10107SOL    HW131220   5.577   1.590   5.736
10107SOL    HW231221   5.536   1.442   5.682
10108SOL     OW31222   6.337   6.763   0.573
10108SOL    HW131223   6.243   6.751   0.542
10108SOL    HW231224   6.367   6.856   0.553
10109SOL     OW31225   4.819   4.980   3.154
10109SOL    HW131226   4.806   4.917   3.230
10109SOL    HW231227   4.809   5.074   3.187
10110SOL     OW31228   3.397   0.572   5.825
10110SOL    HW131229   3.493   0.600   5.820
10110SOL    HW231230   3.362   0.557   5.733
10111SOL     OW31231   0.552   2.129   2.899
10111SOL    HW131232   0.632   2.171   2.856
10111SOL    HW231233   0.505   2.072   2.831
10112SOL     OW31234   4.528   4.319   5.405
10112SOL    HW131235   4.505   4.383   5.332
10112SOL    HW231236   4.540   4.227   5.366
10113SOL     OW31237   3.724   6.417   6.849
10113SOL    HW131238   3.702   6.363   6.768
10113SOL    HW231239   3.654   6.404   6.918
10114SOL     OW31240   4.152   0.681   1.161
10114SOL    HW131241   4.221   0.717   1.099
10114SOL    HW231242   4.179   0.699   1.256
10115SOL     OW31243   1.985   1.985   3.776
10115SOL    HW131244   2.017   2.042   3.700
10115SOL    HW231245   2.020   2.021   3.862
10116SOL     OW31246   1.278   1.211   1.301
10116SOL    HW131247   1.182   1.237   1.297
10116SOL    HW231248   1.333   1.288   1.331
10117SOL     OW31249   4.931   0.861   5.649
10117SOL    HW131250   4.897   0.791   5.712
10117SOL    HW231251   4.933   0.949   5.695
10118SOL     OW31252   6.880   5.240   1.783
10118SOL    HW131253   6.812   5.193   1.725
10118SOL    HW231254   6.965   5.188   1.783
10119SOL     OW31255   2.633   0.746   5.882
10119SOL    HW131256   2.721   0.738   5.835
10119SOL    HW231257   2.602   0.655   5.910
10120SOL     OW31258   6.849   2.835   3.490
10120SOL    HW131259   6.937   2.802   3.526
10120SOL    HW231260   6.775   2.799   3.547
10121SOL     OW31261   6.604   4.694   5.128
10121SOL    HW131262   6.656   4.685   5.213
10121SOL    HW231263   6.575   4.604   5.097
10122SOL     OW31264   5.366   3.570   0.447
10122SOL    HW131265   5.396   3.658   0.411
10122SOL    HW231266   5.446   3.514   0.469
10123SOL     OW31267   7.000   6.420   0.195
10123SOL    HW131268   6.988   6.518   0.185
10123SOL    HW231269   6.920   6.380   0.240
10124SOL     OW31270   3.059   4.173   0.691
10124SOL    HW131271   3.045   4.230   0.610
10124SOL    HW231272   2.990   4.101   0.693
10125SOL     OW31273   1.443   0.246   1.625
10125SOL    HW131274   1.489   0.173   1.676
10125SOL    HW231275   1.412   0.317   1.689
10126SOL     OW31276   6.499   5.430   0.637
10126SOL    HW131277   6.453   5.343   0.656
10126SOL    HW231278   6.563   5.419   0.562
10127SOL     OW31279   3.737   5.208   5.385
10127SOL    HW131280   3.773   5.132   5.331
10127SOL    HW231281   3.807   5.279   5.395
10128SOL     OW31282   0.301   2.398   0.838
10128SOL    HW131283   0.367   2.391   0.913
10128SOL    HW231284   0.340   2.361   0.754
10129SOL     OW31285   5.790   2.273   3.119
10129SOL    HW131286   5.813   2.199   3.183
10129SOL    HW231287   5.844   2.354   3.142
10130SOL     OW31288   6.438   5.231   1.442
10130SOL    HW131289   6.453   5.320   1.399
10130SOL    HW231290   6.476   5.159   1.384
10131SOL     OW31291   0.239   1.275   1.022
10131SOL    HW131292   0.171   1.282   0.949
10131SOL    HW231293   0.192   1.257   1.109
10132SOL     OW31294   2.942   0.077   2.557
10132SOL    HW131295   2.904   0.114   2.472
10132SOL    HW231296   3.041   0.092   2.558
10133SOL     OW31297   5.146   5.442   3.523
10133SOL    HW131298   5.103   5.528   3.495
10133SOL    HW231299   5.079   5.369   3.521
10134SOL     OW31300   0.014   1.440   2.978
10134SOL    HW131301   0.047   1.348   2.956
10134SOL    HW231302   0.085   1.490   3.027
10135SOL     OW31303   4.418   4.900   3.190
10135SOL    HW131304   4.439   4.984   3.141
10135SOL    HW231305   4.457   4.822   3.141
10136SOL     OW31306   5.702   6.589   3.277
10136SOL    HW131307   5.639   6.667   3.275
10136SOL    HW231308   5.685   6.530   3.199
10137SOL     OW31309   6.196   4.859   4.104
10137SOL    HW131310   6.205   4.924   4.180
10137SOL    HW231311   6.217   4.767   4.136
10138SOL     OW31312   5.448   2.425   6.384
10138SOL    HW131313   5.489   2.515   6.371
10138SOL    HW231314   5.520   2.357   6.400
10139SOL     OW31315   3.825   3.063   3.008
10139SOL    HW131316   3.858   2.969   3.002
10139SOL    HW231317   3.768   3.083   2.928
10140SOL     OW31318   0.651   4.824   6.166
10140SOL    HW131319   0.740   4.800   6.128
10140SOL    HW231320   0.583   4.824   6.092
10141SOL     OW31321   1.619   0.894   3.842
10141SOL    HW131322   1.666   0.805   3.838
10141SOL    HW231323   1.545   0.889   3.910
10142SOL     OW31324   4.412   6.236   4.756
10142SOL    HW131325   4.510   6.221   4.742
10142SOL    HW231326   4.367   6.148   4.776
10143SOL     OW31327   4.803   0.077   1.183
10143SOL    HW131328   4.798   0.159   1.239
10143SOL    HW231329   4.711   0.041   1.168
10144SOL     OW31330   3.241   5.286   4.123
10144SOL    HW131331   3.158   5.232   4.108
10144SOL    HW231332   3.247   5.357   4.053
10145SOL     OW31333   2.501   6.326   5.874
10145SOL    HW131334   2.548   6.238   5.875
10145SOL    HW231335   2.562   6.396   5.912
10146SOL     OW31336   4.306   5.360   4.234
10146SOL    HW131337   4.350   5.284   4.187
10146SOL    HW231338   4.229   5.326   4.289
10147SOL     OW31339   4.580   4.855   5.031
10147SOL    HW131340   4.590   4.951   5.003
10147SOL    HW231341   4.650   4.800   4.984
10148SOL     OW31342   5.672   5.882   0.710
10148SOL    HW131343   5.665   5.796   0.658
10148SOL    HW231344   5.628   5.871   0.799
10149SOL     OW31345   4.221   2.576   0.967
10149SOL    HW131346   4.219   2.500   1.031
10149SOL    HW231347   4.132   2.586   0.922
10150SOL     OW31348   4.488   4.445   1.245
10150SOL    HW131349   4.569   4.501   1.264
10150SOL    HW231350   4.480   4.374   1.316
10151SOL     OW31351   2.234   0.034   5.724
10151SOL    HW131352   2.303   6.989   5.681
10151SOL    HW231353   2.233   0.017   5.823
10152SOL     OW31354   0.219   5.407   3.679
10152SOL    HW131355   0.126   5.442   3.690
10152SOL    HW231356   0.284   5.475   3.714
10153SOL     OW31357   5.411   6.389   4.604
10153SOL    HW131358   5.446   6.384   4.510
10153SOL    HW231359   5.361   6.305   4.625
10154SOL     OW31360   6.863   5.155   5.887
10154SOL    HW131361   6.833   5.158   5.982
10154SOL    HW231362   6.876   5.249   5.853
10155SOL     OW31363   3.859   0.884   5.867
10155SOL    HW131364   3.803   0.923   5.794
10155SOL    HW231365   3.884   0.956   5.932
10156SOL     OW31366   5.795   0.854   2.395
10156SOL    HW131367   5.810   0.944   2.354
10156SOL    HW231368   5.784   0.786   2.323
10157SOL     OW31369   5.714   1.187   6.179
10157SOL    HW131370   5.772   1.243   6.119
10157SOL    HW231371   5.672   1.114   6.125
10158SOL     OW31372   4.176   3.410   6.789
10158SOL    HW131373   4.116   3.488   6.808
10158SOL    HW231374   4.221   3.382   6.874
10159SOL     OW31375   1.382   1.675   6.305
10159SOL    HW131376   1.371   1.580   6.335
10159SOL    HW231377   1.442   1.679   6.225
10160SOL     OW31378   0.491   5.526   4.068
10160SOL    HW131379   0.559   5.469   4.022
10160SOL    HW231380   0.518   5.542   4.163
10161SOL     OW31381   3.091   5.525   6.092
10161SOL    HW131382   3.095   5.604   6.030
10161SOL    HW231383   3.103   5.441   6.040
10162SOL     OW31384   3.133   2.051   6.723
10162SOL    HW131385   3.045   2.055   6.770
10162SOL    HW231386   3.207   2.060   6.790
10163SOL     OW31387   5.913   3.590   5.518
10163SOL    HW131388   5.855   3.542   5.452
10163SOL    HW231389   6.004   3.604   5.478
10164SOL     OW31390   6.661   2.953   4.934
10164SOL    HW131391   6.650   3.031   4.996
10164SOL    HW231392   6.573   2.933   4.891
10165SOL     OW31393   0.398   1.948   4.335
10165SOL    HW131394   0.474   1.979   4.279
10165SOL    HW231395   0.361   2.026   4.387
10166SOL     OW31396   2.185   1.182   2.076
10166SOL    HW131397   2.248   1.127   2.021
10166SOL    HW231398   2.122   1.230   2.016
10167SOL     OW31399   4.919   0.309   0.168
10167SOL    HW131400   4.997   0.367   0.188
10167SOL    HW231401   4.945   0.242   0.098
10168SOL     OW31402   0.134   4.216   3.761
10168SOL    HW131403   0.110   4.119   3.765
10168SOL    HW231404   0.231   4.225   3.736
10169SOL     OW31405   6.441   4.101   3.933
10169SOL    HW131406   6.449   4.105   4.033
10169SOL    HW231407   6.345   4.091   3.907
10170SOL     OW31408   1.759   4.707   5.055
10170SOL    HW131409   1.724   4.727   4.963
10170SOL    HW231410   1.830   4.772   5.079
10171SOL     OW31411   6.663   4.033   6.249
10171SOL    HW131412   6.743   4.075   6.207
10171SOL    HW231413   6.580   4.059   6.198
10172SOL     OW31414   5.173   0.604   2.193
10172SOL    HW131415   5.185   0.508   2.217
10172SOL    HW231416   5.078   0.630   2.210
10173SOL     OW31417   1.985   1.626   2.296
10173SOL    HW131418   2.029   1.646   2.383
10173SOL    HW231419   2.031   1.550   2.251
10174SOL     OW31420   6.820   4.922   2.744
10174SOL    HW131421   6.890   4.875   2.690
10174SOL    HW231422   6.863   4.977   2.815
10175SOL     OW31423   6.432   2.363   5.459
10175SOL    HW131424   6.417   2.353   5.557
10175SOL    HW231425   6.525   2.336   5.436
10176SOL     OW31426   2.117   3.777   0.001
10176SOL    HW131427   2.082   3.764   0.094
10176SOL    HW231428   2.162   3.866   7.008
10177SOL     OW31429   2.880   6.439   0.051
10177SOL    HW131430   2.898   6.455   0.148
10177SOL    HW231431   2.919   6.513   7.010
10178SOL     OW31432   6.172   2.802   4.366
10178SOL    HW131433   6.222   2.876   4.412
10178SOL    HW231434   6.238   2.736   4.329
10179SOL     OW31435   1.334   2.712   6.128
10179SOL    HW131436   1.307   2.684   6.036
10179SOL    HW231437   1.278   2.664   6.196
10180SOL     OW31438   2.441   5.867   5.608
10180SOL    HW131439   2.467   5.773   5.629
10180SOL    HW231440   2.521   5.926   5.611
10181SOL     OW31441   5.765   3.636   1.309
10181SOL    HW131442   5.720   3.685   1.385
10181SOL    HW231443   5.809   3.554   1.344
10182SOL     OW31444   5.951   1.593   1.176
10182SOL    HW131445   6.010   1.664   1.214
10182SOL    HW231446   5.929   1.616   1.081
10183SOL     OW31447   1.699   1.582   6.254
10183SOL    HW131448   1.781   1.635   6.273
10183SOL    HW231449   1.657   1.552   6.340
10184SOL     OW31450   4.407   0.851   5.992
10184SOL    HW131451   4.400   0.888   5.900
10184SOL    HW231452   4.443   0.920   6.054
10185SOL     OW31453   4.813   6.804   1.034
10185SOL    HW131454   4.758   6.729   1.071
10185SOL    HW231455   4.784   6.890   1.074
10186SOL     OW31456   4.768   2.387   2.585
10186SOL    HW131457   4.692   2.424   2.532
10186SOL    HW231458   4.777   2.439   2.671
10187SOL     OW31459   0.690   2.435   1.687
10187SOL    HW131460   0.671   2.451   1.784
10187SOL    HW231461   0.604   2.411   1.641
10188SOL     OW31462   4.099   6.098   0.691
10188SOL    HW131463   4.076   6.084   0.594
10188SOL    HW231464   4.147   6.185   0.702
10189SOL     OW31465   1.818   6.598   5.322
10189SOL    HW131466   1.883   6.575   5.249
10189SOL    HW231467   1.796   6.516   5.374
10190SOL     OW31468   4.997   2.446   0.220
10190SOL    HW131469   4.914   2.459   0.165
10190SOL    HW231470   5.049   2.369   0.182
10191SOL     OW31471   6.062   4.723   0.353
10191SOL    HW131472   6.025   4.805   0.398
10191SOL    HW231473   6.162   4.724   0.359
10192SOL     OW31474   3.483   0.885   5.845
10192SOL    HW131475   3.386   0.906   5.845
10192SOL    HW231476   3.518   0.886   5.752
10193SOL     OW31477   4.943   3.820   0.526
10193SOL    HW131478   4.900   3.747   0.471
10193SOL    HW231479   5.040   3.826   0.502
10194SOL     OW31480   5.687   4.129   5.660
10194SOL    HW131481   5.655   4.052   5.714
10194SOL    HW231482   5.737   4.095   5.580
10195SOL     OW31483   6.779   4.573   1.657
10195SOL    HW131484   6.855   4.632   1.629
10195SOL    HW231485   6.816   4.492   1.703
10196SOL     OW31486   0.065   1.807   4.472
10196SOL    HW131487   0.076   1.893   4.422
10196SOL    HW231488   0.118   1.810   4.557
10197SOL     OW31489   5.842   0.620   5.852
10197SOL    HW131490   5.890   0.587   5.771
10197SOL    HW231491   5.771   0.555   5.878
10198SOL     OW31492   3.844   6.933   2.866
10198SOL    HW131493   3.882   6.905   2.955
10198SOL    HW231494   3.875   6.870   2.795
10199SOL     OW31495   1.233   2.934   5.640
10199SOL    HW131496   1.153   2.991   5.621
10199SOL    HW231497   1.303   2.951   5.570
10200SOL     OW31498   6.172   3.644   1.428
10200SOL    HW131499   6.097   3.580   1.444
10200SOL    HW231500   6.260   3.598   1.442
10201SOL     OW31501   1.135   3.240   0.860
10201SOL    HW131502   1.164   3.146   0.878
10201SOL    HW231503   1.214   3.301   0.861
10202SOL     OW31504   3.654   0.578   5.682
10202SOL    HW131505   3.749   0.603   5.700
10202SOL    HW231506   3.651   0.485   5.644
10203SOL     OW31507   6.381   2.771   4.669
10203SOL    HW131508   6.307   2.704   4.676
10203SOL    HW231509   6.469   2.726   4.678
10204SOL     OW31510   5.216   6.567   6.650
10204SOL    HW131511   5.197   6.551   6.747
10204SOL    HW231512   5.142   6.528   6.595
10205SOL     OW31513   1.216   0.716   6.144
10205SOL    HW131514   1.250   0.761   6.061
10205SOL    HW231515   1.117   0.729   6.151
10206SOL     OW31516   1.193   0.893   5.567
10206SOL    HW131517   1.261   0.820   5.572
10206SOL    HW231518   1.112   0.861   5.518
10207SOL     OW31519   1.247   1.526   5.451
10207SOL    HW131520   1.226   1.587   5.527
10207SOL    HW231521   1.175   1.532   5.382
10208SOL     OW31522   6.647   5.106   5.472
10208SOL    HW131523   6.634   5.084   5.569
10208SOL    HW231524   6.745   5.113   5.452
10209SOL     OW31525   6.632   6.803   6.424
10209SOL    HW131526   6.720   6.758   6.408
10209SOL    HW231527   6.562   6.760   6.367
10210SOL     OW31528   3.898   6.180   2.051
10210SOL    HW131529   3.841   6.154   2.130
10210SOL    HW231530   3.909   6.100   1.991
10211SOL     OW31531   4.371   5.762   5.362
10211SOL    HW131532   4.442   5.730   5.299
10211SOL    HW231533   4.412   5.789   5.449
10212SOL     OW31534   0.705   0.582   6.053
10212SOL    HW131535   0.670   0.609   6.142
10212SOL    HW231536   0.737   0.663   6.003
10213SOL     OW31537   5.408   1.521   1.106
10213SOL    HW131538   5.331   1.569   1.063
10213SOL    HW231539   5.425   1.435   1.057
10214SOL     OW31540   0.871   2.334   0.757
10214SOL    HW131541   0.970   2.342   0.772
10214SOL    HW231542   0.844   2.395   0.683
10215SOL     OW31543   3.053   3.475   2.095
10215SOL    HW131544   3.107   3.548   2.053
10215SOL    HW231545   2.957   3.483   2.068
10216SOL     OW31546   6.586   6.673   2.511
10216SOL    HW131547   6.655   6.670   2.584
10216SOL    HW231548   6.591   6.761   2.464
10217SOL     OW31549   3.418   0.798   3.708
10217SOL    HW131550   3.323   0.826   3.695
10217SOL    HW231551   3.460   0.853   3.780
10218SOL     OW31552   1.214   2.493   2.299
10218SOL    HW131553   1.184   2.583   2.331
10218SOL    HW231554   1.273   2.504   2.219
10219SOL     OW31555   0.158   0.233   2.478
10219SOL    HW131556   0.119   0.322   2.453
10219SOL    HW231557   0.114   0.200   2.561
10220SOL     OW31558   3.365   2.788   1.670
10220SOL    HW131559   3.401   2.826   1.755
10220SOL    HW231560   3.265   2.785   1.675
10221SOL     OW31561   0.756   6.091   3.546
10221SOL    HW131562   0.822   6.022   3.517
10221SOL    HW231563   0.804   6.168   3.589
10222SOL     OW31564   2.988   3.806   4.405
10222SOL    HW131565   2.901   3.855   4.404
10222SOL    HW231566   3.055   3.857   4.458
10223SOL     OW31567   0.656   5.495   1.623
10223SOL    HW131568   0.608   5.410   1.643
10223SOL    HW231569   0.601   5.572   1.657
10224SOL     OW31570   5.645   3.910   3.587
10224SOL    HW131571   5.641   3.811   3.594
10224SOL    HW231572   5.738   3.942   3.609
10225SOL     OW31573   2.447   3.837   6.106
10225SOL    HW131574   2.473   3.897   6.030
10225SOL    HW231575   2.498   3.863   6.188
10226SOL     OW31576   4.840   2.408   6.902
10226SOL    HW131577   4.807   2.429   6.994
10226SOL    HW231578   4.914   2.471   6.878
10227SOL     OW31579   5.440   3.850   1.180
10227SOL    HW131580   5.445   3.753   1.205
10227SOL    HW231581   5.379   3.898   1.243
10228SOL     OW31582   5.342   0.668   1.030
10228SOL    HW131583   5.311   0.648   1.123
10228SOL    HW231584   5.287   0.742   0.991
10229SOL     OW31585   6.761   3.571   4.208
10229SOL    HW131586   6.835   3.557   4.274
10229SOL    HW231587   6.710   3.653   4.233
10230SOL     OW31588   0.170   6.273   2.354
10230SOL    HW131589   0.181   6.322   2.440
10230SOL    HW231590   0.087   6.217   2.358
10231SOL     OW31591   1.361   5.302   2.808
10231SOL    HW131592   1.268   5.298   2.770
10231SOL    HW231593   1.363   5.366   2.884
10232SOL     OW31594   5.038   5.110   3.888
10232SOL    HW131595   5.056   5.030   3.944
10232SOL    HW231596   5.107   5.180   3.905
10233SOL     OW31597   3.699   4.167   5.920
10233SOL    HW131598   3.606   4.191   5.950
10233SOL    HW231599   3.694   4.104   5.843
10234SOL     OW31600   0.129   1.189   1.810
10234SOL    HW131601   0.228   1.201   1.819
10234SOL    HW231602   0.109   1.135   1.728
10235SOL     OW31603   1.600   1.081   2.497
10235SOL    HW131604   1.599   1.110   2.593
10235SOL    HW231605   1.644   1.151   2.442
10236SOL     OW31606   2.722   6.986   1.552
10236SOL    HW131607   2.752   6.995   1.457
10236SOL    HW231608   2.717   0.063   1.594
10237SOL     OW31609   0.420   3.200   6.009
10237SOL    HW131610   0.489   3.134   6.039
10237SOL    HW231611   0.349   3.208   6.079
10238SOL     OW31612   3.273   6.473   1.314
10238SOL    HW131613   3.189   6.494   1.365
10238SOL    HW231614   3.336   6.423   1.372
10239SOL     OW31615   1.267   2.764   4.708
10239SOL    HW131616   1.289   2.785   4.804
10239SOL    HW231617   1.236   2.669   4.701
10240SOL     OW31618   2.554   6.780   1.120
10240SOL    HW131619   2.469   6.755   1.165
10240SOL    HW231620   2.627   6.787   1.187
10241SOL     OW31621   3.849   2.635   1.539
10241SOL    HW131622   3.767   2.662   1.588
10241SOL    HW231623   3.881   2.546   1.573
10242SOL     OW31624   0.285   2.660   6.881
10242SOL    HW131625   0.259   2.708   6.797
10242SOL    HW231626   0.206   2.652   6.941
10243SOL     OW31627   2.697   5.143   1.106
10243SOL    HW131628   2.750   5.228   1.110
10243SOL    HW231629   2.711   5.099   1.018
10244SOL     OW31630   2.796   4.744   1.322
10244SOL    HW131631   2.788   4.679   1.246
10244SOL    HW231632   2.724   4.814   1.313
10245SOL     OW31633   4.534   3.921   0.721
10245SOL    HW131634   4.628   3.953   0.726
10245SOL    HW231635   4.478   3.971   0.788
10246SOL     OW31636   3.000   3.710   4.136
10246SOL    HW131637   3.016   3.797   4.089
10246SOL    HW231638   2.986   3.728   4.234
10247SOL     OW31639   0.751   2.496   4.742
10247SOL    HW131640   0.763   2.585   4.786
10247SOL    HW231641   0.686   2.441   4.794
10248SOL     OW31642   1.095   0.393   3.545
10248SOL    HW131643   1.175   0.343   3.511
10248SOL    HW231644   1.125   0.477   3.590
10249SOL     OW31645   2.617   5.480   6.599
10249SOL    HW131646   2.636   5.469   6.501
10249SOL    HW231647   2.650   5.568   6.630
10250SOL     OW31648   4.424   2.294   0.831
10250SOL    HW131649   4.374   2.376   0.858
10250SOL    HW231650   4.507   2.285   0.887
10251SOL     OW31651   1.901   0.357   4.279
10251SOL    HW131652   1.978   0.346   4.343
10251SOL    HW231653   1.846   0.273   4.280
10252SOL     OW31654   5.924   4.244   6.064
10252SOL    HW131655   5.995   4.174   6.058
10252SOL    HW231656   5.874   4.248   5.977
10253SOL     OW31657   3.646   6.251   6.187
10253SOL    HW131658   3.710   6.306   6.240
10253SOL    HW231659   3.565   6.306   6.165
10254SOL     OW31660   5.814   1.299   5.409
10254SOL    HW131661   5.891   1.321   5.348
10254SOL    HW231662   5.730   1.292   5.356
10255SOL     OW31663   4.026   4.919   2.023
10255SOL    HW131664   4.088   4.858   2.071
10255SOL    HW231665   4.025   5.008   2.068
10256SOL     OW31666   4.257   1.243   2.906
10256SOL    HW131667   4.245   1.155   2.952
10256SOL    HW231668   4.170   1.271   2.864
10257SOL     OW31669   3.453   5.168   2.660
10257SOL    HW131670   3.390   5.234   2.618
10257SOL    HW231671   3.493   5.208   2.743
10258SOL     OW31672   1.396   0.980   1.882
10258SOL    HW131673   1.489   1.014   1.899
10258SOL    HW231674   1.331   1.032   1.937
10259SOL     OW31675   1.812   3.990   3.481
10259SOL    HW131676   1.828   3.986   3.383
10259SOL    HW231677   1.808   4.085   3.511
10260SOL     OW31678   0.938   0.662   3.809
10260SOL    HW131679   0.869   0.590   3.815
10260SOL    HW231680   0.989   0.653   3.723
10261SOL     OW31681   6.677   3.654   0.946
10261SOL    HW131682   6.674   3.659   1.046
10261SOL    HW231683   6.736   3.726   0.911
10262SOL     OW31684   4.366   1.108   0.441
10262SOL    HW131685   4.309   1.166   0.382
10262SOL    HW231686   4.394   1.161   0.522
10263SOL     OW31687   6.090   0.942   1.804
10263SOL    HW131688   6.067   0.846   1.822
10263SOL    HW231689   6.006   0.994   1.788
10264SOL     OW31690   0.299   6.055   6.278
10264SOL    HW131691   0.384   6.107   6.282
10264SOL    HW231692   0.319   5.963   6.242
10265SOL     OW31693   2.119   1.857   0.585
10265SOL    HW131694   2.059   1.838   0.663
10265SOL    HW231695   2.071   1.918   0.521
10266SOL     OW31696   2.974   3.744   1.874
10266SOL    HW131697   3.065   3.725   1.839
10266SOL    HW231698   2.974   3.831   1.923
10267SOL     OW31699   5.757   0.976   1.371
10267SOL    HW131700   5.787   0.882   1.358
10267SOL    HW231701   5.664   0.987   1.337
10268SOL     OW31702   4.051   0.058   1.255
10268SOL    HW131703   4.059   0.157   1.252
10268SOL    HW231704   4.045   0.023   1.161
10269SOL     OW31705   2.717   2.710   0.394
10269SOL    HW131706   2.679   2.620   0.375
10269SOL    HW231707   2.817   2.705   0.394
10270SOL     OW31708   2.563   6.830   2.148
10270SOL    HW131709   2.516   6.782   2.073
10270SOL    HW231710   2.613   6.908   2.111
10271SOL     OW31711   1.360   1.824   6.864
10271SOL    HW131712   1.269   1.788   6.887
10271SOL    HW231713   1.354   1.922   6.848
10272SOL     OW31714   6.458   0.349   5.074
10272SOL    HW131715   6.390   0.302   5.019
10272SOL    HW231716   6.548   0.342   5.030
10273SOL     OW31717   2.451   5.145   3.191
10273SOL    HW131718   2.528   5.089   3.222
10273SOL    HW231719   2.484   5.215   3.128
10274SOL     OW31720   0.688   5.062   5.489
10274SOL    HW131721   0.733   5.101   5.569
10274SOL    HW231722   0.719   5.110   5.406
10275SOL     OW31723   6.789   0.339   2.226
10275SOL    HW131724   6.771   0.302   2.317
10275SOL    HW231725   6.886   0.361   2.216
10276SOL     OW31726   3.489   5.868   5.697
10276SOL    HW131727   3.563   5.871   5.630
10276SOL    HW231728   3.528   5.875   5.790
10277SOL     OW31729   0.447   6.373   4.139
10277SOL    HW131730   0.495   6.342   4.221
10277SOL    HW231731   0.354   6.402   4.163
10278SOL     OW31732   6.713   0.551   5.230
10278SOL    HW131733   6.654   0.630   5.246
10278SOL    HW231734   6.740   0.510   5.317
10279SOL     OW31735   2.130   5.785   4.100
10279SOL    HW131736   2.201   5.761   4.166
10279SOL    HW231737   2.150   5.873   4.058
10280SOL     OW31738   5.735   4.196   0.635
10280SOL    HW131739   5.714   4.212   0.731
10280SOL    HW231740   5.768   4.281   0.594
10281SOL     OW31741   0.158   1.662   3.819
10281SOL    HW131742   0.121   1.579   3.861
10281SOL    HW231743   0.108   1.741   3.853
10282SOL     OW31744   5.243   3.480   3.570
10282SOL    HW131745   5.178   3.443   3.636
10282SOL    HW231746   5.331   3.434   3.581
10283SOL     OW31747   0.648   3.236   1.021
10283SOL    HW131748   0.591   3.154   1.022
10283SOL    HW231749   0.722   3.224   0.954
10284SOL     OW31750   0.116   3.109   3.852
10284SOL    HW131751   0.092   3.015   3.873
10284SOL    HW231752   0.206   3.112   3.809
10285SOL     OW31753   5.408   6.016   4.882
10285SOL    HW131754   5.389   6.107   4.920
10285SOL    HW231755   5.367   6.008   4.792
10286SOL     OW31756   2.743   1.188   3.910
10286SOL    HW131757   2.652   1.178   3.952
10286SOL    HW231758   2.734   1.232   3.821
10287SOL     OW31759   2.723   5.542   2.560
10287SOL    HW131760   2.685   5.549   2.652
10287SOL    HW231761   2.651   5.558   2.493
10288SOL     OW31762   3.558   6.866   5.605
10288SOL    HW131763   3.498   6.840   5.529
10288SOL    HW231764   3.628   6.930   5.572
10289SOL     OW31765   2.965   5.686   6.566
10289SOL    HW131766   2.971   5.661   6.470
10289SOL    HW231767   3.055   5.717   6.598
10290SOL     OW31768   3.063   3.206   2.164
10290SOL    HW131769   3.038   3.294   2.124
10290SOL    HW231770   3.162   3.198   2.170
10291SOL     OW31771   2.046   1.847   2.663
10291SOL    HW131772   2.123   1.837   2.600
10291SOL    HW231773   2.045   1.769   2.727
10292SOL     OW31774   6.241   6.521   6.781
10292SOL    HW131775   6.300   6.586   6.733
10292SOL    HW231776   6.234   6.437   6.727
10293SOL     OW31777   1.304   3.717   4.126
10293SOL    HW131778   1.398   3.748   4.112
10293SOL    HW231779   1.263   3.691   4.039
10294SOL     OW31780   4.176   1.455   2.315
10294SOL    HW131781   4.096   1.405   2.282
10294SOL    HW231782   4.198   1.528   2.251
10295SOL     OW31783   0.989   1.887   6.904
10295SOL    HW131784   0.935   1.890   6.820
10295SOL    HW231785   1.014   1.793   6.925
10296SOL     OW31786   5.916   1.461   5.611
10296SOL    HW131787   5.886   1.392   5.545
10296SOL    HW231788   5.849   1.535   5.614
10297SOL     OW31789   3.213   1.413   6.899
10297SOL    HW131790   3.234   1.445   6.806
10297SOL    HW231791   3.257   1.474   6.966
10298SOL     OW31792   0.708   2.309   2.756
10298SOL    HW131793   0.686   2.316   2.659
10298SOL    HW231794   0.803   2.278   2.767
10299SOL     OW31795   4.177   6.326   3.091
10299SOL    HW131796   4.262   6.353   3.046
10299SOL    HW231797   4.177   6.359   3.186
10300SOL     OW31798   0.637   3.521   1.871
10300SOL    HW131799   0.711   3.525   1.804
10300SOL    HW231800   0.638   3.432   1.917
10301SOL     OW31801   4.239   0.461   6.258
10301SOL    HW131802   4.309   0.517   6.214
10301SOL    HW231803   4.278   0.415   6.338
10302SOL     OW31804   2.693   6.010   4.664
10302SOL    HW131805   2.660   5.920   4.693
10302SOL    HW231806   2.691   6.015   4.564
10303SOL     OW31807   0.875   6.101   4.908
10303SOL    HW131808   0.775   6.113   4.906
10303SOL    HW231809   0.907   6.075   4.818
10304SOL     OW31810   6.168   6.494   0.319
10304SOL    HW131811   6.263   6.476   0.344
10304SOL    HW231812   6.107   6.459   0.390
10305SOL     OW31813   2.198   4.516   5.848
10305SOL    HW131814   2.167   4.460   5.771
10305SOL    HW231815   2.275   4.573   5.819
10306SOL     OW31816   4.813   0.486   1.118
10306SOL    HW131817   4.732   0.507   1.063
10306SOL    HW231818   4.895   0.519   1.071
10307SOL     OW31819   2.420   6.979   4.597
10307SOL    HW131820   2.390   6.922   4.521
10307SOL    HW231821   2.408   0.062   4.574
10308SOL     OW31822   2.855   5.091   2.327
10308SOL    HW131823   2.871   5.179   2.372
10308SOL    HW231824   2.938   5.035   2.332
10309SOL     OW31825   6.526   1.398   4.704
10309SOL    HW131826   6.505   1.346   4.787
10309SOL    HW231827   6.489   1.490   4.713
10310SOL     OW31828   2.745   3.940   5.786
10310SOL    HW131829   2.692   4.025   5.781
10310SOL    HW231830   2.777   3.926   5.879
10311SOL     OW31831   5.255   5.755   0.595
10311SOL    HW131832   5.168   5.755   0.644
10311SOL    HW231833   5.269   5.667   0.551
10312SOL     OW31834   4.275   0.517   1.886
10312SOL    HW131835   4.206   0.478   1.947
10312SOL    HW231836   4.233   0.543   1.800
10313SOL     OW31837   4.778   6.291   3.199
10313SOL    HW131838   4.809   6.252   3.286
10313SOL    HW231839   4.814   6.384   3.190
10314SOL     OW31840   0.658   0.541   1.138
10314SOL    HW131841   0.663   0.546   1.237
10314SOL    HW231842   0.624   0.628   1.102
10315SOL     OW31843   5.685   5.880   3.699
10315SOL    HW131844   5.648   5.827   3.775
10315SOL    HW231845   5.724   5.965   3.733
10316SOL     OW31846   0.680   1.969   6.732
10316SOL    HW131847   0.699   1.935   6.824
10316SOL    HW231848   0.582   1.986   6.722
10317SOL     OW31849   3.903   5.607   6.218
10317SOL    HW131850   3.810   5.583   6.192
10317SOL    HW231851   3.949   5.526   6.255
10318SOL     OW31852   5.949   0.012   0.276
10318SOL    HW131853   6.041   0.005   0.237
10318SOL    HW231854   5.955   0.022   0.375
10319SOL     OW31855   0.367   4.717   4.504
10319SOL    HW131856   0.425   4.789   4.467
10319SOL    HW231857   0.413   4.629   4.495
10320SOL     OW31858   0.663   6.972   4.188
10320SOL    HW131859   0.660   6.885   4.139
10320SOL    HW231860   0.586   6.976   4.252
10321SOL     OW31861   5.499   2.348   1.964
10321SOL    HW131862   5.543   2.285   2.027
10321SOL    HW231863   5.423   2.302   1.919
10322SOL     OW31864   4.550   4.509   4.757
10322SOL    HW131865   4.494   4.524   4.839
10322SOL    HW231866   4.508   4.556   4.679
10323SOL     OW31867   0.616   4.362   5.175
10323SOL    HW131868   0.641   4.278   5.223
10323SOL    HW231869   0.608   4.344   5.077
10324SOL     OW31870   3.349   3.264   2.182
10324SOL    HW131871   3.345   3.325   2.260
10324SOL    HW231872   3.420   3.295   2.119
10325SOL     OW31873   0.011   5.869   3.312
10325SOL    HW131874   6.935   5.838   3.343
10325SOL    HW231875   0.036   5.954   3.360
10326SOL     OW31876   5.764   3.246   6.773
10326SOL    HW131877   5.811   3.299   6.843
10326SOL    HW231878   5.732   3.307   6.701
10327SOL     OW31879   2.366   4.099   0.998
10327SOL    HW131880   2.459   4.080   0.968
10327SOL    HW231881   2.311   4.016   0.992
10328SOL     OW31882   6.385   2.665   1.907
10328SOL    HW131883   6.412   2.569   1.918
10328SOL    HW231884   6.328   2.693   1.984
10329SOL     OW31885   4.045   1.417   2.703
10329SOL    HW131886   4.050   1.517   2.714
10329SOL    HW231887   4.033   1.375   2.793
10330SOL     OW31888   4.216   0.794   1.405
10330SOL    HW131889   4.314   0.783   1.389
10330SOL    HW231890   4.199   0.803   1.504
10331SOL     OW31891   6.369   5.686   6.817
10331SOL    HW131892   6.390   5.679   6.915
10331SOL    HW231893   6.300   5.618   6.794
10332SOL     OW31894   1.037   1.046   6.614
10332SOL    HW131895   1.096   0.998   6.550
10332SOL    HW231896   0.960   0.988   6.639
10333SOL     OW31897   1.040   5.494   4.939
10333SOL    HW131898   1.026   5.585   4.900
10333SOL    HW231899   1.112   5.498   5.008
10334SOL     OW31900   3.031   0.190   4.057
10334SOL    HW131901   3.091   0.154   4.128
10334SOL    HW231902   2.987   0.273   4.090
10335SOL     OW31903   0.492   2.703   5.917
10335SOL    HW131904   0.494   2.698   6.016
10335SOL    HW231905   0.585   2.688   5.881
10336SOL     OW31906   5.077   6.900   3.551
10336SOL    HW131907   5.162   6.852   3.529
10336SOL    HW231908   5.053   6.961   3.476
10337SOL     OW31909   6.190   5.486   6.715
10337SOL    HW131910   6.227   5.480   6.622
10337SOL    HW231911   6.176   5.394   6.751
10338SOL     OW31912   2.121   6.448   1.840
10338SOL    HW131913   2.033   6.422   1.800
10338SOL    HW231914   2.112   6.452   1.940
10339SOL     OW31915   6.671   2.299   5.628
10339SOL    HW131916   6.629   2.253   5.706
10339SOL    HW231917   6.741   2.239   5.588
10340SOL     OW31918   2.252   3.864   6.416
10340SOL    HW131919   2.322   3.912   6.363
10340SOL    HW231920   2.270   3.766   6.414
10341SOL     OW31921   2.350   2.629   2.791
10341SOL    HW131922   2.415   2.583   2.852
10341SOL    HW231923   2.330   2.720   2.826
10342SOL     OW31924   0.979   1.128   2.926
10342SOL    HW131925   0.954   1.091   2.836
10342SOL    HW231926   1.053   1.195   2.914
10343SOL     OW31927   2.394   5.292   1.121
10343SOL    HW131928   2.370   5.333   1.209
10343SOL    HW231929   2.493   5.276   1.117
10344SOL     OW31930   4.443   4.977   6.005
10344SOL    HW131931   4.351   4.987   6.043
10344SOL    HW231932   4.502   5.048   6.043
10345SOL     OW31933   1.494   3.362   4.430
10345SOL    HW131934   1.410   3.390   4.477
10345SOL    HW231935   1.537   3.441   4.387
10346SOL     OW31936   0.092   5.628   1.192
10346SOL    HW131937   0.052   5.710   1.151
10346SOL    HW231938   0.117   5.648   1.287
10347SOL     OW31939   4.611   1.479   3.654
10347SOL    HW131940   4.650   1.544   3.719
10347SOL    HW231941   4.596   1.391   3.699
10348SOL     OW31942   6.346   4.096   0.515
10348SOL    HW131943   6.279   4.113   0.442
10348SOL    HW231944   6.299   4.061   0.596
10349SOL     OW31945   0.761   6.774   6.382
10349SOL    HW131946   0.693   6.842   6.411
10349SOL    HW231947   0.719   6.712   6.316
10350SOL     OW31948   2.951   6.972   5.925
10350SOL    HW131949   2.919   6.894   5.871
10350SOL    HW231950   2.891   0.037   5.909
10351SOL     OW31951   4.989   5.250   5.714
10351SOL    HW131952   5.062   5.281   5.776
10351SOL    HW231953   5.021   5.169   5.664
10352SOL     OW31954   3.524   3.139   6.120
10352SOL    HW131955   3.557   3.045   6.111
10352SOL    HW231956   3.601   3.199   6.144
10353SOL     OW31957   6.878   2.447   4.812
10353SOL    HW131958   6.808   2.508   4.774
10353SOL    HW231959   6.930   2.496   4.882
10354SOL     OW31960   5.921   1.820   1.929
10354SOL    HW131961   5.948   1.724   1.918
10354SOL    HW231962   5.870   1.831   2.014
10355SOL     OW31963   2.095   5.668   2.017
10355SOL    HW131964   2.037   5.617   2.080
10355SOL    HW231965   2.038   5.728   1.961
10356SOL     OW31966   0.127   3.416   5.034
10356SOL    HW131967   0.043   3.456   4.996
10356SOL    HW231968   0.169   3.356   4.965
10357SOL     OW31969   2.077   1.754   0.203
10357SOL    HW131970   1.977   1.742   0.205
10357SOL    HW231971   2.100   1.844   0.238
10358SOL     OW31972   0.432   1.615   1.724
10358SOL    HW131973   0.336   1.586   1.719
10358SOL    HW231974   0.442   1.682   1.797
10359SOL     OW31975   0.075   1.224   1.246
10359SOL    HW131976   0.100   1.251   1.339
10359SOL    HW231977   6.998   1.260   1.225
10360SOL     OW31978   5.782   6.264   3.626
10360SOL    HW131979   5.790   6.221   3.536
10360SOL    HW231980   5.710   6.218   3.678
10361SOL     OW31981   2.053   4.712   1.174
10361SOL    HW131982   2.031   4.643   1.105
10361SOL    HW231983   2.021   4.802   1.143
10362SOL     OW31984   1.304   4.448   4.462
10362SOL    HW131985   1.327   4.421   4.556
10362SOL    HW231986   1.384   4.435   4.403
10363SOL     OW31987   5.187   1.148   4.125
10363SOL    HW131988   5.241   1.170   4.044
10363SOL    HW231989   5.235   1.079   4.179
10364SOL     OW31990   1.374   4.145   1.383
10364SOL    HW131991   1.366   4.046   1.369
10364SOL    HW231992   1.315   4.193   1.318
10365SOL     OW31993   4.265   5.613   0.049
10365SOL    HW131994   4.215   5.642   6.982
10365SOL    HW231995   4.345   5.559   0.021
10366SOL     OW31996   3.175   6.623   3.787
10366SOL    HW131997   3.161   6.683   3.707
10366SOL    HW231998   3.112   6.649   3.859
10367SOL     OW31999   6.865   2.060   3.818
10367SOL    HW132000   6.873   2.005   3.736
10367SOL    HW232001   6.835   2.152   3.793
10368SOL     OW32002   2.166   0.587   1.516
10368SOL    HW132003   2.088   0.598   1.455
10368SOL    HW232004   2.247   0.630   1.475
10369SOL     OW32005   3.944   2.756   0.282
10369SOL    HW132006   3.942   2.711   0.192
10369SOL    HW232007   4.000   2.838   0.276
10370SOL     OW32008   3.439   0.508   4.862
10370SOL    HW132009   3.434   0.594   4.912
10370SOL    HW232010   3.493   0.521   4.779
10371SOL     OW32011   5.128   6.548   6.201
10371SOL    HW132012   5.040   6.595   6.206
10371SOL    HW232013   5.159   6.545   6.107
10372SOL     OW32014   1.206   0.746   2.921
10372SOL    HW132015   1.257   0.680   2.976
10372SOL    HW232016   1.191   0.708   2.830
10373SOL     OW32017   1.186   6.087   5.041
10373SOL    HW132018   1.113   6.121   5.101
10373SOL    HW232019   1.145   6.057   4.954
10374SOL     OW32020   3.118   2.208   3.715
10374SOL    HW132021   3.106   2.148   3.637
10374SOL    HW232022   3.033   2.215   3.767
10375SOL     OW32023   6.365   2.201   0.217
10375SOL    HW132024   6.275   2.158   0.208
10375SOL    HW232025   6.388   2.249   0.132
10376SOL     OW32026   0.472   1.121   3.771
10376SOL    HW132027   0.552   1.152   3.823
10376SOL    HW232028   0.423   1.052   3.823
10377SOL     OW32029   1.093   6.800   4.377
10377SOL    HW132030   0.996   6.818   4.359
10377SOL    HW232031   1.129   6.738   4.307
10378SOL     OW32032   6.865   6.935   6.770
10378SOL    HW132033   6.911   6.904   6.853
10378SOL    HW232034   6.931   6.945   6.696
10379SOL     OW32035   5.168   1.766   4.336
10379SOL    HW132036   5.087   1.716   4.364
10379SOL    HW232037   5.149   1.816   4.252
10380SOL     OW32038   5.149   0.662   2.548
10380SOL    HW132039   5.206   0.599   2.600
10380SOL    HW232040   5.065   0.683   2.599
10381SOL     OW32041   4.291   5.019   5.037
10381SOL    HW132042   4.367   4.972   5.082
10381SOL    HW232043   4.236   4.953   4.985
10382SOL     OW32044   2.196   5.632   0.790
10382SOL    HW132045   2.122   5.587   0.740
10382SOL    HW232046   2.173   5.728   0.806
10383SOL     OW32047   6.957   2.681   6.767
10383SOL    HW132048   6.864   2.713   6.749
10383SOL    HW232049   0.005   2.759   6.775
10384SOL     OW32050   6.252   0.271   0.262
10384SOL    HW132051   6.328   0.323   0.226
10384SOL    HW232052   6.233   0.192   0.203
10385SOL     OW32053   5.708   1.871   0.018
10385SOL    HW132054   5.663   1.932   0.083
10385SOL    HW232055   5.679   1.896   6.939
10386SOL     OW32056   5.808   2.816   6.134
10386SOL    HW132057   5.837   2.780   6.222
10386SOL    HW232058   5.844   2.909   6.122
10387SOL     OW32059   2.217   2.766   3.351
10387SOL    HW132060   2.289   2.733   3.413
10387SOL    HW232061   2.177   2.688   3.302
10388SOL     OW32062   1.561   4.639   2.983
10388SOL    HW132063   1.660   4.631   2.986
10388SOL    HW232064   1.520   4.554   3.016
10389SOL     OW32065   0.371   5.650   3.301
10389SOL    HW132066   0.410   5.660   3.392
10389SOL    HW232067   0.406   5.566   3.259
10390SOL     OW32068   1.568   3.152   3.618
10390SOL    HW132069   1.630   3.083   3.581
10390SOL    HW232070   1.556   3.137   3.716
10391SOL     OW32071   3.179   6.530   5.428
10391SOL    HW132072   3.251   6.482   5.478
10391SOL    HW232073   3.129   6.590   5.490
10392SOL     OW32074   0.039   4.777   6.485
10392SOL    HW132075   7.005   4.719   6.551
10392SOL    HW232076   0.133   4.743   6.474
10393SOL     OW32077   1.439   1.118   4.015
10393SOL    HW132078   1.387   1.054   3.958
10393SOL    HW232079   1.377   1.187   4.052
10394SOL     OW32080   2.404   6.512   6.954
10394SOL    HW132081   2.355   6.509   6.867
10394SOL    HW232082   2.408   6.607   6.986
10395SOL     OW32083   1.039   1.426   4.863
10395SOL    HW132084   1.093   1.505   4.834
10395SOL    HW232085   1.099   1.347   4.877
10396SOL     OW32086   0.395   0.324   5.502
10396SOL    HW132087   0.442   0.289   5.421
10396SOL    HW232088   0.297   0.306   5.493
10397SOL     OW32089   4.377   1.612   2.704
10397SOL    HW132090   4.327   1.605   2.791
10397SOL    HW232091   4.475   1.605   2.722
10398SOL     OW32092   6.871   2.757   2.683
10398SOL    HW132093   6.874   2.659   2.664
10398SOL    HW232094   6.778   2.783   2.709
10399SOL     OW32095   6.215   2.052   5.361
10399SOL    HW132096   6.222   1.953   5.369
10399SOL    HW232097   6.256   2.094   5.443
10400SOL     OW32098   2.390   4.322   1.490
10400SOL    HW132099   2.469   4.262   1.499
10400SOL    HW232100   2.420   4.417   1.483
10401SOL     OW32101   0.910   6.253   1.119
10401SOL    HW132102   1.008   6.235   1.113
10401SOL    HW232103   0.887   6.281   1.213
10402SOL     OW32104   0.192   2.748   4.036
10402SOL    HW132105   0.277   2.731   3.987
10402SOL    HW232106   0.203   2.828   4.094
10403SOL     OW32107   5.027   1.664   1.861
10403SOL    HW132108   5.113   1.695   1.820
10403SOL    HW232109   5.040   1.575   1.903
10404SOL     OW32110   0.335   6.578   3.755
10404SOL    HW132111   0.306   6.482   3.746
10404SOL    HW232112   0.434   6.584   3.745
10405SOL     OW32113   1.624   0.063   6.701
10405SOL    HW132114   1.605   0.033   6.607
10405SOL    HW232115   1.608   7.001   6.764
10406SOL     OW32116   2.484   5.161   6.003
10406SOL    HW132117   2.531   5.124   5.923
10406SOL    HW232118   2.472   5.089   6.071
10407SOL     OW32119   1.275   1.187   6.181
10407SOL    HW132120   1.183   1.211   6.150
10407SOL    HW232121   1.317   1.124   6.115
10408SOL     OW32122   3.975   5.102   3.092
10408SOL    HW132123   3.970   5.181   3.154
10408SOL    HW232124   3.965   5.018   3.144
10409SOL     OW32125   6.019   4.820   2.371
10409SOL    HW132126   5.922   4.810   2.391
10409SOL    HW232127   6.031   4.870   2.285
10410SOL     OW32128   5.858   6.974   0.675
10410SOL    HW132129   5.786   6.969   0.606
10410SOL    HW232130   5.947   6.986   0.631
10411SOL     OW32131   1.635   4.436   2.596
10411SOL    HW132132   1.598   4.529   2.599
10411SOL    HW232133   1.724   4.437   2.551
10412SOL     OW32134   0.646   2.192   6.995
10412SOL    HW132135   0.647   2.232   6.904
10412SOL    HW232136   0.697   2.251   0.044
10413SOL     OW32137   6.968   2.016   6.173
10413SOL    HW132138   6.958   2.092   6.109
10413SOL    HW232139   6.975   1.930   6.122
10414SOL     OW32140   5.292   0.225   5.405
10414SOL    HW132141   5.263   0.231   5.310
10414SOL    HW232142   5.236   0.287   5.461
10415SOL     OW32143   0.512   5.547   3.544
10415SOL    HW132144   0.508   5.450   3.517
10415SOL    HW232145   0.462   5.560   3.629
10416SOL     OW32146   4.685   0.396   6.975
10416SOL    HW132147   4.774   0.433   6.949
10416SOL    HW232148   4.669   0.414   0.058
10417SOL     OW32149   4.164   4.804   4.426
10417SOL    HW132150   4.228   4.789   4.501
10417SOL    HW232151   4.071   4.812   4.462
10418SOL     OW32152   6.620   3.533   6.882
10418SOL    HW132153   6.640   3.435   6.885
10418SOL    HW232154   6.609   3.562   6.787
10419SOL     OW32155   2.326   1.630   4.261
10419SOL    HW132156   2.318   1.643   4.162
10419SOL    HW232157   2.402   1.685   4.296
10420SOL     OW32158   5.489   3.360   3.543
10420SOL    HW132159   5.456   3.280   3.594
10420SOL    HW232160   5.546   3.416   3.602
10421SOL     OW32161   0.943   4.780   3.527
10421SOL    HW132162   0.985   4.713   3.589
10421SOL    HW232163   1.001   4.862   3.523
10422SOL     OW32164   5.835   3.188   5.026
10422SOL    HW132165   5.912   3.241   5.061
10422SOL    HW232166   5.857   3.090   5.031
10423SOL     OW32167   2.748   5.007   3.776
10423SOL    HW132168   2.771   5.046   3.865
10423SOL    HW232169   2.698   5.075   3.721
10424SOL     OW32170   3.602   1.792   0.397
10424SOL    HW132171   3.667   1.852   0.351
10424SOL    HW232172   3.509   1.821   0.377
10425SOL     OW32173   1.944   3.411   0.635
10425SOL    HW132174   1.940   3.484   0.567
10425SOL    HW232175   2.022   3.426   0.696
10426SOL     OW32176   6.179   2.253   6.340
10426SOL    HW132177   6.089   2.267   6.383
10426SOL    HW232178   6.235   2.335   6.354
10427SOL     OW32179   5.581   1.192   4.352
10427SOL    HW132180   5.545   1.286   4.346
10427SOL    HW232181   5.609   1.173   4.446
10428SOL     OW32182   1.831   6.848   4.770
10428SOL    HW132183   1.743   6.803   4.755
10428SOL    HW232184   1.825   6.905   4.852
10429SOL     OW32185   1.324   2.635   1.190
10429SOL    HW132186   1.240   2.673   1.227
10429SOL    HW232187   1.360   2.565   1.251
10430SOL     OW32188   3.323   0.779   4.237
10430SOL    HW132189   3.406   0.726   4.252
10430SOL    HW232190   3.316   0.804   4.141
10431SOL     OW32191   3.831   0.881   3.122
10431SOL    HW132192   3.739   0.846   3.100
10431SOL    HW232193   3.885   0.885   3.038
10432SOL     OW32194   0.682   5.197   6.543
10432SOL    HW132195   0.656   5.289   6.569
10432SOL    HW232196   0.781   5.186   6.555
10433SOL     OW32197   3.599   6.444   3.483
10433SOL    HW132198   3.690   6.485   3.488
10433SOL    HW232199   3.576   6.403   3.571
10434SOL     OW32200   4.922   0.847   6.207
10434SOL    HW132201   4.854   0.909   6.168
10434SOL    HW232202   4.877   0.787   6.274
10435SOL     OW32203   2.765   1.540   0.624
10435SOL    HW132204   2.803   1.627   0.592
10435SOL    HW232205   2.669   1.534   0.598
10436SOL     OW32206   0.236   3.641   5.150
10436SOL    HW132207   0.330   3.656   5.118
10436SOL    HW232208   0.202   3.555   5.114
10437SOL     OW32209   6.067   6.463   4.715
10437SOL    HW132210   6.041   6.394   4.784
10437SOL    HW232211   6.055   6.554   4.754
10438SOL     OW32212   6.926   5.930   6.902
10438SOL    HW132213   6.838   5.934   6.854
10438SOL    HW232214   6.929   5.847   6.958
10439SOL     OW32215   6.488   5.176   5.111
10439SOL    HW132216   6.391   5.157   5.125
10439SOL    HW232217   6.542   5.101   5.150
10440SOL     OW32218   5.874   2.731   0.843
10440SOL    HW132219   5.958   2.685   0.871
10440SOL    HW232220   5.887   2.830   0.846
10441SOL     OW32221   4.730   2.001   6.757
10441SOL    HW132222   4.764   2.043   6.673
10441SOL    HW232223   4.638   2.035   6.776
10442SOL     OW32224   1.845   1.457   4.733
10442SOL    HW132225   1.820   1.533   4.674
10442SOL    HW232226   1.888   1.492   4.817
10443SOL     OW32227   1.321   1.050   1.072
10443SOL    HW132228   1.419   1.044   1.054
10443SOL    HW232229   1.305   1.110   1.151
10444SOL     OW32230   3.943   4.927   4.500
10444SOL    HW132231   3.876   4.951   4.430
10444SOL    HW232232   3.906   4.950   4.590
10445SOL     OW32233   0.946   3.157   3.739
10445SOL    HW132234   0.974   3.163   3.643
10445SOL    HW232235   0.914   3.247   3.769
10446SOL     OW32236   2.358   5.147   5.605
10446SOL    HW132237   2.290   5.109   5.668
10446SOL    HW232238   2.449   5.138   5.646
10447SOL     OW32239   0.589   1.972   2.516
10447SOL    HW132240   0.677   1.953   2.560
10447SOL    HW232241   0.544   2.048   2.563
10448SOL     OW32242   2.655   6.499   2.100
10448SOL    HW132243   2.557   6.509   2.112
10448SOL    HW232244   2.702   6.514   2.187
10449SOL     OW32245   4.114   5.197   4.482
10449SOL    HW132246   4.048   5.124   4.497
10449SOL    HW232247   4.204   5.158   4.463
10450SOL     OW32248   6.913   0.737   4.633
10450SOL    HW132249   6.904   0.819   4.576
10450SOL    HW232250   6.839   0.735   4.700
10451SOL     OW32251   3.070   1.680   3.772
10451SOL    HW132252   2.984   1.729   3.754
10451SOL    HW232253   3.147   1.739   3.750
10452SOL     OW32254   6.308   3.008   4.559
10452SOL    HW132255   6.353   2.936   4.612
10452SOL    HW232256   6.231   3.044   4.612
10453SOL     OW32257   4.207   5.933   3.868
10453SOL    HW132258   4.144   5.856   3.878
10453SOL    HW232259   4.195   5.996   3.945
10454SOL     OW32260   6.387   1.230   6.694
10454SOL    HW132261   6.462   1.164   6.692
10454SOL    HW232262   6.337   1.221   6.780
10455SOL     OW32263   0.465   6.103   3.563
10455SOL    HW132264   0.563   6.124   3.561
10455SOL    HW232265   0.452   6.008   3.591
10456SOL     OW32266   1.380   5.499   6.461
10456SOL    HW132267   1.341   5.436   6.528
10456SOL    HW232268   1.441   5.564   6.507
10457SOL     OW32269   4.186   2.319   6.281
10457SOL    HW132270   4.104   2.361   6.318
10457SOL    HW232271   4.161   2.248   6.215
10458SOL     OW32272   0.850   6.151   6.816
10458SOL    HW132273   0.828   6.241   6.780
10458SOL    HW232274   0.814   6.081   6.755
10459SOL     OW32275   5.755   5.468   1.743
10459SOL    HW132276   5.809   5.386   1.727
10459SOL    HW232277   5.780   5.538   1.675
10460SOL     OW32278   6.640   0.622   0.596
10460SOL    HW132279   6.702   0.652   0.669
10460SOL    HW232280   6.584   0.546   0.630
10461SOL     OW32281   0.113   4.382   6.637
10461SOL    HW132282   0.092   4.284   6.643
10461SOL    HW232283   0.184   4.405   6.705
10462SOL     OW32284   3.754   3.255   6.192
10462SOL    HW132285   3.794   3.295   6.110
10462SOL    HW232286   3.719   3.327   6.252
10463SOL     OW32287   5.227   2.509   6.565
10463SOL    HW132288   5.308   2.468   6.523
10463SOL    HW232289   5.164   2.539   6.494
10464SOL     OW32290   6.376   4.492   2.767
10464SOL    HW132291   6.322   4.464   2.688
10464SOL    HW232292   6.319   4.541   2.832
10465SOL     OW32293   5.464   4.931   1.202
10465SOL    HW132294   5.484   4.835   1.220
10465SOL    HW232295   5.406   4.967   1.275
10466SOL     OW32296   6.449   4.163   6.066
10466SOL    HW132297   6.449   4.146   5.968
10466SOL    HW232298   6.510   4.239   6.087
10467SOL     OW32299   0.700   2.755   0.078
10467SOL    HW132300   0.604   2.750   0.105
10467SOL    HW232301   0.729   2.669   0.037
10468SOL     OW32302   1.354   4.612   3.625
10468SOL    HW132303   1.376   4.519   3.597
10468SOL    HW232304   1.429   4.673   3.600
10469SOL     OW32305   1.299   1.487   4.409
10469SOL    HW132306   1.262   1.504   4.318
10469SOL    HW232307   1.231   1.440   4.465
10470SOL     OW32308   1.985   3.637   2.899
10470SOL    HW132309   2.021   3.631   2.992
10470SOL    HW232310   1.887   3.657   2.903
10471SOL     OW32311   2.824   6.214   6.480
10471SOL    HW132312   2.777   6.203   6.568
10471SOL    HW232313   2.850   6.310   6.468
10472SOL     OW32314   3.161   4.749   6.843
10472SOL    HW132315   3.120   4.753   6.752
10472SOL    HW232316   3.125   4.823   6.900
10473SOL     OW32317   5.822   4.697   1.065
10473SOL    HW132318   5.907   4.647   1.050
10473SOL    HW232319   5.792   4.684   1.159
10474SOL     OW32320   6.094   0.273   5.090
10474SOL    HW132321   6.006   0.228   5.073
10474SOL    HW232322   6.142   0.285   5.004
10475SOL     OW32323   1.010   5.030   1.022
10475SOL    HW132324   1.109   5.040   1.014
10475SOL    HW232325   0.967   5.064   0.939
10476SOL     OW32326   4.929   6.712   1.348
10476SOL    HW132327   4.962   6.712   1.254
10476SOL    HW232328   4.967   6.791   1.396
10477SOL     OW32329   6.915   5.948   3.642
10477SOL    HW132330   6.866   5.862   3.659
10477SOL    HW232331   6.995   5.953   3.702
10478SOL     OW32332   6.412   0.984   6.420
10478SOL    HW132333   6.344   1.056   6.433
10478SOL    HW232334   6.379   0.899   6.461
10479SOL     OW32335   1.129   2.811   1.959
10479SOL    HW132336   1.070   2.881   1.919
10479SOL    HW232337   1.189   2.773   1.889
10480SOL     OW32338   2.513   0.497   3.561
10480SOL    HW132339   2.464   0.412   3.583
10480SOL    HW232340   2.509   0.513   3.463
10481SOL     OW32341   6.793   1.343   1.269
10481SOL    HW132342   6.728   1.292   1.212
10481SOL    HW232343   6.767   1.335   1.365
10482SOL     OW32344   5.356   2.895   3.871
10482SOL    HW132345   5.397   2.890   3.962
10482SOL    HW232346   5.267   2.851   3.872
10483SOL     OW32347   6.793   6.374   0.355
10483SOL    HW132348   6.789   6.334   0.447
10483SOL    HW232349   6.718   6.440   0.345
10484SOL     OW32350   6.162   1.199   2.492
10484SOL    HW132351   6.214   1.227   2.572
10484SOL    HW232352   6.069   1.175   2.519
10485SOL     OW32353   5.057   3.601   5.463
10485SOL    HW132354   4.976   3.554   5.429
10485SOL    HW232355   5.090   3.555   5.546
10486SOL     OW32356   5.676   3.063   2.420
10486SOL    HW132357   5.607   3.011   2.368
10486SOL    HW232358   5.683   3.155   2.382
10487SOL     OW32359   5.896   6.803   1.692
10487SOL    HW132360   5.882   6.880   1.753
10487SOL    HW232361   5.927   6.836   1.602
10488SOL     OW32362   2.771   3.299   0.137
10488SOL    HW132363   2.684   3.250   0.132
10488SOL    HW232364   2.780   3.361   0.059
10489SOL     OW32365   1.567   5.630   4.817
10489SOL    HW132366   1.502   5.603   4.888
10489SOL    HW232367   1.614   5.548   4.783
10490SOL     OW32368   6.922   0.185   3.840
10490SOL    HW132369   6.949   0.099   3.799
10490SOL    HW232370   6.838   0.218   3.798
10491SOL     OW32371   0.535   4.575   5.713
10491SOL    HW132372   0.571   4.666   5.690
10491SOL    HW232373   0.482   4.539   5.636
10492SOL     OW32374   3.772   3.969   5.721
10492SOL    HW132375   3.769   3.896   5.653
10492SOL    HW232376   3.808   3.934   5.808
10493SOL     OW32377   3.447   1.040   0.768
10493SOL    HW132378   3.410   1.005   0.682
10493SOL    HW232379   3.516   0.977   0.802
10494SOL     OW32380   5.684   2.655   4.338
10494SOL    HW132381   5.749   2.671   4.264
10494SOL    HW232382   5.725   2.594   4.406
10495SOL     OW32383   1.627   6.646   0.185
10495SOL    HW132384   1.647   6.592   0.266
10495SOL    HW232385   1.688   6.725   0.182
10496SOL     OW32386   6.435   0.636   5.486
10496SOL    HW132387   6.395   0.546   5.470
10496SOL    HW232388   6.478   0.638   5.577
10497SOL     OW32389   1.069   1.318   0.520
10497SOL    HW132390   1.127   1.396   0.497
10497SOL    HW232391   1.106   1.236   0.477
10498SOL     OW32392   2.818   5.231   5.850
10498SOL    HW132393   2.758   5.213   5.772
10498SOL    HW232394   2.794   5.318   5.893
10499SOL     OW32395   3.259   5.135   3.179
10499SOL    HW132396   3.196   5.119   3.104
10499SOL    HW232397   3.249   5.062   3.247
10500SOL     OW32398   1.277   2.327   6.928
10500SOL    HW132399   1.209   2.317   6.855
10500SOL    HW232400   1.300   2.424   6.939
10501SOL     OW32401   1.246   2.411   2.763
10501SOL    HW132402   1.157   2.442   2.798
10501SOL    HW232403   1.254   2.312   2.776
10502SOL     OW32404   3.344   6.253   5.851
10502SOL    HW132405   3.252   6.290   5.861
10502SOL    HW232406   3.347   6.191   5.773
10503SOL     OW32407   2.634   3.584   5.837
10503SOL    HW132408   2.694   3.527   5.782
10503SOL    HW232409   2.689   3.643   5.897
10504SOL     OW32410   2.979   2.965   0.929
10504SOL    HW132411   2.908   3.004   0.988
10504SOL    HW232412   2.975   2.865   0.932
10505SOL     OW32413   0.167   6.919   1.252
10505SOL    HW132414   0.255   6.878   1.229
10505SOL    HW232415   0.126   6.959   1.170
10506SOL     OW32416   0.311   4.210   5.569
10506SOL    HW132417   0.226   4.254   5.541
10506SOL    HW232418   0.322   4.124   5.520
10507SOL     OW32419   1.075   0.261   4.980
10507SOL    HW132420   1.037   0.224   4.895
10507SOL    HW232421   1.013   0.331   5.016
10508SOL     OW32422   5.116   4.223   2.853
10508SOL    HW132423   5.041   4.234   2.788
10508SOL    HW232424   5.174   4.304   2.851
10509SOL     OW32425   1.851   0.123   5.460
10509SOL    HW132426   1.759   0.088   5.479
10509SOL    HW232427   1.905   0.122   5.545
10510SOL     OW32428   6.563   5.885   0.172
10510SOL    HW132429   6.633   5.937   0.222
10510SOL    HW232430   6.607   5.808   0.125
10511SOL     OW32431   6.078   2.147   0.290
10511SOL    HW132432   6.045   2.062   0.248
10511SOL    HW232433   6.074   2.138   0.389
10512SOL     OW32434   3.444   6.070   6.615
10512SOL    HW132435   3.384   6.150   6.612
10512SOL    HW232436   3.506   6.072   6.537
10513SOL     OW32437   0.034   2.532   6.979
10513SOL    HW132438   6.991   2.456   7.010
10513SOL    HW232439   7.002   2.580   6.904
10514SOL     OW32440   6.737   3.830   1.511
10514SOL    HW132441   6.756   3.843   1.414
10514SOL    HW232442   6.767   3.739   1.539
10515SOL     OW32443   6.437   2.312   4.115
10515SOL    HW132444   6.454   2.314   4.214
10515SOL    HW232445   6.369   2.381   4.092
10516SOL     OW32446   3.980   0.373   6.755
10516SOL    HW132447   4.043   0.409   6.687
10516SOL    HW232448   3.995   0.275   6.766
10517SOL     OW32449   0.514   2.195   3.225
10517SOL    HW132450   0.528   2.121   3.159
10517SOL    HW232451   0.461   2.161   3.302
10518SOL     OW32452   0.613   0.074   1.326
10518SOL    HW132453   0.634   7.000   1.370
10518SOL    HW232454   0.695   0.131   1.326
10519SOL     OW32455   3.261   3.894   5.434
10519SOL    HW132456   3.239   3.843   5.517
10519SOL    HW232457   3.309   3.835   5.369
10520SOL     OW32458   4.007   3.795   6.309
10520SOL    HW132459   4.084   3.859   6.307
10520SOL    HW232460   3.963   3.798   6.399
10521SOL     OW32461   6.473   5.338   1.845
10521SOL    HW132462   6.389   5.369   1.800
10521SOL    HW232463   6.486   5.240   1.828
10522SOL     OW32464   6.130   0.487   1.995
10522SOL    HW132465   6.115   0.389   1.999
10522SOL    HW232466   6.228   0.506   1.994
10523SOL     OW32467   0.178   5.682   6.738
10523SOL    HW132468   0.117   5.709   6.664
10523SOL    HW232469   0.126   5.631   6.807
10524SOL     OW32470   4.056   1.401   4.294
10524SOL    HW132471   4.020   1.408   4.387
10524SOL    HW232472   4.100   1.312   4.282
10525SOL     OW32473   2.688   6.087   4.411
10525SOL    HW132474   2.669   6.072   4.315
10525SOL    HW232475   2.714   6.183   4.425
10526SOL     OW32476   5.846   6.886   2.076
10526SOL    HW132477   5.880   6.950   2.008
10526SOL    HW232478   5.883   6.795   2.058
10527SOL     OW32479   1.672   2.446   4.571
10527SOL    HW132480   1.671   2.441   4.471
10527SOL    HW232481   1.751   2.396   4.606
10528SOL     OW32482   6.204   5.035   5.573
10528SOL    HW132483   6.287   4.986   5.598
10528SOL    HW232484   6.149   4.978   5.511
10529SOL     OW32485   5.994   6.252   3.811
10529SOL    HW132486   5.924   6.271   3.742
10529SOL    HW232487   5.992   6.322   3.882
10530SOL     OW32488   1.968   1.742   5.641
10530SOL    HW132489   1.930   1.658   5.680
10530SOL    HW232490   1.927   1.758   5.551
10531SOL     OW32491   2.280   2.687   5.450
10531SOL    HW132492   2.224   2.681   5.533
10531SOL    HW232493   2.252   2.767   5.397
10532SOL     OW32494   3.536   3.075   5.286
10532SOL    HW132495   3.534   3.097   5.188
10532SOL    HW232496   3.442   3.065   5.319
10533SOL     OW32497   2.280   0.659   6.095
10533SOL    HW132498   2.232   0.644   6.181
10533SOL    HW232499   2.218   0.645   6.018
10534SOL     OW32500   5.895   5.653   1.022
10534SOL    HW132501   5.845   5.598   0.956
10534SOL    HW232502   5.871   5.749   1.010
10535SOL     OW32503   0.385   1.237   2.785
10535SOL    HW132504   0.476   1.234   2.828
10535SOL    HW232505   0.315   1.215   2.853
10536SOL     OW32506   4.556   6.982   3.650
10536SOL    HW132507   4.502   0.051   3.667
10536SOL    HW232508   4.582   6.941   3.738
10537SOL     OW32509   0.516   4.919   1.280
10537SOL    HW132510   0.616   4.930   1.283
10537SOL    HW232511   0.494   4.825   1.254
10538SOL     OW32512   5.171   3.779   6.878
10538SOL    HW132513   5.170   3.868   6.830
10538SOL    HW232514   5.078   3.755   6.904
10539SOL     OW32515   0.638   3.041   6.048
10539SOL    HW132516   0.718   3.101   6.048
10539SOL    HW232517   0.663   2.951   6.085
10540SOL     OW32518   2.744   0.564   0.136
10540SOL    HW132519   2.814   0.528   0.074
10540SOL    HW232520   2.729   0.499   0.211
10541SOL     OW32521   4.383   2.619   0.682
10541SOL    HW132522   4.308   2.630   0.617
10541SOL    HW232523   4.358   2.660   0.770
10542SOL     OW32524   1.367   2.562   0.011
10542SOL    HW132525   1.449   2.585   0.064
10542SOL    HW232526   1.293   2.625   0.034
10543SOL     OW32527   2.212   1.008   5.491
10543SOL    HW132528   2.257   1.047   5.571
10543SOL    HW232529   2.128   1.060   5.471
10544SOL     OW32530   0.727   2.572   2.091
10544SOL    HW132531   0.811   2.604   2.047
10544SOL    HW232532   0.662   2.541   2.022
10545SOL     OW32533   5.475   0.734   2.634
10545SOL    HW132534   5.434   0.716   2.544
10545SOL    HW232535   5.443   0.823   2.667
10546SOL     OW32536   3.720   0.769   4.834
10546SOL    HW132537   3.724   0.799   4.929
10546SOL    HW232538   3.714   0.848   4.773
10547SOL     OW32539   4.149   1.528   0.630
10547SOL    HW132540   4.241   1.544   0.666
10547SOL    HW232541   4.082   1.576   0.687
10548SOL     OW32542   4.708   4.257   5.075
10548SOL    HW132543   4.633   4.322   5.090
10548SOL    HW232544   4.788   4.307   5.044
10549SOL     OW32545   1.192   0.944   1.689
10549SOL    HW132546   1.256   0.976   1.759
10549SOL    HW232547   1.127   1.017   1.668
10550SOL     OW32548   4.768   7.005   5.485
10550SOL    HW132549   4.787   6.907   5.490
10550SOL    HW232550   4.851   0.040   5.460
10551SOL     OW32551   1.510   2.528   5.674
10551SOL    HW132552   1.542   2.604   5.618
10551SOL    HW232553   1.426   2.556   5.722
10552SOL     OW32554   2.978   2.199   5.250
10552SOL    HW132555   2.995   2.102   5.232
10552SOL    HW232556   3.060   2.252   5.227
10553SOL     OW32557   2.858   4.358   6.298
10553SOL    HW132558   2.872   4.455   6.277
10553SOL    HW232559   2.937   4.306   6.266
10554SOL     OW32560   6.516   4.689   5.438
10554SOL    HW132561   6.544   4.610   5.492
10554SOL    HW232562   6.431   4.669   5.390
10555SOL     OW32563   3.141   2.169   0.969
10555SOL    HW132564   3.174   2.191   1.061
10555SOL    HW232565   3.130   2.070   0.960
10556SOL     OW32566   2.011   3.121   4.193
10556SOL    HW132567   2.071   3.138   4.270
10556SOL    HW232568   2.029   3.188   4.121
10557SOL     OW32569   6.352   2.174   3.824
10557SOL    HW132570   6.421   2.155   3.754
10557SOL    HW232571   6.392   2.232   3.895
10558SOL     OW32572   5.182   6.246   5.024
10558SOL    HW132573   5.105   6.309   5.034
10558SOL    HW232574   5.261   6.296   4.989
10559SOL     OW32575   4.644   2.551   0.575
10559SOL    HW132576   4.548   2.566   0.598
10559SOL    HW232577   4.684   2.489   0.642
10560SOL     OW32578   0.538   2.775   4.589
10560SOL    HW132579   0.618   2.830   4.615
10560SOL    HW232580   0.520   2.706   4.658
10561SOL     OW32581   2.795   4.271   6.550
10561SOL    HW132582   2.823   4.175   6.544
10561SOL    HW232583   2.808   4.315   6.461
10562SOL     OW32584   3.325   1.543   0.437
10562SOL    HW132585   3.294   1.471   0.499
10562SOL    HW232586   3.280   1.532   0.348
10563SOL     OW32587   1.757   1.515   4.115
10563SOL    HW132588   1.791   1.545   4.204
10563SOL    HW232589   1.778   1.418   4.102
10564SOL     OW32590   6.770   2.240   2.235
10564SOL    HW132591   6.751   2.142   2.231
10564SOL    HW232592   6.699   2.285   2.290
10565SOL     OW32593   5.165   1.933   4.943
10565SOL    HW132594   5.143   2.030   4.949
10565SOL    HW232595   5.227   1.918   4.865
10566SOL     OW32596   3.903   4.257   6.815
10566SOL    HW132597   3.894   4.317   6.895
10566SOL    HW232598   3.984   4.282   6.763
10567SOL     OW32599   1.420   5.103   3.784
10567SOL    HW132600   1.394   5.141   3.872
10567SOL    HW232601   1.362   5.142   3.712
10568SOL     OW32602   4.236   1.580   3.183
10568SOL    HW132603   4.282   1.660   3.223
10568SOL    HW232604   4.249   1.501   3.242
10569SOL     OW32605   6.195   2.875   3.417
10569SOL    HW132606   6.265   2.811   3.386
10569SOL    HW232607   6.234   2.967   3.420
10570SOL     OW32608   1.144   4.202   2.062
10570SOL    HW132609   1.220   4.136   2.065
10570SOL    HW232610   1.150   4.257   1.978
10571SOL     OW32611   6.057   6.748   4.560
10571SOL    HW132612   5.970   6.748   4.510
10571SOL    HW232613   6.044   6.789   4.650
10572SOL     OW32614   6.471   3.218   2.049
10572SOL    HW132615   6.465   3.308   2.093
10572SOL    HW232616   6.426   3.222   1.960
10573SOL     OW32617   6.185   4.561   5.598
10573SOL    HW132618   6.210   4.575   5.694
10573SOL    HW232619   6.120   4.486   5.590
10574SOL     OW32620   0.616   1.706   3.012
10574SOL    HW132621   0.587   1.707   3.108
10574SOL    HW232622   0.548   1.659   2.956
10575SOL     OW32623   1.210   6.978   5.692
10575SOL    HW132624   1.137   6.976   5.760
10575SOL    HW232625   1.231   6.884   5.664
10576SOL     OW32626   1.857   4.556   3.238
10576SOL    HW132627   1.824   4.650   3.230
10576SOL    HW232628   1.933   4.543   3.174
10577SOL     OW32629   0.712   2.805   5.294
10577SOL    HW132630   0.777   2.729   5.293
10577SOL    HW232631   0.635   2.782   5.352
10578SOL     OW32632   5.840   0.889   5.758
10578SOL    HW132633   5.927   0.909   5.713
10578SOL    HW232634   5.848   0.803   5.809
10579SOL     OW32635   4.804   0.957   0.718
10579SOL    HW132636   4.779   0.870   0.760
10579SOL    HW232637   4.748   1.030   0.756
10580SOL     OW32638   6.739   6.038   0.304
10580SOL    HW132639   6.779   6.118   0.259
10580SOL    HW232640   6.810   5.970   0.321
10581SOL     OW32641   4.323   1.691   4.008
10581SOL    HW132642   4.392   1.620   4.022
10581SOL    HW232643   4.306   1.703   3.910
10582SOL     OW32644   3.372   4.580   0.116
10582SOL    HW132645   3.400   4.618   0.204
10582SOL    HW232646   3.333   4.489   0.129
10583SOL     OW32647   4.527   1.933   0.753
10583SOL    HW132648   4.539   1.910   0.656
10583SOL    HW232649   4.550   2.029   0.768
10584SOL     OW32650   6.347   0.594   1.556
10584SOL    HW132651   6.395   0.507   1.563
10584SOL    HW232652   6.252   0.582   1.584
10585SOL     OW32653   1.801   4.266   6.363
10585SOL    HW132654   1.882   4.296   6.414
10585SOL    HW232655   1.826   4.254   6.266
10586SOL     OW32656   3.897   1.078   0.392
10586SOL    HW132657   3.863   0.993   0.433
10586SOL    HW232658   3.938   1.136   0.463
10587SOL     OW32659   5.918   3.585   0.820
10587SOL    HW132660   5.841   3.581   0.883
10587SOL    HW232661   5.884   3.583   0.726
10588SOL     OW32662   0.669   5.510   2.967
10588SOL    HW132663   0.577   5.490   2.932
10588SOL    HW232664   0.723   5.426   2.966
10589SOL     OW32665   6.343   1.798   4.083
10589SOL    HW132666   6.342   1.826   4.179
10589SOL    HW232667   6.367   1.877   4.026
10590SOL     OW32668   1.795   0.759   4.223
10590SOL    HW132669   1.868   0.691   4.218
10590SOL    HW232670   1.738   0.753   4.141
10591SOL     OW32671   1.335   2.457   0.677
10591SOL    HW132672   1.242   2.420   0.682
10591SOL    HW232673   1.352   2.513   0.759
10592SOL     OW32674   6.256   1.927   0.034
10592SOL    HW132675   6.204   2.005   7.011
10592SOL    HW232676   6.192   1.861   0.075
10593SOL     OW32677   2.449   4.763   1.085
10593SOL    HW132678   2.379   4.789   1.018
10593SOL    HW232679   2.416   4.684   1.137
10594SOL     OW32680   1.212   1.933   4.359
10594SOL    HW132681   1.147   2.005   4.386
10594SOL    HW232682   1.189   1.848   4.406
10595SOL     OW32683   2.332   6.282   5.605
10595SOL    HW132684   2.365   6.343   5.677
10595SOL    HW232685   2.410   6.237   5.561
10596SOL     OW32686   3.593   1.060   1.924
10596SOL    HW132687   3.573   1.119   2.003
10596SOL    HW232688   3.595   0.964   1.954
10597SOL     OW32689   1.961   6.728   4.339
10597SOL    HW132690   2.040   6.760   4.287
10597SOL    HW232691   1.992   6.681   4.421
10598SOL     OW32692   1.737   1.842   6.907
10598SOL    HW132693   1.792   1.926   6.898
10598SOL    HW232694   1.677   1.850   6.986
10599SOL     OW32695   4.882   0.912   6.789
10599SOL    HW132696   4.807   0.880   6.847
10599SOL    HW232697   4.969   0.900   6.837
10600SOL     OW32698   1.783   2.718   5.905
10600SOL    HW132699   1.725   2.735   5.985
10600SOL    HW232700   1.801   2.620   5.899
10601SOL     OW32701   3.624   6.238   5.711
10601SOL    HW132702   3.671   6.152   5.729
10601SOL    HW232703   3.629   6.297   5.792
10602SOL     OW32704   4.445   0.995   2.008
10602SOL    HW132705   4.474   0.905   1.975
10602SOL    HW232706   4.371   1.030   1.951
10603SOL     OW32707   1.351   5.465   4.227
10603SOL    HW132708   1.326   5.561   4.215
10603SOL    HW232709   1.360   5.445   4.325
10604SOL     OW32710   6.939   4.552   5.179
10604SOL    HW132711   6.874   4.587   5.246
10604SOL    HW232712   6.909   4.575   5.087
10605SOL     OW32713   2.168   4.573   6.457
10605SOL    HW132714   2.258   4.616   6.455
10605SOL    HW232715   2.155   4.519   6.374
10606SOL     OW32716   0.705   0.731   2.924
10606SOL    HW132717   0.609   0.713   2.905
10606SOL    HW232718   0.721   0.830   2.927
10607SOL     OW32719   5.886   5.240   0.184
10607SOL    HW132720   5.975   5.209   0.219
10607SOL    HW232721   5.891   5.337   0.161
10608SOL     OW32722   6.015   1.013   3.143
10608SOL    HW132723   6.072   1.090   3.113
10608SOL    HW232724   5.982   1.030   3.236
10609SOL     OW32725   3.960   6.624   2.142
10609SOL    HW132726   4.017   6.700   2.111
10609SOL    HW232727   3.935   6.567   2.064
10610SOL     OW32728   1.508   3.191   4.955
10610SOL    HW132729   1.578   3.234   5.013
10610SOL    HW232730   1.537   3.099   4.929
10611SOL     OW32731   5.059   2.485   6.299
10611SOL    HW132732   5.040   2.582   6.286
10611SOL    HW232733   5.106   2.449   6.218
10612SOL     OW32734   1.550   0.079   0.811
10612SOL    HW132735   1.452   0.097   0.823
10612SOL    HW232736   1.567   0.050   0.717
10613SOL     OW32737   0.625   6.991   6.500
10613SOL    HW132738   0.641   0.021   6.412
10613SOL    HW232739   0.639   0.043   6.573
10614SOL     OW32740   6.594   0.976   4.439
10614SOL    HW132741   6.670   0.917   4.465
10614SOL    HW232742   6.550   0.941   4.357
10615SOL     OW32743   6.636   5.575   5.414
10615SOL    HW132744   6.641   5.489   5.364
10615SOL    HW232745   6.724   5.623   5.406
10616SOL     OW32746   2.870   6.185   0.362
10616SOL    HW132747   2.850   6.089   0.384
10616SOL    HW232748   2.944   6.188   0.294
10617SOL     OW32749   1.113   2.355   6.485
10617SOL    HW132750   1.145   2.417   6.414
10617SOL    HW232751   1.080   2.270   6.443
10618SOL     OW32752   6.071   4.277   1.488
10618SOL    HW132753   6.116   4.367   1.491
10618SOL    HW232754   6.139   4.205   1.500
10619SOL     OW32755   0.828   4.531   4.075
10619SOL    HW132756   0.778   4.463   4.128
10619SOL    HW232757   0.925   4.506   4.071
10620SOL     OW32758   1.126   5.698   4.206
10620SOL    HW132759   1.222   5.718   4.221
10620SOL    HW232760   1.090   5.647   4.285
10621SOL     OW32761   2.996   6.145   0.959
10621SOL    HW132762   2.902   6.116   0.976
10621SOL    HW232763   3.000   6.195   0.873
10622SOL     OW32764   4.289   1.766   1.422
10622SOL    HW132765   4.329   1.697   1.482
10622SOL    HW232766   4.258   1.844   1.477
10623SOL     OW32767   6.846   1.292   3.787
10623SOL    HW132768   6.855   1.210   3.729
10623SOL    HW232769   6.815   1.369   3.732
10624SOL     OW32770   2.463   1.200   4.511
10624SOL    HW132771   2.524   1.196   4.432
10624SOL    HW232772   2.396   1.273   4.498
10625SOL     OW32773   0.202   3.277   0.323
10625SOL    HW132774   0.277   3.269   0.389
10625SOL    HW232775   0.146   3.356   0.346
10626SOL     OW32776   6.693   1.882   0.900
10626SOL    HW132777   6.631   1.954   0.869
10626SOL    HW232778   6.779   1.923   0.930
10627SOL     OW32779   6.182   5.222   4.392
10627SOL    HW132780   6.160   5.285   4.318
10627SOL    HW232781   6.112   5.228   4.463
10628SOL     OW32782   6.792   6.038   6.177
10628SOL    HW132783   6.730   6.052   6.100
10628SOL    HW232784   6.748   6.069   6.261
10629SOL     OW32785   2.753   5.810   5.988
10629SOL    HW132786   2.796   5.829   6.076
10629SOL    HW232787   2.657   5.787   6.002
10630SOL     OW32788   6.737   1.255   3.002
10630SOL    HW132789   6.764   1.273   2.907
10630SOL    HW232790   6.697   1.338   3.041
10631SOL     OW32791   1.130   6.981   4.694
10631SOL    HW132792   1.033   6.983   4.722
10631SOL    HW232793   1.156   0.057   4.661
10632SOL     OW32794   0.650   2.868   5.029
10632SOL    HW132795   0.624   2.964   5.027
10632SOL    HW232796   0.669   2.839   5.123
10633SOL     OW32797   0.943   5.134   0.753
10633SOL    HW132798   0.967   5.194   0.677
10633SOL    HW232799   0.873   5.069   0.724
10634SOL     OW32800   3.904   0.033   1.489
10634SOL    HW132801   3.970   0.004   1.558
10634SOL    HW232802   3.942   0.019   1.398
10635SOL     OW32803   2.003   0.807   0.876
10635SOL    HW132804   2.036   0.713   0.887
10635SOL    HW232805   2.080   0.870   0.877
10636SOL     OW32806   6.560   1.755   1.121
10636SOL    HW132807   6.484   1.709   1.075
10636SOL    HW232808   6.610   1.810   1.054
10637SOL     OW32809   3.967   4.709   5.669
10637SOL    HW132810   3.967   4.623   5.719
10637SOL    HW232811   3.966   4.691   5.571
10638SOL     OW32812   6.539   0.330   5.334
10638SOL    HW132813   6.505   0.334   5.240
10638SOL    HW232814   6.468   0.360   5.397
10639SOL     OW32815   3.379   1.422   5.043
10639SOL    HW132816   3.282   1.440   5.027
10639SOL    HW232817   3.389   1.372   5.129
10640SOL     OW32818   3.706   6.922   0.569
10640SOL    HW132819   3.804   6.923   0.584
10640SOL    HW232820   3.687   6.906   0.472
10641SOL     OW32821   3.961   0.739   6.404
10641SOL    HW132822   3.871   0.779   6.386
10641SOL    HW232823   4.028   0.813   6.415
10642SOL     OW32824   6.933   3.694   0.634
10642SOL    HW132825   0.007   3.714   0.678
10642SOL    HW232826   6.935   3.726   0.540
10643SOL     OW32827   3.920   3.516   5.384
10643SOL    HW132828   3.945   3.554   5.295
10643SOL    HW232829   3.997   3.527   5.447
10644SOL     OW32830   3.781   1.611   5.106
10644SOL    HW132831   3.711   1.640   5.172
10644SOL    HW232832   3.796   1.512   5.116
10645SOL     OW32833   2.241   0.063   5.029
10645SOL    HW132834   2.222   0.159   5.047
10645SOL    HW232835   2.252   0.014   5.115
10646SOL     OW32836   0.950   3.738   6.545
10646SOL    HW132837   0.851   3.737   6.558
10646SOL    HW232838   0.986   3.646   6.563
10647SOL     OW32839   0.086   4.910   0.478
10647SOL    HW132840   0.065   5.007   0.466
10647SOL    HW232841   0.120   4.872   0.392
10648SOL     OW32842   5.208   4.229   6.466
10648SOL    HW132843   5.195   4.225   6.566
10648SOL    HW232844   5.282   4.292   6.445
10649SOL     OW32845   0.712   4.209   5.956
10649SOL    HW132846   0.747   4.121   5.923
10649SOL    HW232847   0.672   4.197   6.047
10650SOL     OW32848   2.616   0.133   4.170
10650SOL    HW132849   2.671   0.091   4.097
10650SOL    HW232850   2.677   0.173   4.238
10651SOL     OW32851   3.230   7.008   5.738
10651SOL    HW132852   3.214   0.075   5.794
10651SOL    HW232853   3.291   6.944   5.786
10652SOL     OW32854   3.606   1.200   0.158
10652SOL    HW132855   3.609   1.142   0.077
10652SOL    HW232856   3.609   1.142   0.240
10653SOL     OW32857   5.765   3.144   3.929
10653SOL    HW132858   5.672   3.165   3.957
10653SOL    HW232859   5.827   3.160   4.006
10654SOL     OW32860   4.597   0.876   1.112
10654SOL    HW132861   4.596   0.976   1.110
10654SOL    HW232862   4.550   0.843   1.194
10655SOL     OW32863   3.666   5.648   1.391
10655SOL    HW132864   3.666   5.618   1.486
10655SOL    HW232865   3.590   5.604   1.342
10656SOL     OW32866   6.246   3.135   5.956
10656SOL    HW132867   6.263   3.039   5.937
10656SOL    HW232868   6.248   3.187   5.870
10657SOL     OW32869   6.018   0.712   1.868
10657SOL    HW132870   6.071   0.635   1.903
10657SOL    HW232871   5.921   0.696   1.885
10658SOL     OW32872   0.814   6.185   4.637
10658SOL    HW132873   0.809   6.283   4.657
10658SOL    HW232874   0.722   6.148   4.628
10659SOL     OW32875   5.357   1.084   0.945
10659SOL    HW132876   5.378   1.172   0.904
10659SOL    HW232877   5.441   1.030   0.955
10660SOL     OW32878   5.140   5.047   5.589
10660SOL    HW132879   5.221   5.018   5.640
10660SOL    HW232880   5.165   5.072   5.496
10661SOL     OW32881   0.585   0.273   2.291
10661SOL    HW132882   0.508   0.222   2.329
10661SOL    HW232883   0.660   0.210   2.270
10662SOL     OW32884   5.663   1.529   0.487
10662SOL    HW132885   5.689   1.445   0.440
10662SOL    HW232886   5.745   1.576   0.520
10663SOL     OW32887   0.259   0.716   0.216
10663SOL    HW132888   0.310   0.801   0.218
10663SOL    HW232889   0.285   0.663   0.135
10664SOL     OW32890   2.037   4.559   6.692
10664SOL    HW132891   2.076   4.574   6.601
10664SOL    HW232892   2.112   4.548   6.758
10665SOL     OW32893   6.149   0.969   6.789
10665SOL    HW132894   6.185   1.039   6.851
10665SOL    HW232895   6.070   1.007   6.740
10666SOL     OW32896   1.071   0.382   0.047
10666SOL    HW132897   1.017   0.303   0.017
10666SOL    HW232898   1.135   0.353   0.119
10667SOL     OW32899   3.304   2.228   5.404
10667SOL    HW132900   3.381   2.169   5.382
10667SOL    HW232901   3.265   2.267   5.321
10668SOL     OW32902   2.133   0.798   6.550
10668SOL    HW132903   2.231   0.804   6.532
10668SOL    HW232904   2.111   0.845   6.635
10669SOL     OW32905   0.903   6.700   6.890
10669SOL    HW132906   0.958   6.776   6.854
10669SOL    HW232907   0.955   6.615   6.884
10670SOL     OW32908   0.289   4.827   5.403
10670SOL    HW132909   0.264   4.737   5.368
10670SOL    HW232910   0.275   4.829   5.503
10671SOL     OW32911   1.378   1.975   3.179
10671SOL    HW132912   1.329   2.036   3.117
10671SOL    HW232913   1.448   1.925   3.128
10672SOL     OW32914   0.307   2.690   0.950
10672SOL    HW132915   0.278   2.785   0.932
10672SOL    HW232916   0.272   2.631   0.878
10673SOL     OW32917   3.145   3.327   5.209
10673SOL    HW132918   3.061   3.339   5.157
10673SOL    HW232919   3.221   3.310   5.147
10674SOL     OW32920   4.340   1.937   2.230
10674SOL    HW132921   4.381   1.846   2.228
10674SOL    HW232922   4.357   1.980   2.318
10675SOL     OW32923   0.175   1.074   6.495
10675SOL    HW132924   0.189   1.056   6.592
10675SOL    HW232925   0.083   1.110   6.480
10676SOL     OW32926   6.580   0.292   0.148
10676SOL    HW132927   6.643   0.307   0.072
10676SOL    HW232928   6.613   0.216   0.204
10677SOL     OW32929   6.879   1.146   0.080
10677SOL    HW132930   6.832   1.068   0.039
10677SOL    HW232931   6.952   1.177   0.018
10678SOL     OW32932   2.327   5.938   2.799
10678SOL    HW132933   2.243   5.991   2.783
10678SOL    HW232934   2.304   5.851   2.843
10679SOL     OW32935   5.315   5.216   3.575
10679SOL    HW132936   5.401   5.248   3.534
10679SOL    HW232937   5.240   5.274   3.543
10680SOL     OW32938   1.895   2.280   3.603
10680SOL    HW132939   1.979   2.326   3.635
10680SOL    HW232940   1.919   2.206   3.541
10681SOL     OW32941   0.721   1.827   6.164
10681SOL    HW132942   0.722   1.801   6.260
10681SOL    HW232943   0.728   1.745   6.107
10682SOL     OW32944   6.389   1.632   3.044
10682SOL    HW132945   6.393   1.720   2.996
10682SOL    HW232946   6.322   1.637   3.117
10683SOL     OW32947   1.933   0.870   3.962
10683SOL    HW132948   1.883   0.950   3.930
10683SOL    HW232949   1.869   0.797   3.984
10684SOL     OW32950   6.226   6.217   0.619
10684SOL    HW132951   6.279   6.280   0.561
10684SOL    HW232952   6.246   6.123   0.592
10685SOL     OW32953   6.717   1.966   2.161
10685SOL    HW132954   6.695   1.871   2.138
10685SOL    HW232955   6.652   2.027   2.116
10686SOL     OW32956   4.044   4.625   0.904
10686SOL    HW132957   4.017   4.613   0.808
10686SOL    HW232958   4.100   4.547   0.933
10687SOL     OW32959   0.415   4.919   1.554
10687SOL    HW132960   0.458   4.934   1.465
10687SOL    HW232961   0.451   4.985   1.620
10688SOL     OW32962   6.701   5.916   1.609
10688SOL    HW132963   6.730   5.821   1.598
10688SOL    HW232964   6.653   5.947   1.527
10689SOL     OW32965   0.585   0.631   1.662
10689SOL    HW132966   0.531   0.705   1.702
10689SOL    HW232967   0.638   0.585   1.733
10690SOL     OW32968   4.380   6.073   2.408
10690SOL    HW132969   4.337   6.142   2.467
10690SOL    HW232970   4.362   6.095   2.312
10691SOL     OW32971   6.359   1.591   0.983
10691SOL    HW132972   6.283   1.636   1.031
10691SOL    HW232973   6.396   1.519   1.041
10692SOL     OW32974   5.298   6.083   4.566
10692SOL    HW132975   5.396   6.085   4.544
10692SOL    HW232976   5.273   5.991   4.598
10693SOL     OW32977   4.681   2.425   3.006
10693SOL    HW132978   4.715   2.432   3.100
10693SOL    HW232979   4.695   2.332   2.972
10694SOL     OW32980   3.424   6.098   0.464
10694SOL    HW132981   3.473   6.158   0.528
10694SOL    HW232982   3.377   6.026   0.515
10695SOL     OW32983   6.149   3.010   4.962
10695SOL    HW132984   6.074   2.947   4.981
10695SOL    HW232985   6.120   3.076   4.892
10696SOL     OW32986   6.294   0.022   1.869
10696SOL    HW132987   6.298   6.974   1.947
10696SOL    HW232988   6.363   7.010   1.802
10697SOL     OW32989   2.748   5.827   2.898
10697SOL    HW132990   2.736   5.925   2.911
10697SOL    HW232991   2.759   5.783   2.987
10698SOL     OW32992   2.885   0.942   3.539
10698SOL    HW132993   2.964   0.966   3.482
10698SOL    HW232994   2.802   0.983   3.501
10699SOL     OW32995   2.176   2.301   3.081
10699SOL    HW132996   2.229   2.291   2.997
10699SOL    HW232997   2.189   2.221   3.139
10700SOL     OW32998   6.706   1.019   2.051
10700SOL    HW132999   6.795   1.061   2.031
10700SOL    HW233000   6.657   1.005   1.965
10701SOL     OW33001   3.620   6.752   0.768
10701SOL    HW133002   3.621   6.798   0.857
10701SOL    HW233003   3.666   6.810   0.700
10702SOL     OW33004   5.179   3.587   0.776
10702SOL    HW133005   5.154   3.516   0.843
10702SOL    HW233006   5.132   3.569   0.690
10703SOL     OW33007   3.692   3.196   4.354
10703SOL    HW133008   3.671   3.100   4.338
10703SOL    HW233009   3.787   3.205   4.383
10704SOL     OW33010   5.769   6.268   2.450
10704SOL    HW133011   5.672   6.262   2.475
10704SOL    HW233012   5.789   6.361   2.418
10705SOL     OW33013   1.782   3.349   6.205
10705SOL    HW133014   1.769   3.286   6.282
10705SOL    HW233015   1.875   3.386   6.208
10706SOL     OW33016   3.489   2.059   1.332
10706SOL    HW133017   3.444   2.125   1.392
10706SOL    HW233018   3.541   2.107   1.262
10707SOL     OW33019   6.478   0.115   6.250
10707SOL    HW133020   6.561   0.099   6.304
10707SOL    HW233021   6.455   0.212   6.253
10708SOL     OW33022   4.734   1.287   1.602
10708SOL    HW133023   4.724   1.262   1.506
10708SOL    HW233024   4.799   1.363   1.610
10709SOL     OW33025   0.943   6.791   5.729
10709SOL    HW133026   0.923   6.755   5.638
10709SOL    HW233027   0.858   6.808   5.778
10710SOL     OW33028   6.320   5.550   3.802
10710SOL    HW133029   6.229   5.583   3.827
10710SOL    HW233030   6.316   5.452   3.785
10711SOL     OW33031   2.601   5.610   4.666
10711SOL    HW133032   2.553   5.535   4.622
10711SOL    HW233033   2.684   5.576   4.710
10712SOL     OW33034   4.264   1.236   5.583
10712SOL    HW133035   4.210   1.263   5.504
10712SOL    HW233036   4.208   1.182   5.646
10713SOL     OW33037   1.918   6.009   1.119
10713SOL    HW133038   1.843   6.067   1.087
10713SOL    HW233039   1.925   5.927   1.061
10714SOL     OW33040   6.512   5.467   6.042
10714SOL    HW133041   6.570   5.400   5.996
10714SOL    HW233042   6.482   5.536   5.975
10715SOL     OW33043   5.950   1.035   3.414
10715SOL    HW133044   5.953   1.128   3.451
10715SOL    HW233045   5.905   0.974   3.480
10716SOL     OW33046   6.503   0.930   2.586
10716SOL    HW133047   6.475   1.003   2.524
10716SOL    HW233048   6.475   0.841   2.549
10717SOL     OW33049   6.652   6.291   2.560
10717SOL    HW133050   6.750   6.278   2.575
10717SOL    HW233051   6.639   6.364   2.493
10718SOL     OW33052   1.085   3.843   5.609
10718SOL    HW133053   1.053   3.923   5.659
10718SOL    HW233054   1.085   3.764   5.671
10719SOL     OW33055   3.859   0.041   2.504
10719SOL    HW133056   3.780   0.065   2.560
10719SOL    HW233057   3.843   0.069   2.410
10720SOL     OW33058   0.426   2.845   6.612
10720SOL    HW133059   0.436   2.893   6.700
10720SOL    HW233060   0.420   2.746   6.629
10721SOL     OW33061   4.948   2.250   4.680
10721SOL    HW133062   5.003   2.230   4.599
10721SOL    HW233063   4.852   2.263   4.652
10722SOL     OW33064   0.104   4.543   0.710
10722SOL    HW133065   0.155   4.567   0.793
10722SOL    HW233066   0.031   4.610   0.695
10723SOL     OW33067   5.916   4.902   0.506
10723SOL    HW133068   5.962   4.976   0.554
10723SOL    HW233069   5.844   4.864   0.564
10724SOL     OW33070   3.415   0.167   5.567
10724SOL    HW133071   3.438   0.070   5.579
10724SOL    HW233072   3.348   0.194   5.636
10725SOL     OW33073   6.686   0.123   5.270
10725SOL    HW133074   6.649   0.208   5.306
10725SOL    HW233075   6.712   0.136   5.174
10726SOL     OW33076   5.789   1.250   4.189
10726SOL    HW133077   5.880   1.219   4.217
10726SOL    HW233078   5.723   1.227   4.259
10727SOL     OW33079   2.976   6.696   6.878
10727SOL    HW133080   2.900   6.750   6.915
10727SOL    HW233081   3.062   6.731   6.914
10728SOL     OW33082   5.594   5.721   3.931
10728SOL    HW133083   5.566   5.657   3.859
10728SOL    HW233084   5.527   5.718   4.005
10729SOL     OW33085   5.653   3.045   4.269
10729SOL    HW133086   5.574   3.021   4.325
10729SOL    HW233087   5.734   3.054   4.327
10730SOL     OW33088   1.284   5.385   3.390
10730SOL    HW133089   1.345   5.373   3.312
10730SOL    HW233090   1.216   5.455   3.368
10731SOL     OW33091   4.875   5.755   6.649
10731SOL    HW133092   4.779   5.773   6.629
10731SOL    HW233093   4.889   5.656   6.660
10732SOL     OW33094   6.077   5.845   2.864
10732SOL    HW133095   6.159   5.787   2.866
10732SOL    HW233096   6.093   5.927   2.919
10733SOL     OW33097   0.426   1.740   5.779
10733SOL    HW133098   0.370   1.780   5.852
10733SOL    HW233099   0.399   1.779   5.691
10734SOL     OW33100   1.299   0.434   5.119
10734SOL    HW133101   1.364   0.363   5.093
10734SOL    HW233102   1.209   0.394   5.135
10735SOL     OW33103   0.164   0.017   1.719
10735SOL    HW133104   0.137   0.055   1.630
10735SOL    HW233105   0.202   6.940   1.706
10736SOL     OW33106   5.130   5.931   3.505
10736SOL    HW133107   5.111   5.991   3.428
10736SOL    HW233108   5.092   5.840   3.488
10737SOL     OW33109   6.507   0.975   1.805
10737SOL    HW133110   6.446   0.954   1.729
10737SOL    HW233111   6.480   0.923   1.885
10738SOL     OW33112   2.755   7.013   1.290
10738SOL    HW133113   2.807   6.937   1.250
10738SOL    HW233114   2.736   0.067   1.220
10739SOL     OW33115   5.539   3.339   4.219
10739SOL    HW133116   5.534   3.258   4.161
10739SOL    HW233117   5.542   3.312   4.315
10740SOL     OW33118   3.223   0.182   6.084
10740SOL    HW133119   3.316   0.209   6.059
10740SOL    HW233120   3.158   0.221   6.019
10741SOL     OW33121   1.485   2.173   3.714
10741SOL    HW133122   1.392   2.190   3.745
10741SOL    HW233123   1.486   2.164   3.614
10742SOL     OW33124   6.369   6.473   1.999
10742SOL    HW133125   6.281   6.462   1.953
10742SOL    HW233126   6.433   6.521   1.939
10743SOL     OW33127   3.175   1.821   5.705
10743SOL    HW133128   3.257   1.869   5.735
10743SOL    HW233129   3.097   1.884   5.705
10744SOL     OW33130   2.965   1.464   0.802
10744SOL    HW133131   2.892   1.478   0.735
10744SOL    HW233132   2.937   1.504   0.890
10745SOL     OW33133   2.116   4.362   1.327
10745SOL    HW133134   2.122   4.359   1.426
10745SOL    HW233135   2.030   4.405   1.299
10746SOL     OW33136   2.379   5.726   6.373
10746SOL    HW133137   2.377   5.669   6.292
10746SOL    HW233138   2.292   5.718   6.422
10747SOL     OW33139   6.803   1.233   4.529
10747SOL    HW133140   6.874   1.303   4.532
10747SOL    HW233141   6.754   1.239   4.442
10748SOL     OW33142   3.474   6.652   2.055
10748SOL    HW133143   3.481   6.752   2.043
10748SOL    HW233144   3.560   6.617   2.091
10749SOL     OW33145   6.175   4.521   1.478
10749SOL    HW133146   6.154   4.580   1.556
10749SOL    HW233147   6.184   4.577   1.396
10750SOL     OW33148   3.990   2.140   4.481
10750SOL    HW133149   4.073   2.175   4.438
10750SOL    HW233150   3.997   2.148   4.581
10751SOL     OW33151   6.801   5.815   4.103
10751SOL    HW133152   6.829   5.902   4.144
10751SOL    HW233153   6.709   5.825   4.065
10752SOL     OW33154   6.787   6.284   0.626
10752SOL    HW133155   6.707   6.240   0.665
10752SOL    HW233156   6.869   6.235   0.653
10753SOL     OW33157   4.765   6.909   4.855
10753SOL    HW133158   4.811   6.997   4.861
10753SOL    HW233159   4.832   6.837   4.837
10754SOL     OW33160   1.031   5.054   1.804
10754SOL    HW133161   1.102   5.080   1.738
10754SOL    HW233162   1.064   4.978   1.860
10755SOL     OW33163   0.218   2.295   1.369
10755SOL    HW133164   0.193   2.361   1.440
10755SOL    HW233165   0.300   2.245   1.396
10756SOL     OW33166   1.442   0.760   0.209
10756SOL    HW133167   1.486   0.732   0.124
10756SOL    HW233168   1.479   0.707   0.286
10757SOL     OW33169   0.331   2.453   2.286
10757SOL    HW133170   0.429   2.469   2.276
10757SOL    HW233171   0.301   2.385   2.219
10758SOL     OW33172   0.717   0.720   6.890
10758SOL    HW133173   0.784   0.682   6.955
10758SOL    HW233174   0.655   0.782   6.938
10759SOL     OW33175   2.982   3.059   5.197
10759SOL    HW133176   3.081   3.070   5.199
10759SOL    HW233177   2.938   3.148   5.191
10760SOL     OW33178   0.806   4.804   6.877
10760SOL    HW133179   0.741   4.785   6.803
10760SOL    HW233180   0.849   4.893   6.860
10761SOL     OW33181   1.150   1.665   5.658
10761SOL    HW133182   1.148   1.761   5.688
10761SOL    HW233183   1.162   1.606   5.738
10762SOL     OW33184   2.302   6.115   6.733
10762SOL    HW133185   2.372   6.076   6.792
10762SOL    HW233186   2.304   6.070   6.643
10763SOL     OW33187   4.528   0.922   3.281
10763SOL    HW133188   4.543   0.829   3.248
10763SOL    HW233189   4.496   0.980   3.206
10764SOL     OW33190   5.166   6.490   4.836
10764SOL    HW133191   5.129   6.415   4.781
10764SOL    HW233192   5.252   6.461   4.878
10765SOL     OW33193   0.817   1.783   1.272
10765SOL    HW133194   0.856   1.828   1.352
10765SOL    HW233195   0.726   1.820   1.254
10766SOL     OW33196   2.643   5.235   6.743
10766SOL    HW133197   2.670   5.159   6.684
10766SOL    HW233198   2.621   5.314   6.686
10767SOL     OW33199   1.786   4.786   0.147
10767SOL    HW133200   1.836   4.855   0.198
10767SOL    HW233201   1.695   4.773   0.186
10768SOL     OW33202   5.118   6.202   6.699
10768SOL    HW133203   5.021   6.208   6.722
10768SOL    HW233204   5.127   6.176   6.603
10769SOL     OW33205   3.068   3.223   4.623
10769SOL    HW133206   3.100   3.132   4.650
10769SOL    HW233207   3.052   3.225   4.525
10770SOL     OW33208   5.685   0.391   3.348
10770SOL    HW133209   5.762   0.426   3.294
10770SOL    HW233210   5.697   0.417   3.444
10771SOL     OW33211   5.025   5.979   5.770
10771SOL    HW133212   5.120   5.967   5.740
10771SOL    HW233213   4.983   6.052   5.716
10772SOL     OW33214   5.773   5.169   1.965
10772SOL    HW133215   5.765   5.073   1.993
10772SOL    HW233216   5.800   5.224   2.044
10773SOL     OW33217   0.379   3.766   1.327
10773SOL    HW133218   0.476   3.758   1.351
10773SOL    HW233219   0.352   3.690   1.269
10774SOL     OW33220   1.033   3.125   0.554
10774SOL    HW133221   0.988   3.038   0.532
10774SOL    HW233222   1.056   3.125   0.652
10775SOL     OW33223   1.975   4.177   0.721
10775SOL    HW133224   1.939   4.095   0.766
10775SOL    HW233225   2.005   4.153   0.629
10776SOL     OW33226   0.450   2.984   3.510
10776SOL    HW133227   0.428   2.997   3.413
10776SOL    HW233228   0.385   3.035   3.566
10777SOL     OW33229   1.684   0.290   0.957
10777SOL    HW133230   1.635   0.232   0.892
10777SOL    HW233231   1.678   0.386   0.927
10778SOL     OW33232   4.856   0.206   3.141
10778SOL    HW133233   4.847   0.297   3.102
10778SOL    HW233234   4.774   0.153   3.121
10779SOL     OW33235   5.674   3.261   5.493
10779SOL    HW133236   5.606   3.331   5.515
10779SOL    HW233237   5.677   3.194   5.567
10780SOL     OW33238   2.201   5.377   4.184
10780SOL    HW133239   2.199   5.376   4.085
10780SOL    HW233240   2.262   5.451   4.215
10781SOL     OW33241   5.765   2.228   4.580
10781SOL    HW133242   5.794   2.323   4.569
10781SOL    HW233243   5.823   2.169   4.524
10782SOL     OW33244   1.100   2.310   5.653
10782SOL    HW133245   1.068   2.323   5.747
10782SOL    HW233246   1.200   2.305   5.652
10783SOL     OW33247   1.275   2.889   3.745
10783SOL    HW133248   1.300   2.794   3.760
10783SOL    HW233249   1.267   2.908   3.647
10784SOL     OW33250   4.308   5.694   3.735
10784SOL    HW133251   4.256   5.660   3.656
10784SOL    HW233252   4.246   5.731   3.803
10785SOL     OW33253   1.842   5.563   1.543
10785SOL    HW133254   1.782   5.641   1.559
10785SOL    HW233255   1.937   5.593   1.539
10786SOL     OW33256   4.764   2.049   2.112
10786SOL    HW133257   4.814   1.965   2.090
10786SOL    HW233258   4.679   2.052   2.060
10787SOL     OW33259   3.676   2.090   3.578
10787SOL    HW133260   3.576   2.093   3.584
10787SOL    HW233261   3.715   2.119   3.665
10788SOL     OW33262   2.013   3.881   0.484
10788SOL    HW133263   2.082   3.952   0.468
10788SOL    HW233264   1.924   3.913   0.453
10789SOL     OW33265   6.657   1.467   2.754
10789SOL    HW133266   6.613   1.408   2.822
10789SOL    HW233267   6.661   1.419   2.666
10790SOL     OW33268   6.978   1.807   5.271
10790SOL    HW133269   6.988   1.820   5.173
10790SOL    HW233270   0.048   1.835   5.317
10791SOL     OW33271   1.958   2.068   3.446
10791SOL    HW133272   1.899   1.988   3.432
10791SOL    HW233273   2.028   2.070   3.374
10792SOL     OW33274   3.592   1.670   2.369
10792SOL    HW133275   3.665   1.625   2.420
10792SOL    HW233276   3.628   1.706   2.284
10793SOL     OW33277   3.282   1.796   4.985
10793SOL    HW133278   3.224   1.777   4.905
10793SOL    HW233279   3.361   1.734   4.984
10794SOL     OW33280   5.257   2.184   0.461
10794SOL    HW133281   5.344   2.143   0.432
10794SOL    HW233282   5.190   2.176   0.387
10795SOL     OW33283   6.949   3.519   3.094
10795SOL    HW133284   6.967   3.598   3.036
10795SOL    HW233285   6.862   3.478   3.070
10796SOL     OW33286   6.989   0.468   6.299
10796SOL    HW133287   7.006   0.419   6.384
10796SOL    HW233288   6.983   0.402   6.224
10797SOL     OW33289   4.279   4.498   0.149
10797SOL    HW133290   4.347   4.509   0.222
10797SOL    HW233291   4.198   4.452   0.185
10798SOL     OW33292   2.044   6.224   6.724
10798SOL    HW133293   1.973   6.156   6.707
10798SOL    HW233294   2.130   6.178   6.746
10799SOL     OW33295   3.061   1.279   2.769
10799SOL    HW133296   3.093   1.213   2.701
10799SOL    HW233297   2.973   1.248   2.806
10800SOL     OW33298   2.238   6.973   5.298
10800SOL    HW133299   2.235   0.047   5.347
10800SOL    HW233300   2.146   6.950   5.268
10801SOL     OW33301   2.977   6.567   6.064
10801SOL    HW133302   2.954   6.664   6.062
10801SOL    HW233303   3.041   6.549   6.139
10802SOL     OW33304   0.001   5.308   4.013
10802SOL    HW133305   0.015   5.257   3.927
10802SOL    HW233306   6.935   5.367   4.004
10803SOL     OW33307   0.225   4.727   4.018
10803SOL    HW133308   0.177   4.660   3.961
10803SOL    HW233309   0.159   4.784   4.066
10804SOL     OW33310   4.672   4.304   0.825
10804SOL    HW133311   4.634   4.237   0.889
10804SOL    HW233312   4.768   4.284   0.809
10805SOL     OW33313   3.936   6.539   0.503
10805SOL    HW133314   3.933   6.450   0.457
10805SOL    HW233315   3.852   6.554   0.554
10806SOL     OW33316   6.198   4.221   6.486
10806SOL    HW133317   6.270   4.290   6.479
10806SOL    HW233318   6.190   4.190   6.580
10807SOL     OW33319   4.346   1.625   4.473
10807SOL    HW133320   4.290   1.678   4.536
10807SOL    HW233321   4.416   1.576   4.524
10808SOL     OW33322   0.004   2.024   0.323
10808SOL    HW133323   6.935   1.986   0.281
10808SOL    HW233324   0.059   2.069   0.253
10809SOL     OW33325   2.663   1.219   2.079
10809SOL    HW133326   2.750   1.221   2.127
10809SOL    HW233327   2.626   1.126   2.081
10810SOL     OW33328   1.859   1.049   6.445
10810SOL    HW133329   1.934   0.985   6.427
10810SOL    HW233330   1.864   1.125   6.379
10811SOL     OW33331   4.782   4.752   6.615
10811SOL    HW133332   4.723   4.825   6.650
10811SOL    HW233333   4.726   4.674   6.588
10812SOL     OW33334   6.568   2.704   2.198
10812SOL    HW133335   6.535   2.612   2.176
10812SOL    HW233336   6.638   2.731   2.133
10813SOL     OW33337   3.389   5.900   2.627
10813SOL    HW133338   3.431   5.991   2.628
10813SOL    HW233339   3.450   5.836   2.581
10814SOL     OW33340   2.228   5.567   4.437
10814SOL    HW133341   2.185   5.481   4.465
10814SOL    HW233342   2.224   5.632   4.513
10815SOL     OW33343   4.441   2.093   4.315
10815SOL    HW133344   4.431   2.013   4.256
10815SOL    HW233345   4.538   2.105   4.338
10816SOL     OW33346   2.345   2.063   1.797
10816SOL    HW133347   2.247   2.059   1.779
10816SOL    HW233348   2.386   2.133   1.738
10817SOL     OW33349   4.097   0.560   1.652
10817SOL    HW133350   4.046   0.475   1.666
10817SOL    HW233351   4.160   0.548   1.576
10818SOL     OW33352   4.383   2.906   0.001
10818SOL    HW133353   4.470   2.861   6.999
10818SOL    HW233354   4.385   2.998   6.976
10819SOL     OW33355   0.787   3.665   5.375
10819SOL    HW133356   0.873   3.642   5.331
10819SOL    HW233357   0.793   3.646   5.473
10820SOL     OW33358   0.210   6.724   4.614
10820SOL    HW133359   0.195   6.803   4.673
10820SOL    HW233360   0.122   6.686   4.586
10821SOL     OW33361   0.249   0.102   0.863
10821SOL    HW133362   0.249   0.167   0.787
10821SOL    HW233363   0.337   0.106   0.910
10822SOL     OW33364   0.127   3.825   6.849
10822SOL    HW133365   0.042   3.873   6.870
10822SOL    HW233366   0.180   3.813   6.934
10823SOL     OW33367   2.007   2.165   1.181
10823SOL    HW133368   2.098   2.185   1.219
10823SOL    HW233369   2.018   2.126   1.089
10824SOL     OW33370   5.134   0.703   3.682
10824SOL    HW133371   5.146   0.681   3.779
10824SOL    HW233372   5.081   0.631   3.638
10825SOL     OW33373   3.733   0.789   2.112
10825SOL    HW133374   3.785   0.828   2.036
10825SOL    HW233375   3.669   0.721   2.077
10826SOL     OW33376   6.657   2.999   1.368
10826SOL    HW133377   6.601   2.926   1.330
10826SOL    HW233378   6.669   2.986   1.466
10827SOL     OW33379   1.207   3.294   4.318
10827SOL    HW133380   1.167   3.275   4.229
10827SOL    HW233381   1.284   3.232   4.334
10828SOL     OW33382   1.587   5.758   0.411
10828SOL    HW133383   1.670   5.766   0.355
10828SOL    HW233384   1.608   5.705   0.493
10829SOL     OW33385   2.171   3.335   1.692
10829SOL    HW133386   2.233   3.403   1.731
10829SOL    HW233387   2.154   3.263   1.758
10830SOL     OW33388   4.954   1.085   3.471
10830SOL    HW133389   4.878   1.150   3.472
10830SOL    HW233390   5.016   1.107   3.395
10831SOL     OW33391   5.545   3.254   2.272
10831SOL    HW133392   5.471   3.220   2.330
10831SOL    HW233393   5.549   3.354   2.278
10832SOL     OW33394   0.467   3.784   3.100
10832SOL    HW133395   0.434   3.790   3.194
10832SOL    HW233396   0.532   3.709   3.092
10833SOL     OW33397   2.826   6.932   3.718
10833SOL    HW133398   2.839   6.936   3.618
10833SOL    HW233399   2.741   6.884   3.738
10834SOL     OW33400   6.807   0.935   5.442
10834SOL    HW133401   6.906   0.936   5.431
10834SOL    HW233402   6.780   0.859   5.501
10835SOL     OW33403   0.204   2.983   1.639
10835SOL    HW133404   0.215   2.932   1.553
10835SOL    HW233405   0.229   3.079   1.624
10836SOL     OW33406   2.105   2.803   0.766
10836SOL    HW133407   2.126   2.900   0.767
10836SOL    HW233408   2.010   2.789   0.738
10837SOL     OW33409   0.937   5.781   0.887
10837SOL    HW133410   0.923   5.682   0.894
10837SOL    HW233411   0.891   5.826   0.964
10838SOL     OW33412   6.084   6.772   0.444
10838SOL    HW133413   6.078   6.808   0.351
10838SOL    HW233414   6.050   6.678   0.445
10839SOL     OW33415   1.656   1.449   0.035
10839SOL    HW133416   1.564   1.489   0.025
10839SOL    HW233417   1.694   1.430   6.959
10840SOL     OW33418   2.974   6.347   2.379
10840SOL    HW133419   2.965   6.253   2.413
10840SOL    HW233420   3.034   6.348   2.300
10841SOL     OW33421   5.457   2.856   0.049
10841SOL    HW133422   5.497   2.781   0.101
10841SOL    HW233423   5.417   2.821   6.978
10842SOL     OW33424   6.067   2.889   1.484
10842SOL    HW133425   6.090   2.887   1.387
10842SOL    HW233426   6.064   2.796   1.520
10843SOL     OW33427   0.066   1.314   1.494
10843SOL    HW133428   6.993   1.292   1.538
10843SOL    HW233429   0.116   1.380   1.551
10844SOL     OW33430   3.937   0.357   3.369
10844SOL    HW133431   3.896   0.323   3.454
10844SOL    HW233432   3.921   0.291   3.296
10845SOL     OW33433   2.206   3.096   0.738
10845SOL    HW133434   2.299   3.132   0.743
10845SOL    HW233435   2.167   3.119   0.649
10846SOL     OW33436   3.545   1.682   1.460
10846SOL    HW133437   3.554   1.739   1.542
10846SOL    HW233438   3.476   1.722   1.399
10847SOL     OW33439   4.659   2.857   5.581
10847SOL    HW133440   4.709   2.815   5.505
10847SOL    HW233441   4.646   2.954   5.562
10848SOL     OW33442   1.427   0.882   6.520
10848SOL    HW133443   1.381   0.951   6.465
10848SOL    HW233444   1.444   0.918   6.611
10849SOL     OW33445   1.981   5.266   3.696
10849SOL    HW133446   2.012   5.299   3.607
10849SOL    HW233447   1.891   5.305   3.717
10850SOL     OW33448   5.742   0.667   1.883
10850SOL    HW133449   5.660   0.611   1.872
10850SOL    HW233450   5.737   0.746   1.823
10851SOL     OW33451   4.772   1.979   6.406
10851SOL    HW133452   4.693   2.041   6.407
10851SOL    HW233453   4.834   2.005   6.332
10852SOL     OW33454   6.785   0.681   5.847
10852SOL    HW133455   6.805   0.583   5.854
10852SOL    HW233456   6.857   0.732   5.894
10853SOL     OW33457   2.422   0.537   4.456
10853SOL    HW133458   2.376   0.612   4.408
10853SOL    HW233459   2.466   0.477   4.389
10854SOL     OW33460   0.034   6.891   0.739
10854SOL    HW133461   0.041   6.793   0.755
10854SOL    HW233462   0.073   6.914   0.650
10855SOL     OW33463   0.211   5.202   1.288
10855SOL    HW133464   0.112   5.212   1.288
10855SOL    HW233465   0.243   5.184   1.195
10856SOL     OW33466   5.656   0.474   6.605
10856SOL    HW133467   5.582   0.530   6.570
10856SOL    HW233468   5.625   0.426   6.687
10857SOL     OW33469   6.747   0.446   4.938
10857SOL    HW133470   6.732   0.538   4.902
10857SOL    HW233471   6.771   0.451   5.035
10858SOL     OW33472   2.024   2.061   0.419
10858SOL    HW133473   2.083   2.046   0.339
10858SOL    HW233474   1.941   2.109   0.391
10859SOL     OW33475   1.413   5.594   1.989
10859SOL    HW133476   1.477   5.642   2.048
10859SOL    HW233477   1.377   5.658   1.920
10860SOL     OW33478   6.144   2.959   1.859
10860SOL    HW133479   6.113   2.865   1.867
10860SOL    HW233480   6.234   2.961   1.816
10861SOL     OW33481   1.891   3.637   1.421
10861SOL    HW133482   1.827   3.700   1.464
10861SOL    HW233483   1.860   3.617   1.328
10862SOL     OW33484   3.577   4.388   5.226
10862SOL    HW133485   3.489   4.372   5.271
10862SOL    HW233486   3.597   4.311   5.165
10863SOL     OW33487   2.071   0.611   3.325
10863SOL    HW133488   2.025   0.689   3.284
10863SOL    HW233489   2.024   0.526   3.300
10864SOL     OW33490   3.053   4.260   1.785
10864SOL    HW133491   2.974   4.314   1.812
10864SOL    HW233492   3.132   4.320   1.770
10865SOL     OW33493   4.026   1.692   2.636
10865SOL    HW133494   3.994   1.764   2.697
10865SOL    HW233495   4.126   1.697   2.628
10866SOL     OW33496   0.959   3.438   3.916
10866SOL    HW133497   1.051   3.459   3.882
10866SOL    HW233498   0.930   3.509   3.980
10867SOL     OW33499   4.557   2.751   6.896
10867SOL    HW133500   4.484   2.685   6.916
10867SOL    HW233501   4.614   2.716   6.822
10868SOL     OW33502   1.556   6.739   4.860
10868SOL    HW133503   1.460   6.712   4.867
10868SOL    HW233504   1.606   6.705   4.940
10869NA      NA33505   6.733   1.133   6.207
10870NA      NA33506   4.203   4.656   5.283
10871NA      NA33507   1.467   4.839   2.850
10872NA      NA33508   5.577   3.705   2.895
10873NA      NA33509   3.669   2.806   5.612
10874NA      NA33510   2.306   4.921   0.062
10875NA      NA33511   1.902   5.547   6.556
10876NA      NA33512   4.235   4.892   1.630
10877NA      NA33513   5.149   4.584   0.539
10878NA      NA33514   3.564   1.560   0.451
10879NA      NA33515   5.492   6.717   1.803
10880NA      NA33516   2.319   6.610   5.139
10881NA      NA33517   4.406   4.946   2.577
10882NA      NA33518   4.367   3.960   6.775
   7.01395   7.01395   7.01395
